Generated by trjconv : CNT in water t= 295.00000
33518
    1C        C    1   2.845   2.769   4.744
    1C        C    2   2.899   2.720   4.864
    1C        C    3   2.851   2.777   4.983
    1C        C    4   2.851   2.776   4.261
    1C        C    5   2.908   2.735   4.383
    1C        C    6   2.850   2.781   4.504
    1C        C    7   3.013   2.638   4.625
    1C        C    8   2.900   2.723   4.622
    1C        C    9   3.078   2.601   4.745
    1C        C   10   3.013   2.637   4.865
    1C        C   11   3.181   2.491   4.973
    1C        C   12   3.065   2.569   4.976
    1C        C   13   2.845   2.768   3.770
    1C        C   14   2.902   2.725   3.892
    1C        C   15   2.850   2.773   4.015
    1C        C   16   3.018   2.647   4.139
    1C        C   17   2.903   2.729   4.138
    1C        C   18   3.082   2.616   4.261
    1C        C   19   3.023   2.654   4.383
    1C        C   20   3.210   2.552   4.504
    1C        C   21   3.080   2.607   4.504
    1C        C   22   3.279   2.532   4.626
    1C        C   23   3.208   2.544   4.747
    1C        C   24   3.416   2.477   4.866
    1C        C   25   3.274   2.499   4.865
    1C        C   26   3.492   2.473   4.983
    1C        C   27   2.846   2.770   3.283
    1C        C   28   2.902   2.727   3.405
    1C        C   29   2.849   2.773   3.528
    1C        C   30   3.018   2.643   3.650
    1C        C   31   2.899   2.719   3.649
    1C        C   32   3.080   2.608   3.772
    1C        C   33   3.021   2.649   3.894
    1C        C   34   3.207   2.550   4.017
    1C        C   35   3.080   2.612   4.017
    1C        C   36   3.278   2.533   4.138
    1C        C   37   3.211   2.557   4.260
    1C        C   38   3.415   2.502   4.384
    1C        C   39   3.276   2.529   4.381
    1C        C   40   3.488   2.501   4.505
    1C        C   41   3.418   2.505   4.627
    1C        C   42   3.633   2.476   4.743
    1C        C   43   3.491   2.477   4.745
    1C        C   44   3.706   2.476   4.864
    1C        C   45   3.631   2.468   4.981
    1C        C   46   2.837   2.751   2.794
    1C        C   47   2.894   2.713   2.918
    1C        C   48   2.840   2.762   3.039
    1C        C   49   3.015   2.642   3.160
    1C        C   50   2.898   2.722   3.161
    1C        C   51   3.076   2.609   3.283
    1C        C   52   3.019   2.647   3.406
    1C        C   53   3.208   2.551   3.527
    1C        C   54   3.079   2.608   3.527
    1C        C   55   3.277   2.531   3.649
    1C        C   56   3.208   2.548   3.771
    1C        C   57   3.413   2.504   3.894
    1C        C   58   3.274   2.527   3.895
    1C        C   59   3.486   2.502   4.015
    1C        C   60   3.418   2.510   4.138
    1C        C   61   3.628   2.503   4.258
    1C        C   62   3.486   2.502   4.262
    1C        C   63   3.701   2.508   4.378
    1C        C   64   3.629   2.504   4.500
    1C        C   65   3.836   2.538   4.622
    1C        C   66   3.700   2.501   4.622
    1C        C   67   3.905   2.556   4.744
    1C        C   68   3.841   2.518   4.864
    1C        C   69   4.049   2.586   4.977
    1C        C   70   3.919   2.534   4.979
    1C        C   71   2.823   2.734   2.306
    1C        C   72   2.886   2.697   2.426
    1C        C   73   2.831   2.740   2.549
    1C        C   74   3.009   2.629   2.670
    1C        C   75   2.888   2.701   2.672
    1C        C   76   3.071   2.597   2.794
    1C        C   77   3.012   2.636   2.916
    1C        C   78   3.207   2.553   3.036
    1C        C   79   3.077   2.608   3.038
    1C        C   80   3.275   2.533   3.159
    1C        C   81   3.205   2.550   3.281
    1C        C   82   3.410   2.498   3.405
    1C        C   83   3.271   2.525   3.403
    1C        C   84   3.483   2.487   3.525
    1C        C   85   3.414   2.499   3.649
    1C        C   86   3.625   2.500   3.769
    1C        C   87   3.483   2.494   3.772
    1C        C   88   3.693   2.512   3.892
    1C        C   89   3.627   2.499   4.016
    1C        C   90   3.836   2.544   4.134
    1C        C   91   3.700   2.505   4.137
    1C        C   92   3.901   2.576   4.255
    1C        C   93   3.837   2.545   4.378
    1C        C   94   4.028   2.633   4.497
    1C        C   95   3.902   2.569   4.500
    1C        C   96   4.086   2.672   4.620
    1C        C   97   4.030   2.624   4.740
    1C        C   98   4.187   2.767   4.863
    1C        C   99   4.097   2.656   4.861
    1C        C  100   4.216   2.840   4.979
    1C        C  101   2.824   2.731   2.071
    1C        C  102   2.991   2.589   2.190
    1C        C  103   2.876   2.675   2.188
    1C        C  104   3.062   2.568   2.311
    1C        C  105   3.003   2.617   2.430
    1C        C  106   3.199   2.530   2.552
    1C        C  107   3.068   2.583   2.550
    1C        C  108   3.268   2.513   2.674
    1C        C  109   3.199   2.537   2.795
    1C        C  110   3.412   2.502   2.915
    1C        C  111   3.272   2.520   2.915
    1C        C  112   3.481   2.498   3.038
    1C        C  113   3.413   2.506   3.161
    1C        C  114   3.623   2.490   3.277
    1C        C  115   3.482   2.489   3.284
    1C        C  116   3.692   2.501   3.400
    1C        C  117   3.624   2.490   3.523
    1C        C  118   3.830   2.542   3.645
    1C        C  119   3.693   2.507   3.645
    1C        C  120   3.897   2.571   3.767
    1C        C  121   3.828   2.553   3.889
    1C        C  122   4.023   2.639   4.011
    1C        C  123   3.899   2.572   4.010
    1C        C  124   4.089   2.672   4.131
    1C        C  125   4.028   2.636   4.253
    1C        C  126   4.198   2.762   4.377
    1C        C  127   4.088   2.674   4.376
    1C        C  128   4.245   2.816   4.499
    1C        C  129   4.187   2.770   4.619
    1C        C  130   4.320   2.937   4.737
    1C        C  131   4.233   2.825   4.741
    1C        C  132   4.354   3.001   4.858
    1C        C  133   4.288   2.959   4.974
    1C        C  134   3.169   2.462   2.079
    1C        C  135   3.036   2.507   2.082
    1C        C  136   3.257   2.477   2.187
    1C        C  137   3.194   2.516   2.307
    1C        C  138   3.403   2.480   2.426
    1C        C  139   3.264   2.505   2.429
    1C        C  140   3.476   2.480   2.547
    1C        C  141   3.407   2.489   2.670
    1C        C  142   3.621   2.496   2.788
    1C        C  143   3.480   2.492   2.791
    1C        C  144   3.690   2.508   2.910
    1C        C  145   3.623   2.498   3.034
    1C        C  146   3.830   2.541   3.153
    1C        C  147   3.695   2.498   3.155
    1C        C  148   3.897   2.565   3.275
    1C        C  149   3.827   2.543   3.397
    1C        C  150   4.017   2.630   3.520
    1C        C  151   3.891   2.568   3.520
    1C        C  152   4.077   2.671   3.641
    1C        C  153   4.022   2.636   3.767
    1C        C  154   4.191   2.767   3.886
    1C        C  155   4.083   2.676   3.888
    1C        C  156   4.245   2.811   4.009
    1C        C  157   4.199   2.761   4.133
    1C        C  158   4.336   2.923   4.253
    1C        C  159   4.251   2.810   4.255
    1C        C  160   4.373   2.986   4.374
    1C        C  161   4.328   2.931   4.496
    1C        C  162   4.434   3.117   4.614
    1C        C  163   4.369   2.991   4.617
    1C        C  164   4.461   3.185   4.735
    1C        C  165   4.427   3.122   4.857
    1C        C  166   4.509   3.318   4.972
    1C        C  167   4.473   3.184   4.974
    1C        C  168   3.476   2.435   2.072
    1C        C  169   3.397   2.456   2.186
    1C        C  170   3.615   2.467   2.308
    1C        C  171   3.473   2.461   2.305
    1C        C  172   3.690   2.485   2.426
    1C        C  173   3.617   2.486   2.547
    1C        C  174   3.827   2.545   2.666
    1C        C  175   3.691   2.504   2.665
    1C        C  176   3.894   2.566   2.788
    1C        C  177   3.828   2.540   2.911
    1C        C  178   4.022   2.629   3.031
    1C        C  179   3.898   2.561   3.031
    1C        C  180   4.080   2.669   3.153
    1C        C  181   4.023   2.629   3.276
    1C        C  182   4.190   2.756   3.396
    1C        C  183   4.082   2.665   3.399
    1C        C  184   4.241   2.805   3.518
    1C        C  185   4.191   2.755   3.640
    1C        C  186   4.331   2.917   3.763
    1C        C  187   4.241   2.809   3.761
    1C        C  188   4.374   2.975   3.884
    1C        C  189   4.335   2.920   4.008
    1C        C  190   4.439   3.106   4.127
    1C        C  191   4.374   2.981   4.130
    1C        C  192   4.468   3.172   4.248
    1C        C  193   4.440   3.110   4.371
    1C        C  194   4.501   3.317   4.490
    1C        C  195   4.460   3.182   4.491
    1C        C  196   4.519   3.387   4.611
    1C        C  197   4.506   3.320   4.734
    1C        C  198   4.550   3.534   4.852
    1C        C  199   4.526   3.393   4.854
    1C        C  200   4.589   3.617   4.962
    1C        C  201   3.615   2.418   2.075
    1C        C  202   3.826   2.508   2.182
    1C        C  203   3.692   2.458   2.189
    1C        C  204   3.896   2.539   2.302
    1C        C  205   3.827   2.519   2.423
    1C        C  206   4.021   2.616   2.541
    1C        C  207   3.895   2.552   2.542
    1C        C  208   4.081   2.658   2.662
    1C        C  209   4.022   2.626   2.786
    1C        C  210   4.197   2.747   2.905
    1C        C  211   4.083   2.663   2.908
    1C        C  212   4.248   2.796   3.028
    1C        C  213   4.197   2.749   3.150
    1C        C  214   4.337   2.907   3.273
    1C        C  215   4.244   2.800   3.273
    1C        C  216   4.370   2.970   3.395
    1C        C  217   4.332   2.913   3.519
    1C        C  218   4.433   3.101   3.636
    1C        C  219   4.372   2.974   3.640
    1C        C  220   4.468   3.164   3.758
    1C        C  221   4.442   3.099   3.881
    1C        C  222   4.507   3.303   4.003
    1C        C  223   4.469   3.167   4.003
    1C        C  224   4.516   3.378   4.122
    1C        C  225   4.507   3.308   4.245
    1C        C  226   4.519   3.523   4.367
    1C        C  227   4.516   3.382   4.365
    1C        C  228   4.528   3.599   4.486
    1C        C  229   4.530   3.528   4.608
    1C        C  230   4.502   3.741   4.725
    1C        C  231   4.533   3.602   4.728
    1C        C  232   4.492   3.813   4.846
    1C        C  233   4.549   3.751   4.958
    1C        C  234   4.018   2.601   2.065
    1C        C  235   3.893   2.541   2.063
    1C        C  236   4.088   2.641   2.179
    1C        C  237   4.021   2.608   2.299
    1C        C  238   4.203   2.727   2.419
    1C        C  239   4.081   2.654   2.419
    1C        C  240   4.258   2.776   2.540
    1C        C  241   4.196   2.739   2.661
    1C        C  242   4.334   2.903   2.783
    1C        C  243   4.252   2.788   2.782
    1C        C  244   4.375   2.962   2.905
    1C        C  245   4.335   2.908   3.029
    1C        C  246   4.436   3.092   3.148
    1C        C  247   4.381   2.962   3.151
    1C        C  248   4.453   3.161   3.270
    1C        C  249   4.428   3.099   3.395
    1C        C  250   4.500   3.303   3.512
    1C        C  251   4.458   3.168   3.514
    1C        C  252   4.515   3.370   3.635
    1C        C  253   4.501   3.301   3.758
    1C        C  254   4.523   3.513   3.877
    1C        C  255   4.513   3.372   3.880
    1C        C  256   4.515   3.586   3.998
    1C        C  257   4.519   3.519   4.122
    1C        C  258   4.488   3.731   4.238
    1C        C  259   4.512   3.591   4.243
    1C        C  260   4.473   3.801   4.360
    1C        C  261   4.499   3.737   4.483
    1C        C  262   4.427   3.940   4.601
    1C        C  263   4.479   3.809   4.603
    1C        C  264   4.400   4.006   4.723
    1C        C  265   4.432   3.941   4.844
    1C        C  266   4.319   4.128   4.955
    1C        C  267   4.392   4.010   4.960
    1C        C  268   4.265   2.774   2.059
    1C        C  269   4.199   2.728   2.174
    1C        C  270   4.340   2.887   2.297
    1C        C  271   4.253   2.775   2.296
    1C        C  272   4.383   2.949   2.416
    1C        C  273   4.344   2.888   2.538
    1C        C  274   4.443   3.078   2.659
    1C        C  275   4.374   2.955   2.658
    1C        C  276   4.475   3.148   2.778
    1C        C  277   4.447   3.084   2.901
    1C        C  278   4.500   3.289   3.023
    1C        C  279   4.466   3.152   3.023
    1C        C  280   4.510   3.362   3.144
    1C        C  281   4.496   3.295   3.268
    1C        C  282   4.520   3.510   3.388
    1C        C  283   4.510   3.369   3.387
    1C        C  284   4.514   3.581   3.510
    1C        C  285   4.517   3.511   3.633
    1C        C  286   4.488   3.722   3.749
    1C        C  287   4.515   3.584   3.754
    1C        C  288   4.476   3.794   3.870
    1C        C  289   4.495   3.726   3.992
    1C        C  290   4.427   3.928   4.114
    1C        C  291   4.473   3.795   4.113
    1C        C  292   4.396   3.995   4.235
    1C        C  293   4.430   3.935   4.359
    1C        C  294   4.324   4.124   4.478
    1C        C  295   4.396   4.002   4.478
    1C        C  296   4.285   4.184   4.600
    1C        C  297   4.325   4.127   4.722
    1C        C  298   4.196   4.312   4.836
    1C        C  299   4.278   4.194   4.839
    1C        C  300   4.168   4.402   4.943
    1C        C  301   4.359   2.876   2.062
    1C        C  302   4.466   3.068   2.172
    1C        C  303   4.393   2.945   2.178
    1C        C  304   4.477   3.140   2.295
    1C        C  305   4.449   3.074   2.416
    1C        C  306   4.509   3.280   2.534
    1C        C  307   4.473   3.143   2.537
    1C        C  308   4.519   3.352   2.655
    1C        C  309   4.503   3.286   2.779
    1C        C  310   4.525   3.497   2.897
    1C        C  311   4.518   3.356   2.901
    1C        C  312   4.521   3.571   3.017
    1C        C  313   4.516   3.503   3.141
    1C        C  314   4.487   3.714   3.258
    1C        C  315   4.512   3.575   3.263
    1C        C  316   4.476   3.785   3.380
    1C        C  317   4.494   3.721   3.504
    1C        C  318   4.428   3.923   3.624
    1C        C  319   4.473   3.790   3.626
    1C        C  320   4.394   3.986   3.746
    1C        C  321   4.421   3.924   3.870
    1C        C  322   4.314   4.107   3.988
    1C        C  323   4.392   3.989   3.992
    1C        C  324   4.274   4.165   4.111
    1C        C  325   4.319   4.114   4.234
    1C        C  326   4.181   4.277   4.352
    1C        C  327   4.280   4.176   4.355
    1C        C  328   4.134   4.335   4.472
    1C        C  329   4.192   4.291   4.593
    1C        C  330   4.022   4.430   4.711
    1C        C  331   4.139   4.348   4.711
    1C        C  332   3.967   4.485   4.829
    1C        C  333   4.051   4.479   4.940
    1C        C  334   4.548   3.265   2.061
    1C        C  335   4.529   3.126   2.057
    1C        C  336   4.539   3.348   2.173
    1C        C  337   4.508   3.279   2.292
    1C        C  338   4.522   3.492   2.410
    1C        C  339   4.522   3.351   2.412
    1C        C  340   4.515   3.565   2.531
    1C        C  341   4.516   3.493   2.652
    1C        C  342   4.493   3.704   2.770
    1C        C  343   4.520   3.566   2.773
    1C        C  344   4.478   3.778   2.890
    1C        C  345   4.496   3.710   3.013
    1C        C  346   4.419   3.910   3.137
    1C        C  347   4.469   3.778   3.134
    1C        C  348   4.384   3.976   3.256
    1C        C  349   4.422   3.915   3.379
    1C        C  350   4.317   4.100   3.502
    1C        C  351   4.396   3.983   3.500
    1C        C  352   4.272   4.158   3.623
    1C        C  353   4.320   4.107   3.746
    1C        C  354   4.177   4.268   3.865
    1C        C  355   4.275   4.166   3.866
    1C        C  356   4.120   4.313   3.986
    1C        C  357   4.176   4.267   4.108
    1C        C  358   4.012   4.403   4.229
    1C        C  359   4.127   4.320   4.229
    1C        C  360   3.951   4.446   4.349
    1C        C  361   4.016   4.412   4.470
    1C        C  362   3.828   4.517   4.590
    1C        C  363   3.957   4.460   4.590
    1C        C  364   3.758   4.547   4.710
    1C        C  365   3.836   4.539   4.827
    1C        C  366   3.626   4.589   4.946
    1C        C  367   3.764   4.569   4.943
    1C        C  368   4.504   3.561   2.049
    1C        C  369   4.521   3.488   2.167
    1C        C  370   4.502   3.703   2.285
    1C        C  371   4.514   3.562   2.287
    1C        C  372   4.484   3.774   2.406
    1C        C  373   4.499   3.705   2.528
    1C        C  374   4.424   3.905   2.648
    1C        C  375   4.479   3.775   2.649
    1C        C  376   4.391   3.971   2.769
    1C        C  377   4.422   3.907   2.891
    1C        C  378   4.316   4.092   3.008
    1C        C  379   4.389   3.971   3.013
    1C        C  380   4.267   4.147   3.129
    1C        C  381   4.306   4.094   3.254
    1C        C  382   4.172   4.251   3.377
    1C        C  383   4.268   4.148   3.379
    1C        C  384   4.119   4.304   3.497
    1C        C  385   4.172   4.257   3.619
    1C        C  386   4.005   4.388   3.739
    1C        C  387   4.121   4.308   3.741
    1C        C  388   3.942   4.423   3.860
    1C        C  389   4.002   4.391   3.984
    1C        C  390   3.815   4.485   4.105
    1C        C  391   3.944   4.426   4.108
    1C        C  392   3.747   4.511   4.226
    1C        C  393   3.821   4.500   4.345
    1C        C  394   3.620   4.559   4.471
    1C        C  395   3.758   4.531   4.468
    1C        C  396   3.545   4.562   4.591
    1C        C  397   3.618   4.566   4.711
    1C        C  398   3.406   4.553   4.838
    1C        C  399   3.546   4.570   4.833
    1C        C  400   3.338   4.517   4.954
    1C        C  401   4.503   3.700   2.051
    1C        C  402   4.446   3.913   2.162
    1C        C  403   4.487   3.777   2.166
    1C        C  404   4.408   3.972   2.284
    1C        C  405   4.434   3.906   2.407
    1C        C  406   4.318   4.088   2.521
    1C        C  407   4.397   3.972   2.526
    1C        C  408   4.272   4.143   2.643
    1C        C  409   4.313   4.088   2.766
    1C        C  410   4.172   4.250   2.886
    1C        C  411   4.268   4.146   2.887
    1C        C  412   4.119   4.296   3.009
    1C        C  413   4.168   4.247   3.132
    1C        C  414   4.002   4.377   3.250
    1C        C  415   4.119   4.298   3.254
    1C        C  416   3.939   4.414   3.371
    1C        C  417   3.998   4.377   3.494
    1C        C  418   3.810   4.472   3.618
    1C        C  419   3.941   4.418   3.616
    1C        C  420   3.743   4.499   3.740
    1C        C  421   3.813   4.480   3.861
    1C        C  422   3.611   4.542   3.983
    1C        C  423   3.748   4.509   3.983
    1C        C  424   3.541   4.544   4.106
    1C        C  425   3.608   4.533   4.230
    1C        C  426   3.401   4.552   4.355
    1C        C  427   3.542   4.557   4.353
    1C        C  428   3.331   4.546   4.477
    1C        C  429   3.404   4.551   4.598
    1C        C  430   3.192   4.517   4.721
    1C        C  431   3.331   4.545   4.718
    1C        C  432   3.122   4.496   4.843
    1C        C  433   3.201   4.493   4.959
    1C        C  434   4.376   4.116   2.049
    1C        C  435   4.441   3.991   2.047
    1C        C  436   4.301   4.162   2.162
    1C        C  437   4.333   4.093   2.282
    1C        C  438   4.180   4.249   2.398
    1C        C  439   4.282   4.152   2.400
    1C        C  440   4.123   4.293   2.519
    1C        C  441   4.175   4.245   2.642
    1C        C  442   4.003   4.374   2.761
    1C        C  443   4.119   4.293   2.763
    1C        C  444   3.942   4.409   2.883
    1C        C  445   4.001   4.373   3.006
    1C        C  446   3.809   4.467   3.128
    1C        C  447   3.936   4.406   3.128
    1C        C  448   3.743   4.486   3.252
    1C        C  449   3.808   4.466   3.376
    1C        C  450   3.605   4.530   3.496
    1C        C  451   3.741   4.494   3.497
    1C        C  452   3.535   4.544   3.618
    1C        C  453   3.606   4.533   3.740
    1C        C  454   3.396   4.546   3.865
    1C        C  455   3.537   4.545   3.863
    1C        C  456   3.329   4.535   3.989
    1C        C  457   3.400   4.543   4.111
    1C        C  458   3.192   4.504   4.238
    1C        C  459   3.329   4.539   4.234
    1C        C  460   3.125   4.481   4.360
    1C        C  461   3.193   4.516   4.479
    1C        C  462   2.996   4.434   4.602
    1C        C  463   3.123   4.496   4.600
    1C        C  464   2.932   4.393   4.721
    1C        C  465   2.991   4.439   4.842
    1C        C  466   2.797   4.335   4.958
    1C        C  467   2.907   4.421   4.958
    1C        C  468   4.118   4.283   2.041
    1C        C  469   4.184   4.243   2.158
    1C        C  470   4.006   4.374   2.276
    1C        C  471   4.126   4.298   2.276
    1C        C  472   3.941   4.401   2.398
    1C        C  473   4.005   4.370   2.520
    1C        C  474   3.811   4.465   2.641
    1C        C  475   3.942   4.412   2.639
    1C        C  476   3.744   4.490   2.763
    1C        C  477   3.813   4.468   2.884
    1C        C  478   3.606   4.522   3.007
    1C        C  479   3.743   4.488   3.005
    1C        C  480   3.535   4.533   3.129
    1C        C  481   3.606   4.521   3.250
    1C        C  482   3.395   4.532   3.376
    1C        C  483   3.536   4.533   3.372
    1C        C  484   3.324   4.532   3.498
    1C        C  485   3.394   4.544   3.621
    1C        C  486   3.189   4.498   3.744
    1C        C  487   3.324   4.540   3.743
    1C        C  488   3.127   4.474   3.869
    1C        C  489   3.193   4.499   3.991
    1C        C  490   3.005   4.408   4.115
    1C        C  491   3.128   4.477   4.115
    1C        C  492   2.941   4.377   4.237
    1C        C  493   2.998   4.420   4.359
    1C        C  494   2.829   4.296   4.478
    1C        C  495   2.937   4.387   4.482
    1C        C  496   2.775   4.250   4.601
    1C        C  497   2.818   4.309   4.722
    1C        C  498   2.660   4.165   4.838
    1C        C  499   2.749   4.275   4.840
    1C        C  500   2.589   4.118   4.949
    1C        C  501   4.002   4.361   2.041
    1C        C  502   3.811   4.467   2.152
    1C        C  503   3.941   4.411   2.156
    1C        C  504   3.741   4.479   2.274
    1C        C  505   3.809   4.451   2.395
    1C        C  506   3.606   4.507   2.517
    1C        C  507   3.744   4.480   2.518
    1C        C  508   3.533   4.518   2.637
    1C        C  509   3.605   4.514   2.759
    1C        C  510   3.397   4.520   2.885
    1C        C  511   3.538   4.523   2.883
    1C        C  512   3.325   4.520   3.006
    1C        C  513   3.394   4.533   3.129
    1C        C  514   3.190   4.489   3.254
    1C        C  515   3.326   4.527   3.253
    1C        C  516   3.125   4.464   3.376
    1C        C  517   3.188   4.496   3.499
    1C        C  518   2.998   4.408   3.623
    1C        C  519   3.122   4.476   3.622
    1C        C  520   2.939   4.372   3.747
    1C        C  521   3.002   4.408   3.868
    1C        C  522   2.841   4.275   3.994
    1C        C  523   2.949   4.365   3.992
    1C        C  524   2.786   4.228   4.115
    1C        C  525   2.835   4.284   4.235
    1C        C  526   2.697   4.126   4.361
    1C        C  527   2.788   4.234   4.358
    1C        C  528   2.647   4.075   4.483
    1C        C  529   2.687   4.140   4.603
    1C        C  530   2.571   3.961   4.727
    1C        C  531   2.630   4.090   4.722
    1C        C  532   2.535   3.900   4.850
    1C        C  533   2.519   3.996   4.954
    1C        C  534   3.615   4.557   2.039
    1C        C  535   3.749   4.518   2.038
    1C        C  536   3.531   4.536   2.153
    1C        C  537   3.602   4.510   2.273
    1C        C  538   3.392   4.507   2.397
    1C        C  539   3.533   4.513   2.396
    1C        C  540   3.320   4.506   2.519
    1C        C  541   3.392   4.517   2.640
    1C        C  542   3.187   4.480   2.764
    1C        C  543   3.325   4.509   2.764
    1C        C  544   3.121   4.459   2.887
    1C        C  545   3.189   4.483   3.009
    1C        C  546   2.995   4.401   3.132
    1C        C  547   3.123   4.463   3.132
    1C        C  548   2.942   4.362   3.256
    1C        C  549   3.002   4.394   3.380
    1C        C  550   2.830   4.274   3.504
    1C        C  551   2.941   4.361   3.503
    1C        C  552   2.778   4.230   3.628
    1C        C  553   2.834   4.278   3.749
    1C        C  554   2.694   4.121   3.873
    1C        C  555   2.785   4.229   3.872
    1C        C  556   2.654   4.063   3.995
    1C        C  557   2.691   4.123   4.117
    1C        C  558   2.593   3.938   4.245
    1C        C  559   2.657   4.065   4.241
    1C        C  560   2.557   3.878   4.368
    1C        C  561   2.581   3.950   4.487
    1C        C  562   2.524   3.747   4.612
    1C        C  563   2.551   3.886   4.609
    1C        C  564   2.510   3.680   4.736
    1C        C  565   2.511   3.758   4.854
    1C        C  566   2.522   3.546   4.975
    1C        C  567   2.514   3.685   4.973
    1C        C  568   3.326   4.468   2.038
    1C        C  569   3.391   4.511   2.154
    1C        C  570   3.180   4.474   2.276
    1C        C  571   3.318   4.507   2.277
    1C        C  572   3.112   4.453   2.399
    1C        C  573   3.182   4.475   2.520
    1C        C  574   2.988   4.400   2.644
    1C        C  575   3.116   4.458   2.643
    1C        C  576   2.931   4.360   2.767
    1C        C  577   2.995   4.395   2.888
    1C        C  578   2.825   4.272   3.012
    1C        C  579   2.933   4.364   3.011
    1C        C  580   2.783   4.219   3.136
    1C        C  581   2.834   4.271   3.257
    1C        C  582   2.702   4.107   3.383
    1C        C  583   2.786   4.221   3.381
    1C        C  584   2.659   4.054   3.507
    1C        C  585   2.690   4.120   3.629
    1C        C  586   2.591   3.934   3.753
    1C        C  587   2.655   4.060   3.752
    1C        C  588   2.570   3.869   3.877
    1C        C  589   2.600   3.932   3.999
    1C        C  590   2.535   3.734   4.125
    1C        C  591   2.573   3.870   4.123
    1C        C  592   2.521   3.668   4.249
    1C        C  593   2.528   3.740   4.371
    1C        C  594   2.505   3.530   4.496
    1C        C  595   2.516   3.671   4.493
    1C        C  596   2.513   3.462   4.619
    1C        C  597   2.511   3.538   4.739
    1C        C  598   2.525   3.325   4.864
    1C        C  599   2.523   3.466   4.860
    1C        C  600   2.518   3.244   4.979
    1C        C  601   3.191   4.439   2.036
    1C        C  602   2.982   4.388   2.154
    1C        C  603   3.116   4.438   2.154
    1C        C  604   2.923   4.358   2.279
    1C        C  605   2.987   4.389   2.401
    1C        C  606   2.816   4.267   2.527
    1C        C  607   2.926   4.356   2.525
    1C        C  608   2.766   4.218   2.650
    1C        C  609   2.819   4.273   2.769
    1C        C  610   2.684   4.111   2.895
    1C        C  611   2.771   4.222   2.891
    1C        C  612   2.652   4.050   3.018
    1C        C  613   2.696   4.108   3.140
    1C        C  614   2.593   3.923   3.263
    1C        C  615   2.659   4.048   3.262
    1C        C  616   2.569   3.863   3.389
    1C        C  617   2.593   3.930   3.511
    1C        C  618   2.524   3.729   3.634
    1C        C  619   2.565   3.864   3.633
    1C        C  620   2.513   3.662   3.758
    1C        C  621   2.529   3.734   3.879
    1C        C  622   2.508   3.525   4.007
    1C        C  623   2.519   3.666   4.002
    1C        C  624   2.507   3.456   4.130
    1C        C  625   2.502   3.528   4.252
    1C        C  626   2.531   3.319   4.379
    1C        C  627   2.506   3.458   4.374
    1C        C  628   2.547   3.249   4.501
    1C        C  629   2.534   3.323   4.621
    1C        C  630   2.587   3.118   4.744
    1C        C  631   2.546   3.254   4.744
    1C        C  632   2.616   3.049   4.865
    1C        C  633   2.560   3.111   4.981
    1C        C  634   2.779   4.300   2.051
    1C        C  635   2.891   4.383   2.043
    1C        C  636   2.745   4.229   2.167
    1C        C  637   2.807   4.276   2.285
    1C        C  638   2.672   4.112   2.410
    1C        C  639   2.756   4.225   2.406
    1C        C  640   2.635   4.050   2.531
    1C        C  641   2.682   4.105   2.653
    1C        C  642   2.578   3.922   2.777
    1C        C  643   2.643   4.047   2.776
    1C        C  644   2.558   3.856   2.900
    1C        C  645   2.590   3.923   3.020
    1C        C  646   2.523   3.722   3.147
    1C        C  647   2.562   3.858   3.142
    1C        C  648   2.510   3.654   3.270
    1C        C  649   2.529   3.727   3.389
    1C        C  650   2.506   3.518   3.517
    1C        C  651   2.511   3.659   3.512
    1C        C  652   2.511   3.449   3.640
    1C        C  653   2.510   3.521   3.762
    1C        C  654   2.531   3.314   3.889
    1C        C  655   2.506   3.453   3.886
    1C        C  656   2.547   3.247   4.012
    1C        C  657   2.529   3.316   4.134
    1C        C  658   2.605   3.120   4.257
    1C        C  659   2.552   3.251   4.257
    1C        C  660   2.634   3.056   4.380
    1C        C  661   2.600   3.119   4.502
    1C        C  662   2.708   2.938   4.627
    1C        C  663   2.630   3.056   4.625
    1C        C  664   2.751   2.876   4.746
    1C        C  665   2.701   2.933   4.866
    1C        C  666   2.753   2.876   4.983
    1C        C  667   2.678   4.025   2.055
    1C        C  668   2.676   4.106   2.169
    1C        C  669   2.583   3.914   2.290
    1C        C  670   2.634   4.047   2.290
    1C        C  671   2.559   3.848   2.412
    1C        C  672   2.579   3.920   2.532
    1C        C  673   2.515   3.719   2.656
    1C        C  674   2.552   3.855   2.655
    1C        C  675   2.504   3.650   2.779
    1C        C  676   2.522   3.719   2.901
    1C        C  677   2.499   3.512   3.027
    1C        C  678   2.510   3.653   3.025
    1C        C  679   2.497   3.444   3.151
    1C        C  680   2.503   3.513   3.274
    1C        C  681   2.522   3.303   3.401
    1C        C  682   2.503   3.443   3.397
    1C        C  683   2.541   3.234   3.523
    1C        C  684   2.533   3.309   3.642
    1C        C  685   2.600   3.112   3.770
    1C        C  686   2.550   3.244   3.767
    1C        C  687   2.642   3.056   3.893
    1C        C  688   2.606   3.119   4.014
    1C        C  689   2.717   2.937   4.137
    1C        C  690   2.638   3.055   4.136
    1C        C  691   2.754   2.879   4.260
    1C        C  692   2.708   2.936   4.381
    1C        C  693   2.753   2.884   4.504
    1C        C  694   2.630   3.894   2.056
    1C        C  695   2.519   3.708   2.171
    1C        C  696   2.573   3.838   2.171
    1C        C  697   2.505   3.639   2.294
    1C        C  698   2.521   3.712   2.414
    1C        C  699   2.491   3.504   2.540
    1C        C  700   2.499   3.645   2.537
    1C        C  701   2.499   3.436   2.663
    1C        C  702   2.498   3.509   2.784
    1C        C  703   2.528   3.299   2.908
    1C        C  704   2.505   3.439   2.907
    1C        C  705   2.537   3.233   3.033
    1C        C  706   2.519   3.304   3.154
    1C        C  707   2.589   3.108   3.279
    1C        C  708   2.528   3.236   3.277
    1C        C  709   2.620   3.042   3.400
    1C        C  710   2.584   3.100   3.524
    1C        C  711   2.708   2.930   3.647
    1C        C  712   2.625   3.045   3.648
    1C        C  713   2.753   2.876   3.769
    1C        C  714   2.716   2.936   3.891
    1C        C  715   2.758   2.880   4.014
    1C        C  716   2.444   3.501   2.060
    1C        C  717   2.490   3.633   2.056
    1C        C  718   2.463   3.423   2.179
    1C        C  719   2.480   3.499   2.297
    1C        C  720   2.512   3.291   2.425
    1C        C  721   2.487   3.430   2.420
    1C        C  722   2.537   3.222   2.546
    1C        C  723   2.527   3.297   2.665
    1C        C  724   2.594   3.097   2.791
    1C        C  725   2.541   3.227   2.787
    1C        C  726   2.623   3.035   2.915
    1C        C  727   2.588   3.101   3.035
    1C        C  728   2.701   2.925   3.158
    1C        C  729   2.621   3.041   3.158
    1C        C  730   2.752   2.876   3.280
    1C        C  731   2.709   2.932   3.403
    1C        C  732   2.752   2.874   3.524
    1C        C  733   2.483   3.196   2.074
    1C        C  734   2.485   3.281   2.185
    1C        C  735   2.586   3.089   2.305
    1C        C  736   2.527   3.218   2.305
    1C        C  737   2.617   3.023   2.426
    1C        C  738   2.588   3.090   2.547
    1C        C  739   2.699   2.911   2.669
    1C        C  740   2.622   3.029   2.670
    1C        C  741   2.741   2.855   2.792
    1C        C  742   2.701   2.918   2.912
    1C        C  743   2.744   2.866   3.037
    1C        C  744   2.547   3.072   2.072
    1C        C  745   2.692   2.905   2.186
    1C        C  746   2.619   3.026   2.183
    1C        C  747   2.736   2.847   2.307
    1C        C  748   2.690   2.902   2.429
    1C        C  749   2.742   2.850   2.549
    1C        C  750   2.738   2.841   2.071
    1C        C  751   3.658   2.321   1.972
    1C        O  752   3.658   2.197   1.996
    1C        O  753   3.625   2.353   1.840
    1C        C  754   4.604   3.053   1.952
    1C        O  755   4.585   3.070   1.828
    1C        O  756   4.737   3.032   1.988
    1C        C  757   4.419   4.214   1.947
    1C        O  758   4.522   4.282   1.976
    1C        O  759   4.427   4.180   1.812
    1C        C  760   3.574   4.663   1.944
    1C        O  761   3.631   4.772   1.970
    1C        O  762   3.583   4.640   1.806
    1C        C  763   2.895   4.450   1.911
    1C        O  764   2.936   4.400   1.803
    1C        O  765   2.856   4.583   1.885
    1C        C  766   2.340   3.468   1.960
    1C        O  767   2.367   3.460   1.837
    1C        O  768   2.205   3.500   1.979
    1C        C  769   4.702   3.575   5.048
    1C        O  770   4.688   3.574   5.174
    1C        O  771   4.837   3.605   5.028
    1C        C  772   4.273   4.446   5.038
    1C        O  773   4.281   4.408   5.158
    1C        O  774   4.348   4.562   5.018
    1C        C  775   4.138   2.553   5.091
    1C        O  776   4.254   2.506   5.075
    1C        O  777   4.120   2.628   5.207
    1C        C  778   2.901   4.541   5.045
    1C        O  779   2.824   4.636   5.014
    1C        O  780   2.877   4.518   5.181
    1C        C  781   2.474   3.023   5.063
    1C        O  782   2.380   2.948   5.025
    1C        O  783   2.508   2.980   5.191
    1C        C  784   2.379   4.019   4.996
    1C        O  785   2.289   4.057   4.916
    1C        O  786   2.343   4.076   5.119
    1C        C  787   2.939   2.437   1.995
    1C        O  788   2.955   2.463   1.872
    1C        O  789   2.914   2.302   2.013
    1C        C  790   3.194   2.377   5.067
    1C        O  791   3.154   2.264   5.027
    1C        O  792   3.232   2.393   5.200
    1C        H  793   4.319   2.998   5.069
    1C        H  794   4.236   2.783   5.067
    1C        H  795   4.522   3.117   5.041
    1C        H  796   4.532   3.360   5.068
    1C        H  797   4.576   3.815   5.040
    1C        H  798   4.455   4.000   5.046
    1C        H  799   4.283   4.165   5.049
    1C        H  800   4.011   4.496   5.038
    1C        H  801   3.813   4.589   5.036
    1C        H  802   3.591   4.661   5.017
    1C        H  803   3.388   4.495   5.046
    1C        H  804   3.165   4.442   5.046
    1C        H  805   3.871   2.532   5.075
    1C        H  806   3.681   2.440   5.072
    1C        H  807   3.003   2.561   5.063
    1C        H  808   3.443   2.478   5.078
    1C        H  809   2.856   2.723   5.075
    1C        H  810   2.750   2.928   5.077
    1C        H  811   2.451   3.275   5.057
    1C        H  812   2.497   3.504   5.070
    1C        H  813   2.536   3.729   5.068
    1C        H  814   2.613   4.156   5.046
    1C        H  815   2.741   4.328   5.048
    1C        H  816   2.691   2.867   1.978
    1C        H  817   2.808   2.662   1.991
    1C        H  818   3.204   2.403   1.997
    1C        H  819   3.433   2.467   1.979
    1C        H  820   3.856   2.510   1.968
    1C        H  821   4.087   2.570   1.988
    1C        H  822   4.280   2.704   1.979
    1C        H  823   4.361   2.930   1.969
    1C        H  824   4.579   3.306   1.967
    1C        H  825   4.540   3.519   1.957
    1C        H  826   4.500   3.750   1.956
    1C        H  827   3.811   4.551   1.957
    1C        H  828   3.977   4.406   1.947
    1C        H  829   4.165   4.265   1.947
    1C        H  830   4.521   3.985   1.976
    1C        H  831   2.609   3.844   1.963
    1C        H  832   2.674   4.072   1.958
    1C        H  833   2.716   4.281   1.966
    1C        H  834   3.379   4.430   1.953
    1C        H  835   3.160   4.392   1.945
    1C        H  836   2.501   3.006   2.000
    1C        H  837   2.441   3.226   1.980
    1C        H  838   2.504   3.676   1.959
    2V3OU   H29  839   2.811   3.545   2.986
    2V3OU   C27  840   2.789   3.505   3.088
    2V3OU   H27  841   2.731   3.571   3.158
    2V3OU   H28  842   2.736   3.410   3.061
    2V3OU   O11  843   2.908   3.469   3.159
    2V3OU   C15  844   2.924   3.394   3.274
    2V3OU   C13  845   3.048   3.375   3.338
    2V3OU   C14  846   3.078   3.275   3.431
    2V3OU   C16  847   2.976   3.194   3.479
    2V3OU    H6  848   2.996   3.100   3.533
    2V3OU   C12  849   3.213   3.230   3.473
    2V3OU    O2  850   3.237   3.133   3.548
    2V3OU   C10  851   3.326   3.313   3.426
    2V3OU    C8  852   3.457   3.273   3.449
    2V3OU   O10  853   3.481   3.156   3.514
    2V3OU   H26  854   3.395   3.118   3.537
    2V3OU    C6  855   3.566   3.346   3.393
    2V3OU    C5  856   3.536   3.463   3.324
    2V3OU    C4  857   3.704   3.289   3.390
    2V3OU    H4  858   3.725   3.217   3.475
    2V3OU    H5  859   3.714   3.227   3.296
    2V3OU    C2  860   3.814   3.395   3.394
    2V3OU    O6  861   3.801   3.471   3.514
    2V3OU   H21  862   3.754   3.551   3.484
    2V3OU    C3  863   3.778   3.496   3.284
    2V3OU    H2  864   3.862   3.569   3.281
    2V3OU    H3  865   3.775   3.438   3.188
    2V3OU   C25  866   3.949   3.326   3.374
    2V3OU    O7  867   3.999   3.303   3.264
    2V3OU   C26  868   4.025   3.283   3.498
    2V3OU   H22  869   4.062   3.376   3.550
    2V3OU   H23  870   4.114   3.221   3.469
    2V3OU    O8  871   3.957   3.203   3.592
    2V3OU   H24  872   3.923   3.262   3.661
    2V3OU    C1  873   3.642   3.564   3.291
    2V3OU    H1  874   3.618   3.619   3.195
    2V3OU    O3  875   3.656   3.653   3.402
    2V3OU   C19  876   3.614   3.790   3.400
    2V3OU    H9  877   3.517   3.807   3.345
    2V3OU    O4  878   3.709   3.849   3.314
    2V3OU   C20  879   3.843   3.871   3.360
    2V3OU   H10  880   3.885   3.768   3.378
    2V3OU   C24  881   3.609   3.853   3.539
    2V3OU   H16  882   3.542   3.794   3.606
    2V3OU   H17  883   3.566   3.955   3.518
    2V3OU   C23  884   3.750   3.875   3.596
    2V3OU   H15  885   3.791   3.772   3.626
    2V3OU    N1  886   3.737   3.962   3.711
    2V3OU   H19  887   3.808   3.933   3.775
    2V3OU   H20  888   3.654   3.925   3.752
    2V3OU   C21  889   3.848   3.942   3.496
    2V3OU   H11  890   3.946   3.926   3.549
    2V3OU    O5  891   3.826   4.083   3.492
    2V3OU   H18  892   3.787   4.089   3.580
    2V3OU   C22  893   3.909   3.949   3.248
    2V3OU   H12  894   3.859   4.046   3.228
    2V3OU   H13  895   3.908   3.886   3.155
    2V3OU   H14  896   4.017   3.962   3.274
    2V3OU   C11  897   3.156   3.474   3.335
    2V3OU    O1  898   3.140   3.588   3.286
    2V3OU    C9  899   3.295   3.422   3.342
    2V3OU    C7  900   3.401   3.499   3.295
    2V3OU    O9  901   3.385   3.605   3.209
    2V3OU   H25  902   3.289   3.618   3.198
    2V3OU   C17  903   2.825   3.316   3.337
    2V3OU    H7  904   2.726   3.348   3.305
    2V3OU   C18  905   2.846   3.220   3.435
    2V3OU    H8  906   2.783   3.179   3.515
    3SOL     OW  907   2.529   5.445   6.191
    3SOL    HW1  908   2.487   5.448   6.282
    3SOL    HW2  909   2.527   5.351   6.157
    4SOL     OW  910   6.777   0.595   1.081
    4SOL    HW1  911   6.868   0.555   1.088
    4SOL    HW2  912   6.731   0.588   1.170
    5SOL     OW  913   4.424   2.284   1.873
    5SOL    HW1  914   4.387   2.296   1.965
    5SOL    HW2  915   4.359   2.319   1.806
    6SOL     OW  916   4.338   1.417   1.925
    6SOL    HW1  917   4.314   1.355   1.999
    6SOL    HW2  918   4.280   1.498   1.928
    7SOL     OW  919   0.610   3.837   3.486
    7SOL    HW1  920   0.576   3.754   3.442
    7SOL    HW2  921   0.588   3.835   3.584
    8SOL     OW  922   2.797   1.955   5.358
    8SOL    HW1  923   2.882   1.938   5.408
    8SOL    HW2  924   2.739   2.017   5.409
    9SOL     OW  925   5.489   1.883   5.853
    9SOL    HW1  926   5.438   1.823   5.793
    9SOL    HW2  927   5.584   1.852   5.859
   10SOL     OW  928   2.881   5.351   5.104
   10SOL    HW1  929   2.835   5.353   5.193
   10SOL    HW2  930   2.858   5.434   5.053
   11SOL     OW  931   2.440   1.323   5.908
   11SOL    HW1  932   2.501   1.338   5.830
   11SOL    HW2  933   2.400   1.410   5.936
   12SOL     OW  934   3.141   4.927   3.763
   12SOL    HW1  935   3.176   5.001   3.821
   12SOL    HW2  936   3.093   4.860   3.819
   13SOL     OW  937   3.139   6.731   4.245
   13SOL    HW1  938   3.225   6.753   4.199
   13SOL    HW2  939   3.158   6.707   4.341
   14SOL     OW  940   3.959   5.085   6.463
   14SOL    HW1  941   4.028   5.088   6.390
   14SOL    HW2  942   3.883   5.146   6.440
   15SOL     OW  943   0.464   6.711   1.027
   15SOL    HW1  944   0.429   6.709   0.933
   15SOL    HW2  945   0.388   6.723   1.090
   16SOL     OW  946   5.472   3.250   6.142
   16SOL    HW1  947   5.380   3.288   6.131
   16SOL    HW2  948   5.538   3.308   6.094
   17SOL     OW  949   5.847   6.792   6.712
   17SOL    HW1  950   5.818   6.697   6.728
   17SOL    HW2  951   5.947   6.796   6.711
   18SOL     OW  952   3.357   0.694   5.650
   18SOL    HW1  953   3.337   0.789   5.674
   18SOL    HW2  954   3.456   0.679   5.657
   19SOL     OW  955   0.568   2.337   2.700
   19SOL    HW1  956   0.567   2.248   2.654
   19SOL    HW2  957   0.614   2.328   2.789
   20SOL     OW  958   5.087   1.229   5.174
   20SOL    HW1  959   5.086   1.212   5.076
   20SOL    HW2  960   5.044   1.152   5.222
   21SOL     OW  961   3.049   1.529   1.972
   21SOL    HW1  962   3.101   1.504   1.890
   21SOL    HW2  963   2.969   1.470   1.980
   22SOL     OW  964   0.914   6.051   0.225
   22SOL    HW1  965   0.817   6.045   0.248
   22SOL    HW2  966   0.945   6.146   0.238
   23SOL     OW  967   4.259   5.453   2.085
   23SOL    HW1  968   4.317   5.493   2.155
   23SOL    HW2  969   4.300   5.469   1.995
   24SOL     OW  970   2.981   0.638   2.459
   24SOL    HW1  971   3.003   0.564   2.395
   24SOL    HW2  972   2.983   0.603   2.553
   25SOL     OW  973   2.453   0.229   3.561
   25SOL    HW1  974   2.475   0.264   3.470
   25SOL    HW2  975   2.388   0.291   3.606
   26SOL     OW  976   6.369   1.737   0.331
   26SOL    HW1  977   6.373   1.668   0.404
   26SOL    HW2  978   6.420   1.818   0.358
   27SOL     OW  979   1.713   0.945   2.503
   27SOL    HW1  980   1.617   0.941   2.477
   27SOL    HW2  981   1.756   1.026   2.463
   28SOL     OW  982   1.504   6.946   4.950
   28SOL    HW1  983   1.462   6.879   4.889
   28SOL    HW2  984   1.440   6.970   5.023
   29SOL     OW  985   6.178   1.697   1.474
   29SOL    HW1  986   6.139   1.620   1.423
   29SOL    HW2  987   6.119   1.719   1.551
   30SOL     OW  988   4.320   0.710   3.741
   30SOL    HW1  989   4.349   0.669   3.827
   30SOL    HW2  990   4.399   0.752   3.695
   31SOL     OW  991   0.530   2.270   6.604
   31SOL    HW1  992   0.524   2.370   6.612
   31SOL    HW2  993   0.515   2.243   6.509
   32SOL     OW  994   0.817   2.008   2.803
   32SOL    HW1  995   0.862   2.020   2.715
   32SOL    HW2  996   0.762   1.925   2.802
   33SOL     OW  997   1.187   4.483   5.099
   33SOL    HW1  998   1.202   4.554   5.169
   33SOL    HW2  999   1.273   4.438   5.078
   34SOL     OW 1000   2.793   6.745   4.890
   34SOL    HW1 1001   2.842   6.822   4.930
   34SOL    HW2 1002   2.716   6.719   4.949
   35SOL     OW 1003   4.835   2.541   5.675
   35SOL    HW1 1004   4.870   2.499   5.759
   35SOL    HW2 1005   4.812   2.637   5.694
   36SOL     OW 1006   4.641   1.939   4.545
   36SOL    HW1 1007   4.594   1.913   4.629
   36SOL    HW2 1008   4.709   2.010   4.565
   37SOL     OW 1009   1.713   1.237   5.833
   37SOL    HW1 1010   1.683   1.282   5.749
   37SOL    HW2 1011   1.675   1.284   5.912
   38SOL     OW 1012   1.262   5.215   2.338
   38SOL    HW1 1013   1.336   5.253   2.284
   38SOL    HW2 1014   1.296   5.188   2.428
   39SOL     OW 1015   6.340   4.421   6.460
   39SOL    HW1 1016   6.345   4.344   6.397
   39SOL    HW2 1017   6.257   4.415   6.515
   40SOL     OW 1018   4.112   1.996   0.905
   40SOL    HW1 1019   4.099   1.913   0.851
   40SOL    HW2 1020   4.156   1.973   0.992
   41SOL     OW 1021   6.501   3.240   3.382
   41SOL    HW1 1022   6.477   3.277   3.292
   41SOL    HW2 1023   6.542   3.312   3.437
   42SOL     OW 1024   3.141   5.954   4.565
   42SOL    HW1 1025   3.127   6.034   4.623
   42SOL    HW2 1026   3.193   5.885   4.615
   43SOL     OW 1027   4.507   0.352   5.378
   43SOL    HW1 1028   4.573   0.281   5.401
   43SOL    HW2 1029   4.480   0.400   5.461
   44SOL     OW 1030   5.075   2.102   5.419
   44SOL    HW1 1031   5.058   2.195   5.387
   44SOL    HW2 1032   5.159   2.099   5.472
   45SOL     OW 1033   4.409   4.647   1.138
   45SOL    HW1 1034   4.365   4.580   1.078
   45SOL    HW2 1035   4.354   4.730   1.142
   46SOL     OW 1036   0.781   2.806   3.971
   46SOL    HW1 1037   0.718   2.777   4.044
   46SOL    HW2 1038   0.733   2.804   3.884
   47SOL     OW 1039   4.247   3.969   0.728
   47SOL    HW1 1040   4.317   4.022   0.777
   47SOL    HW2 1041   4.245   3.876   0.764
   48SOL     OW 1042   6.424   2.819   6.629
   48SOL    HW1 1043   6.350   2.752   6.623
   48SOL    HW2 1044   6.414   2.873   6.713
   49SOL     OW 1045   6.078   2.949   2.133
   49SOL    HW1 1046   6.147   3.013   2.167
   49SOL    HW2 1047   6.045   2.980   2.044
   50SOL     OW 1048   5.908   1.191   5.213
   50SOL    HW1 1049   5.951   1.281   5.211
   50SOL    HW2 1050   5.809   1.201   5.208
   51SOL     OW 1051   2.368   6.703   2.872
   51SOL    HW1 1052   2.352   6.681   2.776
   51SOL    HW2 1053   2.466   6.714   2.888
   52SOL     OW 1054   5.735   3.016   2.031
   52SOL    HW1 1055   5.664   3.083   2.053
   52SOL    HW2 1056   5.813   3.062   1.989
   53SOL     OW 1057   4.905   1.554   4.003
   53SOL    HW1 1058   4.948   1.590   3.921
   53SOL    HW2 1059   4.972   1.551   4.077
   54SOL     OW 1060   5.787   6.039   1.167
   54SOL    HW1 1061   5.715   6.104   1.145
   54SOL    HW2 1062   5.865   6.053   1.106
   55SOL     OW 1063   2.378   2.701   4.891
   55SOL    HW1 1064   2.287   2.665   4.910
   55SOL    HW2 1065   2.387   2.792   4.931
   56SOL     OW 1066   0.430   0.871   1.478
   56SOL    HW1 1067   0.438   0.926   1.395
   56SOL    HW2 1068   0.416   0.775   1.453
   57SOL     OW 1069   4.687   0.956   1.707
   57SOL    HW1 1070   4.779   0.989   1.726
   57SOL    HW2 1071   4.691   0.874   1.651
   58SOL     OW 1072   0.895   6.548   5.804
   58SOL    HW1 1073   0.929   6.548   5.710
   58SOL    HW2 1074   0.972   6.558   5.867
   59SOL     OW 1075   6.858   3.490   6.653
   59SOL    HW1 1076   6.787   3.541   6.604
   59SOL    HW2 1077   6.864   3.397   6.616
   60SOL     OW 1078   5.459   2.890   4.171
   60SOL    HW1 1079   5.535   2.921   4.114
   60SOL    HW2 1080   5.373   2.913   4.127
   61SOL     OW 1081   6.790   1.626   4.438
   61SOL    HW1 1082   6.794   1.583   4.528
   61SOL    HW2 1083   6.829   1.564   4.370
   62SOL     OW 1084   1.981   1.183   1.910
   62SOL    HW1 1085   2.053   1.222   1.968
   62SOL    HW2 1086   1.961   1.246   1.834
   63SOL     OW 1087   3.862   0.292   4.591
   63SOL    HW1 1088   3.790   0.255   4.650
   63SOL    HW2 1089   3.847   0.260   4.497
   64SOL     OW 1090   6.963   2.522   6.357
   64SOL    HW1 1091   6.895   2.559   6.294
   64SOL    HW2 1092   7.013   2.448   6.313
   65SOL     OW 1093   0.288   4.755   6.382
   65SOL    HW1 1094   0.375   4.757   6.431
   65SOL    HW2 1095   0.273   4.664   6.344
   66SOL     OW 1096   2.927   0.898   3.257
   66SOL    HW1 1097   2.998   0.918   3.190
   66SOL    HW2 1098   2.910   0.979   3.314
   67SOL     OW 1099   6.807   2.839   5.794
   67SOL    HW1 1100   6.718   2.850   5.838
   67SOL    HW2 1101   6.841   2.746   5.809
   68SOL     OW 1102   0.207   1.510   0.098
   68SOL    HW1 1103   0.208   1.579   0.169
   68SOL    HW2 1104   0.290   1.516   0.043
   69SOL     OW 1105   1.452   2.558   5.331
   69SOL    HW1 1106   1.486   2.549   5.238
   69SOL    HW2 1107   1.460   2.653   5.361
   70SOL     OW 1108   5.210   4.901   4.110
   70SOL    HW1 1109   5.174   4.855   4.191
   70SOL    HW2 1110   5.310   4.904   4.114
   71SOL     OW 1111   4.311   2.173   3.540
   71SOL    HW1 1112   4.295   2.230   3.459
   71SOL    HW2 1113   4.399   2.199   3.581
   72SOL     OW 1114   1.075   1.324   3.306
   72SOL    HW1 1115   0.979   1.349   3.311
   72SOL    HW2 1116   1.130   1.397   3.348
   73SOL     OW 1117   3.375   0.253   0.791
   73SOL    HW1 1118   3.311   0.292   0.857
   73SOL    HW2 1119   3.412   0.325   0.732
   74SOL     OW 1120   3.900   0.872   0.031
   74SOL    HW1 1121   3.900   0.962   0.073
   74SOL    HW2 1122   3.900   0.802   0.102
   75SOL     OW 1123   4.621   0.740   1.563
   75SOL    HW1 1124   4.565   0.774   1.488
   75SOL    HW2 1125   4.641   0.643   1.549
   76SOL     OW 1126   3.303   3.419   6.861
   76SOL    HW1 1127   3.368   3.449   6.791
   76SOL    HW2 1128   3.214   3.402   6.819
   77SOL     OW 1129   0.972   0.356   3.632
   77SOL    HW1 1130   0.990   0.439   3.685
   77SOL    HW2 1131   1.035   0.284   3.661
   78SOL     OW 1132   5.038   1.412   0.551
   78SOL    HW1 1133   4.970   1.459   0.495
   78SOL    HW2 1134   5.122   1.467   0.553
   79SOL     OW 1135   2.876   5.974   1.698
   79SOL    HW1 1136   2.930   6.050   1.662
   79SOL    HW2 1137   2.931   5.923   1.764
   80SOL     OW 1138   4.242   1.522   4.340
   80SOL    HW1 1139   4.145   1.510   4.322
   80SOL    HW2 1140   4.280   1.587   4.274
   81SOL     OW 1141   1.794   0.178   2.451
   81SOL    HW1 1142   1.733   0.135   2.517
   81SOL    HW2 1143   1.741   0.207   2.371
   82SOL     OW 1144   5.413   5.525   1.117
   82SOL    HW1 1145   5.496   5.515   1.062
   82SOL    HW2 1146   5.416   5.462   1.194
   83SOL     OW 1147   0.260   0.645   0.042
   83SOL    HW1 1148   0.302   0.555   0.033
   83SOL    HW2 1149   0.162   0.635   0.057
   84SOL     OW 1150   6.116   3.680   2.869
   84SOL    HW1 1151   6.122   3.751   2.799
   84SOL    HW2 1152   6.199   3.624   2.868
   85SOL     OW 1153   1.873   1.279   2.991
   85SOL    HW1 1154   1.933   1.297   3.069
   85SOL    HW2 1155   1.886   1.184   2.962
   86SOL     OW 1156   0.053   1.388   6.714
   86SOL    HW1 1157   0.082   1.321   6.645
   86SOL    HW2 1158   7.015   1.457   6.671
   87SOL     OW 1159   4.519   4.312   1.244
   87SOL    HW1 1160   4.556   4.240   1.304
   87SOL    HW2 1161   4.567   4.398   1.262
   88SOL     OW 1162   3.483   2.293   6.318
   88SOL    HW1 1163   3.503   2.197   6.339
   88SOL    HW2 1164   3.565   2.348   6.334
   89SOL     OW 1165   3.306   2.704   0.086
   89SOL    HW1 1166   3.353   2.774   0.031
   89SOL    HW2 1167   3.371   2.633   0.113
   90SOL     OW 1168   3.842   5.202   2.521
   90SOL    HW1 1169   3.933   5.242   2.531
   90SOL    HW2 1170   3.816   5.202   2.425
   91SOL     OW 1171   6.592   4.051   6.079
   91SOL    HW1 1172   6.633   3.996   6.006
   91SOL    HW2 1173   6.640   4.035   6.164
   92SOL     OW 1174   4.317   4.230   1.107
   92SOL    HW1 1175   4.342   4.168   1.033
   92SOL    HW2 1176   4.399   4.255   1.159
   93SOL     OW 1177   3.105   3.410   6.654
   93SOL    HW1 1178   3.029   3.457   6.698
   93SOL    HW2 1179   3.072   3.330   6.606
   94SOL     OW 1180   3.113   5.284   6.616
   94SOL    HW1 1181   3.074   5.303   6.706
   94SOL    HW2 1182   3.061   5.211   6.571
   95SOL     OW 1183   2.117   1.295   2.779
   95SOL    HW1 1184   2.061   1.308   2.860
   95SOL    HW2 1185   2.077   1.345   2.702
   96SOL     OW 1186   4.352   5.181   5.260
   96SOL    HW1 1187   4.268   5.235   5.249
   96SOL    HW2 1188   4.426   5.241   5.290
   97SOL     OW 1189   1.769   3.573   5.718
   97SOL    HW1 1190   1.835   3.572   5.642
   97SOL    HW2 1191   1.788   3.496   5.779
   98SOL     OW 1192   1.374   2.355   0.298
   98SOL    HW1 1193   1.460   2.306   0.286
   98SOL    HW2 1194   1.322   2.353   0.212
   99SOL     OW 1195   3.984   3.590   1.585
   99SOL    HW1 1196   4.049   3.633   1.523
   99SOL    HW2 1197   3.895   3.582   1.540
  100SOL     OW 1198   0.458   0.021   4.182
  100SOL    HW1 1199   0.551   7.012   4.204
  100SOL    HW2 1200   0.417   6.977   4.118
  101SOL     OW 1201   0.494   4.730   2.154
  101SOL    HW1 1202   0.566   4.766   2.214
  101SOL    HW2 1203   0.455   4.647   2.194
  102SOL     OW 1204   3.594   5.389   2.142
  102SOL    HW1 1205   3.541   5.307   2.122
  102SOL    HW2 1206   3.607   5.441   2.057
  103SOL     OW 1207   2.060   2.451   1.855
  103SOL    HW1 1208   2.084   2.508   1.934
  103SOL    HW2 1209   2.141   2.402   1.823
  104SOL     OW 1210   1.267   6.367   2.752
  104SOL    HW1 1211   1.282   6.319   2.839
  104SOL    HW2 1212   1.278   6.465   2.766
  105SOL     OW 1213   6.133   1.279   6.342
  105SOL    HW1 1214   6.096   1.268   6.434
  105SOL    HW2 1215   6.119   1.374   6.312
  106SOL     OW 1216   3.763   6.291   3.420
  106SOL    HW1 1217   3.790   6.352   3.345
  106SOL    HW2 1218   3.748   6.345   3.502
  107SOL     OW 1219   0.634   1.178   0.620
  107SOL    HW1 1220   0.558   1.149   0.561
  107SOL    HW2 1221   0.717   1.130   0.592
  108SOL     OW 1222   3.923   6.384   6.442
  108SOL    HW1 1223   3.976   6.383   6.358
  108SOL    HW2 1224   3.827   6.363   6.422
  109SOL     OW 1225   2.825   1.754   2.200
  109SOL    HW1 1226   2.921   1.729   2.216
  109SOL    HW2 1227   2.773   1.672   2.178
  110SOL     OW 1228   3.214   5.502   4.540
  110SOL    HW1 1229   3.180   5.579   4.595
  110SOL    HW2 1230   3.145   5.475   4.474
  111SOL     OW 1231   2.119   1.537   4.129
  111SOL    HW1 1232   2.024   1.558   4.107
  111SOL    HW2 1233   2.177   1.562   4.051
  112SOL     OW 1234   3.602   6.240   0.042
  112SOL    HW1 1235   3.666   6.188   7.005
  112SOL    HW2 1236   3.595   6.334   0.008
  113SOL     OW 1237   0.715   6.309   3.236
  113SOL    HW1 1238   0.692   6.248   3.160
  113SOL    HW2 1239   0.762   6.258   3.307
  114SOL     OW 1240   1.277   5.940   1.813
  114SOL    HW1 1241   1.238   5.895   1.732
  114SOL    HW2 1242   1.363   5.895   1.838
  115SOL     OW 1243   5.496   0.153   2.739
  115SOL    HW1 1244   5.573   0.092   2.755
  115SOL    HW2 1245   5.526   0.230   2.682
  116SOL     OW 1246   0.133   5.646   1.208
  116SOL    HW1 1247   0.105   5.654   1.304
  116SOL    HW2 1248   0.143   5.549   1.184
  117SOL     OW 1249   0.471   0.981   1.191
  117SOL    HW1 1250   0.399   1.032   1.144
  117SOL    HW2 1251   0.558   0.994   1.144
  118SOL     OW 1252   1.311   1.762   2.476
  118SOL    HW1 1253   1.342   1.753   2.382
  118SOL    HW2 1254   1.391   1.775   2.536
  119SOL     OW 1255   0.575   0.373   0.452
  119SOL    HW1 1256   0.564   0.373   0.353
  119SOL    HW2 1257   0.489   0.402   0.495
  120SOL     OW 1258   5.262   0.706   4.812
  120SOL    HW1 1259   5.361   0.707   4.802
  120SOL    HW2 1260   5.221   0.661   4.733
  121SOL     OW 1261   0.914   3.544   0.355
  121SOL    HW1 1262   0.829   3.579   0.316
  121SOL    HW2 1263   0.979   3.620   0.367
  122SOL     OW 1264   1.772   3.199   0.496
  122SOL    HW1 1265   1.812   3.186   0.405
  122SOL    HW2 1266   1.688   3.145   0.504
  123SOL     OW 1267   1.467   1.614   1.890
  123SOL    HW1 1268   1.545   1.676   1.880
  123SOL    HW2 1269   1.388   1.652   1.842
  124SOL     OW 1270   3.042   2.990   0.784
  124SOL    HW1 1271   2.966   2.925   0.774
  124SOL    HW2 1272   3.125   2.950   0.746
  125SOL     OW 1273   4.691   2.808   0.899
  125SOL    HW1 1274   4.691   2.908   0.900
  125SOL    HW2 1275   4.779   2.776   0.865
  126SOL     OW 1276   3.413   3.282   2.709
  126SOL    HW1 1277   3.497   3.249   2.665
  126SOL    HW2 1278   3.394   3.375   2.679
  127SOL     OW 1279   0.582   5.021   6.634
  127SOL    HW1 1280   0.583   5.098   6.569
  127SOL    HW2 1281   0.581   4.935   6.583
  128SOL     OW 1282   5.002   3.131   1.604
  128SOL    HW1 1283   4.957   3.215   1.574
  128SOL    HW2 1284   5.091   3.154   1.643
  129SOL     OW 1285   2.898   2.922   0.103
  129SOL    HW1 1286   2.799   2.918   0.116
  129SOL    HW2 1287   2.929   3.016   0.117
  130SOL     OW 1288   0.080   0.360   4.400
  130SOL    HW1 1289   0.011   0.320   4.340
  130SOL    HW2 1290   0.166   0.308   4.392
  131SOL     OW 1291   5.220   0.485   3.873
  131SOL    HW1 1292   5.172   0.497   3.960
  131SOL    HW2 1293   5.212   0.568   3.818
  132SOL     OW 1294   3.038   2.685   1.740
  132SOL    HW1 1295   3.102   2.691   1.664
  132SOL    HW2 1296   3.035   2.592   1.775
  133SOL     OW 1297   5.252   0.813   4.280
  133SOL    HW1 1298   5.219   0.718   4.283
  133SOL    HW2 1299   5.225   0.860   4.364
  134SOL     OW 1300   0.133   0.700   2.982
  134SOL    HW1 1301   0.141   0.800   2.977
  134SOL    HW2 1302   0.109   0.673   3.075
  135SOL     OW 1303   5.600   3.785   4.563
  135SOL    HW1 1304   5.628   3.794   4.467
  135SOL    HW2 1305   5.517   3.729   4.567
  136SOL     OW 1306   1.633   5.066   4.826
  136SOL    HW1 1307   1.721   5.018   4.818
  136SOL    HW2 1308   1.559   5.003   4.803
  137SOL     OW 1309   4.446   1.653   3.758
  137SOL    HW1 1310   4.459   1.691   3.667
  137SOL    HW2 1311   4.353   1.673   3.790
  138SOL     OW 1312   1.032   3.862   2.996
  138SOL    HW1 1313   1.022   3.939   2.932
  138SOL    HW2 1314   0.958   3.864   3.063
  139SOL     OW 1315   1.726   6.032   5.369
  139SOL    HW1 1316   1.650   5.986   5.415
  139SOL    HW2 1317   1.791   5.963   5.335
  140SOL     OW 1318   1.250   6.393   3.813
  140SOL    HW1 1319   1.318   6.449   3.767
  140SOL    HW2 1320   1.219   6.320   3.751
  141SOL     OW 1321   6.878   2.757   5.413
  141SOL    HW1 1322   6.969   2.787   5.438
  141SOL    HW2 1323   6.841   2.817   5.342
  142SOL     OW 1324   2.078   3.288   1.898
  142SOL    HW1 1325   2.122   3.368   1.939
  142SOL    HW2 1326   2.123   3.265   1.812
  143SOL     OW 1327   5.396   5.014   0.783
  143SOL    HW1 1328   5.308   4.967   0.783
  143SOL    HW2 1329   5.389   5.098   0.838
  144SOL     OW 1330   2.311   4.604   5.407
  144SOL    HW1 1331   2.403   4.575   5.433
  144SOL    HW2 1332   2.284   4.560   5.322
  145SOL     OW 1333   2.777   5.489   1.500
  145SOL    HW1 1334   2.697   5.430   1.488
  145SOL    HW2 1335   2.858   5.433   1.517
  146SOL     OW 1336   5.375   0.305   6.695
  146SOL    HW1 1337   5.356   0.388   6.749
  146SOL    HW2 1338   5.299   0.242   6.703
  147SOL     OW 1339   5.292   0.846   5.792
  147SOL    HW1 1340   5.233   0.780   5.746
  147SOL    HW2 1341   5.374   0.862   5.737
  148SOL     OW 1342   0.402   5.402   1.385
  148SOL    HW1 1343   0.461   5.366   1.457
  148SOL    HW2 1344   0.421   5.500   1.372
  149SOL     OW 1345   3.454   1.923   5.099
  149SOL    HW1 1346   3.456   1.950   5.003
  149SOL    HW2 1347   3.546   1.903   5.130
  150SOL     OW 1348   5.598   0.165   6.713
  150SOL    HW1 1349   5.509   0.211   6.710
  150SOL    HW2 1350   5.640   0.181   6.801
  151SOL     OW 1351   3.525   0.782   1.701
  151SOL    HW1 1352   3.468   0.856   1.664
  151SOL    HW2 1353   3.609   0.776   1.648
  152SOL     OW 1354   0.079   1.616   0.704
  152SOL    HW1 1355   0.173   1.632   0.672
  152SOL    HW2 1356   0.065   1.518   0.717
  153SOL     OW 1357   2.748   6.516   3.120
  153SOL    HW1 1358   2.712   6.426   3.097
  153SOL    HW2 1359   2.701   6.585   3.065
  154SOL     OW 1360   0.336   3.277   0.996
  154SOL    HW1 1361   0.305   3.299   1.088
  154SOL    HW2 1362   0.316   3.355   0.935
  155SOL     OW 1363   0.540   1.221   3.560
  155SOL    HW1 1364   0.503   1.261   3.644
  155SOL    HW2 1365   0.622   1.271   3.532
  156SOL     OW 1366   6.737   0.260   7.014
  156SOL    HW1 1367   6.783   0.241   6.927
  156SOL    HW2 1368   6.741   0.358   0.013
  157SOL     OW 1369   5.763   3.487   0.394
  157SOL    HW1 1370   5.771   3.416   0.464
  157SOL    HW2 1371   5.768   3.444   0.304
  158SOL     OW 1372   2.130   2.599   1.013
  158SOL    HW1 1373   2.070   2.658   0.959
  158SOL    HW2 1374   2.083   2.570   1.096
  159SOL     OW 1375   4.065   4.954   1.322
  159SOL    HW1 1376   4.095   4.927   1.413
  159SOL    HW2 1377   4.074   5.054   1.312
  160SOL     OW 1378   5.832   0.291   0.669
  160SOL    HW1 1379   5.758   0.298   0.736
  160SOL    HW2 1380   5.916   0.263   0.714
  161SOL     OW 1381   1.265   0.506   2.590
  161SOL    HW1 1382   1.336   0.435   2.587
  161SOL    HW2 1383   1.195   0.485   2.522
  162SOL     OW 1384   3.928   5.798   6.605
  162SOL    HW1 1385   3.896   5.847   6.686
  162SOL    HW2 1386   4.001   5.850   6.561
  163SOL     OW 1387   6.704   6.188   2.111
  163SOL    HW1 1388   6.709   6.127   2.190
  163SOL    HW2 1389   6.716   6.135   2.028
  164SOL     OW 1390   1.190   3.959   2.608
  164SOL    HW1 1391   1.185   4.001   2.518
  164SOL    HW2 1392   1.115   3.993   2.665
  165SOL     OW 1393   4.710   4.888   6.400
  165SOL    HW1 1394   4.764   4.826   6.457
  165SOL    HW2 1395   4.675   4.963   6.456
  166SOL     OW 1396   0.493   3.437   1.951
  166SOL    HW1 1397   0.425   3.381   1.998
  166SOL    HW2 1398   0.465   3.533   1.957
  167SOL     OW 1399   6.300   1.810   6.438
  167SOL    HW1 1400   6.399   1.793   6.434
  167SOL    HW2 1401   6.261   1.759   6.516
  168SOL     OW 1402   3.836   1.849   0.822
  168SOL    HW1 1403   3.829   1.944   0.792
  168SOL    HW2 1404   3.895   1.798   0.759
  169SOL     OW 1405   5.727   3.270   0.595
  169SOL    HW1 1406   5.641   3.219   0.594
  169SOL    HW2 1407   5.738   3.317   0.682
  170SOL     OW 1408   6.993   5.826   2.146
  170SOL    HW1 1409   7.008   5.864   2.238
  170SOL    HW2 1410   6.895   5.816   2.130
  171SOL     OW 1411   2.644   4.687   0.070
  171SOL    HW1 1412   2.600   4.662   0.157
  171SOL    HW2 1413   2.638   4.786   0.057
  172SOL     OW 1414   6.185   1.534   3.185
  172SOL    HW1 1415   6.108   1.585   3.222
  172SOL    HW2 1416   6.256   1.597   3.152
  173SOL     OW 1417   5.462   1.028   4.539
  173SOL    HW1 1418   5.503   0.941   4.512
  173SOL    HW2 1419   5.527   1.103   4.523
  174SOL     OW 1420   4.379   5.369   3.682
  174SOL    HW1 1421   4.280   5.359   3.670
  174SOL    HW2 1422   4.418   5.281   3.708
  175SOL     OW 1423   4.018   0.793   1.097
  175SOL    HW1 1424   4.074   0.777   1.016
  175SOL    HW2 1425   4.063   0.753   1.177
  176SOL     OW 1426   5.670   4.700   2.086
  176SOL    HW1 1427   5.706   4.659   2.170
  176SOL    HW2 1428   5.603   4.639   2.045
  177SOL     OW 1429   5.245   3.378   4.654
  177SOL    HW1 1430   5.234   3.437   4.733
  177SOL    HW2 1431   5.214   3.286   4.676
  178SOL     OW 1432   3.073   4.731   5.508
  178SOL    HW1 1433   2.979   4.720   5.473
  178SOL    HW2 1434   3.126   4.649   5.487
  179SOL     OW 1435   3.562   0.582   6.723
  179SOL    HW1 1436   3.624   0.597   6.800
  179SOL    HW2 1437   3.557   0.484   6.703
  180SOL     OW 1438   2.412   0.649   0.825
  180SOL    HW1 1439   2.328   0.676   0.777
  180SOL    HW2 1440   2.465   0.587   0.767
  181SOL     OW 1441   2.931   3.693   5.516
  181SOL    HW1 1442   2.881   3.743   5.587
  181SOL    HW2 1443   3.019   3.664   5.552
  182SOL     OW 1444   4.314   2.048   6.271
  182SOL    HW1 1445   4.394   2.033   6.212
  182SOL    HW2 1446   4.321   2.139   6.312
  183SOL     OW 1447   3.715   2.114   4.087
  183SOL    HW1 1448   3.787   2.161   4.036
  183SOL    HW2 1449   3.726   2.016   4.078
  184SOL     OW 1450   0.102   6.623   3.393
  184SOL    HW1 1451   0.122   6.676   3.475
  184SOL    HW2 1452   0.095   6.526   3.416
  185SOL     OW 1453   1.111   1.371   4.750
  185SOL    HW1 1454   1.047   1.307   4.707
  185SOL    HW2 1455   1.078   1.464   4.737
  186SOL     OW 1456   6.237   1.291   4.379
  186SOL    HW1 1457   6.153   1.291   4.325
  186SOL    HW2 1458   6.315   1.281   4.318
  187SOL     OW 1459   5.525   6.918   2.502
  187SOL    HW1 1460   5.561   7.011   2.489
  187SOL    HW2 1461   5.440   6.922   2.555
  188SOL     OW 1462   0.734   3.294   3.854
  188SOL    HW1 1463   0.665   3.225   3.874
  188SOL    HW2 1464   0.823   3.250   3.843
  189SOL     OW 1465   2.014   5.330   0.070
  189SOL    HW1 1466   2.057   5.366   7.007
  189SOL    HW2 1467   2.058   5.369   0.151
  190SOL     OW 1468   6.457   4.097   5.566
  190SOL    HW1 1469   6.503   4.181   5.595
  190SOL    HW2 1470   6.481   4.023   5.629
  191SOL     OW 1471   6.436   1.519   6.603
  191SOL    HW1 1472   6.506   1.541   6.670
  191SOL    HW2 1473   6.464   1.439   6.550
  192SOL     OW 1474   0.003   5.190   1.859
  192SOL    HW1 1475   6.923   5.181   1.862
  192SOL    HW2 1476   0.043   5.138   1.935
  193SOL     OW 1477   5.209   3.592   5.228
  193SOL    HW1 1478   5.250   3.648   5.301
  193SOL    HW2 1479   5.278   3.532   5.189
  194SOL     OW 1480   3.897   6.748   3.676
  194SOL    HW1 1481   3.919   6.822   3.612
  194SOL    HW2 1482   3.888   6.785   3.768
  195SOL     OW 1483   1.691   1.294   4.378
  195SOL    HW1 1484   1.786   1.322   4.363
  195SOL    HW2 1485   1.635   1.322   4.300
  196SOL     OW 1486   2.590   0.164   6.466
  196SOL    HW1 1487   2.645   0.154   6.549
  196SOL    HW2 1488   2.646   0.208   6.395
  197SOL     OW 1489   2.860   0.166   0.997
  197SOL    HW1 1490   2.925   0.193   1.069
  197SOL    HW2 1491   2.828   0.248   0.949
  198SOL     OW 1492   4.364   6.705   2.428
  198SOL    HW1 1493   4.433   6.665   2.367
  198SOL    HW2 1494   4.321   6.783   2.383
  199SOL     OW 1495   6.745   1.020   3.370
  199SOL    HW1 1496   6.756   0.921   3.360
  199SOL    HW2 1497   6.797   1.066   3.298
  200SOL     OW 1498   1.474   3.744   1.816
  200SOL    HW1 1499   1.438   3.739   1.909
  200SOL    HW2 1500   1.418   3.806   1.762
  201SOL     OW 1501   5.442   6.879   6.516
  201SOL    HW1 1502   5.411   6.873   6.421
  201SOL    HW2 1503   5.537   6.909   6.519
  202SOL     OW 1504   5.166   6.934   6.291
  202SOL    HW1 1505   5.159   0.004   6.249
  202SOL    HW2 1506   5.147   6.864   6.222
  203SOL     OW 1507   4.738   2.167   5.317
  203SOL    HW1 1508   4.700   2.259   5.319
  203SOL    HW2 1509   4.823   2.166   5.265
  204SOL     OW 1510   6.570   0.880   6.396
  204SOL    HW1 1511   6.618   0.908   6.479
  204SOL    HW2 1512   6.472   0.897   6.407
  205SOL     OW 1513   0.748   1.052   2.694
  205SOL    HW1 1514   0.772   1.136   2.742
  205SOL    HW2 1515   0.779   1.058   2.599
  206SOL     OW 1516   0.178   4.922   2.584
  206SOL    HW1 1517   0.147   4.926   2.679
  206SOL    HW2 1518   0.278   4.922   2.582
  207SOL     OW 1519   4.311   0.451   4.302
  207SOL    HW1 1520   4.276   0.545   4.299
  207SOL    HW2 1521   4.269   0.402   4.378
  208SOL     OW 1522   5.302   3.709   5.464
  208SOL    HW1 1523   5.312   3.635   5.530
  208SOL    HW2 1524   5.236   3.776   5.499
  209SOL     OW 1525   0.947   4.987   4.676
  209SOL    HW1 1526   1.022   5.036   4.720
  209SOL    HW2 1527   0.948   4.891   4.705
  210SOL     OW 1528   4.202   1.686   1.543
  210SOL    HW1 1529   4.235   1.780   1.557
  210SOL    HW2 1530   4.113   1.675   1.588
  211SOL     OW 1531   1.288   6.392   3.387
  211SOL    HW1 1532   1.297   6.296   3.414
  211SOL    HW2 1533   1.315   6.402   3.291
  212SOL     OW 1534   2.325   4.853   2.234
  212SOL    HW1 1535   2.306   4.870   2.137
  212SOL    HW2 1536   2.240   4.829   2.281
  213SOL     OW 1537   3.609   0.595   5.752
  213SOL    HW1 1538   3.650   0.684   5.771
  213SOL    HW2 1539   3.660   0.549   5.680
  214SOL     OW 1540   4.097   5.871   1.993
  214SOL    HW1 1541   4.197   5.871   1.994
  214SOL    HW2 1542   4.063   5.793   2.045
  215SOL     OW 1543   2.625   3.838   1.683
  215SOL    HW1 1544   2.580   3.756   1.718
  215SOL    HW2 1545   2.690   3.813   1.611
  216SOL     OW 1546   1.639   6.038   4.983
  216SOL    HW1 1547   1.642   5.940   5.001
  216SOL    HW2 1548   1.550   6.062   4.945
  217SOL     OW 1549   2.617   2.462   3.322
  217SOL    HW1 1550   2.678   2.535   3.352
  217SOL    HW2 1551   2.525   2.499   3.309
  218SOL     OW 1552   0.216   3.035   4.252
  218SOL    HW1 1553   0.233   3.099   4.177
  218SOL    HW2 1554   0.272   3.060   4.331
  219SOL     OW 1555   3.386   6.285   6.082
  219SOL    HW1 1556   3.484   6.302   6.072
  219SOL    HW2 1557   3.367   6.188   6.067
  220SOL     OW 1558   3.564   6.473   6.920
  220SOL    HW1 1559   3.514   6.393   6.887
  220SOL    HW2 1560   3.616   6.513   6.844
  221SOL     OW 1561   6.953   4.251   2.370
  221SOL    HW1 1562   6.916   4.160   2.390
  221SOL    HW2 1563   6.897   4.295   2.300
  222SOL     OW 1564   2.427   5.124   5.565
  222SOL    HW1 1565   2.366   5.047   5.580
  222SOL    HW2 1566   2.381   5.209   5.592
  223SOL     OW 1567   5.988   3.532   1.219
  223SOL    HW1 1568   5.932   3.590   1.278
  223SOL    HW2 1569   5.954   3.538   1.125
  224SOL     OW 1570   2.740   1.582   3.962
  224SOL    HW1 1571   2.790   1.496   3.971
  224SOL    HW2 1572   2.693   1.603   4.047
  225SOL     OW 1573   5.654   1.318   5.573
  225SOL    HW1 1574   5.615   1.305   5.664
  225SOL    HW2 1575   5.593   1.279   5.505
  226SOL     OW 1576   1.491   0.024   6.117
  226SOL    HW1 1577   1.551   0.050   6.192
  226SOL    HW2 1578   1.411   0.084   6.116
  227SOL     OW 1579   1.688   4.220   2.285
  227SOL    HW1 1580   1.609   4.223   2.346
  227SOL    HW2 1581   1.657   4.227   2.190
  228SOL     OW 1582   3.348   6.463   3.927
  228SOL    HW1 1583   3.332   6.386   3.990
  228SOL    HW2 1584   3.262   6.511   3.911
  229SOL     OW 1585   4.886   6.733   0.559
  229SOL    HW1 1586   4.866   6.664   0.629
  229SOL    HW2 1587   4.974   6.714   0.517
  230SOL     OW 1588   2.550   4.638   2.865
  230SOL    HW1 1589   2.584   4.649   2.772
  230SOL    HW2 1590   2.509   4.547   2.875
  231SOL     OW 1591   6.792   1.872   6.561
  231SOL    HW1 1592   6.822   1.786   6.520
  231SOL    HW2 1593   6.720   1.912   6.505
  232SOL     OW 1594   1.419   3.809   6.207
  232SOL    HW1 1595   1.438   3.872   6.132
  232SOL    HW2 1596   1.473   3.726   6.196
  233SOL     OW 1597   2.251   1.632   3.905
  233SOL    HW1 1598   2.249   1.732   3.909
  233SOL    HW2 1599   2.344   1.602   3.884
  234SOL     OW 1600   3.003   6.413   5.644
  234SOL    HW1 1601   3.028   6.369   5.558
  234SOL    HW2 1602   2.978   6.343   5.711
  235SOL     OW 1603   3.183   3.774   1.904
  235SOL    HW1 1604   3.106   3.776   1.840
  235SOL    HW2 1605   3.187   3.860   1.954
  236SOL     OW 1606   5.866   3.062   6.456
  236SOL    HW1 1607   5.948   3.009   6.476
  236SOL    HW2 1608   5.892   3.158   6.440
  237SOL     OW 1609   6.566   6.335   0.963
  237SOL    HW1 1610   6.657   6.343   0.923
  237SOL    HW2 1611   6.570   6.275   1.043
  238SOL     OW 1612   5.994   2.293   6.813
  238SOL    HW1 1613   5.988   2.329   6.907
  238SOL    HW2 1614   6.055   2.214   6.812
  239SOL     OW 1615   0.317   5.623   6.857
  239SOL    HW1 1616   0.310   5.720   6.833
  239SOL    HW2 1617   0.269   5.568   6.788
  240SOL     OW 1618   0.435   2.578   6.211
  240SOL    HW1 1619   0.392   2.664   6.240
  240SOL    HW2 1620   0.526   2.571   6.252
  241SOL     OW 1621   1.572   6.929   4.156
  241SOL    HW1 1622   1.666   6.902   4.178
  241SOL    HW2 1623   1.567   0.008   4.149
  242SOL     OW 1624   2.430   2.995   5.978
  242SOL    HW1 1625   2.483   3.010   5.895
  242SOL    HW2 1626   2.492   2.981   6.055
  243SOL     OW 1627   5.777   0.271   6.538
  243SOL    HW1 1628   5.707   0.209   6.572
  243SOL    HW2 1629   5.827   0.227   6.463
  244SOL     OW 1630   4.902   3.009   4.551
  244SOL    HW1 1631   4.890   3.108   4.547
  244SOL    HW2 1632   4.863   2.974   4.636
  245SOL     OW 1633   0.025   2.391   5.155
  245SOL    HW1 1634   0.098   2.454   5.182
  245SOL    HW2 1635   6.957   2.438   5.159
  246SOL     OW 1636   4.872   3.078   2.843
  246SOL    HW1 1637   4.873   3.102   2.746
  246SOL    HW2 1638   4.944   3.012   2.863
  247SOL     OW 1639   2.656   1.263   1.943
  247SOL    HW1 1640   2.642   1.197   1.869
  247SOL    HW2 1641   2.665   1.355   1.904
  248SOL     OW 1642   4.268   1.670   4.570
  248SOL    HW1 1643   4.229   1.625   4.489
  248SOL    HW2 1644   4.207   1.656   4.648
  249SOL     OW 1645   4.933   6.881   5.894
  249SOL    HW1 1646   5.010   6.838   5.942
  249SOL    HW2 1647   4.875   6.810   5.854
  250SOL     OW 1648   4.964   1.895   6.365
  250SOL    HW1 1649   4.880   1.905   6.418
  250SOL    HW2 1650   4.984   1.798   6.352
  251SOL     OW 1651   4.492   4.552   6.585
  251SOL    HW1 1652   4.410   4.498   6.563
  251SOL    HW2 1653   4.573   4.501   6.559
  252SOL     OW 1654   6.641   0.915   6.652
  252SOL    HW1 1655   6.666   0.981   6.722
  252SOL    HW2 1656   6.557   0.868   6.680
  253SOL     OW 1657   2.079   3.917   0.063
  253SOL    HW1 1658   2.054   3.833   0.015
  253SOL    HW2 1659   2.101   3.988   7.017
  254SOL     OW 1660   6.236   2.955   3.801
  254SOL    HW1 1661   6.266   3.045   3.770
  254SOL    HW2 1662   6.137   2.954   3.811
  255SOL     OW 1663   1.562   3.098   4.503
  255SOL    HW1 1664   1.510   3.167   4.452
  255SOL    HW2 1665   1.587   3.135   4.593
  256SOL     OW 1666   6.080   4.400   6.951
  256SOL    HW1 1667   6.031   4.487   6.938
  256SOL    HW2 1668   6.020   4.335   6.998
  257SOL     OW 1669   4.333   5.938   4.636
  257SOL    HW1 1670   4.291   5.890   4.559
  257SOL    HW2 1671   4.386   6.016   4.602
  258SOL     OW 1672   5.824   4.698   4.580
  258SOL    HW1 1673   5.781   4.668   4.665
  258SOL    HW2 1674   5.916   4.657   4.573
  259SOL     OW 1675   2.113   2.940   1.991
  259SOL    HW1 1676   2.101   2.974   1.897
  259SOL    HW2 1677   2.119   3.017   2.054
  260SOL     OW 1678   4.879   0.811   1.485
  260SOL    HW1 1679   4.789   0.773   1.502
  260SOL    HW2 1680   4.899   0.882   1.552
  261SOL     OW 1681   6.446   3.930   1.073
  261SOL    HW1 1682   6.510   3.899   1.144
  261SOL    HW2 1683   6.489   3.922   0.983
  262SOL     OW 1684   0.584   3.834   1.241
  262SOL    HW1 1685   0.677   3.845   1.206
  262SOL    HW2 1686   0.588   3.800   1.335
  263SOL     OW 1687   0.674   1.090   4.168
  263SOL    HW1 1688   0.632   1.039   4.092
  263SOL    HW2 1689   0.724   1.169   4.131
  264SOL     OW 1690   5.532   4.042   5.022
  264SOL    HW1 1691   5.530   4.050   5.121
  264SOL    HW2 1692   5.627   4.050   4.990
  265SOL     OW 1693   4.250   4.641   3.197
  265SOL    HW1 1694   4.349   4.626   3.204
  265SOL    HW2 1695   4.202   4.564   3.240
  266SOL     OW 1696   3.452   3.515   5.866
  266SOL    HW1 1697   3.396   3.562   5.934
  266SOL    HW2 1698   3.549   3.527   5.889
  267SOL     OW 1699   6.376   2.831   6.325
  267SOL    HW1 1700   6.334   2.856   6.238
  267SOL    HW2 1701   6.406   2.735   6.321
  268SOL     OW 1702   4.468   5.844   5.506
  268SOL    HW1 1703   4.555   5.836   5.457
  268SOL    HW2 1704   4.412   5.914   5.462
  269SOL     OW 1705   1.703   2.583   0.397
  269SOL    HW1 1706   1.697   2.683   0.397
  269SOL    HW2 1707   1.716   2.551   0.491
  270SOL     OW 1708   6.797   0.275   2.038
  270SOL    HW1 1709   6.864   0.336   1.995
  270SOL    HW2 1710   6.829   0.181   2.032
  271SOL     OW 1711   2.347   2.496   0.928
  271SOL    HW1 1712   2.333   2.397   0.926
  271SOL    HW2 1713   2.262   2.541   0.956
  272SOL     OW 1714   3.609   5.797   4.251
  272SOL    HW1 1715   3.542   5.780   4.324
  272SOL    HW2 1716   3.574   5.762   4.165
  273SOL     OW 1717   1.576   4.942   5.051
  273SOL    HW1 1718   1.609   5.012   4.988
  273SOL    HW2 1719   1.638   4.936   5.129
  274SOL     OW 1720   4.919   2.401   3.690
  274SOL    HW1 1721   4.933   2.309   3.654
  274SOL    HW2 1722   4.995   2.425   3.751
  275SOL     OW 1723   0.071   5.728   6.323
  275SOL    HW1 1724   0.093   5.818   6.285
  275SOL    HW2 1725   0.005   5.739   6.397
  276SOL     OW 1726   0.283   5.340   3.265
  276SOL    HW1 1727   0.190   5.341   3.303
  276SOL    HW2 1728   0.330   5.257   3.294
  277SOL     OW 1729   2.669   2.138   0.263
  277SOL    HW1 1730   2.582   2.089   0.257
  277SOL    HW2 1731   2.721   2.103   0.341
  278SOL     OW 1732   6.802   3.777   1.845
  278SOL    HW1 1733   6.847   3.867   1.838
  278SOL    HW2 1734   6.821   3.724   1.762
  279SOL     OW 1735   6.147   3.069   4.698
  279SOL    HW1 1736   6.066   3.029   4.740
  279SOL    HW2 1737   6.135   3.072   4.598
  280SOL     OW 1738   3.564   6.785   2.549
  280SOL    HW1 1739   3.627   6.794   2.472
  280SOL    HW2 1740   3.496   6.715   2.529
  281SOL     OW 1741   2.994   4.786   2.386
  281SOL    HW1 1742   3.043   4.700   2.406
  281SOL    HW2 1743   2.960   4.783   2.292
  282SOL     OW 1744   4.122   2.313   5.328
  282SOL    HW1 1745   4.090   2.218   5.326
  282SOL    HW2 1746   4.053   2.369   5.375
  283SOL     OW 1747   7.017   1.335   5.499
  283SOL    HW1 1748   0.021   1.245   5.463
  283SOL    HW2 1749   0.016   1.405   5.430
  284SOL     OW 1750   0.468   4.093   5.051
  284SOL    HW1 1751   0.528   4.082   4.972
  284SOL    HW2 1752   0.430   4.004   5.076
  285SOL     OW 1753   5.384   5.479   6.715
  285SOL    HW1 1754   5.358   5.383   6.725
  285SOL    HW2 1755   5.308   5.537   6.745
  286SOL     OW 1756   4.023   4.720   5.244
  286SOL    HW1 1757   3.942   4.775   5.264
  286SOL    HW2 1758   4.057   4.680   5.329
  287SOL     OW 1759   0.807   4.894   6.792
  287SOL    HW1 1760   0.890   4.928   6.748
  287SOL    HW2 1761   0.727   4.943   6.757
  288SOL     OW 1762   3.994   1.198   0.744
  288SOL    HW1 1763   3.962   1.132   0.812
  288SOL    HW2 1764   3.915   1.243   0.701
  289SOL     OW 1765   0.100   5.203   4.898
  289SOL    HW1 1766   0.172   5.139   4.926
  289SOL    HW2 1767   0.093   5.276   4.966
  290SOL     OW 1768   4.646   2.166   3.413
  290SOL    HW1 1769   4.717   2.237   3.414
  290SOL    HW2 1770   4.593   2.171   3.498
  291SOL     OW 1771   4.054   0.975   4.426
  291SOL    HW1 1772   3.978   1.034   4.397
  291SOL    HW2 1773   4.134   1.031   4.448
  292SOL     OW 1774   4.392   2.014   3.218
  292SOL    HW1 1775   4.349   2.097   3.253
  292SOL    HW2 1776   4.490   2.014   3.241
  293SOL     OW 1777   3.868   5.923   1.806
  293SOL    HW1 1778   3.895   5.959   1.717
  293SOL    HW2 1779   3.949   5.895   1.857
  294SOL     OW 1780   6.606   5.674   6.811
  294SOL    HW1 1781   6.516   5.664   6.852
  294SOL    HW2 1782   6.600   5.734   6.731
  295SOL     OW 1783   2.970   1.740   5.094
  295SOL    HW1 1784   3.029   1.821   5.088
  295SOL    HW2 1785   3.027   1.659   5.103
  296SOL     OW 1786   6.704   2.285   1.856
  296SOL    HW1 1787   6.699   2.282   1.955
  296SOL    HW2 1788   6.658   2.367   1.822
  297SOL     OW 1789   2.800   4.758   3.000
  297SOL    HW1 1790   2.795   4.779   3.098
  297SOL    HW2 1791   2.754   4.671   2.983
  298SOL     OW 1792   3.964   0.181   0.030
  298SOL    HW1 1793   3.935   0.098   7.002
  298SOL    HW2 1794   3.935   0.176   0.125
  299SOL     OW 1795   4.945   2.539   6.276
  299SOL    HW1 1796   4.897   2.458   6.242
  299SOL    HW2 1797   5.000   2.514   6.356
  300SOL     OW 1798   4.777   0.616   2.148
  300SOL    HW1 1799   4.749   0.698   2.199
  300SOL    HW2 1800   4.759   0.535   2.204
  301SOL     OW 1801   4.956   1.894   0.384
  301SOL    HW1 1802   5.035   1.839   0.411
  301SOL    HW2 1803   4.973   1.935   0.295
  302SOL     OW 1804   6.834   0.765   2.688
  302SOL    HW1 1805   6.763   0.834   2.696
  302SOL    HW2 1806   6.904   0.796   2.623
  303SOL     OW 1807   5.876   6.176   2.057
  303SOL    HW1 1808   5.809   6.114   2.015
  303SOL    HW2 1809   5.955   6.123   2.087
  304SOL     OW 1810   1.866   6.393   5.931
  304SOL    HW1 1811   1.884   6.321   5.998
  304SOL    HW2 1812   1.898   6.363   5.841
  305SOL     OW 1813   1.324   2.852   0.324
  305SOL    HW1 1814   1.376   2.783   0.274
  305SOL    HW2 1815   1.306   2.930   0.263
  306SOL     OW 1816   1.005   1.156   3.099
  306SOL    HW1 1817   1.056   1.074   3.122
  306SOL    HW2 1818   1.019   1.225   3.170
  307SOL     OW 1819   4.819   4.279   0.995
  307SOL    HW1 1820   4.777   4.214   1.058
  307SOL    HW2 1821   4.911   4.249   0.971
  308SOL     OW 1822   5.858   3.810   4.713
  308SOL    HW1 1823   5.919   3.847   4.643
  308SOL    HW2 1824   5.768   3.794   4.673
  309SOL     OW 1825   1.783   5.509   0.624
  309SOL    HW1 1826   1.851   5.510   0.551
  309SOL    HW2 1827   1.717   5.436   0.607
  310SOL     OW 1828   5.055   5.994   5.408
  310SOL    HW1 1829   4.989   6.035   5.471
  310SOL    HW2 1830   5.029   6.015   5.314
  311SOL     OW 1831   3.272   4.888   2.897
  311SOL    HW1 1832   3.203   4.942   2.847
  311SOL    HW2 1833   3.236   4.863   2.986
  312SOL     OW 1834   3.950   1.836   4.373
  312SOL    HW1 1835   4.014   1.903   4.411
  312SOL    HW2 1836   3.960   1.834   4.273
  313SOL     OW 1837   3.337   3.551   2.016
  313SOL    HW1 1838   3.390   3.529   1.934
  313SOL    HW2 1839   3.285   3.635   2.001
  314SOL     OW 1840   2.955   4.687   6.873
  314SOL    HW1 1841   2.892   4.662   6.800
  314SOL    HW2 1842   3.000   4.773   6.850
  315SOL     OW 1843   1.071   3.245   4.056
  315SOL    HW1 1844   1.021   3.330   4.071
  315SOL    HW2 1845   1.106   3.243   3.962
  316SOL     OW 1846   3.644   0.754   4.464
  316SOL    HW1 1847   3.558   0.751   4.515
  316SOL    HW2 1848   3.684   0.662   4.459
  317SOL     OW 1849   0.148   1.829   1.215
  317SOL    HW1 1850   0.075   1.842   1.281
  317SOL    HW2 1851   0.118   1.765   1.144
  318SOL     OW 1852   6.904   5.911   6.938
  318SOL    HW1 1853   6.940   5.831   6.891
  318SOL    HW2 1854   6.981   5.969   6.968
  319SOL     OW 1855   6.392   1.479   3.859
  319SOL    HW1 1856   6.452   1.477   3.779
  319SOL    HW2 1857   6.433   1.536   3.930
  320SOL     OW 1858   5.926   2.775   7.009
  320SOL    HW1 1859   5.868   2.705   6.967
  320SOL    HW2 1860   5.965   2.833   6.937
  321SOL     OW 1861   3.680   1.839   6.711
  321SOL    HW1 1862   3.613   1.903   6.750
  321SOL    HW2 1863   3.772   1.871   6.731
  322SOL     OW 1864   3.188   3.416   3.726
  322SOL    HW1 1865   3.277   3.454   3.701
  322SOL    HW2 1866   3.179   3.413   3.825
  323SOL     OW 1867   0.922   2.888   5.752
  323SOL    HW1 1868   0.947   2.910   5.657
  323SOL    HW2 1869   0.856   2.956   5.785
  324SOL     OW 1870   3.110   0.923   3.029
  324SOL    HW1 1871   3.077   0.985   2.957
  324SOL    HW2 1872   3.208   0.936   3.042
  325SOL     OW 1873   0.457   2.694   2.247
  325SOL    HW1 1874   0.360   2.671   2.262
  325SOL    HW2 1875   0.492   2.745   2.325
  326SOL     OW 1876   0.955   4.747   6.376
  326SOL    HW1 1877   1.015   4.789   6.307
  326SOL    HW2 1878   0.981   4.780   6.467
  327SOL     OW 1879   1.773   4.851   2.335
  327SOL    HW1 1880   1.737   4.878   2.246
  327SOL    HW2 1881   1.734   4.762   2.361
  328SOL     OW 1882   1.525   5.796   1.820
  328SOL    HW1 1883   1.599   5.766   1.881
  328SOL    HW2 1884   1.565   5.839   1.739
  329SOL     OW 1885   2.855   3.429   4.834
  329SOL    HW1 1886   2.755   3.419   4.837
  329SOL    HW2 1887   2.893   3.411   4.924
  330SOL     OW 1888   3.455   6.583   1.591
  330SOL    HW1 1889   3.452   6.680   1.614
  330SOL    HW2 1890   3.543   6.545   1.620
  331SOL     OW 1891   4.125   5.704   0.410
  331SOL    HW1 1892   4.118   5.772   0.337
  331SOL    HW2 1893   4.134   5.613   0.369
  332SOL     OW 1894   5.268   2.038   5.593
  332SOL    HW1 1895   5.236   1.943   5.597
  332SOL    HW2 1896   5.306   2.065   5.681
  333SOL     OW 1897   4.662   0.614   5.825
  333SOL    HW1 1898   4.604   0.640   5.748
  333SOL    HW2 1899   4.728   0.545   5.796
  334SOL     OW 1900   3.267   1.350   0.656
  334SOL    HW1 1901   3.350   1.391   0.695
  334SOL    HW2 1902   3.292   1.298   0.574
  335SOL     OW 1903   4.578   6.264   6.091
  335SOL    HW1 1904   4.591   6.356   6.127
  335SOL    HW2 1905   4.526   6.210   6.157
  336SOL     OW 1906   2.542   1.312   3.368
  336SOL    HW1 1907   2.584   1.272   3.450
  336SOL    HW2 1908   2.472   1.250   3.333
  337SOL     OW 1909   0.297   3.152   6.040
  337SOL    HW1 1910   0.206   3.116   6.060
  337SOL    HW2 1911   0.345   3.090   5.978
  338SOL     OW 1912   3.038   2.290   1.468
  338SOL    HW1 1913   2.966   2.220   1.470
  338SOL    HW2 1914   3.085   2.291   1.556
  339SOL     OW 1915   4.383   5.715   5.046
  339SOL    HW1 1916   4.426   5.776   4.979
  339SOL    HW2 1917   4.284   5.721   5.037
  340SOL     OW 1918   5.253   3.973   5.174
  340SOL    HW1 1919   5.239   3.892   5.117
  340SOL    HW2 1920   5.344   3.969   5.215
  341SOL     OW 1921   6.517   7.014   4.212
  341SOL    HW1 1922   6.465   6.976   4.288
  341SOL    HW2 1923   6.550   6.940   4.154
  342SOL     OW 1924   5.701   3.757   0.317
  342SOL    HW1 1925   5.767   3.801   0.379
  342SOL    HW2 1926   5.713   3.658   0.321
  343SOL     OW 1927   1.381   6.396   1.410
  343SOL    HW1 1928   1.350   6.457   1.483
  343SOL    HW2 1929   1.374   6.301   1.441
  344SOL     OW 1930   1.127   2.978   1.758
  344SOL    HW1 1931   1.131   3.074   1.787
  344SOL    HW2 1932   1.220   2.940   1.758
  345SOL     OW 1933   5.134   2.497   3.855
  345SOL    HW1 1934   5.213   2.446   3.821
  345SOL    HW2 1935   5.166   2.578   3.905
  346SOL     OW 1936   1.871   1.019   2.903
  346SOL    HW1 1937   1.879   0.969   2.816
  346SOL    HW2 1938   1.783   0.998   2.945
  347SOL     OW 1939   2.721   5.510   6.969
  347SOL    HW1 1940   2.755   5.466   0.032
  347SOL    HW2 1941   2.683   5.441   6.908
  348SOL     OW 1942   4.827   3.941   2.213
  348SOL    HW1 1943   4.743   3.992   2.233
  348SOL    HW2 1944   4.860   3.967   2.122
  349SOL     OW 1945   6.639   5.431   0.534
  349SOL    HW1 1946   6.684   5.519   0.542
  349SOL    HW2 1947   6.541   5.444   0.519
  350SOL     OW 1948   2.978   2.708   1.148
  350SOL    HW1 1949   2.960   2.699   1.246
  350SOL    HW2 1950   3.071   2.742   1.134
  351SOL     OW 1951   2.440   3.512   0.791
  351SOL    HW1 1952   2.380   3.592   0.789
  351SOL    HW2 1953   2.523   3.531   0.739
  352SOL     OW 1954   3.119   6.605   3.907
  352SOL    HW1 1955   3.020   6.587   3.909
  352SOL    HW2 1956   3.134   6.703   3.902
  353SOL     OW 1957   2.884   0.154   0.209
  353SOL    HW1 1958   2.895   0.164   0.308
  353SOL    HW2 1959   2.807   0.093   0.190
  354SOL     OW 1960   4.144   2.689   0.747
  354SOL    HW1 1961   4.140   2.780   0.706
  354SOL    HW2 1962   4.213   2.634   0.700
  355SOL     OW 1963   1.503   3.825   2.772
  355SOL    HW1 1964   1.455   3.783   2.695
  355SOL    HW2 1965   1.448   3.816   2.855
  356SOL     OW 1966   2.314   0.067   5.742
  356SOL    HW1 1967   2.230   0.120   5.739
  356SOL    HW2 1968   2.382   0.109   5.682
  357SOL     OW 1969   0.101   6.024   5.324
  357SOL    HW1 1970   0.152   6.043   5.240
  357SOL    HW2 1971   0.017   6.077   5.326
  358SOL     OW 1972   5.063   6.361   0.506
  358SOL    HW1 1973   5.139   6.420   0.535
  358SOL    HW2 1974   5.028   6.311   0.585
  359SOL     OW 1975   3.138   2.362   1.709
  359SOL    HW1 1976   3.230   2.379   1.742
  359SOL    HW2 1977   3.072   2.383   1.782
  360SOL     OW 1978   1.246   4.586   5.980
  360SOL    HW1 1979   1.182   4.603   5.904
  360SOL    HW2 1980   1.265   4.672   6.026
  361SOL     OW 1981   6.466   6.786   2.686
  361SOL    HW1 1982   6.561   6.804   2.657
  361SOL    HW2 1983   6.419   6.734   2.615
  362SOL     OW 1984   3.852   2.973   1.311
  362SOL    HW1 1985   3.827   3.044   1.245
  362SOL    HW2 1986   3.918   3.010   1.376
  363SOL     OW 1987   5.562   4.434   2.904
  363SOL    HW1 1988   5.542   4.339   2.931
  363SOL    HW2 1989   5.608   4.481   2.979
  364SOL     OW 1990   6.508   5.165   6.613
  364SOL    HW1 1991   6.452   5.097   6.661
  364SOL    HW2 1992   6.450   5.237   6.577
  365SOL     OW 1993   5.445   6.535   1.869
  365SOL    HW1 1994   5.475   6.538   1.964
  365SOL    HW2 1995   5.393   6.451   1.852
  366SOL     OW 1996   5.610   0.748   6.630
  366SOL    HW1 1997   5.515   0.716   6.625
  366SOL    HW2 1998   5.671   0.669   6.638
  367SOL     OW 1999   5.618   2.800   1.908
  367SOL    HW1 2000   5.654   2.885   1.946
  367SOL    HW2 2001   5.693   2.738   1.886
  368SOL     OW 2002   0.722   2.907   5.317
  368SOL    HW1 2003   0.756   2.905   5.223
  368SOL    HW2 2004   0.713   3.002   5.347
  369SOL     OW 2005   5.966   4.912   2.072
  369SOL    HW1 2006   5.918   4.979   2.129
  369SOL    HW2 2007   5.910   4.829   2.063
  370SOL     OW 2008   1.793   1.343   5.085
  370SOL    HW1 2009   1.780   1.416   5.019
  370SOL    HW2 2010   1.761   1.256   5.046
  371SOL     OW 2011   1.704   4.440   5.663
  371SOL    HW1 2012   1.693   4.419   5.565
  371SOL    HW2 2013   1.777   4.383   5.701
  372SOL     OW 2014   1.400   6.267   6.716
  372SOL    HW1 2015   1.335   6.205   6.674
  372SOL    HW2 2016   1.405   6.352   6.663
  373SOL     OW 2017   6.058   6.356   4.411
  373SOL    HW1 2018   6.063   6.354   4.311
  373SOL    HW2 2019   6.090   6.445   4.444
  374SOL     OW 2020   2.971   1.901   4.006
  374SOL    HW1 2021   2.885   1.928   4.050
  374SOL    HW2 2022   3.035   1.977   4.008
  375SOL     OW 2023   0.746   4.726   4.230
  375SOL    HW1 2024   0.844   4.710   4.241
  375SOL    HW2 2025   0.727   4.822   4.250
  376SOL     OW 2026   2.923   0.921   5.359
  376SOL    HW1 2027   2.911   0.975   5.442
  376SOL    HW2 2028   3.012   0.875   5.361
  377SOL     OW 2029   0.953   2.231   1.053
  377SOL    HW1 2030   0.997   2.224   1.143
  377SOL    HW2 2031   1.011   2.285   0.992
  378SOL     OW 2032   4.678   2.533   6.374
  378SOL    HW1 2033   4.694   2.528   6.472
  378SOL    HW2 2034   4.693   2.444   6.333
  379SOL     OW 2035   5.835   2.841   1.658
  379SOL    HW1 2036   5.882   2.798   1.580
  379SOL    HW2 2037   5.737   2.844   1.641
  380SOL     OW 2038   2.493   1.362   0.477
  380SOL    HW1 2039   2.494   1.308   0.393
  380SOL    HW2 2040   2.587   1.379   0.508
  381SOL     OW 2041   1.571   3.894   2.386
  381SOL    HW1 2042   1.525   3.851   2.464
  381SOL    HW2 2043   1.574   3.993   2.399
  382SOL     OW 2044   6.135   0.301   6.663
  382SOL    HW1 2045   6.072   0.224   6.663
  382SOL    HW2 2046   6.212   0.281   6.724
  383SOL     OW 2047   4.298   4.071   6.437
  383SOL    HW1 2048   4.320   4.103   6.529
  383SOL    HW2 2049   4.271   4.148   6.380
  384SOL     OW 2050   0.200   5.450   3.847
  384SOL    HW1 2051   0.165   5.524   3.790
  384SOL    HW2 2052   0.268   5.397   3.797
  385SOL     OW 2053   3.277   4.573   5.382
  385SOL    HW1 2054   3.355   4.534   5.431
  385SOL    HW2 2055   3.221   4.498   5.346
  386SOL     OW 2056   2.643   0.041   5.329
  386SOL    HW1 2057   2.601   0.118   5.281
  386SOL    HW2 2058   2.718   0.005   5.274
  387SOL     OW 2059   1.349   0.049   2.129
  387SOL    HW1 2060   1.335   0.124   2.065
  387SOL    HW2 2061   1.396   6.994   2.083
  388SOL     OW 2062   1.311   1.586   5.125
  388SOL    HW1 2063   1.389   1.616   5.069
  388SOL    HW2 2064   1.310   1.637   5.211
  389SOL     OW 2065   3.553   3.805   1.285
  389SOL    HW1 2066   3.637   3.796   1.233
  389SOL    HW2 2067   3.474   3.792   1.224
  390SOL     OW 2068   3.542   1.831   1.488
  390SOL    HW1 2069   3.626   1.799   1.444
  390SOL    HW2 2070   3.522   1.924   1.458
  391SOL     OW 2071   1.868   2.488   6.563
  391SOL    HW1 2072   1.805   2.419   6.599
  391SOL    HW2 2073   1.842   2.510   6.469
  392SOL     OW 2074   1.811   4.705   0.971
  392SOL    HW1 2075   1.812   4.608   0.994
  392SOL    HW2 2076   1.894   4.727   0.920
  393SOL     OW 2077   1.609   4.406   6.715
  393SOL    HW1 2078   1.635   4.317   6.679
  393SOL    HW2 2079   1.571   4.463   6.642
  394SOL     OW 2080   0.179   1.991   0.408
  394SOL    HW1 2081   0.216   2.044   0.331
  394SOL    HW2 2082   0.079   1.988   0.401
  395SOL     OW 2083   4.851   4.064   3.000
  395SOL    HW1 2084   4.805   4.043   2.914
  395SOL    HW2 2085   4.944   4.094   2.981
  396SOL     OW 2086   3.295   3.743   1.622
  396SOL    HW1 2087   3.207   3.771   1.659
  396SOL    HW2 2088   3.335   3.819   1.570
  397SOL     OW 2089   5.737   1.545   5.424
  397SOL    HW1 2090   5.831   1.532   5.391
  397SOL    HW2 2091   5.712   1.469   5.484
  398SOL     OW 2092   1.185   0.472   2.179
  398SOL    HW1 2093   1.255   0.430   2.121
  398SOL    HW2 2094   1.095   0.458   2.138
  399SOL     OW 2095   5.826   5.917   2.336
  399SOL    HW1 2096   5.870   5.995   2.381
  399SOL    HW2 2097   5.758   5.951   2.270
  400SOL     OW 2098   6.466   6.183   5.840
  400SOL    HW1 2099   6.439   6.156   5.932
  400SOL    HW2 2100   6.478   6.282   5.836
  401SOL     OW 2101   5.774   0.495   6.674
  401SOL    HW1 2102   5.770   0.416   6.612
  401SOL    HW2 2103   5.870   0.521   6.688
  402SOL     OW 2104   6.095   6.915   3.619
  402SOL    HW1 2105   6.077   6.843   3.686
  402SOL    HW2 2106   6.076   7.004   3.660
  403SOL     OW 2107   3.801   2.106   4.551
  403SOL    HW1 2108   3.758   2.021   4.520
  403SOL    HW2 2109   3.736   2.158   4.607
  404SOL     OW 2110   1.467   5.350   3.815
  404SOL    HW1 2111   1.417   5.366   3.901
  404SOL    HW2 2112   1.404   5.357   3.738
  405SOL     OW 2113   1.787   3.296   2.272
  405SOL    HW1 2114   1.763   3.346   2.189
  405SOL    HW2 2115   1.867   3.239   2.256
  406SOL     OW 2116   1.023   3.824   4.728
  406SOL    HW1 2117   0.995   3.759   4.799
  406SOL    HW2 2118   1.021   3.778   4.639
  407SOL     OW 2119   1.345   0.728   4.476
  407SOL    HW1 2120   1.311   0.820   4.493
  407SOL    HW2 2121   1.381   0.722   4.383
  408SOL     OW 2122   1.391   2.726   3.161
  408SOL    HW1 2123   1.477   2.706   3.209
  408SOL    HW2 2124   1.396   2.692   3.068
  409SOL     OW 2125   6.845   3.186   2.020
  409SOL    HW1 2126   6.890   3.106   1.981
  409SOL    HW2 2127   6.804   3.162   2.108
  410SOL     OW 2128   1.779   1.720   1.068
  410SOL    HW1 2129   1.841   1.786   1.111
  410SOL    HW2 2130   1.727   1.764   0.995
  411SOL     OW 2131   6.075   0.170   1.524
  411SOL    HW1 2132   6.012   0.241   1.557
  411SOL    HW2 2133   6.046   0.081   1.560
  412SOL     OW 2134   3.045   5.901   3.834
  412SOL    HW1 2135   3.039   5.999   3.852
  412SOL    HW2 2136   2.965   5.873   3.780
  413SOL     OW 2137   5.441   3.635   1.738
  413SOL    HW1 2138   5.414   3.617   1.643
  413SOL    HW2 2139   5.507   3.710   1.739
  414SOL     OW 2140   3.260   5.236   3.605
  414SOL    HW1 2141   3.256   5.332   3.633
  414SOL    HW2 2142   3.167   5.198   3.602
  415SOL     OW 2143   0.999   6.035   6.834
  415SOL    HW1 2144   0.997   5.969   6.909
  415SOL    HW2 2145   1.085   6.026   6.784
  416SOL     OW 2146   4.694   6.450   4.933
  416SOL    HW1 2147   4.620   6.386   4.912
  416SOL    HW2 2148   4.708   6.512   4.855
  417SOL     OW 2149   2.032   5.932   6.215
  417SOL    HW1 2150   2.063   5.847   6.171
  417SOL    HW2 2151   1.983   5.911   6.299
  418SOL     OW 2152   4.041   6.764   6.931
  418SOL    HW1 2153   4.093   6.847   6.910
  418SOL    HW2 2154   4.103   6.686   6.938
  419SOL     OW 2155   2.162   6.773   1.686
  419SOL    HW1 2156   2.118   6.839   1.748
  419SOL    HW2 2157   2.100   6.697   1.669
  420SOL     OW 2158   6.152   1.301   0.277
  420SOL    HW1 2159   6.092   1.283   0.355
  420SOL    HW2 2160   6.247   1.308   0.309
  421SOL     OW 2161   0.189   3.901   5.428
  421SOL    HW1 2162   0.216   3.826   5.367
  421SOL    HW2 2163   0.271   3.940   5.471
  422SOL     OW 2164   5.330   3.362   1.540
  422SOL    HW1 2165   5.303   3.282   1.594
  422SOL    HW2 2166   5.264   3.435   1.555
  423SOL     OW 2167   0.500   1.885   5.837
  423SOL    HW1 2168   0.418   1.850   5.792
  423SOL    HW2 2169   0.559   1.809   5.862
  424SOL     OW 2170   1.494   5.565   0.989
  424SOL    HW1 2171   1.465   5.517   1.072
  424SOL    HW2 2172   1.579   5.524   0.955
  425SOL     OW 2173   4.899   1.763   3.430
  425SOL    HW1 2174   4.990   1.775   3.470
  425SOL    HW2 2175   4.880   1.666   3.418
  426SOL     OW 2176   3.282   1.904   4.383
  426SOL    HW1 2177   3.182   1.903   4.377
  426SOL    HW2 2178   3.319   1.979   4.328
  427SOL     OW 2179   5.606   6.295   3.911
  427SOL    HW1 2180   5.538   6.294   3.985
  427SOL    HW2 2181   5.662   6.378   3.918
  428SOL     OW 2182   4.071   0.348   3.520
  428SOL    HW1 2183   4.118   0.315   3.602
  428SOL    HW2 2184   4.069   0.448   3.520
  429SOL     OW 2185   1.286   4.721   1.732
  429SOL    HW1 2186   1.210   4.759   1.785
  429SOL    HW2 2187   1.311   4.632   1.769
  430SOL     OW 2188   0.599   0.003   4.576
  430SOL    HW1 2189   0.600   6.929   4.542
  430SOL    HW2 2190   0.685   0.022   4.624
  431SOL     OW 2191   2.576   0.599   1.321
  431SOL    HW1 2192   2.522   0.595   1.237
  431SOL    HW2 2193   2.674   0.601   1.299
  432SOL     OW 2194   6.348   1.566   0.562
  432SOL    HW1 2195   6.405   1.633   0.610
  432SOL    HW2 2196   6.289   1.519   0.627
  433SOL     OW 2197   1.675   6.461   5.077
  433SOL    HW1 2198   1.725   6.497   4.998
  433SOL    HW2 2199   1.723   6.382   5.114
  434SOL     OW 2200   3.807   5.450   3.602
  434SOL    HW1 2201   3.779   5.413   3.691
  434SOL    HW2 2202   3.726   5.469   3.547
  435SOL     OW 2203   4.480   2.771   6.636
  435SOL    HW1 2204   4.417   2.810   6.703
  435SOL    HW2 2205   4.482   2.829   6.555
  436SOL     OW 2206   2.989   5.822   2.352
  436SOL    HW1 2207   3.029   5.785   2.268
  436SOL    HW2 2208   2.892   5.797   2.356
  437SOL     OW 2209   0.426   1.604   6.890
  437SOL    HW1 2210   0.520   1.582   6.917
  437SOL    HW2 2211   0.412   1.703   6.896
  438SOL     OW 2212   2.217   4.053   3.412
  438SOL    HW1 2213   2.265   4.140   3.402
  438SOL    HW2 2214   2.225   4.001   3.327
  439SOL     OW 2215   5.899   5.247   2.255
  439SOL    HW1 2216   5.845   5.201   2.185
  439SOL    HW2 2217   5.844   5.259   2.337
  440SOL     OW 2218   2.264   1.650   5.088
  440SOL    HW1 2219   2.358   1.682   5.096
  440SOL    HW2 2220   2.201   1.726   5.106
  441SOL     OW 2221   0.488   3.165   3.918
  441SOL    HW1 2222   0.433   3.160   4.002
  441SOL    HW2 2223   0.482   3.079   3.869
  442SOL     OW 2224   4.231   5.452   5.152
  442SOL    HW1 2225   4.292   5.503   5.212
  442SOL    HW2 2226   4.175   5.516   5.099
  443SOL     OW 2227   6.191   4.215   3.588
  443SOL    HW1 2228   6.215   4.265   3.671
  443SOL    HW2 2229   6.236   4.257   3.509
  444SOL     OW 2230   5.180   0.556   6.755
  444SOL    HW1 2231   5.082   0.574   6.746
  444SOL    HW2 2232   5.195   0.493   6.832
  445SOL     OW 2233   0.538   5.820   3.086
  445SOL    HW1 2234   0.516   5.725   3.066
  445SOL    HW2 2235   0.638   5.831   3.091
  446SOL     OW 2236   3.261   4.916   3.503
  446SOL    HW1 2237   3.210   4.855   3.443
  446SOL    HW2 2238   3.216   4.922   3.592
  447SOL     OW 2239   0.307   2.753   6.382
  447SOL    HW1 2240   0.226   2.733   6.437
  447SOL    HW2 2241   0.299   2.845   6.344
  448SOL     OW 2242   2.119   0.869   3.574
  448SOL    HW1 2243   2.106   0.944   3.640
  448SOL    HW2 2244   2.089   0.783   3.615
  449SOL     OW 2245   2.614   1.289   4.163
  449SOL    HW1 2246   2.679   1.307   4.089
  449SOL    HW2 2247   2.654   1.224   4.228
  450SOL     OW 2248   1.526   4.798   3.354
  450SOL    HW1 2249   1.583   4.739   3.411
  450SOL    HW2 2250   1.547   4.781   3.258
  451SOL     OW 2251   1.242   2.490   4.511
  451SOL    HW1 2252   1.287   2.578   4.527
  451SOL    HW2 2253   1.243   2.469   4.413
  452SOL     OW 2254   5.383   6.259   0.588
  452SOL    HW1 2255   5.435   6.341   0.612
  452SOL    HW2 2256   5.420   6.218   0.505
  453SOL     OW 2257   4.298   0.232   6.652
  453SOL    HW1 2258   4.243   0.254   6.571
  453SOL    HW2 2259   4.246   0.251   6.734
  454SOL     OW 2260   0.059   4.345   5.999
  454SOL    HW1 2261   0.028   4.424   6.053
  454SOL    HW2 2262   0.158   4.337   6.005
  455SOL     OW 2263   5.274   2.375   4.765
  455SOL    HW1 2264   5.367   2.356   4.797
  455SOL    HW2 2265   5.274   2.458   4.710
  456SOL     OW 2266   0.250   6.986   3.453
  456SOL    HW1 2267   0.297   6.909   3.497
  456SOL    HW2 2268   0.295   7.006   3.366
  457SOL     OW 2269   1.742   2.972   4.344
  457SOL    HW1 2270   1.762   2.876   4.366
  457SOL    HW2 2271   1.671   3.005   4.406
  458SOL     OW 2272   3.374   6.151   2.807
  458SOL    HW1 2273   3.326   6.066   2.830
  458SOL    HW2 2274   3.465   6.150   2.848
  459SOL     OW 2275   1.817   7.017   5.963
  459SOL    HW1 2276   1.765   6.998   6.046
  459SOL    HW2 2277   1.901   6.963   5.963
  460SOL     OW 2278   2.533   6.837   4.704
  460SOL    HW1 2279   2.495   6.918   4.659
  460SOL    HW2 2280   2.515   6.843   4.803
  461SOL     OW 2281   7.005   5.585   5.228
  461SOL    HW1 2282   0.083   5.577   5.214
  461SOL    HW2 2283   6.960   5.602   5.141
  462SOL     OW 2284   3.890   3.414   0.001
  462SOL    HW1 2285   3.919   3.419   0.097
  462SOL    HW2 2286   3.957   3.461   6.963
  463SOL     OW 2287   5.829   6.156   3.816
  463SOL    HW1 2288   5.742   6.193   3.848
  463SOL    HW2 2289   5.813   6.089   3.743
  464SOL     OW 2290   3.105   1.170   5.521
  464SOL    HW1 2291   3.155   1.139   5.440
  464SOL    HW2 2292   3.137   1.262   5.547
  465SOL     OW 2293   0.652   2.672   7.009
  465SOL    HW1 2294   0.559   2.646   6.985
  465SOL    HW2 2295   0.669   2.766   6.981
  466SOL     OW 2296   1.808   6.332   4.263
  466SOL    HW1 2297   1.791   6.273   4.185
  466SOL    HW2 2298   1.899   6.312   4.301
  467SOL     OW 2299   2.405   1.095   0.808
  467SOL    HW1 2300   2.486   1.151   0.824
  467SOL    HW2 2301   2.356   1.080   0.894
  468SOL     OW 2302   4.053   6.087   5.422
  468SOL    HW1 2303   4.055   6.145   5.504
  468SOL    HW2 2304   3.959   6.078   5.391
  469SOL     OW 2305   2.683   3.550   5.910
  469SOL    HW1 2306   2.631   3.465   5.923
  469SOL    HW2 2307   2.763   3.549   5.969
  470SOL     OW 2308   4.976   6.558   1.147
  470SOL    HW1 2309   4.967   6.498   1.067
  470SOL    HW2 2310   5.013   6.646   1.118
  471SOL     OW 2311   2.478   2.612   4.196
  471SOL    HW1 2312   2.443   2.684   4.256
  471SOL    HW2 2313   2.402   2.563   4.154
  472SOL     OW 2314   4.723   4.510   6.282
  472SOL    HW1 2315   4.756   4.465   6.199
  472SOL    HW2 2316   4.650   4.574   6.259
  473SOL     OW 2317   1.490   2.745   2.595
  473SOL    HW1 2318   1.564   2.710   2.653
  473SOL    HW2 2319   1.426   2.798   2.651
  474SOL     OW 2320   5.080   5.880   4.794
  474SOL    HW1 2321   5.015   5.810   4.824
  474SOL    HW2 2322   5.062   5.903   4.698
  475SOL     OW 2323   5.940   2.066   6.391
  475SOL    HW1 2324   5.990   2.010   6.456
  475SOL    HW2 2325   5.878   2.009   6.338
  476SOL     OW 2326   0.615   3.762   2.175
  476SOL    HW1 2327   0.561   3.684   2.208
  476SOL    HW2 2328   0.596   3.776   2.078
  477SOL     OW 2329   2.306   6.333   3.253
  477SOL    HW1 2330   2.341   6.248   3.214
  477SOL    HW2 2331   2.313   6.406   3.186
  478SOL     OW 2332   3.427   6.556   2.439
  478SOL    HW1 2333   3.345   6.576   2.386
  478SOL    HW2 2334   3.415   6.470   2.488
  479SOL     OW 2335   3.757   2.643   5.585
  479SOL    HW1 2336   3.786   2.697   5.664
  479SOL    HW2 2337   3.701   2.566   5.617
  480SOL     OW 2338   2.478   1.043   0.539
  480SOL    HW1 2339   2.448   1.068   0.631
  480SOL    HW2 2340   2.410   1.073   0.472
  481SOL     OW 2341   1.820   6.651   1.323
  481SOL    HW1 2342   1.733   6.600   1.322
  481SOL    HW2 2343   1.811   6.733   1.268
  482SOL     OW 2344   4.162   4.811   2.071
  482SOL    HW1 2345   4.175   4.718   2.036
  482SOL    HW2 2346   4.077   4.849   2.035
  483SOL     OW 2347   6.608   2.502   3.173
  483SOL    HW1 2348   6.528   2.559   3.191
  483SOL    HW2 2349   6.586   2.435   3.102
  484SOL     OW 2350   1.815   3.141   5.551
  484SOL    HW1 2351   1.846   3.174   5.640
  484SOL    HW2 2352   1.893   3.139   5.488
  485SOL     OW 2353   4.046   4.826   2.607
  485SOL    HW1 2354   3.949   4.813   2.626
  485SOL    HW2 2355   4.061   4.828   2.508
  486SOL     OW 2356   6.439   0.500   0.233
  486SOL    HW1 2357   6.488   0.587   0.235
  486SOL    HW2 2358   6.497   0.428   0.271
  487SOL     OW 2359   0.867   0.567   3.464
  487SOL    HW1 2360   0.876   0.473   3.497
  487SOL    HW2 2361   0.863   0.568   3.365
  488SOL     OW 2362   1.047   1.164   2.198
  488SOL    HW1 2363   0.988   1.111   2.137
  488SOL    HW2 2364   1.131   1.189   2.150
  489SOL     OW 2365   4.693   5.540   5.333
  489SOL    HW1 2366   4.737   5.622   5.369
  489SOL    HW2 2367   4.679   5.550   5.235
  490SOL     OW 2368   0.700   6.265   2.969
  490SOL    HW1 2369   0.663   6.242   2.880
  490SOL    HW2 2370   0.758   6.347   2.960
  491SOL     OW 2371   1.361   3.424   1.723
  491SOL    HW1 2372   1.409   3.510   1.742
  491SOL    HW2 2373   1.423   3.347   1.740
  492SOL     OW 2374   1.413   0.061   5.771
  492SOL    HW1 2375   1.369   0.122   5.838
  492SOL    HW2 2376   1.407   0.102   5.680
  493SOL     OW 2377   3.802   6.674   5.623
  493SOL    HW1 2378   3.857   6.616   5.684
  493SOL    HW2 2379   3.834   6.768   5.629
  494SOL     OW 2380   0.924   6.957   6.685
  494SOL    HW1 2381   1.011   6.931   6.727
  494SOL    HW2 2382   0.919   6.920   6.592
  495SOL     OW 2383   4.049   5.876   3.738
  495SOL    HW1 2384   3.955   5.886   3.708
  495SOL    HW2 2385   4.089   5.966   3.756
  496SOL     OW 2386   5.446   3.279   1.989
  496SOL    HW1 2387   5.485   3.311   1.902
  496SOL    HW2 2388   5.358   3.326   2.004
  497SOL     OW 2389   3.274   1.655   4.616
  497SOL    HW1 2390   3.194   1.608   4.581
  497SOL    HW2 2391   3.247   1.742   4.656
  498SOL     OW 2392   0.985   4.733   1.500
  498SOL    HW1 2393   0.956   4.824   1.529
  498SOL    HW2 2394   0.908   4.686   1.456
  499SOL     OW 2395   1.974   5.476   4.610
  499SOL    HW1 2396   2.024   5.561   4.626
  499SOL    HW2 2397   2.009   5.431   4.528
  500SOL     OW 2398   0.131   1.963   6.092
  500SOL    HW1 2399   0.157   2.041   6.034
  500SOL    HW2 2400   0.133   1.879   6.038
  501SOL     OW 2401   3.735   0.315   0.937
  501SOL    HW1 2402   3.709   0.286   0.845
  501SOL    HW2 2403   3.666   0.284   1.002
  502SOL     OW 2404   0.756   3.691   5.820
  502SOL    HW1 2405   0.730   3.598   5.793
  502SOL    HW2 2406   0.836   3.687   5.879
  503SOL     OW 2407   0.144   4.968   6.620
  503SOL    HW1 2408   0.243   4.975   6.616
  503SOL    HW2 2409   0.107   4.952   6.529
  504SOL     OW 2410   0.686   5.462   2.198
  504SOL    HW1 2411   0.754   5.391   2.181
  504SOL    HW2 2412   0.712   5.514   2.279
  505SOL     OW 2413   2.852   5.953   4.578
  505SOL    HW1 2414   2.948   5.977   4.562
  505SOL    HW2 2415   2.793   6.017   4.529
  506SOL     OW 2416   2.955   5.192   3.875
  506SOL    HW1 2417   3.013   5.183   3.955
  506SOL    HW2 2418   2.895   5.113   3.868
  507SOL     OW 2419   2.974   0.535   3.409
  507SOL    HW1 2420   2.994   0.474   3.332
  507SOL    HW2 2421   3.017   0.624   3.394
  508SOL     OW 2422   0.273   3.657   2.441
  508SOL    HW1 2423   0.318   3.660   2.530
  508SOL    HW2 2424   0.182   3.618   2.450
  509SOL     OW 2425   2.732   1.181   1.532
  509SOL    HW1 2426   2.742   1.271   1.573
  509SOL    HW2 2427   2.820   1.151   1.493
  510SOL     OW 2428   6.322   4.259   6.946
  510SOL    HW1 2429   6.248   4.325   6.951
  510SOL    HW2 2430   6.344   4.226   0.019
  511SOL     OW 2431   0.858   2.385   5.896
  511SOL    HW1 2432   0.839   2.475   5.856
  511SOL    HW2 2433   0.878   2.319   5.824
  512SOL     OW 2434   0.229   2.409   6.468
  512SOL    HW1 2435   0.192   2.407   6.561
  512SOL    HW2 2436   0.290   2.488   6.457
  513SOL     OW 2437   5.644   6.558   3.294
  513SOL    HW1 2438   5.690   6.581   3.379
  513SOL    HW2 2439   5.696   6.594   3.217
  514SOL     OW 2440   6.236   0.587   4.401
  514SOL    HW1 2441   6.245   0.489   4.416
  514SOL    HW2 2442   6.327   0.629   4.399
  515SOL     OW 2443   1.362   6.818   1.065
  515SOL    HW1 2444   1.432   6.752   1.039
  515SOL    HW2 2445   1.396   6.911   1.052
  516SOL     OW 2446   2.934   4.732   2.103
  516SOL    HW1 2447   2.908   4.697   2.013
  516SOL    HW2 2448   3.022   4.778   2.097
  517SOL     OW 2449   3.814   5.168   1.729
  517SOL    HW1 2450   3.789   5.247   1.672
  517SOL    HW2 2451   3.869   5.199   1.806
  518SOL     OW 2452   2.238   2.081   3.682
  518SOL    HW1 2453   2.288   2.012   3.630
  518SOL    HW2 2454   2.181   2.135   3.621
  519SOL     OW 2455   0.832   6.280   3.855
  519SOL    HW1 2456   0.814   6.282   3.954
  519SOL    HW2 2457   0.900   6.349   3.832
  520SOL     OW 2458   5.637   3.897   6.915
  520SOL    HW1 2459   5.682   3.912   6.827
  520SOL    HW2 2460   5.605   3.803   6.920
  521SOL     OW 2461   6.014   6.123   4.855
  521SOL    HW1 2462   6.060   6.146   4.769
  521SOL    HW2 2463   6.055   6.173   4.930
  522SOL     OW 2464   3.515   3.306   4.029
  522SOL    HW1 2465   3.521   3.300   3.929
  522SOL    HW2 2466   3.530   3.215   4.068
  523SOL     OW 2467   0.845   6.101   1.724
  523SOL    HW1 2468   0.809   6.099   1.631
  523SOL    HW2 2469   0.858   6.007   1.757
  524SOL     OW 2470   0.655   2.108   2.558
  524SOL    HW1 2471   0.745   2.065   2.561
  524SOL    HW2 2472   0.627   2.123   2.463
  525SOL     OW 2473   1.926   4.330   5.744
  525SOL    HW1 2474   1.991   4.313   5.670
  525SOL    HW2 2475   1.911   4.245   5.796
  526SOL     OW 2476   3.045   6.175   3.870
  526SOL    HW1 2477   3.097   6.195   3.787
  526SOL    HW2 2478   3.076   6.234   3.944
  527SOL     OW 2479   6.577   3.248   0.794
  527SOL    HW1 2480   6.585   3.152   0.765
  527SOL    HW2 2481   6.490   3.261   0.840
  528SOL     OW 2482   1.505   2.656   3.760
  528SOL    HW1 2483   1.441   2.721   3.718
  528SOL    HW2 2484   1.566   2.704   3.822
  529SOL     OW 2485   1.191   5.263   4.881
  529SOL    HW1 2486   1.258   5.336   4.898
  529SOL    HW2 2487   1.155   5.273   4.788
  530SOL     OW 2488   4.109   3.402   3.899
  530SOL    HW1 2489   4.023   3.356   3.877
  530SOL    HW2 2490   4.098   3.456   3.982
  531SOL     OW 2491   0.901   2.242   2.919
  531SOL    HW1 2492   0.922   2.311   2.849
  531SOL    HW2 2493   0.848   2.168   2.877
  532SOL     OW 2494   0.783   3.253   0.145
  532SOL    HW1 2495   0.794   3.251   0.245
  532SOL    HW2 2496   0.837   3.178   0.105
  533SOL     OW 2497   4.032   6.889   4.192
  533SOL    HW1 2498   3.987   6.802   4.175
  533SOL    HW2 2499   4.025   6.947   4.111
  534SOL     OW 2500   5.114   6.515   2.463
  534SOL    HW1 2501   5.021   6.509   2.498
  534SOL    HW2 2502   5.178   6.481   2.532
  535SOL     OW 2503   6.763   3.666   4.352
  535SOL    HW1 2504   6.748   3.580   4.306
  535SOL    HW2 2505   6.688   3.729   4.332
  536SOL     OW 2506   6.132   4.991   2.610
  536SOL    HW1 2507   6.144   4.956   2.703
  536SOL    HW2 2508   6.093   5.083   2.614
  537SOL     OW 2509   2.401   6.551   4.711
  537SOL    HW1 2510   2.426   6.639   4.671
  537SOL    HW2 2511   2.479   6.515   4.762
  538SOL     OW 2512   1.155   4.403   4.270
  538SOL    HW1 2513   1.210   4.453   4.202
  538SOL    HW2 2514   1.082   4.354   4.223
  539SOL     OW 2515   2.167   5.269   1.508
  539SOL    HW1 2516   2.264   5.287   1.526
  539SOL    HW2 2517   2.153   5.170   1.501
  540SOL     OW 2518   1.561   1.515   2.706
  540SOL    HW1 2519   1.572   1.572   2.624
  540SOL    HW2 2520   1.483   1.548   2.758
  541SOL     OW 2521   5.109   5.014   3.859
  541SOL    HW1 2522   5.114   4.980   3.953
  541SOL    HW2 2523   5.201   5.034   3.825
  542SOL     OW 2524   5.769   5.676   0.004
  542SOL    HW1 2525   5.689   5.648   6.972
  542SOL    HW2 2526   5.761   5.641   0.098
  543SOL     OW 2527   0.359   3.135   4.461
  543SOL    HW1 2528   0.415   3.218   4.472
  543SOL    HW2 2529   0.279   3.141   4.520
  544SOL     OW 2530   1.727   4.914   0.333
  544SOL    HW1 2531   1.673   4.996   0.314
  544SOL    HW2 2532   1.780   4.889   0.252
  545SOL     OW 2533   3.263   1.782   1.247
  545SOL    HW1 2534   3.182   1.747   1.200
  545SOL    HW2 2535   3.337   1.715   1.241
  546SOL     OW 2536   2.619   3.145   0.702
  546SOL    HW1 2537   2.586   3.237   0.686
  546SOL    HW2 2538   2.613   3.124   0.800
  547SOL     OW 2539   3.649   1.267   0.491
  547SOL    HW1 2540   3.665   1.266   0.589
  547SOL    HW2 2541   3.575   1.204   0.468
  548SOL     OW 2542   3.435   3.577   2.626
  548SOL    HW1 2543   3.447   3.644   2.553
  548SOL    HW2 2544   3.341   3.580   2.659
  549SOL     OW 2545   5.770   3.394   0.841
  549SOL    HW1 2546   5.869   3.384   0.845
  549SOL    HW2 2547   5.727   3.320   0.893
  550SOL     OW 2548   1.112   5.857   3.867
  550SOL    HW1 2549   1.107   5.927   3.939
  550SOL    HW2 2550   1.178   5.787   3.894
  551SOL     OW 2551   1.363   0.325   2.025
  551SOL    HW1 2552   1.345   0.309   1.928
  551SOL    HW2 2553   1.461   0.322   2.041
  552SOL     OW 2554   6.269   4.623   6.736
  552SOL    HW1 2555   6.243   4.537   6.694
  552SOL    HW2 2556   6.305   4.606   6.828
  553SOL     OW 2557   2.704   6.122   3.393
  553SOL    HW1 2558   2.647   6.137   3.474
  553SOL    HW2 2559   2.773   6.194   3.387
  554SOL     OW 2560   6.681   6.541   6.856
  554SOL    HW1 2561   6.740   6.569   6.780
  554SOL    HW2 2562   6.678   6.614   6.924
  555SOL     OW 2563   2.393   4.389   4.690
  555SOL    HW1 2564   2.304   4.403   4.647
  555SOL    HW2 2565   2.383   4.399   4.789
  556SOL     OW 2566   4.295   1.924   4.122
  556SOL    HW1 2567   4.346   1.897   4.203
  556SOL    HW2 2568   4.296   2.024   4.114
  557SOL     OW 2569   0.198   5.450   0.633
  557SOL    HW1 2570   0.209   5.470   0.731
  557SOL    HW2 2571   0.238   5.525   0.580
  558SOL     OW 2572   2.907   3.438   3.751
  558SOL    HW1 2573   2.849   3.508   3.710
  558SOL    HW2 2574   2.999   3.446   3.712
  559SOL     OW 2575   0.077   5.620   0.014
  559SOL    HW1 2576   0.146   5.640   6.965
  559SOL    HW2 2577   7.011   5.595   6.989
  560SOL     OW 2578   5.424   4.776   5.460
  560SOL    HW1 2579   5.467   4.753   5.373
  560SOL    HW2 2580   5.495   4.796   5.528
  561SOL     OW 2581   0.718   1.830   1.485
  561SOL    HW1 2582   0.751   1.755   1.428
  561SOL    HW2 2583   0.738   1.917   1.440
  562SOL     OW 2584   4.677   0.372   6.134
  562SOL    HW1 2585   4.714   0.328   6.216
  562SOL    HW2 2586   4.752   0.417   6.085
  563SOL     OW 2587   2.761   0.655   3.571
  563SOL    HW1 2588   2.828   0.609   3.512
  563SOL    HW2 2589   2.761   0.611   3.661
  564SOL     OW 2590   1.500   1.852   6.563
  564SOL    HW1 2591   1.408   1.820   6.582
  564SOL    HW2 2592   1.496   1.930   6.500
  565SOL     OW 2593   3.086   3.128   5.326
  565SOL    HW1 2594   3.138   3.065   5.269
  565SOL    HW2 2595   2.989   3.124   5.301
  566SOL     OW 2596   6.639   4.902   3.402
  566SOL    HW1 2597   6.736   4.913   3.426
  566SOL    HW2 2598   6.597   4.992   3.395
  567SOL     OW 2599   2.883   2.731   1.429
  567SOL    HW1 2600   2.830   2.647   1.422
  567SOL    HW2 2601   2.865   2.776   1.517
  568SOL     OW 2602   4.951   0.745   0.131
  568SOL    HW1 2603   5.013   0.667   0.142
  568SOL    HW2 2604   4.915   0.772   0.220
  569SOL     OW 2605   1.618   2.843   6.492
  569SOL    HW1 2606   1.607   2.763   6.552
  569SOL    HW2 2607   1.562   2.918   6.526
  570SOL     OW 2608   3.672   5.656   6.774
  570SOL    HW1 2609   3.610   5.704   6.712
  570SOL    HW2 2610   3.688   5.563   6.740
  571SOL     OW 2611   3.462   6.760   2.089
  571SOL    HW1 2612   3.534   6.691   2.100
  571SOL    HW2 2613   3.498   6.838   2.038
  572SOL     OW 2614   2.739   4.624   5.690
  572SOL    HW1 2615   2.803   4.571   5.635
  572SOL    HW2 2616   2.788   4.698   5.735
  573SOL     OW 2617   5.458   1.101   5.474
  573SOL    HW1 2618   5.528   1.031   5.491
  573SOL    HW2 2619   5.403   1.073   5.396
  574SOL     OW 2620   3.671   1.872   4.415
  574SOL    HW1 2621   3.765   1.840   4.428
  574SOL    HW2 2622   3.628   1.820   4.341
  575SOL     OW 2623   5.048   4.206   6.695
  575SOL    HW1 2624   5.096   4.145   6.633
  575SOL    HW2 2625   4.995   4.152   6.761
  576SOL     OW 2626   1.089   2.180   3.246
  576SOL    HW1 2627   0.999   2.148   3.275
  576SOL    HW2 2628   1.110   2.144   3.155
  577SOL     OW 2629   1.541   1.249   2.756
  577SOL    HW1 2630   1.469   1.252   2.826
  577SOL    HW2 2631   1.568   1.342   2.732
  578SOL     OW 2632   5.684   6.017   4.053
  578SOL    HW1 2633   5.670   6.094   3.990
  578SOL    HW2 2634   5.667   5.931   4.005
  579SOL     OW 2635   1.820   3.249   3.146
  579SOL    HW1 2636   1.763   3.240   3.065
  579SOL    HW2 2637   1.825   3.345   3.174
  580SOL     OW 2638   5.358   5.471   0.073
  580SOL    HW1 2639   5.367   5.470   0.173
  580SOL    HW2 2640   5.415   5.544   0.036
  581SOL     OW 2641   2.516   3.593   1.459
  581SOL    HW1 2642   2.563   3.533   1.394
  581SOL    HW2 2643   2.546   3.571   1.552
  582SOL     OW 2644   4.389   6.435   1.444
  582SOL    HW1 2645   4.360   6.530   1.449
  582SOL    HW2 2646   4.445   6.413   1.524
  583SOL     OW 2647   3.159   6.003   5.491
  583SOL    HW1 2648   3.169   5.962   5.582
  583SOL    HW2 2649   3.119   5.936   5.428
  584SOL     OW 2650   2.796   4.344   6.626
  584SOL    HW1 2651   2.764   4.277   6.694
  584SOL    HW2 2652   2.892   4.364   6.642
  585SOL     OW 2653   5.365   2.728   6.177
  585SOL    HW1 2654   5.415   2.650   6.213
  585SOL    HW2 2655   5.367   2.803   6.244
  586SOL     OW 2656   3.770   0.696   6.101
  586SOL    HW1 2657   3.772   0.758   6.180
  586SOL    HW2 2658   3.840   0.626   6.112
  587SOL     OW 2659   4.250   1.887   5.347
  587SOL    HW1 2660   4.346   1.899   5.322
  587SOL    HW2 2661   4.201   1.839   5.273
  588SOL     OW 2662   1.384   4.599   2.573
  588SOL    HW1 2663   1.350   4.686   2.537
  588SOL    HW2 2664   1.352   4.524   2.515
  589SOL     OW 2665   3.323   4.541   1.346
  589SOL    HW1 2666   3.250   4.574   1.285
  589SOL    HW2 2667   3.385   4.616   1.368
  590SOL     OW 2668   4.787   2.919   3.322
  590SOL    HW1 2669   4.778   3.003   3.268
  590SOL    HW2 2670   4.698   2.874   3.329
  591SOL     OW 2671   3.001   5.454   3.816
  591SOL    HW1 2672   3.097   5.479   3.830
  591SOL    HW2 2673   2.984   5.362   3.850
  592SOL     OW 2674   3.803   1.275   1.017
  592SOL    HW1 2675   3.862   1.196   1.032
  592SOL    HW2 2676   3.841   1.354   1.065
  593SOL     OW 2677   4.697   2.706   4.051
  593SOL    HW1 2678   4.638   2.629   4.025
  593SOL    HW2 2679   4.772   2.672   4.108
  594SOL     OW 2680   6.693   2.063   0.173
  594SOL    HW1 2681   6.792   2.055   0.183
  594SOL    HW2 2682   6.671   2.143   0.117
  595SOL     OW 2683   5.671   0.106   3.630
  595SOL    HW1 2684   5.745   0.085   3.565
  595SOL    HW2 2685   5.616   0.181   3.595
  596SOL     OW 2686   0.845   5.010   3.282
  596SOL    HW1 2687   0.771   5.058   3.329
  596SOL    HW2 2688   0.809   4.963   3.202
  597SOL     OW 2689   2.793   0.656   0.050
  597SOL    HW1 2690   2.723   0.726   0.037
  597SOL    HW2 2691   2.855   0.655   6.992
  598SOL     OW 2692   4.400   4.870   5.580
  598SOL    HW1 2693   4.475   4.922   5.623
  598SOL    HW2 2694   4.355   4.928   5.512
  599SOL     OW 2695   2.044   6.256   2.129
  599SOL    HW1 2696   2.135   6.238   2.168
  599SOL    HW2 2697   2.043   6.345   2.085
  600SOL     OW 2698   0.095   1.491   6.366
  600SOL    HW1 2699   0.065   1.464   6.275
  600SOL    HW2 2700   0.066   1.421   6.432
  601SOL     OW 2701   2.102   0.723   4.565
  601SOL    HW1 2702   2.119   0.810   4.613
  601SOL    HW2 2703   2.187   0.671   4.558
  602SOL     OW 2704   2.108   2.601   6.322
  602SOL    HW1 2705   2.138   2.613   6.416
  602SOL    HW2 2706   2.017   2.560   6.321
  603SOL     OW 2707   2.245   2.490   5.094
  603SOL    HW1 2708   2.167   2.438   5.060
  603SOL    HW2 2709   2.326   2.469   5.038
  604SOL     OW 2710   1.324   2.774   1.717
  604SOL    HW1 2711   1.406   2.764   1.773
  604SOL    HW2 2712   1.288   2.683   1.695
  605SOL     OW 2713   6.653   6.746   1.506
  605SOL    HW1 2714   6.717   6.674   1.481
  605SOL    HW2 2715   6.598   6.771   1.427
  606SOL     OW 2716   4.225   6.973   6.808
  606SOL    HW1 2717   4.219   0.045   6.767
  606SOL    HW2 2718   4.247   6.907   6.736
  607SOL     OW 2719   6.764   6.497   6.037
  607SOL    HW1 2720   6.848   6.502   6.091
  607SOL    HW2 2721   6.700   6.434   6.082
  608SOL     OW 2722   3.468   6.025   6.235
  608SOL    HW1 2723   3.538   6.080   6.281
  608SOL    HW2 2724   3.500   5.930   6.228
  609SOL     OW 2725   3.912   3.137   3.065
  609SOL    HW1 2726   3.893   3.056   3.121
  609SOL    HW2 2727   3.934   3.214   3.124
  610SOL     OW 2728   5.500   3.981   1.999
  610SOL    HW1 2729   5.583   3.931   1.973
  610SOL    HW2 2730   5.481   3.967   2.096
  611SOL     OW 2731   3.666   6.964   0.830
  611SOL    HW1 2732   3.575   6.978   0.868
  611SOL    HW2 2733   3.662   6.898   0.756
  612SOL     OW 2734   4.165   6.737   5.874
  612SOL    HW1 2735   4.106   6.728   5.955
  612SOL    HW2 2736   4.221   6.819   5.882
  613SOL     OW 2737   3.855   6.333   5.542
  613SOL    HW1 2738   3.937   6.389   5.527
  613SOL    HW2 2739   3.835   6.280   5.459
  614SOL     OW 2740   5.084   5.210   1.186
  614SOL    HW1 2741   5.138   5.278   1.136
  614SOL    HW2 2742   4.997   5.250   1.214
  615SOL     OW 2743   6.298   2.482   1.728
  615SOL    HW1 2744   6.241   2.404   1.701
  615SOL    HW2 2745   6.245   2.542   1.789
  616SOL     OW 2746   6.827   2.307   3.751
  616SOL    HW1 2747   6.857   2.213   3.735
  616SOL    HW2 2748   6.863   2.366   3.679
  617SOL     OW 2749   6.580   4.552   6.556
  617SOL    HW1 2750   6.599   4.504   6.642
  617SOL    HW2 2751   6.508   4.504   6.506
  618SOL     OW 2752   6.622   2.441   6.355
  618SOL    HW1 2753   6.669   2.473   6.438
  618SOL    HW2 2754   6.672   2.471   6.275
  619SOL     OW 2755   4.405   1.263   0.056
  619SOL    HW1 2756   4.387   1.206   0.136
  619SOL    HW2 2757   4.374   1.216   6.994
  620SOL     OW 2758   4.521   2.943   1.345
  620SOL    HW1 2759   4.511   3.023   1.286
  620SOL    HW2 2760   4.434   2.921   1.388
  621SOL     OW 2761   2.847   6.583   6.646
  621SOL    HW1 2762   2.918   6.528   6.688
  621SOL    HW2 2763   2.887   6.669   6.612
  622SOL     OW 2764   2.072   0.419   5.081
  622SOL    HW1 2765   2.061   0.513   5.111
  622SOL    HW2 2766   2.164   0.406   5.044
  623SOL     OW 2767   0.229   5.655   6.107
  623SOL    HW1 2768   0.294   5.728   6.084
  623SOL    HW2 2769   0.182   5.678   6.192
  624SOL     OW 2770   0.092   2.074   1.102
  624SOL    HW1 2771   0.048   2.145   1.157
  624SOL    HW2 2772   0.147   2.015   1.162
  625SOL     OW 2773   1.455   1.673   2.211
  625SOL    HW1 2774   1.417   1.597   2.159
  625SOL    HW2 2775   1.438   1.759   2.162
  626SOL     OW 2776   1.777   5.768   3.227
  626SOL    HW1 2777   1.804   5.845   3.285
  626SOL    HW2 2778   1.852   5.744   3.166
  627SOL     OW 2779   5.978   6.336   0.174
  627SOL    HW1 2780   5.882   6.311   0.181
  627SOL    HW2 2781   5.988   6.417   0.115
  628SOL     OW 2782   5.891   5.511   5.566
  628SOL    HW1 2783   5.824   5.495   5.493
  628SOL    HW2 2784   5.982   5.522   5.525
  629SOL     OW 2785   0.202   0.520   6.340
  629SOL    HW1 2786   0.296   0.488   6.347
  629SOL    HW2 2787   0.144   0.467   6.402
  630SOL     OW 2788   0.714   1.908   1.135
  630SOL    HW1 2789   0.632   1.860   1.166
  630SOL    HW2 2790   0.688   1.982   1.074
  631SOL     OW 2791   4.180   0.384   5.151
  631SOL    HW1 2792   4.160   0.452   5.221
  631SOL    HW2 2793   4.111   0.391   5.078
  632SOL     OW 2794   3.528   1.650   1.217
  632SOL    HW1 2795   3.586   1.647   1.298
  632SOL    HW2 2796   3.569   1.708   1.147
  633SOL     OW 2797   3.431   3.745   6.677
  633SOL    HW1 2798   3.434   3.667   6.615
  633SOL    HW2 2799   3.338   3.758   6.710
  634SOL     OW 2800   3.288   3.250   1.492
  634SOL    HW1 2801   3.208   3.211   1.538
  634SOL    HW2 2802   3.271   3.254   1.394
  635SOL     OW 2803   4.636   5.424   1.453
  635SOL    HW1 2804   4.660   5.521   1.443
  635SOL    HW2 2805   4.537   5.414   1.442
  636SOL     OW 2806   2.516   6.173   0.159
  636SOL    HW1 2807   2.585   6.246   0.162
  636SOL    HW2 2808   2.457   6.186   0.080
  637SOL     OW 2809   0.297   3.223   2.981
  637SOL    HW1 2810   0.364   3.183   3.044
  637SOL    HW2 2811   0.340   3.298   2.931
  638SOL     OW 2812   5.279   2.000   4.312
  638SOL    HW1 2813   5.369   1.982   4.271
  638SOL    HW2 2814   5.258   2.097   4.302
  639SOL     OW 2815   4.861   3.882   3.207
  639SOL    HW1 2816   4.835   3.947   3.135
  639SOL    HW2 2817   4.943   3.832   3.179
  640SOL     OW 2818   0.586   5.492   3.994
  640SOL    HW1 2819   0.663   5.520   4.052
  640SOL    HW2 2820   0.614   5.415   3.936
  641SOL     OW 2821   6.681   4.987   4.353
  641SOL    HW1 2822   6.710   4.932   4.431
  641SOL    HW2 2823   6.697   5.084   4.372
  642SOL     OW 2824   6.534   2.900   4.390
  642SOL    HW1 2825   6.474   2.918   4.467
  642SOL    HW2 2826   6.500   2.821   4.338
  643SOL     OW 2827   5.981   5.253   5.286
  643SOL    HW1 2828   5.913   5.271   5.357
  643SOL    HW2 2829   5.995   5.336   5.232
  644SOL     OW 2830   1.415   6.632   4.353
  644SOL    HW1 2831   1.476   6.608   4.428
  644SOL    HW2 2832   1.450   6.594   4.268
  645SOL     OW 2833   3.804   0.577   4.595
  645SOL    HW1 2834   3.888   0.626   4.572
  645SOL    HW2 2835   3.824   0.480   4.606
  646SOL     OW 2836   3.733   1.021   4.551
  646SOL    HW1 2837   3.748   0.922   4.555
  646SOL    HW2 2838   3.636   1.041   4.563
  647SOL     OW 2839   5.356   1.302   5.222
  647SOL    HW1 2840   5.368   1.295   5.123
  647SOL    HW2 2841   5.264   1.274   5.247
  648SOL     OW 2842   0.724   3.790   3.738
  648SOL    HW1 2843   0.741   3.697   3.772
  648SOL    HW2 2844   0.695   3.848   3.814
  649SOL     OW 2845   2.507   4.081   0.842
  649SOL    HW1 2846   2.496   3.985   0.868
  649SOL    HW2 2847   2.423   4.131   0.863
  650SOL     OW 2848   5.997   4.125   0.300
  650SOL    HW1 2849   5.924   4.179   0.256
  650SOL    HW2 2850   6.065   4.187   0.338
  651SOL     OW 2851   0.002   5.978   5.968
  651SOL    HW1 2852   6.927   5.946   5.961
  651SOL    HW2 2853   0.004   6.077   5.953
  652SOL     OW 2854   4.674   0.336   3.349
  652SOL    HW1 2855   4.601   0.351   3.415
  652SOL    HW2 2856   4.639   0.283   3.272
  653SOL     OW 2857   0.958   5.763   5.925
  653SOL    HW1 2858   0.987   5.700   5.997
  653SOL    HW2 2859   0.981   5.723   5.836
  654SOL     OW 2860   0.341   4.130   6.188
  654SOL    HW1 2861   0.317   4.092   6.099
  654SOL    HW2 2862   0.433   4.168   6.184
  655SOL     OW 2863   0.293   6.036   1.886
  655SOL    HW1 2864   0.235   5.980   1.945
  655SOL    HW2 2865   0.318   5.984   1.805
  656SOL     OW 2866   1.718   5.972   1.270
  656SOL    HW1 2867   1.716   5.882   1.313
  656SOL    HW2 2868   1.738   6.041   1.340
  657SOL     OW 2869   2.251   3.351   1.632
  657SOL    HW1 2870   2.271   3.403   1.549
  657SOL    HW2 2871   2.289   3.398   1.711
  658SOL     OW 2872   2.947   4.087   6.913
  658SOL    HW1 2873   2.879   4.161   6.913
  658SOL    HW2 2874   2.909   4.009   6.963
  659SOL     OW 2875   1.593   5.602   5.736
  659SOL    HW1 2876   1.602   5.505   5.711
  659SOL    HW2 2877   1.581   5.610   5.835
  660SOL     OW 2878   5.445   3.968   2.281
  660SOL    HW1 2879   5.488   4.053   2.312
  660SOL    HW2 2880   5.498   3.890   2.314
  661SOL     OW 2881   4.986   5.142   3.508
  661SOL    HW1 2882   5.033   5.118   3.423
  661SOL    HW2 2883   4.939   5.061   3.543
  662SOL     OW 2884   3.607   0.732   5.098
  662SOL    HW1 2885   3.628   0.707   5.004
  662SOL    HW2 2886   3.654   0.817   5.121
  663SOL     OW 2887   1.988   3.713   6.910
  663SOL    HW1 2888   2.042   3.673   6.836
  663SOL    HW2 2889   1.893   3.683   6.902
  664SOL     OW 2890   6.895   4.900   6.085
  664SOL    HW1 2891   6.847   4.914   5.998
  664SOL    HW2 2892   6.928   4.988   6.119
  665SOL     OW 2893   4.647   4.530   1.369
  665SOL    HW1 2894   4.722   4.465   1.360
  665SOL    HW2 2895   4.683   4.623   1.366
  666SOL     OW 2896   4.861   1.876   2.820
  666SOL    HW1 2897   4.803   1.832   2.752
  666SOL    HW2 2898   4.832   1.848   2.912
  667SOL     OW 2899   6.339   4.009   3.855
  667SOL    HW1 2900   6.262   4.072   3.845
  667SOL    HW2 2901   6.384   4.026   3.943
  668SOL     OW 2902   5.117   6.017   6.598
  668SOL    HW1 2903   5.081   6.110   6.592
  668SOL    HW2 2904   5.115   5.975   6.507
  669SOL     OW 2905   3.784   6.975   4.351
  669SOL    HW1 2906   3.882   6.957   4.345
  669SOL    HW2 2907   3.741   6.959   4.262
  670SOL     OW 2908   2.958   2.729   0.659
  670SOL    HW1 2909   2.865   2.762   0.673
  670SOL    HW2 2910   3.001   2.779   0.584
  671SOL     OW 2911   2.064   6.156   1.198
  671SOL    HW1 2912   1.971   6.180   1.173
  671SOL    HW2 2913   2.128   6.218   1.152
  672SOL     OW 2914   1.239   5.195   1.868
  672SOL    HW1 2915   1.339   5.188   1.857
  672SOL    HW2 2916   1.202   5.105   1.890
  673SOL     OW 2917   0.383   0.584   1.410
  673SOL    HW1 2918   0.425   0.643   1.342
  673SOL    HW2 2919   0.301   0.541   1.371
  674SOL     OW 2920   0.281   2.880   5.062
  674SOL    HW1 2921   0.365   2.829   5.081
  674SOL    HW2 2922   0.204   2.816   5.055
  675SOL     OW 2923   0.105   0.726   3.943
  675SOL    HW1 2924   0.175   0.786   3.905
  675SOL    HW2 2925   0.027   0.780   3.973
  676SOL     OW 2926   3.852   6.055   2.882
  676SOL    HW1 2927   3.898   5.968   2.900
  676SOL    HW2 2928   3.821   6.057   2.788
  677SOL     OW 2929   6.735   1.756   0.014
  677SOL    HW1 2930   6.653   1.717   0.056
  677SOL    HW2 2931   6.815   1.706   0.047
  678SOL     OW 2932   2.074   1.366   5.068
  678SOL    HW1 2933   1.986   1.331   5.097
  678SOL    HW2 2934   2.112   1.425   5.139
  679SOL     OW 2935   4.669   1.801   4.239
  679SOL    HW1 2936   4.585   1.836   4.280
  679SOL    HW2 2937   4.655   1.784   4.141
  680SOL     OW 2938   5.817   5.211   5.515
  680SOL    HW1 2939   5.834   5.184   5.609
  680SOL    HW2 2940   5.765   5.139   5.468
  681SOL     OW 2941   5.309   5.328   1.868
  681SOL    HW1 2942   5.277   5.413   1.826
  681SOL    HW2 2943   5.405   5.337   1.893
  682SOL     OW 2944   1.347   0.752   0.737
  682SOL    HW1 2945   1.325   0.672   0.792
  682SOL    HW2 2946   1.286   0.757   0.658
  683SOL     OW 2947   3.842   3.704   0.504
  683SOL    HW1 2948   3.884   3.794   0.497
  683SOL    HW2 2949   3.914   3.635   0.514
  684SOL     OW 2950   0.193   0.878   6.957
  684SOL    HW1 2951   0.227   0.801   7.011
  684SOL    HW2 2952   0.098   0.860   6.930
  685SOL     OW 2953   4.730   1.010   4.280
  685SOL    HW1 2954   4.808   1.051   4.234
  685SOL    HW2 2955   4.653   1.075   4.280
  686SOL     OW 2956   5.370   2.402   3.804
  686SOL    HW1 2957   5.409   2.353   3.882
  686SOL    HW2 2958   5.405   2.364   3.719
  687SOL     OW 2959   0.468   2.016   4.552
  687SOL    HW1 2960   0.454   2.026   4.454
  687SOL    HW2 2961   0.408   1.944   4.587
  688SOL     OW 2962   0.734   2.356   0.245
  688SOL    HW1 2963   0.663   2.317   0.187
  688SOL    HW2 2964   0.798   2.408   0.189
  689SOL     OW 2965   6.731   3.617   6.080
  689SOL    HW1 2966   6.765   3.645   6.169
  689SOL    HW2 2967   6.739   3.693   6.015
  690SOL     OW 2968   0.410   4.315   2.908
  690SOL    HW1 2969   0.425   4.253   2.831
  690SOL    HW2 2970   0.311   4.321   2.927
  691SOL     OW 2971   2.438   6.776   6.519
  691SOL    HW1 2972   2.352   6.823   6.498
  691SOL    HW2 2973   2.513   6.824   6.474
  692SOL     OW 2974   2.960   6.541   3.552
  692SOL    HW1 2975   2.948   6.639   3.536
  692SOL    HW2 2976   3.054   6.515   3.528
  693SOL     OW 2977   5.965   1.181   3.202
  693SOL    HW1 2978   5.873   1.142   3.210
  693SOL    HW2 2979   5.966   1.251   3.131
  694SOL     OW 2980   4.227   5.693   2.770
  694SOL    HW1 2981   4.221   5.631   2.848
  694SOL    HW2 2982   4.171   5.658   2.695
  695SOL     OW 2983   4.076   6.062   4.186
  695SOL    HW1 2984   4.051   6.019   4.272
  695SOL    HW2 2985   4.051   6.159   4.188
  696SOL     OW 2986   4.023   4.775   2.313
  696SOL    HW1 2987   4.071   4.810   2.232
  696SOL    HW2 2988   3.924   4.782   2.299
  697SOL     OW 2989   2.140   3.487   3.392
  697SOL    HW1 2990   2.115   3.444   3.479
  697SOL    HW2 2991   2.120   3.584   3.396
  698SOL     OW 2992   5.705   6.353   0.214
  698SOL    HW1 2993   5.666   6.326   0.126
  698SOL    HW2 2994   5.642   6.327   0.288
  699SOL     OW 2995   2.116   3.128   6.338
  699SOL    HW1 2996   2.112   3.203   6.271
  699SOL    HW2 2997   2.178   3.057   6.304
  700SOL     OW 2998   2.530   1.300   2.832
  700SOL    HW1 2999   2.449   1.264   2.787
  700SOL    HW2 3000   2.503   1.347   2.916
  701SOL     OW 3001   6.118   3.597   5.365
  701SOL    HW1 3002   6.203   3.604   5.314
  701SOL    HW2 3003   6.125   3.649   5.450
  702SOL     OW 3004   0.898   5.935   5.319
  702SOL    HW1 3005   0.874   5.985   5.402
  702SOL    HW2 3006   0.976   5.875   5.338
  703SOL     OW 3007   3.544   4.131   6.277
  703SOL    HW1 3008   3.497   4.128   6.189
  703SOL    HW2 3009   3.519   4.051   6.331
  704SOL     OW 3010   1.667   1.656   6.957
  704SOL    HW1 3011   1.570   1.675   6.942
  704SOL    HW2 3012   1.699   1.592   6.888
  705SOL     OW 3013   6.086   5.966   2.571
  705SOL    HW1 3014   6.064   6.062   2.553
  705SOL    HW2 3015   6.180   5.960   2.606
  706SOL     OW 3016   4.507   2.531   4.514
  706SOL    HW1 3017   4.552   2.621   4.516
  706SOL    HW2 3018   4.515   2.488   4.604
  707SOL     OW 3019   5.076   6.280   2.687
  707SOL    HW1 3020   5.032   6.221   2.619
  707SOL    HW2 3021   5.035   6.370   2.685
  708SOL     OW 3022   4.559   6.691   1.388
  708SOL    HW1 3023   4.634   6.756   1.376
  708SOL    HW2 3024   4.538   6.682   1.486
  709SOL     OW 3025   0.853   5.891   1.169
  709SOL    HW1 3026   0.925   5.938   1.117
  709SOL    HW2 3027   0.874   5.895   1.267
  710SOL     OW 3028   4.063   3.334   2.673
  710SOL    HW1 3029   4.090   3.288   2.758
  710SOL    HW2 3030   3.972   3.302   2.645
  711SOL     OW 3031   6.423   3.112   5.423
  711SOL    HW1 3032   6.399   3.087   5.517
  711SOL    HW2 3033   6.409   3.210   5.409
  712SOL     OW 3034   4.076   3.148   1.385
  712SOL    HW1 3035   4.008   3.161   1.457
  712SOL    HW2 3036   4.038   3.179   1.297
  713SOL     OW 3037   4.409   2.429   5.928
  713SOL    HW1 3038   4.483   2.481   5.887
  713SOL    HW2 3039   4.428   2.331   5.919
  714SOL     OW 3040   6.364   4.544   3.604
  714SOL    HW1 3041   6.346   4.483   3.527
  714SOL    HW2 3042   6.341   4.498   3.689
  715SOL     OW 3043   5.578   5.833   0.479
  715SOL    HW1 3044   5.644   5.764   0.510
  715SOL    HW2 3045   5.501   5.837   0.542
  716SOL     OW 3046   0.635   0.812   1.830
  716SOL    HW1 3047   0.663   0.869   1.752
  716SOL    HW2 3048   0.552   0.762   1.807
  717SOL     OW 3049   6.191   4.177   5.556
  717SOL    HW1 3050   6.155   4.215   5.642
  717SOL    HW2 3051   6.282   4.139   5.572
  718SOL     OW 3052   5.328   2.728   5.842
  718SOL    HW1 3053   5.315   2.705   5.745
  718SOL    HW2 3054   5.408   2.679   5.877
  719SOL     OW 3055   5.986   0.430   1.639
  719SOL    HW1 3056   6.061   0.497   1.637
  719SOL    HW2 3057   5.917   0.460   1.706
  720SOL     OW 3058   3.509   0.589   5.996
  720SOL    HW1 3059   3.525   0.576   5.898
  720SOL    HW2 3060   3.570   0.661   6.030
  721SOL     OW 3061   2.594   2.032   4.001
  721SOL    HW1 3062   2.561   2.107   4.058
  721SOL    HW2 3063   2.640   2.069   3.920
  722SOL     OW 3064   2.689   0.433   5.522
  722SOL    HW1 3065   2.750   0.368   5.567
  722SOL    HW2 3066   2.627   0.474   5.589
  723SOL     OW 3067   1.999   4.426   2.701
  723SOL    HW1 3068   1.973   4.342   2.749
  723SOL    HW2 3069   2.066   4.476   2.756
  724SOL     OW 3070   0.915   2.996   4.131
  724SOL    HW1 3071   0.880   2.935   4.060
  724SOL    HW2 3072   0.951   3.079   4.088
  725SOL     OW 3073   2.419   5.841   0.774
  725SOL    HW1 3074   2.377   5.760   0.734
  725SOL    HW2 3075   2.380   5.924   0.733
  726SOL     OW 3076   3.915   5.032   0.962
  726SOL    HW1 3077   3.897   5.124   0.997
  726SOL    HW2 3078   3.908   4.966   1.037
  727SOL     OW 3079   5.592   4.276   5.217
  727SOL    HW1 3080   5.668   4.257   5.280
  727SOL    HW2 3081   5.620   4.347   5.152
  728SOL     OW 3082   6.415   2.860   5.042
  728SOL    HW1 3083   6.445   2.952   5.018
  728SOL    HW2 3084   6.380   2.860   5.136
  729SOL     OW 3085   1.030   1.816   1.047
  729SOL    HW1 3086   1.008   1.846   1.139
  729SOL    HW2 3087   1.048   1.896   0.989
  730SOL     OW 3088   5.754   0.558   4.090
  730SOL    HW1 3089   5.756   0.477   4.031
  730SOL    HW2 3090   5.751   0.641   4.033
  731SOL     OW 3091   5.303   4.290   5.975
  731SOL    HW1 3092   5.276   4.242   6.059
  731SOL    HW2 3093   5.252   4.253   5.898
  732SOL     OW 3094   6.770   2.476   1.394
  732SOL    HW1 3095   6.776   2.517   1.485
  732SOL    HW2 3096   6.853   2.497   1.342
  733SOL     OW 3097   5.437   5.990   5.190
  733SOL    HW1 3098   5.430   6.067   5.253
  733SOL    HW2 3099   5.433   5.905   5.242
  734SOL     OW 3100   0.135   4.930   2.887
  734SOL    HW1 3101   0.106   4.873   2.964
  734SOL    HW2 3102   0.171   5.017   2.921
  735SOL     OW 3103   3.929   2.102   0.469
  735SOL    HW1 3104   3.903   2.096   0.565
  735SOL    HW2 3105   4.026   2.128   0.463
  736SOL     OW 3106   0.216   1.254   3.702
  736SOL    HW1 3107   0.156   1.198   3.760
  736SOL    HW2 3108   0.258   1.196   3.632
  737SOL     OW 3109   4.956   1.889   5.289
  737SOL    HW1 3110   5.004   1.976   5.305
  737SOL    HW2 3111   4.874   1.886   5.346
  738SOL     OW 3112   2.244   4.456   1.386
  738SOL    HW1 3113   2.187   4.511   1.325
  738SOL    HW2 3114   2.227   4.359   1.367
  739SOL     OW 3115   4.326   0.031   4.076
  739SOL    HW1 3116   4.272   0.107   4.112
  739SOL    HW2 3117   4.264   6.983   4.036
  740SOL     OW 3118   6.185   0.670   1.397
  740SOL    HW1 3119   6.209   0.651   1.492
  740SOL    HW2 3120   6.247   0.740   1.360
  741SOL     OW 3121   2.008   6.484   3.494
  741SOL    HW1 3122   2.075   6.444   3.556
  741SOL    HW2 3123   2.047   6.492   3.403
  742SOL     OW 3124   3.117   6.869   2.783
  742SOL    HW1 3125   3.157   6.958   2.760
  742SOL    HW2 3126   3.180   6.819   2.842
  743SOL     OW 3127   0.035   4.474   3.295
  743SOL    HW1 3128   0.032   4.493   3.393
  743SOL    HW2 3129   0.109   4.409   3.276
  744SOL     OW 3130   6.340   0.220   6.813
  744SOL    HW1 3131   6.349   0.250   6.908
  744SOL    HW2 3132   6.335   0.121   6.809
  745SOL     OW 3133   1.242   4.825   4.641
  745SOL    HW1 3134   1.267   4.912   4.683
  745SOL    HW2 3135   1.144   4.807   4.657
  746SOL     OW 3136   6.883   4.196   6.542
  746SOL    HW1 3137   6.936   4.116   6.572
  746SOL    HW2 3138   6.909   4.275   6.598
  747SOL     OW 3139   3.318   6.324   4.619
  747SOL    HW1 3140   3.366   6.243   4.653
  747SOL    HW2 3141   3.367   6.362   4.540
  748SOL     OW 3142   3.823   5.103   2.222
  748SOL    HW1 3143   3.850   5.145   2.135
  748SOL    HW2 3144   3.831   5.003   2.214
  749SOL     OW 3145   6.068   4.195   4.630
  749SOL    HW1 3146   6.146   4.252   4.604
  749SOL    HW2 3147   5.983   4.244   4.609
  750SOL     OW 3148   1.441   1.941   1.115
  750SOL    HW1 3149   1.511   1.993   1.163
  750SOL    HW2 3150   1.421   1.857   1.165
  751SOL     OW 3151   3.839   2.399   0.354
  751SOL    HW1 3152   3.911   2.456   0.394
  751SOL    HW2 3153   3.845   2.307   0.393
  752SOL     OW 3154   3.208   0.917   1.917
  752SOL    HW1 3155   3.304   0.922   1.889
  752SOL    HW2 3156   3.181   1.003   1.959
  753SOL     OW 3157   2.571   2.870   5.431
  753SOL    HW1 3158   2.491   2.821   5.465
  753SOL    HW2 3159   2.552   2.907   5.340
  754SOL     OW 3160   5.284   2.689   5.442
  754SOL    HW1 3161   5.243   2.611   5.489
  754SOL    HW2 3162   5.211   2.745   5.401
  755SOL     OW 3163   1.491   4.716   5.820
  755SOL    HW1 3164   1.528   4.633   5.780
  755SOL    HW2 3165   1.491   4.789   5.752
  756SOL     OW 3166   2.905   0.056   6.492
  756SOL    HW1 3167   2.931   0.135   6.436
  756SOL    HW2 3168   2.939   0.068   6.585
  757SOL     OW 3169   0.524   0.924   3.994
  757SOL    HW1 3170   0.461   0.934   3.918
  757SOL    HW2 3171   0.517   0.832   4.032
  758SOL     OW 3172   3.609   0.201   2.178
  758SOL    HW1 3173   3.577   0.274   2.238
  758SOL    HW2 3174   3.539   0.179   2.111
  759SOL     OW 3175   0.219   1.536   1.458
  759SOL    HW1 3176   0.146   1.584   1.408
  759SOL    HW2 3177   0.179   1.490   1.538
  760SOL     OW 3178   5.512   0.124   5.388
  760SOL    HW1 3179   5.497   0.026   5.373
  760SOL    HW2 3180   5.501   0.145   5.485
  761SOL     OW 3181   5.254   3.564   5.683
  761SOL    HW1 3182   5.247   3.636   5.752
  761SOL    HW2 3183   5.283   3.479   5.726
  762SOL     OW 3184   2.299   0.484   4.919
  762SOL    HW1 3185   2.349   0.553   4.866
  762SOL    HW2 3186   2.278   0.406   4.861
  763SOL     OW 3187   4.204   5.308   6.468
  763SOL    HW1 3188   4.164   5.301   6.559
  763SOL    HW2 3189   4.299   5.275   6.470
  764SOL     OW 3190   4.944   1.107   4.951
  764SOL    HW1 3191   4.963   1.011   4.930
  764SOL    HW2 3192   4.850   1.116   4.984
  765SOL     OW 3193   1.639   6.033   1.678
  765SOL    HW1 3194   1.682   6.043   1.767
  765SOL    HW2 3195   1.556   6.089   1.675
  766SOL     OW 3196   2.498   3.250   6.245
  766SOL    HW1 3197   2.544   3.204   6.321
  766SOL    HW2 3198   2.418   3.198   6.217
  767SOL     OW 3199   5.918   5.188   1.523
  767SOL    HW1 3200   5.839   5.174   1.464
  767SOL    HW2 3201   5.923   5.115   1.591
  768SOL     OW 3202   2.322   6.945   2.644
  768SOL    HW1 3203   2.257   7.005   2.690
  768SOL    HW2 3204   2.329   6.971   2.547
  769SOL     OW 3205   3.008   0.964   5.020
  769SOL    HW1 3206   3.050   0.920   5.100
  769SOL    HW2 3207   3.058   0.938   4.938
  770SOL     OW 3208   1.931   4.787   2.714
  770SOL    HW1 3209   1.922   4.865   2.652
  770SOL    HW2 3210   2.007   4.729   2.685
  771SOL     OW 3211   1.440   5.562   2.543
  771SOL    HW1 3212   1.470   5.566   2.448
  771SOL    HW2 3213   1.489   5.489   2.590
  772SOL     OW 3214   5.755   5.973   0.031
  772SOL    HW1 3215   5.841   6.015   0.061
  772SOL    HW2 3216   5.766   5.874   0.027
  773SOL     OW 3217   0.215   3.786   4.318
  773SOL    HW1 3218   0.179   3.722   4.250
  773SOL    HW2 3219   0.286   3.843   4.276
  774SOL     OW 3220   1.402   1.742   1.319
  774SOL    HW1 3221   1.312   1.759   1.359
  774SOL    HW2 3222   1.399   1.660   1.262
  775SOL     OW 3223   0.773   2.283   3.650
  775SOL    HW1 3224   0.769   2.375   3.689
  775SOL    HW2 3225   0.753   2.287   3.552
  776SOL     OW 3226   1.639   6.754   6.403
  776SOL    HW1 3227   1.580   6.696   6.459
  776SOL    HW2 3228   1.651   6.843   6.448
  777SOL     OW 3229   2.401   4.784   1.801
  777SOL    HW1 3230   2.492   4.756   1.833
  777SOL    HW2 3231   2.352   4.703   1.767
  778SOL     OW 3232   2.242   1.621   2.099
  778SOL    HW1 3233   2.311   1.577   2.157
  778SOL    HW2 3234   2.271   1.715   2.078
  779SOL     OW 3235   6.388   2.892   2.197
  779SOL    HW1 3236   6.338   2.884   2.110
  779SOL    HW2 3237   6.379   2.807   2.248
  780SOL     OW 3238   0.374   3.923   4.148
  780SOL    HW1 3239   0.465   3.913   4.188
  780SOL    HW2 3240   0.376   3.995   4.079
  781SOL     OW 3241   5.815   7.004   6.957
  781SOL    HW1 3242   5.832   0.083   6.963
  781SOL    HW2 3243   5.838   6.972   6.865
  782SOL     OW 3244   1.755   3.959   6.346
  782SOL    HW1 3245   1.681   3.992   6.405
  782SOL    HW2 3246   1.784   4.032   6.285
  783SOL     OW 3247   5.020   4.804   1.587
  783SOL    HW1 3248   5.027   4.902   1.568
  783SOL    HW2 3249   5.082   4.754   1.528
  784SOL     OW 3250   4.933   4.913   0.599
  784SOL    HW1 3251   4.956   4.960   0.514
  784SOL    HW2 3252   4.838   4.930   0.622
  785SOL     OW 3253   0.356   2.414   3.546
  785SOL    HW1 3254   0.435   2.433   3.605
  785SOL    HW2 3255   0.383   2.426   3.451
  786SOL     OW 3256   1.385   1.165   2.545
  786SOL    HW1 3257   1.443   1.188   2.622
  786SOL    HW2 3258   1.290   1.157   2.576
  787SOL     OW 3259   2.357   0.870   6.924
  787SOL    HW1 3260   2.363   0.807   6.847
  787SOL    HW2 3261   2.390   0.960   6.895
  788SOL     OW 3262   3.488   2.833   6.093
  788SOL    HW1 3263   3.466   2.790   6.005
  788SOL    HW2 3264   3.490   2.763   6.164
  789SOL     OW 3265   5.308   3.684   0.533
  789SOL    HW1 3266   5.354   3.752   0.591
  789SOL    HW2 3267   5.373   3.613   0.508
  790SOL     OW 3268   2.431   1.490   3.731
  790SOL    HW1 3269   2.415   1.419   3.800
  790SOL    HW2 3270   2.529   1.498   3.714
  791SOL     OW 3271   2.283   5.981   3.887
  791SOL    HW1 3272   2.381   5.981   3.905
  791SOL    HW2 3273   2.264   6.037   3.806
  792SOL     OW 3274   1.273   0.270   1.010
  792SOL    HW1 3275   1.177   0.277   0.984
  792SOL    HW2 3276   1.286   0.311   1.100
  793SOL     OW 3277   4.790   4.932   3.629
  793SOL    HW1 3278   4.780   4.931   3.728
  793SOL    HW2 3279   4.720   4.874   3.588
  794SOL     OW 3280   3.853   3.881   5.797
  794SOL    HW1 3281   3.779   3.839   5.744
  794SOL    HW2 3282   3.819   3.906   5.888
  795SOL     OW 3283   2.862   6.653   4.268
  795SOL    HW1 3284   2.806   6.651   4.185
  795SOL    HW2 3285   2.958   6.671   4.242
  796SOL     OW 3286   6.634   2.044   6.020
  796SOL    HW1 3287   6.697   1.966   6.019
  796SOL    HW2 3288   6.550   2.020   5.971
  797SOL     OW 3289   5.680   2.857   0.616
  797SOL    HW1 3290   5.620   2.786   0.579
  797SOL    HW2 3291   5.774   2.825   0.613
  798SOL     OW 3292   4.060   6.434   2.122
  798SOL    HW1 3293   4.137   6.497   2.118
  798SOL    HW2 3294   4.051   6.399   2.216
  799SOL     OW 3295   0.478   6.526   5.572
  799SOL    HW1 3296   0.381   6.552   5.574
  799SOL    HW2 3297   0.508   6.520   5.477
  800SOL     OW 3298   5.057   2.187   2.637
  800SOL    HW1 3299   4.996   2.220   2.709
  800SOL    HW2 3300   5.090   2.265   2.583
  801SOL     OW 3301   1.437   3.808   4.190
  801SOL    HW1 3302   1.428   3.896   4.144
  801SOL    HW2 3303   1.531   3.775   4.180
  802SOL     OW 3304   3.899   2.360   0.934
  802SOL    HW1 3305   3.991   2.360   0.973
  802SOL    HW2 3306   3.887   2.440   0.876
  803SOL     OW 3307   0.174   6.256   5.608
  803SOL    HW1 3308   0.188   6.339   5.554
  803SOL    HW2 3309   0.222   6.180   5.563
  804SOL     OW 3310   5.784   5.892   6.354
  804SOL    HW1 3311   5.821   5.858   6.440
  804SOL    HW2 3312   5.689   5.863   6.344
  805SOL     OW 3313   3.141   0.129   4.517
  805SOL    HW1 3314   3.235   0.094   4.525
  805SOL    HW2 3315   3.086   0.064   4.464
  806SOL     OW 3316   4.947   1.405   4.402
  806SOL    HW1 3317   4.940   1.328   4.465
  806SOL    HW2 3318   5.036   1.450   4.413
  807SOL     OW 3319   1.566   1.025   5.170
  807SOL    HW1 3320   1.527   1.107   5.210
  807SOL    HW2 3321   1.522   1.006   5.082
  808SOL     OW 3322   4.064   3.841   6.252
  808SOL    HW1 3323   4.155   3.879   6.267
  808SOL    HW2 3324   3.995   3.903   6.292
  809SOL     OW 3325   0.329   5.029   1.016
  809SOL    HW1 3326   0.380   5.112   1.041
  809SOL    HW2 3327   0.355   5.000   0.924
  810SOL     OW 3328   3.863   3.533   1.180
  810SOL    HW1 3329   3.848   3.625   1.145
  810SOL    HW2 3330   3.775   3.493   1.205
  811SOL     OW 3331   4.676   5.068   4.916
  811SOL    HW1 3332   4.618   5.052   4.996
  811SOL    HW2 3333   4.686   4.983   4.865
  812SOL     OW 3334   0.742   1.487   2.435
  812SOL    HW1 3335   0.744   1.443   2.525
  812SOL    HW2 3336   0.812   1.447   2.377
  813SOL     OW 3337   3.469   6.703   4.502
  813SOL    HW1 3338   3.502   6.725   4.594
  813SOL    HW2 3339   3.370   6.689   4.505
  814SOL     OW 3340   6.125   6.075   2.140
  814SOL    HW1 3341   6.168   6.145   2.083
  814SOL    HW2 3342   6.192   6.041   2.207
  815SOL     OW 3343   0.521   4.004   3.152
  815SOL    HW1 3344   0.479   3.962   3.232
  815SOL    HW2 3345   0.535   4.102   3.170
  816SOL     OW 3346   6.241   6.349   0.204
  816SOL    HW1 3347   6.145   6.321   0.205
  816SOL    HW2 3348   6.252   6.432   0.259
  817SOL     OW 3349   2.085   4.727   0.904
  817SOL    HW1 3350   2.051   4.654   0.846
  817SOL    HW2 3351   2.144   4.788   0.851
  818SOL     OW 3352   6.617   2.759   2.393
  818SOL    HW1 3353   6.581   2.849   2.420
  818SOL    HW2 3354   6.659   2.766   2.303
  819SOL     OW 3355   5.198   2.372   2.486
  819SOL    HW1 3356   5.243   2.446   2.437
  819SOL    HW2 3357   5.229   2.284   2.448
  820SOL     OW 3358   3.134   2.297   5.439
  820SOL    HW1 3359   3.126   2.205   5.402
  820SOL    HW2 3360   3.192   2.352   5.379
  821SOL     OW 3361   1.254   4.408   1.223
  821SOL    HW1 3362   1.289   4.450   1.306
  821SOL    HW2 3363   1.255   4.309   1.232
  822SOL     OW 3364   1.042   4.682   3.858
  822SOL    HW1 3365   0.993   4.620   3.919
  822SOL    HW2 3366   1.134   4.698   3.894
  823SOL     OW 3367   5.119   3.702   6.348
  823SOL    HW1 3368   5.201   3.741   6.390
  823SOL    HW2 3369   5.055   3.775   6.325
  824SOL     OW 3370   5.446   1.162   6.205
  824SOL    HW1 3371   5.408   1.215   6.130
  824SOL    HW2 3372   5.428   1.208   6.292
  825SOL     OW 3373   0.218   4.669   1.372
  825SOL    HW1 3374   0.254   4.582   1.340
  825SOL    HW2 3375   0.157   4.654   1.450
  826SOL     OW 3376   4.940   2.992   5.656
  826SOL    HW1 3377   4.984   3.060   5.598
  826SOL    HW2 3378   5.002   2.915   5.671
  827SOL     OW 3379   2.847   4.668   5.395
  827SOL    HW1 3380   2.797   4.751   5.373
  827SOL    HW2 3381   2.868   4.618   5.311
  828SOL     OW 3382   5.768   6.462   6.819
  828SOL    HW1 3383   5.785   6.364   6.808
  828SOL    HW2 3384   5.671   6.481   6.802
  829SOL     OW 3385   3.659   4.096   3.044
  829SOL    HW1 3386   3.600   4.147   2.981
  829SOL    HW2 3387   3.636   4.119   3.138
  830SOL     OW 3388   4.972   5.127   6.548
  830SOL    HW1 3389   4.872   5.122   6.549
  830SOL    HW2 3390   5.005   5.122   6.454
  831SOL     OW 3391   6.119   0.396   0.537
  831SOL    HW1 3392   6.152   0.483   0.499
  831SOL    HW2 3393   6.110   0.405   0.636
  832SOL     OW 3394   3.289   0.408   2.061
  832SOL    HW1 3395   3.329   0.451   1.980
  832SOL    HW2 3396   3.242   0.477   2.115
  833SOL     OW 3397   1.095   3.556   5.879
  833SOL    HW1 3398   1.182   3.543   5.926
  833SOL    HW2 3399   1.112   3.577   5.783
  834SOL     OW 3400   4.052   3.529   0.520
  834SOL    HW1 3401   4.131   3.471   0.541
  834SOL    HW2 3402   4.036   3.529   0.421
  835SOL     OW 3403   3.626   0.201   5.602
  835SOL    HW1 3404   3.704   0.242   5.649
  835SOL    HW2 3405   3.654   0.170   5.511
  836SOL     OW 3406   3.932   6.078   6.204
  836SOL    HW1 3407   4.029   6.098   6.212
  836SOL    HW2 3408   3.915   6.028   6.119
  837SOL     OW 3409   5.454   0.518   0.724
  837SOL    HW1 3410   5.439   0.572   0.807
  837SOL    HW2 3411   5.502   0.433   0.748
  838SOL     OW 3412   2.577   0.730   4.833
  838SOL    HW1 3413   2.568   0.675   4.750
  838SOL    HW2 3414   2.616   0.819   4.811
  839SOL     OW 3415   1.159   2.768   2.234
  839SOL    HW1 3416   1.190   2.834   2.166
  839SOL    HW2 3417   1.091   2.707   2.193
  840SOL     OW 3418   6.485   5.698   0.489
  840SOL    HW1 3419   6.552   5.694   0.414
  840SOL    HW2 3420   6.424   5.619   0.483
  841SOL     OW 3421   4.057   4.927   6.992
  841SOL    HW1 3422   4.113   4.923   6.909
  841SOL    HW2 3423   4.095   4.995   0.035
  842SOL     OW 3424   4.275   0.151   5.122
  842SOL    HW1 3425   4.229   0.083   5.180
  842SOL    HW2 3426   4.236   0.241   5.141
  843SOL     OW 3427   0.526   1.654   1.096
  843SOL    HW1 3428   0.625   1.646   1.084
  843SOL    HW2 3429   0.503   1.638   1.192
  844SOL     OW 3430   5.482   0.565   0.308
  844SOL    HW1 3431   5.418   0.537   0.379
  844SOL    HW2 3432   5.575   0.559   0.343
  845SOL     OW 3433   5.266   4.825   4.682
  845SOL    HW1 3434   5.276   4.784   4.773
  845SOL    HW2 3435   5.335   4.786   4.621
  846SOL     OW 3436   2.052   1.677   6.186
  846SOL    HW1 3437   2.076   1.629   6.101
  846SOL    HW2 3438   2.086   1.771   6.182
  847SOL     OW 3439   1.429   2.946   1.549
  847SOL    HW1 3440   1.397   2.893   1.628
  847SOL    HW2 3441   1.373   2.924   1.469
  848SOL     OW 3442   6.184   0.465   5.873
  848SOL    HW1 3443   6.184   0.546   5.815
  848SOL    HW2 3444   6.274   0.453   5.915
  849SOL     OW 3445   6.999   3.567   5.946
  849SOL    HW1 3446   6.919   3.523   5.988
  849SOL    HW2 3447   0.045   3.496   5.918
  850SOL     OW 3448   5.279   0.348   2.983
  850SOL    HW1 3449   5.376   0.322   2.982
  850SOL    HW2 3450   5.225   0.273   3.022
  851SOL     OW 3451   7.003   1.670   2.587
  851SOL    HW1 3452   6.993   1.668   2.687
  851SOL    HW2 3453   0.060   1.729   2.563
  852SOL     OW 3454   1.423   3.010   6.557
  852SOL    HW1 3455   1.417   2.973   6.650
  852SOL    HW2 3456   1.433   3.109   6.561
  853SOL     OW 3457   1.661   4.393   1.514
  853SOL    HW1 3458   1.611   4.458   1.571
  853SOL    HW2 3459   1.628   4.399   1.420
  854SOL     OW 3460   5.083   5.791   1.094
  854SOL    HW1 3461   5.148   5.774   1.168
  854SOL    HW2 3462   5.132   5.824   1.013
  855SOL     OW 3463   6.962   6.711   1.747
  855SOL    HW1 3464   6.956   6.653   1.828
  855SOL    HW2 3465   6.952   6.654   1.665
  856SOL     OW 3466   0.926   2.204   5.122
  856SOL    HW1 3467   0.944   2.258   5.041
  856SOL    HW2 3468   1.013   2.180   5.166
  857SOL     OW 3469   5.854   4.087   1.676
  857SOL    HW1 3470   5.929   4.112   1.738
  857SOL    HW2 3471   5.799   4.168   1.655
  858SOL     OW 3472   2.678   3.461   0.982
  858SOL    HW1 3473   2.600   3.475   0.920
  858SOL    HW2 3474   2.710   3.367   0.975
  859SOL     OW 3475   6.121   5.888   5.056
  859SOL    HW1 3476   6.050   5.818   5.056
  859SOL    HW2 3477   6.104   5.953   4.982
  860SOL     OW 3478   5.244   3.499   0.861
  860SOL    HW1 3479   5.240   3.466   0.956
  860SOL    HW2 3480   5.336   3.486   0.825
  861SOL     OW 3481   2.510   5.756   3.459
  861SOL    HW1 3482   2.537   5.795   3.547
  861SOL    HW2 3483   2.470   5.665   3.474
  862SOL     OW 3484   1.233   4.017   4.788
  862SOL    HW1 3485   1.274   4.048   4.703
  862SOL    HW2 3486   1.177   3.935   4.771
  863SOL     OW 3487   6.227   1.069   0.451
  863SOL    HW1 3488   6.162   1.132   0.493
  863SOL    HW2 3489   6.240   1.092   0.355
  864SOL     OW 3490   4.202   5.422   3.946
  864SOL    HW1 3491   4.127   5.431   3.880
  864SOL    HW2 3492   4.230   5.327   3.951
  865SOL     OW 3493   0.803   6.253   5.781
  865SOL    HW1 3494   0.712   6.291   5.771
  865SOL    HW2 3495   0.872   6.323   5.763
  866SOL     OW 3496   1.824   1.934   1.741
  866SOL    HW1 3497   1.873   2.013   1.778
  866SOL    HW2 3498   1.889   1.867   1.707
  867SOL     OW 3499   4.033   3.694   0.764
  867SOL    HW1 3500   4.132   3.687   0.755
  867SOL    HW2 3501   3.989   3.679   0.676
  868SOL     OW 3502   6.125   1.253   0.996
  868SOL    HW1 3503   6.092   1.198   0.920
  868SOL    HW2 3504   6.176   1.195   1.060
  869SOL     OW 3505   0.289   4.680   3.161
  869SOL    HW1 3506   0.280   4.615   3.236
  869SOL    HW2 3507   0.294   4.773   3.198
  870SOL     OW 3508   4.558   3.126   0.684
  870SOL    HW1 3509   4.589   3.216   0.715
  870SOL    HW2 3510   4.632   3.060   0.694
  871SOL     OW 3511   4.426   2.451   3.153
  871SOL    HW1 3512   4.466   2.539   3.177
  871SOL    HW2 3513   4.499   2.388   3.125
  872SOL     OW 3514   5.440   3.429   3.618
  872SOL    HW1 3515   5.347   3.462   3.629
  872SOL    HW2 3516   5.446   3.372   3.536
  873SOL     OW 3517   5.689   6.906   4.198
  873SOL    HW1 3518   5.671   6.998   4.233
  873SOL    HW2 3519   5.707   6.912   4.099
  874SOL     OW 3520   0.827   4.189   6.001
  874SOL    HW1 3521   0.900   4.123   6.015
  874SOL    HW2 3522   0.749   4.144   5.957
  875SOL     OW 3523   3.947   3.250   0.598
  875SOL    HW1 3524   3.883   3.326   0.614
  875SOL    HW2 3525   4.034   3.286   0.565
  876SOL     OW 3526   0.393   4.501   2.273
  876SOL    HW1 3527   0.442   4.435   2.216
  876SOL    HW2 3528   0.396   4.471   2.368
  877SOL     OW 3529   3.995   4.274   6.136
  877SOL    HW1 3530   3.942   4.359   6.136
  877SOL    HW2 3531   3.958   4.212   6.068
  878SOL     OW 3532   3.744   6.144   5.337
  878SOL    HW1 3533   3.778   6.214   5.274
  878SOL    HW2 3534   3.647   6.127   5.319
  879SOL     OW 3535   3.887   2.597   0.816
  879SOL    HW1 3536   3.977   2.634   0.796
  879SOL    HW2 3537   3.818   2.669   0.803
  880SOL     OW 3538   3.409   4.087   4.878
  880SOL    HW1 3539   3.329   4.143   4.855
  880SOL    HW2 3540   3.402   3.998   4.834
  881SOL     OW 3541   4.893   4.003   4.618
  881SOL    HW1 3542   4.870   3.944   4.694
  881SOL    HW2 3543   4.974   4.058   4.641
  882SOL     OW 3544   0.924   2.485   4.417
  882SOL    HW1 3545   0.957   2.554   4.353
  882SOL    HW2 3546   0.994   2.465   4.485
  883SOL     OW 3547   4.517   6.082   6.796
  883SOL    HW1 3548   4.512   6.071   6.697
  883SOL    HW2 3549   4.424   6.091   6.833
  884SOL     OW 3550   0.054   4.206   0.317
  884SOL    HW1 3551   0.148   4.240   0.325
  884SOL    HW2 3552   0.055   4.113   0.280
  885SOL     OW 3553   4.774   5.916   6.277
  885SOL    HW1 3554   4.766   5.908   6.178
  885SOL    HW2 3555   4.685   5.898   6.319
  886SOL     OW 3556   4.431   1.215   1.393
  886SOL    HW1 3557   4.457   1.213   1.296
  886SOL    HW2 3558   4.513   1.216   1.450
  887SOL     OW 3559   3.523   6.373   4.394
  887SOL    HW1 3560   3.605   6.431   4.403
  887SOL    HW2 3561   3.551   6.279   4.375
  888SOL     OW 3562   6.243   5.753   2.694
  888SOL    HW1 3563   6.150   5.760   2.656
  888SOL    HW2 3564   6.268   5.657   2.704
  889SOL     OW 3565   1.172   6.399   5.997
  889SOL    HW1 3566   1.161   6.437   6.089
  889SOL    HW2 3567   1.157   6.471   5.929
  890SOL     OW 3568   1.895   5.446   2.251
  890SOL    HW1 3569   1.844   5.484   2.174
  890SOL    HW2 3570   1.917   5.350   2.233
  891SOL     OW 3571   6.357   3.859   0.542
  891SOL    HW1 3572   6.402   3.872   0.630
  891SOL    HW2 3573   6.264   3.826   0.557
  892SOL     OW 3574   3.863   4.205   5.904
  892SOL    HW1 3575   3.844   4.113   5.938
  892SOL    HW2 3576   3.779   4.248   5.872
  893SOL     OW 3577   2.122   0.965   2.204
  893SOL    HW1 3578   2.152   0.923   2.289
  893SOL    HW2 3579   2.025   0.947   2.190
  894SOL     OW 3580   0.963   2.477   3.313
  894SOL    HW1 3581   0.952   2.554   3.251
  894SOL    HW2 3582   0.987   2.395   3.260
  895SOL     OW 3583   1.141   5.194   4.012
  895SOL    HW1 3584   1.213   5.150   3.958
  895SOL    HW2 3585   1.092   5.124   4.065
  896SOL     OW 3586   6.243   6.756   1.517
  896SOL    HW1 3587   6.232   6.790   1.611
  896SOL    HW2 3588   6.154   6.749   1.473
  897SOL     OW 3589   4.079   0.580   6.591
  897SOL    HW1 3590   4.077   0.571   6.690
  897SOL    HW2 3591   4.152   0.644   6.565
  898SOL     OW 3592   3.513   6.552   3.220
  898SOL    HW1 3593   3.480   6.472   3.170
  898SOL    HW2 3594   3.517   6.631   3.159
  899SOL     OW 3595   0.522   5.462   0.871
  899SOL    HW1 3596   0.427   5.495   0.871
  899SOL    HW2 3597   0.584   5.539   0.860
  900SOL     OW 3598   4.730   6.173   0.191
  900SOL    HW1 3599   4.809   6.217   0.232
  900SOL    HW2 3600   4.718   6.208   0.098
  901SOL     OW 3601   1.273   0.656   5.233
  901SOL    HW1 3602   1.195   0.640   5.293
  901SOL    HW2 3603   1.329   0.729   5.271
  902SOL     OW 3604   0.964   2.429   0.832
  902SOL    HW1 3605   1.030   2.386   0.770
  902SOL    HW2 3606   0.963   2.528   0.815
  903SOL     OW 3607   6.566   3.444   6.196
  903SOL    HW1 3608   6.636   3.483   6.136
  903SOL    HW2 3609   6.610   3.400   6.274
  904SOL     OW 3610   2.203   2.625   2.820
  904SOL    HW1 3611   2.195   2.719   2.788
  904SOL    HW2 3612   2.174   2.620   2.916
  905SOL     OW 3613   5.118   3.910   5.814
  905SOL    HW1 3614   5.181   3.849   5.861
  905SOL    HW2 3615   5.043   3.856   5.773
  906SOL     OW 3616   0.510   3.012   6.177
  906SOL    HW1 3617   0.454   3.003   6.095
  906SOL    HW2 3618   0.559   3.100   6.175
  907SOL     OW 3619   4.895   2.380   2.448
  907SOL    HW1 3620   4.818   2.416   2.395
  907SOL    HW2 3621   4.949   2.456   2.484
  908SOL     OW 3622   2.089   5.418   3.305
  908SOL    HW1 3623   2.084   5.458   3.213
  908SOL    HW2 3624   2.019   5.347   3.314
  909SOL     OW 3625   2.776   6.011   2.517
  909SOL    HW1 3626   2.771   5.912   2.501
  909SOL    HW2 3627   2.715   6.058   2.453
  910SOL     OW 3628   2.751   1.018   0.535
  910SOL    HW1 3629   2.787   0.948   0.597
  910SOL    HW2 3630   2.656   0.998   0.513
  911SOL     OW 3631   6.981   5.797   0.619
  911SOL    HW1 3632   6.951   5.771   0.527
  911SOL    HW2 3633   6.970   5.719   0.681
  912SOL     OW 3634   5.354   0.256   3.736
  912SOL    HW1 3635   5.424   0.260   3.664
  912SOL    HW2 3636   5.322   0.349   3.756
  913SOL     OW 3637   1.484   1.040   3.443
  913SOL    HW1 3638   1.475   0.941   3.432
  913SOL    HW2 3639   1.436   1.085   3.368
  914SOL     OW 3640   2.197   5.753   5.004
  914SOL    HW1 3641   2.179   5.676   4.943
  914SOL    HW2 3642   2.232   5.830   4.950
  915SOL     OW 3643   0.723   3.347   0.421
  915SOL    HW1 3644   0.755   3.280   0.489
  915SOL    HW2 3645   0.790   3.421   0.414
  916SOL     OW 3646   1.537   2.788   2.328
  916SOL    HW1 3647   1.615   2.852   2.325
  916SOL    HW2 3648   1.498   2.789   2.420
  917SOL     OW 3649   5.615   0.859   2.277
  917SOL    HW1 3650   5.566   0.944   2.259
  917SOL    HW2 3651   5.576   0.814   2.357
  918SOL     OW 3652   3.010   6.873   0.599
  918SOL    HW1 3653   3.051   6.911   0.682
  918SOL    HW2 3654   2.914   6.851   0.617
  919SOL     OW 3655   6.744   5.860   2.678
  919SOL    HW1 3656   6.697   5.856   2.766
  919SOL    HW2 3657   6.765   5.768   2.647
  920SOL     OW 3658   2.371   5.504   3.296
  920SOL    HW1 3659   2.275   5.506   3.267
  920SOL    HW2 3660   2.375   5.501   3.396
  921SOL     OW 3661   4.766   4.502   3.029
  921SOL    HW1 3662   4.848   4.491   2.974
  921SOL    HW2 3663   4.786   4.559   3.109
  922SOL     OW 3664   3.680   3.224   5.743
  922SOL    HW1 3665   3.641   3.134   5.726
  922SOL    HW2 3666   3.773   3.214   5.777
  923SOL     OW 3667   2.886   4.978   5.643
  923SOL    HW1 3668   2.900   4.967   5.545
  923SOL    HW2 3669   2.802   5.031   5.660
  924SOL     OW 3670   5.709   2.330   3.096
  924SOL    HW1 3671   5.643   2.264   3.133
  924SOL    HW2 3672   5.661   2.401   3.045
  925SOL     OW 3673   0.480   1.888   6.919
  925SOL    HW1 3674   0.394   1.938   6.911
  925SOL    HW2 3675   0.509   1.887   7.015
  926SOL     OW 3676   5.721   1.188   0.476
  926SOL    HW1 3677   5.756   1.103   0.438
  926SOL    HW2 3678   5.671   1.168   0.560
  927SOL     OW 3679   6.290   3.881   3.168
  927SOL    HW1 3680   6.250   3.851   3.254
  927SOL    HW2 3681   6.265   3.976   3.151
  928SOL     OW 3682   1.177   5.635   0.505
  928SOL    HW1 3683   1.097   5.618   0.448
  928SOL    HW2 3684   1.153   5.623   0.601
  929SOL     OW 3685   0.175   0.887   1.308
  929SOL    HW1 3686   0.258   0.832   1.324
  929SOL    HW2 3687   0.193   0.982   1.334
  930SOL     OW 3688   5.466   6.220   4.899
  930SOL    HW1 3689   5.537   6.162   4.938
  930SOL    HW2 3690   5.430   6.177   4.816
  931SOL     OW 3691   5.539   2.020   2.848
  931SOL    HW1 3692   5.490   2.105   2.826
  931SOL    HW2 3693   5.565   1.975   2.763
  932SOL     OW 3694   3.253   6.586   2.732
  932SOL    HW1 3695   3.160   6.565   2.764
  932SOL    HW2 3696   3.290   6.508   2.682
  933SOL     OW 3697   0.916   5.792   3.344
  933SOL    HW1 3698   0.887   5.714   3.398
  933SOL    HW2 3699   0.961   5.760   3.261
  934SOL     OW 3700   1.980   0.223   5.254
  934SOL    HW1 3701   1.881   0.216   5.268
  934SOL    HW2 3702   1.999   0.286   5.179
  935SOL     OW 3703   5.091   4.295   4.982
  935SOL    HW1 3704   5.022   4.256   4.922
  935SOL    HW2 3705   5.074   4.265   5.076
  936SOL     OW 3706   1.293   0.194   6.065
  936SOL    HW1 3707   1.280   0.248   5.982
  936SOL    HW2 3708   1.205   0.177   6.109
  937SOL     OW 3709   4.969   1.245   4.610
  937SOL    HW1 3710   4.960   1.148   4.633
  937SOL    HW2 3711   4.911   1.299   4.670
  938SOL     OW 3712   6.901   5.550   5.531
  938SOL    HW1 3713   6.864   5.484   5.466
  938SOL    HW2 3714   6.910   5.639   5.487
  939SOL     OW 3715   5.841   0.302   5.620
  939SOL    HW1 3716   5.924   0.292   5.675
  939SOL    HW2 3717   5.763   0.267   5.672
  940SOL     OW 3718   0.622   2.616   2.040
  940SOL    HW1 3719   0.593   2.529   2.000
  940SOL    HW2 3720   0.569   2.633   2.124
  941SOL     OW 3721   5.783   1.084   5.458
  941SOL    HW1 3722   5.861   1.109   5.401
  941SOL    HW2 3723   5.749   1.164   5.506
  942SOL     OW 3724   4.942   6.819   3.307
  942SOL    HW1 3725   4.920   6.722   3.293
  942SOL    HW2 3726   4.926   6.843   3.402
  943SOL     OW 3727   2.108   3.198   3.996
  943SOL    HW1 3728   2.139   3.170   3.906
  943SOL    HW2 3729   2.144   3.135   4.065
  944SOL     OW 3730   7.004   4.082   5.807
  944SOL    HW1 3731   6.906   4.085   5.788
  944SOL    HW2 3732   0.011   3.988   5.829
  945SOL     OW 3733   6.273   4.335   4.536
  945SOL    HW1 3734   6.340   4.321   4.608
  945SOL    HW2 3735   6.281   4.428   4.500
  946SOL     OW 3736   5.048   2.743   6.147
  946SOL    HW1 3737   5.024   2.658   6.194
  946SOL    HW2 3738   5.148   2.756   6.151
  947SOL     OW 3739   3.947   3.049   4.246
  947SOL    HW1 3740   3.871   3.063   4.310
  947SOL    HW2 3741   4.008   2.978   4.282
  948SOL     OW 3742   4.087   0.019   1.395
  948SOL    HW1 3743   4.019   0.072   1.344
  948SOL    HW2 3744   4.044   6.958   1.434
  949SOL     OW 3745   1.124   6.416   6.485
  949SOL    HW1 3746   1.042   6.453   6.530
  949SOL    HW2 3747   1.110   6.319   6.465
  950SOL     OW 3748   4.566   5.150   1.506
  950SOL    HW1 3749   4.574   5.123   1.602
  950SOL    HW2 3750   4.599   5.244   1.496
  951SOL     OW 3751   2.017   1.085   3.933
  951SOL    HW1 3752   1.970   1.096   3.845
  951SOL    HW2 3753   2.078   1.007   3.928
  952SOL     OW 3754   4.640   2.267   2.724
  952SOL    HW1 3755   4.686   2.228   2.644
  952SOL    HW2 3756   4.572   2.202   2.758
  953SOL     OW 3757   5.287   5.547   3.918
  953SOL    HW1 3758   5.207   5.525   3.974
  953SOL    HW2 3759   5.364   5.571   3.977
  954SOL     OW 3760   4.734   6.002   0.641
  954SOL    HW1 3761   4.681   5.980   0.723
  954SOL    HW2 3762   4.676   5.995   0.560
  955SOL     OW 3763   0.023   3.841   2.825
  955SOL    HW1 3764   7.008   3.842   2.919
  955SOL    HW2 3765   6.993   3.907   2.769
  956SOL     OW 3766   0.072   2.367   2.778
  956SOL    HW1 3767   0.047   2.407   2.690
  956SOL    HW2 3768   0.169   2.386   2.797
  957SOL     OW 3769   7.012   4.403   5.208
  957SOL    HW1 3770   6.983   4.498   5.222
  957SOL    HW2 3771   6.976   4.369   5.121
  958SOL     OW 3772   4.446   1.757   2.019
  958SOL    HW1 3773   4.491   1.846   2.017
  958SOL    HW2 3774   4.351   1.767   1.990
  959SOL     OW 3775   3.516   5.692   2.859
  959SOL    HW1 3776   3.556   5.605   2.833
  959SOL    HW2 3777   3.504   5.750   2.778
  960SOL     OW 3778   1.336   6.064   2.455
  960SOL    HW1 3779   1.250   6.083   2.407
  960SOL    HW2 3780   1.390   6.148   2.462
  961SOL     OW 3781   4.864   0.098   3.428
  961SOL    HW1 3782   4.813   0.065   3.508
  961SOL    HW2 3783   4.809   0.166   3.380
  962SOL     OW 3784   0.431   0.561   5.339
  962SOL    HW1 3785   0.379   0.646   5.351
  962SOL    HW2 3786   0.433   0.511   5.425
  963SOL     OW 3787   6.706   1.793   5.911
  963SOL    HW1 3788   6.779   1.807   5.845
  963SOL    HW2 3789   6.741   1.742   5.990
  964SOL     OW 3790   5.789   4.687   0.056
  964SOL    HW1 3791   5.885   4.661   0.045
  964SOL    HW2 3792   5.731   4.606   0.045
  965SOL     OW 3793   5.499   2.140   0.600
  965SOL    HW1 3794   5.407   2.150   0.561
  965SOL    HW2 3795   5.541   2.231   0.608
  966SOL     OW 3796   5.321   2.399   1.881
  966SOL    HW1 3797   5.382   2.476   1.859
  966SOL    HW2 3798   5.313   2.339   1.801
  967SOL     OW 3799   2.207   4.212   1.638
  967SOL    HW1 3800   2.251   4.301   1.645
  967SOL    HW2 3801   2.116   4.216   1.680
  968SOL     OW 3802   3.286   1.222   1.535
  968SOL    HW1 3803   3.338   1.246   1.617
  968SOL    HW2 3804   3.317   1.278   1.458
  969SOL     OW 3805   3.368   5.995   5.982
  969SOL    HW1 3806   3.431   6.000   6.060
  969SOL    HW2 3807   3.293   5.934   6.003
  970SOL     OW 3808   5.516   0.905   6.200
  970SOL    HW1 3809   5.430   0.857   6.182
  970SOL    HW2 3810   5.502   1.004   6.189
  971SOL     OW 3811   6.611   1.971   3.277
  971SOL    HW1 3812   6.537   2.017   3.229
  971SOL    HW2 3813   6.696   2.023   3.267
  972SOL     OW 3814   5.749   3.326   1.962
  972SOL    HW1 3815   5.829   3.352   2.015
  972SOL    HW2 3816   5.686   3.403   1.957
  973SOL     OW 3817   0.029   4.750   0.184
  973SOL    HW1 3818   0.020   4.813   0.106
  973SOL    HW2 3819   0.063   4.662   0.151
  974SOL     OW 3820   5.203   6.536   2.908
  974SOL    HW1 3821   5.202   6.455   2.967
  974SOL    HW2 3822   5.118   6.588   2.922
  975SOL     OW 3823   1.395   6.159   6.959
  975SOL    HW1 3824   1.451   6.194   0.014
  975SOL    HW2 3825   1.410   6.215   6.877
  976SOL     OW 3826   0.405   3.700   2.683
  976SOL    HW1 3827   0.495   3.658   2.680
  976SOL    HW2 3828   0.412   3.790   2.727
  977SOL     OW 3829   0.925   0.826   2.428
  977SOL    HW1 3830   1.021   0.801   2.440
  977SOL    HW2 3831   0.869   0.777   2.495
  978SOL     OW 3832   4.938   3.748   5.734
  978SOL    HW1 3833   4.932   3.695   5.649
  978SOL    HW2 3834   4.932   3.686   5.812
  979SOL     OW 3835   6.579   2.293   0.487
  979SOL    HW1 3836   6.568   2.278   0.389
  979SOL    HW2 3837   6.585   2.391   0.506
  980SOL     OW 3838   4.409   2.175   4.492
  980SOL    HW1 3839   4.425   2.079   4.516
  980SOL    HW2 3840   4.495   2.217   4.464
  981SOL     OW 3841   0.196   1.906   4.727
  981SOL    HW1 3842   0.140   1.984   4.699
  981SOL    HW2 3843   0.252   1.931   4.806
  982SOL     OW 3844   2.592   2.477   3.952
  982SOL    HW1 3845   2.567   2.524   4.037
  982SOL    HW2 3846   2.606   2.546   3.880
  983SOL     OW 3847   5.730   2.108   4.885
  983SOL    HW1 3848   5.680   2.024   4.864
  983SOL    HW2 3849   5.666   2.183   4.894
  984SOL     OW 3850   2.556   1.794   4.360
  984SOL    HW1 3851   2.545   1.851   4.278
  984SOL    HW2 3852   2.582   1.852   4.437
  985SOL     OW 3853   5.745   4.357   4.757
  985SOL    HW1 3854   5.762   4.364   4.659
  985SOL    HW2 3855   5.715   4.446   4.792
  986SOL     OW 3856   5.858   4.421   1.015
  986SOL    HW1 3857   5.865   4.511   1.059
  986SOL    HW2 3858   5.947   4.397   0.975
  987SOL     OW 3859   4.570   6.763   1.990
  987SOL    HW1 3860   4.647   6.719   1.945
  987SOL    HW2 3861   4.510   6.805   1.922
  988SOL     OW 3862   2.873   3.525   2.752
  988SOL    HW1 3863   2.944   3.481   2.808
  988SOL    HW2 3864   2.873   3.484   2.661
  989SOL     OW 3865   6.386   0.546   5.588
  989SOL    HW1 3866   6.402   0.470   5.651
  989SOL    HW2 3867   6.468   0.604   5.583
  990SOL     OW 3868   3.830   0.474   2.081
  990SOL    HW1 3869   3.757   0.540   2.098
  990SOL    HW2 3870   3.801   0.383   2.112
  991SOL     OW 3871   0.732   2.382   5.227
  991SOL    HW1 3872   0.811   2.330   5.195
  991SOL    HW2 3873   0.742   2.402   5.325
  992SOL     OW 3874   6.635   2.753   2.138
  992SOL    HW1 3875   6.564   2.823   2.131
  992SOL    HW2 3876   6.593   2.662   2.137
  993SOL     OW 3877   1.251   4.133   1.527
  993SOL    HW1 3878   1.349   4.137   1.549
  993SOL    HW2 3879   1.214   4.226   1.522
  994SOL     OW 3880   3.532   4.230   1.846
  994SOL    HW1 3881   3.569   4.271   1.930
  994SOL    HW2 3882   3.477   4.150   1.869
  995SOL     OW 3883   3.903   3.042   5.392
  995SOL    HW1 3884   3.980   3.098   5.421
  995SOL    HW2 3885   3.934   2.947   5.381
  996SOL     OW 3886   2.860   5.009   4.172
  996SOL    HW1 3887   2.870   5.082   4.239
  996SOL    HW2 3888   2.819   4.929   4.215
  997SOL     OW 3889   0.900   1.249   2.866
  997SOL    HW1 3890   0.927   1.218   2.957
  997SOL    HW2 3891   0.953   1.331   2.842
  998SOL     OW 3892   4.453   0.061   4.452
  998SOL    HW1 3893   4.487   0.030   4.363
  998SOL    HW2 3894   4.422   7.002   4.505
  999SOL     OW 3895   4.733   4.681   2.552
  999SOL    HW1 3896   4.635   4.690   2.569
  999SOL    HW2 3897   4.749   4.611   2.483
 1000SOL     OW 3898   2.470   1.197   2.159
 1000SOL    HW1 3899   2.419   1.117   2.127
 1000SOL    HW2 3900   2.549   1.212   2.099
 1001SOL     OW 3901   5.116   5.995   0.414
 1001SOL    HW1 3902   5.086   6.052   0.338
 1001SOL    HW2 3903   5.087   6.036   0.500
 1002SOL     OW 3904   6.036   1.916   0.926
 1002SOL    HW1 3905   6.085   1.987   0.877
 1002SOL    HW2 3906   5.958   1.884   0.872
 1003SOL     OW 3907   2.139   6.525   2.055
 1003SOL    HW1 3908   2.103   6.596   2.116
 1003SOL    HW2 3909   2.237   6.514   2.071
 1004SOL     OW 3910   0.403   6.911   2.341
 1004SOL    HW1 3911   0.315   6.931   2.299
 1004SOL    HW2 3912   0.467   6.986   2.322
 1005SOL     OW 3913   2.126   2.866   3.838
 1005SOL    HW1 3914   2.046   2.824   3.796
 1005SOL    HW2 3915   2.184   2.795   3.878
 1006SOL     OW 3916   0.982   4.637   0.961
 1006SOL    HW1 3917   1.058   4.592   0.913
 1006SOL    HW2 3918   1.016   4.718   1.008
 1007SOL     OW 3919   4.650   6.955   5.528
 1007SOL    HW1 3920   4.741   6.981   5.496
 1007SOL    HW2 3921   4.583   6.974   5.456
 1008SOL     OW 3922   1.528   3.012   4.920
 1008SOL    HW1 3923   1.596   2.943   4.894
 1008SOL    HW2 3924   1.446   2.966   4.954
 1009SOL     OW 3925   0.404   5.317   4.783
 1009SOL    HW1 3926   0.440   5.405   4.811
 1009SOL    HW2 3927   0.322   5.331   4.728
 1010SOL     OW 3928   3.442   2.608   5.870
 1010SOL    HW1 3929   3.364   2.558   5.907
 1010SOL    HW2 3930   3.410   2.677   5.805
 1011SOL     OW 3931   2.498   5.037   2.345
 1011SOL    HW1 3932   2.541   5.069   2.261
 1011SOL    HW2 3933   2.411   4.992   2.324
 1012SOL     OW 3934   0.078   0.729   1.590
 1012SOL    HW1 3935   7.015   0.779   1.615
 1012SOL    HW2 3936   0.158   0.781   1.621
 1013SOL     OW 3937   0.840   0.741   5.537
 1013SOL    HW1 3938   0.900   0.788   5.602
 1013SOL    HW2 3939   0.774   0.806   5.499
 1014SOL     OW 3940   5.908   6.004   6.109
 1014SOL    HW1 3941   5.989   6.055   6.138
 1014SOL    HW2 3942   5.887   5.933   6.176
 1015SOL     OW 3943   2.607   6.547   5.895
 1015SOL    HW1 3944   2.538   6.574   5.963
 1015SOL    HW2 3945   2.577   6.575   5.804
 1016SOL     OW 3946   3.983   3.727   6.588
 1016SOL    HW1 3947   4.045   3.693   6.517
 1016SOL    HW2 3948   3.964   3.824   6.571
 1017SOL     OW 3949   4.155   2.628   1.270
 1017SOL    HW1 3950   4.146   2.611   1.171
 1017SOL    HW2 3951   4.252   2.625   1.295
 1018SOL     OW 3952   0.235   4.334   3.826
 1018SOL    HW1 3953   0.274   4.252   3.785
 1018SOL    HW2 3954   0.292   4.413   3.804
 1019SOL     OW 3955   6.660   6.654   1.126
 1019SOL    HW1 3956   6.690   6.746   1.151
 1019SOL    HW2 3957   6.740   6.596   1.110
 1020SOL     OW 3958   0.712   0.940   1.611
 1020SOL    HW1 3959   0.766   0.912   1.532
 1020SOL    HW2 3960   0.621   0.970   1.581
 1021SOL     OW 3961   5.140   6.937   1.346
 1021SOL    HW1 3962   5.131   6.909   1.442
 1021SOL    HW2 3963   5.184   6.864   1.294
 1022SOL     OW 3964   3.986   4.913   5.860
 1022SOL    HW1 3965   4.038   4.845   5.808
 1022SOL    HW2 3966   3.976   4.996   5.805
 1023SOL     OW 3967   0.777   6.685   2.908
 1023SOL    HW1 3968   0.786   6.599   2.858
 1023SOL    HW2 3969   0.682   6.694   2.940
 1024SOL     OW 3970   0.495   2.357   4.040
 1024SOL    HW1 3971   0.456   2.421   4.107
 1024SOL    HW2 3972   0.433   2.350   3.962
 1025SOL     OW 3973   3.343   3.082   0.944
 1025SOL    HW1 3974   3.249   3.115   0.952
 1025SOL    HW2 3975   3.399   3.152   0.898
 1026SOL     OW 3976   2.184   2.622   0.655
 1026SOL    HW1 3977   2.277   2.590   0.671
 1026SOL    HW2 3978   2.119   2.550   0.682
 1027SOL     OW 3979   3.037   6.443   1.871
 1027SOL    HW1 3980   3.074   6.352   1.889
 1027SOL    HW2 3981   3.062   6.471   1.778
 1028SOL     OW 3982   3.131   6.216   0.558
 1028SOL    HW1 3983   3.047   6.267   0.579
 1028SOL    HW2 3984   3.108   6.134   0.505
 1029SOL     OW 3985   1.970   6.947   6.900
 1029SOL    HW1 3986   2.038   6.920   6.832
 1029SOL    HW2 3987   1.896   6.881   6.901
 1030SOL     OW 3988   3.183   2.838   1.919
 1030SOL    HW1 3989   3.108   2.782   1.881
 1030SOL    HW2 3990   3.148   2.892   1.996
 1031SOL     OW 3991   5.540   4.524   0.664
 1031SOL    HW1 3992   5.487   4.440   0.677
 1031SOL    HW2 3993   5.634   4.509   0.692
 1032SOL     OW 3994   2.206   2.113   4.983
 1032SOL    HW1 3995   2.276   2.094   4.915
 1032SOL    HW2 3996   2.163   2.028   5.013
 1033SOL     OW 3997   1.426   6.678   0.741
 1033SOL    HW1 3998   1.508   6.718   0.782
 1033SOL    HW2 3999   1.398   6.732   0.661
 1034SOL     OW 4000   0.531   4.812   4.981
 1034SOL    HW1 4001   0.522   4.860   4.893
 1034SOL    HW2 4002   0.575   4.724   4.967
 1035SOL     OW 4003   0.186   1.089   5.210
 1035SOL    HW1 4004   0.089   1.108   5.201
 1035SOL    HW2 4005   0.232   1.100   5.122
 1036SOL     OW 4006   3.433   1.266   1.783
 1036SOL    HW1 4007   3.503   1.336   1.795
 1036SOL    HW2 4008   3.447   1.192   1.849
 1037SOL     OW 4009   1.512   0.854   1.930
 1037SOL    HW1 4010   1.512   0.838   1.831
 1037SOL    HW2 4011   1.498   0.951   1.949
 1038SOL     OW 4012   1.380   0.367   4.635
 1038SOL    HW1 4013   1.459   0.321   4.593
 1038SOL    HW2 4014   1.404   0.463   4.653
 1039SOL     OW 4015   3.334   4.219   5.406
 1039SOL    HW1 4016   3.329   4.173   5.317
 1039SOL    HW2 4017   3.244   4.219   5.449
 1040SOL     OW 4018   4.719   2.618   2.593
 1040SOL    HW1 4019   4.632   2.574   2.617
 1040SOL    HW2 4020   4.719   2.640   2.495
 1041SOL     OW 4021   0.094   0.192   3.449
 1041SOL    HW1 4022   0.147   0.107   3.456
 1041SOL    HW2 4023   0.058   0.200   3.356
 1042SOL     OW 4024   4.748   5.185   2.094
 1042SOL    HW1 4025   4.704   5.157   2.179
 1042SOL    HW2 4026   4.814   5.257   2.113
 1043SOL     OW 4027   3.436   1.366   5.305
 1043SOL    HW1 4028   3.480   1.424   5.237
 1043SOL    HW2 4029   3.391   1.425   5.373
 1044SOL     OW 4030   5.078   4.941   2.712
 1044SOL    HW1 4031   5.170   4.973   2.732
 1044SOL    HW2 4032   5.081   4.846   2.682
 1045SOL     OW 4033   4.569   6.148   2.066
 1045SOL    HW1 4034   4.584   6.215   2.139
 1045SOL    HW2 4035   4.639   6.076   2.072
 1046SOL     OW 4036   1.399   0.839   0.271
 1046SOL    HW1 4037   1.360   0.924   0.234
 1046SOL    HW2 4038   1.342   0.761   0.243
 1047SOL     OW 4039   1.841   1.164   3.357
 1047SOL    HW1 4040   1.802   1.077   3.328
 1047SOL    HW2 4041   1.774   1.215   3.411
 1048SOL     OW 4042   4.704   6.386   4.362
 1048SOL    HW1 4043   4.747   6.476   4.375
 1048SOL    HW2 4044   4.608   6.398   4.339
 1049SOL     OW 4045   6.254   6.022   3.582
 1049SOL    HW1 4046   6.322   6.007   3.510
 1049SOL    HW2 4047   6.221   6.116   3.578
 1050SOL     OW 4048   4.262   4.834   0.831
 1050SOL    HW1 4049   4.204   4.780   0.770
 1050SOL    HW2 4050   4.216   4.847   0.919
 1051SOL     OW 4051   2.640   5.593   1.157
 1051SOL    HW1 4052   2.550   5.626   1.185
 1051SOL    HW2 4053   2.709   5.625   1.222
 1052SOL     OW 4054   3.700   0.729   4.845
 1052SOL    HW1 4055   3.780   0.786   4.860
 1052SOL    HW2 4056   3.725   0.652   4.785
 1053SOL     OW 4057   5.720   4.820   3.270
 1053SOL    HW1 4058   5.748   4.833   3.365
 1053SOL    HW2 4059   5.706   4.909   3.227
 1054SOL     OW 4060   2.936   4.133   5.815
 1054SOL    HW1 4061   2.907   4.074   5.890
 1054SOL    HW2 4062   3.011   4.192   5.846
 1055SOL     OW 4063   3.917   6.730   5.164
 1055SOL    HW1 4064   3.942   6.786   5.243
 1055SOL    HW2 4065   3.949   6.636   5.178
 1056SOL     OW 4066   1.979   5.384   6.267
 1056SOL    HW1 4067   2.029   5.358   6.349
 1056SOL    HW2 4068   1.950   5.479   6.273
 1057SOL     OW 4069   3.087   3.412   1.985
 1057SOL    HW1 4070   3.125   3.380   1.898
 1057SOL    HW2 4071   3.155   3.469   2.031
 1058SOL     OW 4072   4.746   1.506   3.623
 1058SOL    HW1 4073   4.772   1.489   3.528
 1058SOL    HW2 4074   4.695   1.592   3.628
 1059SOL     OW 4075   2.706   0.240   1.360
 1059SOL    HW1 4076   2.748   0.288   1.437
 1059SOL    HW2 4077   2.669   0.306   1.295
 1060SOL     OW 4078   0.450   4.356   4.776
 1060SOL    HW1 4079   0.350   4.358   4.778
 1060SOL    HW2 4080   0.484   4.426   4.713
 1061SOL     OW 4081   6.012   3.619   0.943
 1061SOL    HW1 4082   5.955   3.697   0.916
 1061SOL    HW2 4083   6.102   3.652   0.972
 1062SOL     OW 4084   5.620   4.268   6.576
 1062SOL    HW1 4085   5.553   4.326   6.530
 1062SOL    HW2 4086   5.705   4.267   6.523
 1063SOL     OW 4087   1.872   4.994   2.562
 1063SOL    HW1 4088   1.916   5.082   2.543
 1063SOL    HW2 4089   1.819   4.966   2.483
 1064SOL     OW 4090   1.800   4.327   1.895
 1064SOL    HW1 4091   1.860   4.301   1.820
 1064SOL    HW2 4092   1.824   4.419   1.926
 1065SOL     OW 4093   3.297   0.331   3.885
 1065SOL    HW1 4094   3.342   0.400   3.827
 1065SOL    HW2 4095   3.236   0.276   3.829
 1066SOL     OW 4096   4.423   0.439   3.473
 1066SOL    HW1 4097   4.413   0.528   3.428
 1066SOL    HW2 4098   4.333   0.402   3.495
 1067SOL     OW 4099   0.541   3.999   0.912
 1067SOL    HW1 4100   0.634   3.972   0.937
 1067SOL    HW2 4101   0.497   4.042   0.991
 1068SOL     OW 4102   5.366   5.579   3.092
 1068SOL    HW1 4103   5.371   5.589   2.993
 1068SOL    HW2 4104   5.458   5.572   3.130
 1069SOL     OW 4105   4.176   5.096   0.806
 1069SOL    HW1 4106   4.081   5.076   0.830
 1069SOL    HW2 4107   4.224   5.011   0.785
 1070SOL     OW 4108   0.052   0.438   2.341
 1070SOL    HW1 4109   0.117   0.390   2.282
 1070SOL    HW2 4110   0.099   0.509   2.392
 1071SOL     OW 4111   1.462   0.777   3.378
 1071SOL    HW1 4112   1.394   0.733   3.436
 1071SOL    HW2 4113   1.451   0.745   3.284
 1072SOL     OW 4114   2.175   1.099   0.645
 1072SOL    HW1 4115   2.275   1.099   0.653
 1072SOL    HW2 4116   2.135   1.061   0.729
 1073SOL     OW 4117   4.810   6.894   1.428
 1073SOL    HW1 4118   4.851   6.908   1.337
 1073SOL    HW2 4119   4.873   6.842   1.485
 1074SOL     OW 4120   2.425   5.625   1.389
 1074SOL    HW1 4121   2.404   5.670   1.475
 1074SOL    HW2 4122   2.377   5.670   1.314
 1075SOL     OW 4123   4.945   6.307   4.491
 1075SOL    HW1 4124   4.860   6.311   4.439
 1075SOL    HW2 4125   5.022   6.298   4.428
 1076SOL     OW 4126   6.778   2.925   5.199
 1076SOL    HW1 4127   6.834   2.944   5.118
 1076SOL    HW2 4128   6.752   3.012   5.242
 1077SOL     OW 4129   5.390   0.323   1.602
 1077SOL    HW1 4130   5.453   0.287   1.534
 1077SOL    HW2 4131   5.371   0.252   1.671
 1078SOL     OW 4132   1.090   1.632   2.543
 1078SOL    HW1 4133   1.167   1.681   2.501
 1078SOL    HW2 4134   1.093   1.536   2.515
 1079SOL     OW 4135   2.093   6.229   2.457
 1079SOL    HW1 4136   2.009   6.228   2.403
 1079SOL    HW2 4137   2.173   6.230   2.397
 1080SOL     OW 4138   0.852   3.945   3.560
 1080SOL    HW1 4139   0.775   3.890   3.591
 1080SOL    HW2 4140   0.850   3.952   3.460
 1081SOL     OW 4141   0.318   5.547   5.864
 1081SOL    HW1 4142   0.276   5.611   5.929
 1081SOL    HW2 4143   0.266   5.547   5.779
 1082SOL     OW 4144   3.974   1.818   5.641
 1082SOL    HW1 4145   3.927   1.866   5.567
 1082SOL    HW2 4146   3.932   1.841   5.729
 1083SOL     OW 4147   4.225   3.979   6.918
 1083SOL    HW1 4148   4.312   3.938   6.947
 1083SOL    HW2 4149   4.172   4.004   6.999
 1084SOL     OW 4150   5.616   6.197   6.968
 1084SOL    HW1 4151   5.620   6.125   0.017
 1084SOL    HW2 4152   5.537   6.181   6.908
 1085SOL     OW 4153   1.379   4.096   4.183
 1085SOL    HW1 4154   1.430   4.168   4.136
 1085SOL    HW2 4155   1.282   4.118   4.183
 1086SOL     OW 4156   6.717   6.160   1.219
 1086SOL    HW1 4157   6.703   6.253   1.252
 1086SOL    HW2 4158   6.774   6.162   1.137
 1087SOL     OW 4159   5.160   1.682   5.271
 1087SOL    HW1 4160   5.259   1.685   5.280
 1087SOL    HW2 4161   5.122   1.772   5.291
 1088SOL     OW 4162   6.302   4.476   3.025
 1088SOL    HW1 4163   6.346   4.532   3.094
 1088SOL    HW2 4164   6.204   4.471   3.043
 1089SOL     OW 4165   1.548   6.440   4.122
 1089SOL    HW1 4166   1.532   6.487   4.035
 1089SOL    HW2 4167   1.613   6.365   4.108
 1090SOL     OW 4168   1.988   2.134   3.525
 1090SOL    HW1 4169   1.959   2.194   3.451
 1090SOL    HW2 4170   1.963   2.040   3.504
 1091SOL     OW 4171   3.081   1.910   5.457
 1091SOL    HW1 4172   3.164   1.933   5.509
 1091SOL    HW2 4173   3.080   1.962   5.371
 1092SOL     OW 4174   2.115   3.956   1.195
 1092SOL    HW1 4175   2.018   3.943   1.173
 1092SOL    HW2 4176   2.170   3.937   1.114
 1093SOL     OW 4177   2.153   1.355   2.096
 1093SOL    HW1 4178   2.203   1.309   2.170
 1093SOL    HW2 4179   2.191   1.447   2.083
 1094SOL     OW 4180   0.669   6.678   3.408
 1094SOL    HW1 4181   0.747   6.640   3.359
 1094SOL    HW2 4182   0.590   6.617   3.398
 1095SOL     OW 4183   0.553   2.741   6.488
 1095SOL    HW1 4184   0.605   2.803   6.428
 1095SOL    HW2 4185   0.462   2.725   6.449
 1096SOL     OW 4186   3.437   4.451   1.681
 1096SOL    HW1 4187   3.462   4.383   1.750
 1096SOL    HW2 4188   3.481   4.538   1.703
 1097SOL     OW 4189   1.968   4.594   4.118
 1097SOL    HW1 4190   1.926   4.682   4.096
 1097SOL    HW2 4191   2.022   4.562   4.040
 1098SOL     OW 4192   4.616   3.412   0.298
 1098SOL    HW1 4193   4.560   3.363   0.230
 1098SOL    HW2 4194   4.681   3.471   0.250
 1099SOL     OW 4195   4.398   1.562   5.419
 1099SOL    HW1 4196   4.481   1.563   5.475
 1099SOL    HW2 4197   4.402   1.638   5.354
 1100SOL     OW 4198   3.447   2.042   5.952
 1100SOL    HW1 4199   3.406   1.991   6.028
 1100SOL    HW2 4200   3.380   2.053   5.879
 1101SOL     OW 4201   6.224   2.248   6.419
 1101SOL    HW1 4202   6.155   2.245   6.346
 1101SOL    HW2 4203   6.280   2.330   6.407
 1102SOL     OW 4204   0.603   6.194   4.761
 1102SOL    HW1 4205   0.513   6.161   4.736
 1102SOL    HW2 4206   0.599   6.292   4.778
 1103SOL     OW 4207   3.738   1.584   0.705
 1103SOL    HW1 4208   3.762   1.489   0.682
 1103SOL    HW2 4209   3.812   1.645   0.676
 1104SOL     OW 4210   2.300   2.792   5.491
 1104SOL    HW1 4211   2.257   2.839   5.568
 1104SOL    HW2 4212   2.269   2.698   5.487
 1105SOL     OW 4213   6.809   4.215   5.077
 1105SOL    HW1 4214   6.789   4.251   4.986
 1105SOL    HW2 4215   6.751   4.260   5.144
 1106SOL     OW 4216   0.174   2.056   1.769
 1106SOL    HW1 4217   0.253   2.089   1.821
 1106SOL    HW2 4218   0.120   2.134   1.737
 1107SOL     OW 4219   1.849   0.352   6.633
 1107SOL    HW1 4220   1.881   0.434   6.682
 1107SOL    HW2 4221   1.810   0.379   6.545
 1108SOL     OW 4222   3.886   0.274   5.688
 1108SOL    HW1 4223   3.932   0.186   5.673
 1108SOL    HW2 4224   3.921   0.316   5.771
 1109SOL     OW 4225   4.690   0.599   4.482
 1109SOL    HW1 4226   4.653   0.667   4.546
 1109SOL    HW2 4227   4.696   0.639   4.391
 1110SOL     OW 4228   2.477   1.885   3.143
 1110SOL    HW1 4229   2.393   1.838   3.172
 1110SOL    HW2 4230   2.556   1.829   3.166
 1111SOL     OW 4231   4.715   5.556   6.143
 1111SOL    HW1 4232   4.708   5.644   6.096
 1111SOL    HW2 4233   4.753   5.488   6.080
 1112SOL     OW 4234   5.056   1.477   2.495
 1112SOL    HW1 4235   5.041   1.383   2.466
 1112SOL    HW2 4236   5.021   1.490   2.588
 1113SOL     OW 4237   6.569   3.893   1.947
 1113SOL    HW1 4238   6.505   3.934   1.882
 1113SOL    HW2 4239   6.638   3.841   1.897
 1114SOL     OW 4240   3.956   1.990   6.673
 1114SOL    HW1 4241   4.010   2.073   6.681
 1114SOL    HW2 4242   3.969   1.950   6.583
 1115SOL     OW 4243   4.280   3.473   6.851
 1115SOL    HW1 4244   4.379   3.463   6.854
 1115SOL    HW2 4245   4.240   3.394   6.804
 1116SOL     OW 4246   4.965   6.444   5.841
 1116SOL    HW1 4247   4.926   6.466   5.931
 1116SOL    HW2 4248   5.042   6.504   5.822
 1117SOL     OW 4249   1.551   2.399   2.184
 1117SOL    HW1 4250   1.541   2.453   2.101
 1117SOL    HW2 4251   1.466   2.403   2.237
 1118SOL     OW 4252   2.776   4.846   1.152
 1118SOL    HW1 4253   2.766   4.823   1.055
 1118SOL    HW2 4254   2.731   4.776   1.208
 1119SOL     OW 4255   4.030   4.122   0.927
 1119SOL    HW1 4256   4.014   4.031   0.889
 1119SOL    HW2 4257   4.057   4.114   1.023
 1120SOL     OW 4258   6.480   6.950   5.640
 1120SOL    HW1 4259   6.456   6.891   5.717
 1120SOL    HW2 4260   6.522   6.895   5.568
 1121SOL     OW 4261   5.127   5.199   2.975
 1121SOL    HW1 4262   5.078   5.124   2.932
 1121SOL    HW2 4263   5.068   5.242   3.044
 1122SOL     OW 4264   5.447   3.563   6.626
 1122SOL    HW1 4265   5.417   3.618   6.703
 1122SOL    HW2 4266   5.429   3.466   6.645
 1123SOL     OW 4267   5.136   1.447   3.263
 1123SOL    HW1 4268   5.046   1.471   3.298
 1123SOL    HW2 4269   5.188   1.400   3.335
 1124SOL     OW 4270   0.036   3.482   5.262
 1124SOL    HW1 4271   6.989   3.537   5.311
 1124SOL    HW2 4272   0.126   3.525   5.269
 1125SOL     OW 4273   3.549   1.657   4.947
 1125SOL    HW1 4274   3.504   1.664   4.859
 1125SOL    HW2 4275   3.499   1.710   5.015
 1126SOL     OW 4276   6.321   4.951   6.713
 1126SOL    HW1 4277   6.382   4.915   6.643
 1126SOL    HW2 4278   6.262   4.878   6.746
 1127SOL     OW 4279   5.168   5.266   4.573
 1127SOL    HW1 4280   5.264   5.295   4.568
 1127SOL    HW2 4281   5.153   5.192   4.507
 1128SOL     OW 4282   5.743   1.834   5.483
 1128SOL    HW1 4283   5.662   1.888   5.463
 1128SOL    HW2 4284   5.738   1.746   5.435
 1129SOL     OW 4285   2.592   0.859   0.038
 1129SOL    HW1 4286   2.590   0.937   0.100
 1129SOL    HW2 4287   2.506   0.855   7.008
 1130SOL     OW 4288   2.844   4.598   0.563
 1130SOL    HW1 4289   2.921   4.661   0.575
 1130SOL    HW2 4290   2.844   4.561   0.471
 1131SOL     OW 4291   0.136   5.968   6.232
 1131SOL    HW1 4292   0.087   5.961   6.145
 1131SOL    HW2 4293   0.122   6.060   6.270
 1132SOL     OW 4294   5.355   0.575   1.465
 1132SOL    HW1 4295   5.355   0.654   1.526
 1132SOL    HW2 4296   5.337   0.492   1.517
 1133SOL     OW 4297   0.740   0.572   1.185
 1133SOL    HW1 4298   0.831   0.598   1.218
 1133SOL    HW2 4299   0.749   0.517   1.102
 1134SOL     OW 4300   5.406   0.961   1.835
 1134SOL    HW1 4301   5.402   0.890   1.906
 1134SOL    HW2 4302   5.499   0.998   1.830
 1135SOL     OW 4303   2.598   1.349   2.542
 1135SOL    HW1 4304   2.646   1.312   2.622
 1135SOL    HW2 4305   2.614   1.292   2.463
 1136SOL     OW 4306   3.480   5.345   3.868
 1136SOL    HW1 4307   3.539   5.358   3.949
 1136SOL    HW2 4308   3.529   5.290   3.801
 1137SOL     OW 4309   1.058   1.068   6.460
 1137SOL    HW1 4310   1.075   0.985   6.513
 1137SOL    HW2 4311   0.969   1.106   6.486
 1138SOL     OW 4312   0.235   0.989   6.378
 1138SOL    HW1 4313   0.152   0.961   6.426
 1138SOL    HW2 4314   0.311   0.928   6.405
 1139SOL     OW 4315   3.444   5.212   1.603
 1139SOL    HW1 4316   3.478   5.147   1.670
 1139SOL    HW2 4317   3.345   5.223   1.615
 1140SOL     OW 4318   4.071   1.164   2.173
 1140SOL    HW1 4319   4.157   1.206   2.202
 1140SOL    HW2 4320   4.089   1.082   2.120
 1141SOL     OW 4321   0.125   6.049   6.550
 1141SOL    HW1 4322   0.162   6.105   6.476
 1141SOL    HW2 4323   0.194   5.982   6.579
 1142SOL     OW 4324   3.045   0.091   4.798
 1142SOL    HW1 4325   2.958   0.139   4.803
 1142SOL    HW2 4326   3.087   0.105   4.708
 1143SOL     OW 4327   1.740   3.485   2.524
 1143SOL    HW1 4328   1.782   3.557   2.580
 1143SOL    HW2 4329   1.754   3.507   2.427
 1144SOL     OW 4330   6.851   4.905   5.111
 1144SOL    HW1 4331   6.767   4.951   5.083
 1144SOL    HW2 4332   6.875   4.934   5.204
 1145SOL     OW 4333   6.605   3.703   2.172
 1145SOL    HW1 4334   6.581   3.766   2.098
 1145SOL    HW2 4335   6.565   3.735   2.258
 1146SOL     OW 4336   6.269   0.777   2.345
 1146SOL    HW1 4337   6.307   0.729   2.265
 1146SOL    HW2 4338   6.181   0.737   2.369
 1147SOL     OW 4339   2.564   5.260   1.627
 1147SOL    HW1 4340   2.497   5.299   1.563
 1147SOL    HW2 4341   2.545   5.294   1.719
 1148SOL     OW 4342   5.184   6.086   0.683
 1148SOL    HW1 4343   5.251   6.156   0.659
 1148SOL    HW2 4344   5.232   6.005   0.715
 1149SOL     OW 4345   6.880   4.088   2.743
 1149SOL    HW1 4346   6.944   4.157   2.709
 1149SOL    HW2 4347   6.818   4.130   2.809
 1150SOL     OW 4348   2.225   3.775   0.248
 1150SOL    HW1 4349   2.234   3.691   0.194
 1150SOL    HW2 4350   2.166   3.840   0.200
 1151SOL     OW 4351   4.842   5.063   6.980
 1151SOL    HW1 4352   4.791   5.071   6.894
 1151SOL    HW2 4353   4.870   5.154   7.011
 1152SOL     OW 4354   5.777   4.797   6.285
 1152SOL    HW1 4355   5.750   4.801   6.381
 1152SOL    HW2 4356   5.846   4.867   6.266
 1153SOL     OW 4357   2.007   0.503   1.131
 1153SOL    HW1 4358   1.971   0.558   1.056
 1153SOL    HW2 4359   2.033   0.562   1.207
 1154SOL     OW 4360   0.621   4.479   1.573
 1154SOL    HW1 4361   0.687   4.488   1.498
 1154SOL    HW2 4362   0.658   4.521   1.656
 1155SOL     OW 4363   2.241   5.752   6.405
 1155SOL    HW1 4364   2.302   5.775   6.329
 1155SOL    HW2 4365   2.241   5.826   6.472
 1156SOL     OW 4366   3.594   1.721   4.214
 1156SOL    HW1 4367   3.610   1.625   4.188
 1156SOL    HW2 4368   3.612   1.780   4.135
 1157SOL     OW 4369   5.766   0.468   5.390
 1157SOL    HW1 4370   5.765   0.409   5.470
 1157SOL    HW2 4371   5.805   0.557   5.414
 1158SOL     OW 4372   0.201   5.448   5.386
 1158SOL    HW1 4373   0.244   5.384   5.323
 1158SOL    HW2 4374   0.102   5.433   5.387
 1159SOL     OW 4375   6.499   0.108   3.984
 1159SOL    HW1 4376   6.497   0.064   4.073
 1159SOL    HW2 4377   6.476   0.041   3.913
 1160SOL     OW 4378   4.147   3.629   1.223
 1160SOL    HW1 4379   4.169   3.717   1.183
 1160SOL    HW2 4380   4.050   3.609   1.209
 1161SOL     OW 4381   6.704   7.018   6.402
 1161SOL    HW1 4382   6.639   0.052   6.348
 1161SOL    HW2 4383   6.791   7.013   6.353
 1162SOL     OW 4384   2.718   2.494   6.565
 1162SOL    HW1 4385   2.795   2.443   6.605
 1162SOL    HW2 4386   2.659   2.430   6.514
 1163SOL     OW 4387   6.741   3.176   1.615
 1163SOL    HW1 4388   6.781   3.230   1.540
 1163SOL    HW2 4389   6.716   3.237   1.690
 1164SOL     OW 4390   5.892   2.975   5.196
 1164SOL    HW1 4391   5.938   2.950   5.282
 1164SOL    HW2 4392   5.804   2.929   5.190
 1165SOL     OW 4393   2.851   4.853   3.808
 1165SOL    HW1 4394   2.777   4.910   3.843
 1165SOL    HW2 4395   2.851   4.856   3.708
 1166SOL     OW 4396   3.664   6.933   0.447
 1166SOL    HW1 4397   3.681   7.016   0.501
 1166SOL    HW2 4398   3.700   6.854   0.497
 1167SOL     OW 4399   4.291   6.484   6.482
 1167SOL    HW1 4400   4.383   6.522   6.479
 1167SOL    HW2 4401   4.232   6.543   6.537
 1168SOL     OW 4402   4.911   2.163   3.596
 1168SOL    HW1 4403   4.975   2.129   3.527
 1168SOL    HW2 4404   4.849   2.090   3.623
 1169SOL     OW 4405   5.200   2.494   5.940
 1169SOL    HW1 4406   5.236   2.478   6.032
 1169SOL    HW2 4407   5.235   2.581   5.906
 1170SOL     OW 4408   5.127   0.847   2.896
 1170SOL    HW1 4409   5.041   0.869   2.850
 1170SOL    HW2 4410   5.134   0.748   2.907
 1171SOL     OW 4411   3.011   6.423   6.787
 1171SOL    HW1 4412   3.045   6.493   6.850
 1171SOL    HW2 4413   3.078   6.350   6.778
 1172SOL     OW 4414   3.065   4.052   1.834
 1172SOL    HW1 4415   3.124   4.104   1.772
 1172SOL    HW2 4416   3.013   4.116   1.892
 1173SOL     OW 4417   3.046   0.825   6.495
 1173SOL    HW1 4418   3.048   0.880   6.578
 1173SOL    HW2 4419   2.980   0.863   6.431
 1174SOL     OW 4420   3.494   4.966   1.029
 1174SOL    HW1 4421   3.482   5.054   0.983
 1174SOL    HW2 4422   3.570   4.917   0.987
 1175SOL     OW 4423   3.917   3.347   6.606
 1175SOL    HW1 4424   3.839   3.406   6.624
 1175SOL    HW2 4425   3.967   3.381   6.526
 1176SOL     OW 4426   5.940   5.012   6.295
 1176SOL    HW1 4427   5.967   5.070   6.218
 1176SOL    HW2 4428   6.022   4.983   6.345
 1177SOL     OW 4429   6.827   1.696   5.478
 1177SOL    HW1 4430   6.748   1.638   5.494
 1177SOL    HW2 4431   6.830   1.769   5.546
 1178SOL     OW 4432   3.079   3.638   0.803
 1178SOL    HW1 4433   3.047   3.575   0.732
 1178SOL    HW2 4434   3.076   3.592   0.892
 1179SOL     OW 4435   3.366   6.628   0.874
 1179SOL    HW1 4436   3.300   6.602   0.804
 1179SOL    HW2 4437   3.324   6.695   0.935
 1180SOL     OW 4438   2.117   5.836   4.047
 1180SOL    HW1 4439   2.172   5.871   3.970
 1180SOL    HW2 4440   2.027   5.879   4.045
 1181SOL     OW 4441   0.401   3.475   5.723
 1181SOL    HW1 4442   0.309   3.467   5.687
 1181SOL    HW2 4443   0.399   3.466   5.822
 1182SOL     OW 4444   3.137   4.895   3.176
 1182SOL    HW1 4445   3.061   4.944   3.133
 1182SOL    HW2 4446   3.209   4.960   3.201
 1183SOL     OW 4447   3.579   5.564   1.924
 1183SOL    HW1 4448   3.489   5.531   1.895
 1183SOL    HW2 4449   3.611   5.633   1.859
 1184SOL     OW 4450   5.568   0.043   6.304
 1184SOL    HW1 4451   5.618   0.045   6.391
 1184SOL    HW2 4452   5.576   6.972   6.263
 1185SOL     OW 4453   0.374   1.347   1.394
 1185SOL    HW1 4454   0.439   1.360   1.319
 1185SOL    HW2 4455   0.326   1.433   1.411
 1186SOL     OW 4456   5.537   5.739   5.297
 1186SOL    HW1 4457   5.479   5.694   5.365
 1186SOL    HW2 4458   5.632   5.740   5.330
 1187SOL     OW 4459   5.368   6.602   5.513
 1187SOL    HW1 4460   5.324   6.692   5.512
 1187SOL    HW2 4461   5.447   6.603   5.451
 1188SOL     OW 4462   3.720   5.220   6.404
 1188SOL    HW1 4463   3.767   5.207   6.317
 1188SOL    HW2 4464   3.649   5.151   6.415
 1189SOL     OW 4465   5.871   0.568   1.350
 1189SOL    HW1 4466   5.971   0.568   1.348
 1189SOL    HW2 4467   5.840   0.626   1.424
 1190SOL     OW 4468   3.054   6.232   2.713
 1190SOL    HW1 4469   2.997   6.302   2.670
 1190SOL    HW2 4470   3.096   6.175   2.643
 1191SOL     OW 4471   2.367   6.381   4.267
 1191SOL    HW1 4472   2.274   6.414   4.253
 1191SOL    HW2 4473   2.370   6.326   4.351
 1192SOL     OW 4474   5.907   6.323   3.352
 1192SOL    HW1 4475   5.834   6.261   3.381
 1192SOL    HW2 4476   5.889   6.415   3.388
 1193SOL     OW 4477   0.422   0.244   5.136
 1193SOL    HW1 4478   0.504   0.301   5.134
 1193SOL    HW2 4479   0.375   0.256   5.224
 1194SOL     OW 4480   6.549   1.765   0.584
 1194SOL    HW1 4481   6.583   1.687   0.637
 1194SOL    HW2 4482   6.609   1.778   0.504
 1195SOL     OW 4483   6.662   3.417   0.305
 1195SOL    HW1 4484   6.735   3.484   0.317
 1195SOL    HW2 4485   6.575   3.465   0.292
 1196SOL     OW 4486   6.087   4.814   3.413
 1196SOL    HW1 4487   6.007   4.869   3.388
 1196SOL    HW2 4488   6.056   4.722   3.439
 1197SOL     OW 4489   4.353   6.635   4.195
 1197SOL    HW1 4490   4.307   6.691   4.264
 1197SOL    HW2 4491   4.297   6.554   4.175
 1198SOL     OW 4492   1.361   3.717   2.087
 1198SOL    HW1 4493   1.270   3.714   2.130
 1198SOL    HW2 4494   1.394   3.812   2.088
 1199SOL     OW 4495   3.254   3.594   2.880
 1199SOL    HW1 4496   3.337   3.542   2.900
 1199SOL    HW2 4497   3.263   3.687   2.914
 1200SOL     OW 4498   3.743   4.123   4.488
 1200SOL    HW1 4499   3.663   4.183   4.491
 1200SOL    HW2 4500   3.768   4.106   4.393
 1201SOL     OW 4501   6.747   0.884   5.111
 1201SOL    HW1 4502   6.819   0.867   5.044
 1201SOL    HW2 4503   6.732   0.983   5.119
 1202SOL     OW 4504   6.885   6.151   5.351
 1202SOL    HW1 4505   6.793   6.130   5.320
 1202SOL    HW2 4506   6.886   6.162   5.451
 1203SOL     OW 4507   0.285   6.501   0.429
 1203SOL    HW1 4508   0.288   6.427   0.362
 1203SOL    HW2 4509   0.371   6.503   0.480
 1204SOL     OW 4510   5.126   1.175   1.493
 1204SOL    HW1 4511   5.093   1.270   1.494
 1204SOL    HW2 4512   5.182   1.160   1.412
 1205SOL     OW 4513   3.729   3.680   0.239
 1205SOL    HW1 4514   3.764   3.660   0.330
 1205SOL    HW2 4515   3.806   3.694   0.176
 1206SOL     OW 4516   0.927   3.208   4.485
 1206SOL    HW1 4517   1.026   3.223   4.483
 1206SOL    HW2 4518   0.885   3.277   4.544
 1207SOL     OW 4519   0.448   0.493   1.054
 1207SOL    HW1 4520   0.410   0.429   1.121
 1207SOL    HW2 4521   0.485   0.572   1.102
 1208SOL     OW 4522   3.261   3.193   1.784
 1208SOL    HW1 4523   3.190   3.126   1.761
 1208SOL    HW2 4524   3.316   3.158   1.860
 1209SOL     OW 4525   5.239   0.109   4.437
 1209SOL    HW1 4526   5.247   0.009   4.434
 1209SOL    HW2 4527   5.143   0.134   4.430
 1210SOL     OW 4528   4.700   6.580   3.709
 1210SOL    HW1 4529   4.601   6.566   3.712
 1210SOL    HW2 4530   4.737   6.578   3.802
 1211SOL     OW 4531   0.825   3.304   2.817
 1211SOL    HW1 4532   0.890   3.280   2.889
 1211SOL    HW2 4533   0.857   3.385   2.768
 1212SOL     OW 4534   6.098   0.501   6.124
 1212SOL    HW1 4535   6.106   0.423   6.186
 1212SOL    HW2 4536   6.108   0.470   6.030
 1213SOL     OW 4537   5.529   1.935   2.256
 1213SOL    HW1 4538   5.527   1.999   2.179
 1213SOL    HW2 4539   5.573   1.979   2.335
 1214SOL     OW 4540   0.502   2.549   6.652
 1214SOL    HW1 4541   0.500   2.617   6.579
 1214SOL    HW2 4542   0.470   2.590   6.737
 1215SOL     OW 4543   1.483   4.917   2.685
 1215SOL    HW1 4544   1.474   4.916   2.586
 1215SOL    HW2 4545   1.544   4.991   2.712
 1216SOL     OW 4546   5.940   1.459   0.938
 1216SOL    HW1 4547   5.907   1.529   1.001
 1216SOL    HW2 4548   5.937   1.370   0.983
 1217SOL     OW 4549   3.034   4.898   0.826
 1217SOL    HW1 4550   3.076   4.959   0.894
 1217SOL    HW2 4551   3.106   4.848   0.778
 1218SOL     OW 4552   1.526   2.552   5.069
 1218SOL    HW1 4553   1.474   2.625   5.024
 1218SOL    HW2 4554   1.505   2.464   5.026
 1219SOL     OW 4555   5.293   5.386   2.173
 1219SOL    HW1 4556   5.222   5.368   2.105
 1219SOL    HW2 4557   5.344   5.468   2.147
 1220SOL     OW 4558   6.734   4.265   1.849
 1220SOL    HW1 4559   6.809   4.213   1.890
 1220SOL    HW2 4560   6.749   4.362   1.865
 1221SOL     OW 4561   5.330   3.844   6.486
 1221SOL    HW1 4562   5.401   3.890   6.434
 1221SOL    HW2 4563   5.370   3.770   6.541
 1222SOL     OW 4564   6.922   0.841   6.850
 1222SOL    HW1 4565   6.869   0.921   6.824
 1222SOL    HW2 4566   6.876   0.758   6.817
 1223SOL     OW 4567   3.880   0.696   0.217
 1223SOL    HW1 4568   3.804   0.636   0.190
 1223SOL    HW2 4569   3.890   0.696   0.317
 1224SOL     OW 4570   3.064   6.136   6.525
 1224SOL    HW1 4571   3.086   6.232   6.508
 1224SOL    HW2 4572   3.059   6.087   6.438
 1225SOL     OW 4573   3.659   2.643   6.556
 1225SOL    HW1 4574   3.691   2.726   6.511
 1225SOL    HW2 4575   3.559   2.644   6.561
 1226SOL     OW 4576   3.617   6.351   0.594
 1226SOL    HW1 4577   3.638   6.268   0.646
 1226SOL    HW2 4578   3.594   6.326   0.499
 1227SOL     OW 4579   5.161   4.863   5.541
 1227SOL    HW1 4580   5.125   4.830   5.628
 1227SOL    HW2 4581   5.259   4.844   5.536
 1228SOL     OW 4582   3.331   2.282   6.743
 1228SOL    HW1 4583   3.327   2.237   6.654
 1228SOL    HW2 4584   3.424   2.313   6.761
 1229SOL     OW 4585   1.976   5.565   0.428
 1229SOL    HW1 4586   2.035   5.498   0.383
 1229SOL    HW2 4587   2.026   5.652   0.437
 1230SOL     OW 4588   5.324   6.177   2.231
 1230SOL    HW1 4589   5.391   6.251   2.233
 1230SOL    HW2 4590   5.342   6.114   2.307
 1231SOL     OW 4591   1.897   1.993   4.987
 1231SOL    HW1 4592   1.965   1.975   5.058
 1231SOL    HW2 4593   1.923   2.075   4.936
 1232SOL     OW 4594   6.453   0.992   4.906
 1232SOL    HW1 4595   6.476   0.901   4.872
 1232SOL    HW2 4596   6.529   1.054   4.888
 1233SOL     OW 4597   0.916   5.504   4.690
 1233SOL    HW1 4598   0.887   5.476   4.782
 1233SOL    HW2 4599   1.015   5.514   4.688
 1234SOL     OW 4600   5.903   2.683   5.387
 1234SOL    HW1 4601   5.813   2.704   5.425
 1234SOL    HW2 4602   5.893   2.626   5.305
 1235SOL     OW 4603   5.897   4.717   1.631
 1235SOL    HW1 4604   5.896   4.694   1.729
 1235SOL    HW2 4605   5.845   4.648   1.581
 1236SOL     OW 4606   4.551   1.242   1.138
 1236SOL    HW1 4607   4.647   1.257   1.160
 1236SOL    HW2 4608   4.539   1.234   1.039
 1237SOL     OW 4609   1.242   4.751   5.489
 1237SOL    HW1 4610   1.187   4.826   5.525
 1237SOL    HW2 4611   1.337   4.781   5.479
 1238SOL     OW 4612   1.680   0.403   6.374
 1238SOL    HW1 4613   1.621   0.424   6.296
 1238SOL    HW2 4614   1.671   0.475   6.443
 1239SOL     OW 4615   0.421   6.874   6.858
 1239SOL    HW1 4616   0.397   6.777   6.847
 1239SOL    HW2 4617   0.350   6.931   6.817
 1240SOL     OW 4618   5.947   6.279   1.063
 1240SOL    HW1 4619   5.990   6.200   1.017
 1240SOL    HW2 4620   5.954   6.359   1.004
 1241SOL     OW 4621   6.168   4.341   5.342
 1241SOL    HW1 4622   6.082   4.365   5.297
 1241SOL    HW2 4623   6.149   4.295   5.429
 1242SOL     OW 4624   1.842   3.887   1.154
 1242SOL    HW1 4625   1.770   3.935   1.204
 1242SOL    HW2 4626   1.822   3.789   1.153
 1243SOL     OW 4627   1.480   0.436   5.225
 1243SOL    HW1 4628   1.419   0.514   5.214
 1243SOL    HW2 4629   1.544   0.454   5.299
 1244SOL     OW 4630   5.421   6.530   4.405
 1244SOL    HW1 4631   5.415   6.603   4.335
 1244SOL    HW2 4632   5.431   6.572   4.495
 1245SOL     OW 4633   5.433   4.365   0.286
 1245SOL    HW1 4634   5.407   4.460   0.305
 1245SOL    HW2 4635   5.352   4.307   0.291
 1246SOL     OW 4636   3.668   1.298   1.319
 1246SOL    HW1 4637   3.735   1.269   1.250
 1246SOL    HW2 4638   3.677   1.241   1.400
 1247SOL     OW 4639   0.181   6.525   5.498
 1247SOL    HW1 4640   0.163   6.578   5.581
 1247SOL    HW2 4641   0.122   6.558   5.424
 1248SOL     OW 4642   2.069   6.961   4.187
 1248SOL    HW1 4643   2.090   6.982   4.092
 1248SOL    HW2 4644   2.141   6.998   4.246
 1249SOL     OW 4645   6.674   2.272   2.123
 1249SOL    HW1 4646   6.744   2.238   2.185
 1249SOL    HW2 4647   6.592   2.297   2.176
 1250SOL     OW 4648   5.774   5.205   3.244
 1250SOL    HW1 4649   5.833   5.126   3.227
 1250SOL    HW2 4650   5.776   5.266   3.165
 1251SOL     OW 4651   2.339   1.370   3.043
 1251SOL    HW1 4652   2.351   1.336   3.136
 1251SOL    HW2 4653   2.313   1.295   2.982
 1252SOL     OW 4654   4.161   4.353   6.921
 1252SOL    HW1 4655   4.168   4.433   6.861
 1252SOL    HW2 4656   4.074   4.307   6.906
 1253SOL     OW 4657   3.133   6.353   2.170
 1253SOL    HW1 4658   3.163   6.316   2.082
 1253SOL    HW2 4659   3.189   6.432   2.193
 1254SOL     OW 4660   0.567   2.536   3.678
 1254SOL    HW1 4661   0.610   2.491   3.756
 1254SOL    HW2 4662   0.638   2.576   3.620
 1255SOL     OW 4663   5.567   1.267   5.827
 1255SOL    HW1 4664   5.496   1.214   5.874
 1255SOL    HW2 4665   5.561   1.363   5.856
 1256SOL     OW 4666   6.837   0.387   3.378
 1256SOL    HW1 4667   6.818   0.290   3.364
 1256SOL    HW2 4668   6.750   0.436   3.391
 1257SOL     OW 4669   6.865   5.121   4.874
 1257SOL    HW1 4670   6.838   5.089   4.965
 1257SOL    HW2 4671   6.951   5.172   4.880
 1258SOL     OW 4672   1.423   5.174   3.160
 1258SOL    HW1 4673   1.423   5.140   3.065
 1258SOL    HW2 4674   1.472   5.261   3.164
 1259SOL     OW 4675   3.312   0.515   4.263
 1259SOL    HW1 4676   3.267   0.474   4.342
 1259SOL    HW2 4677   3.404   0.546   4.288
 1260SOL     OW 4678   3.147   2.112   6.871
 1260SOL    HW1 4679   3.197   2.191   6.835
 1260SOL    HW2 4680   3.124   2.128   6.967
 1261SOL     OW 4681   6.654   5.260   6.868
 1261SOL    HW1 4682   6.630   5.233   6.774
 1261SOL    HW2 4683   6.600   5.340   6.894
 1262SOL     OW 4684   5.704   4.359   1.250
 1262SOL    HW1 4685   5.756   4.365   1.165
 1262SOL    HW2 4686   5.621   4.414   1.242
 1263SOL     OW 4687   6.731   1.846   1.495
 1263SOL    HW1 4688   6.654   1.793   1.460
 1263SOL    HW2 4689   6.708   1.883   1.585
 1264SOL     OW 4690   6.673   3.545   1.298
 1264SOL    HW1 4691   6.630   3.472   1.246
 1264SOL    HW2 4692   6.603   3.609   1.331
 1265SOL     OW 4693   4.854   5.671   3.771
 1265SOL    HW1 4694   4.771   5.618   3.754
 1265SOL    HW2 4695   4.884   5.715   3.686
 1266SOL     OW 4696   0.377   1.194   4.490
 1266SOL    HW1 4697   0.397   1.104   4.451
 1266SOL    HW2 4698   0.386   1.263   4.418
 1267SOL     OW 4699   5.163   6.379   0.920
 1267SOL    HW1 4700   5.195   6.454   0.977
 1267SOL    HW2 4701   5.173   6.293   0.970
 1268SOL     OW 4702   3.810   3.064   0.473
 1268SOL    HW1 4703   3.752   3.119   0.413
 1268SOL    HW2 4704   3.858   3.123   0.537
 1269SOL     OW 4705   5.609   5.269   4.717
 1269SOL    HW1 4706   5.566   5.349   4.758
 1269SOL    HW2 4707   5.662   5.220   4.786
 1270SOL     OW 4708   1.592   3.899   3.622
 1270SOL    HW1 4709   1.571   3.802   3.637
 1270SOL    HW2 4710   1.662   3.907   3.551
 1271SOL     OW 4711   2.761   2.260   3.134
 1271SOL    HW1 4712   2.701   2.326   3.179
 1271SOL    HW2 4713   2.720   2.232   3.047
 1272SOL     OW 4714   5.052   5.467   0.077
 1272SOL    HW1 4715   5.140   5.421   0.090
 1272SOL    HW2 4716   5.067   5.564   0.059
 1273SOL     OW 4717   0.353   4.086   0.353
 1273SOL    HW1 4718   0.448   4.068   0.379
 1273SOL    HW2 4719   0.303   4.000   0.346
 1274SOL     OW 4720   6.663   4.548   1.347
 1274SOL    HW1 4721   6.601   4.556   1.425
 1274SOL    HW2 4722   6.714   4.463   1.353
 1275SOL     OW 4723   3.538   1.680   4.618
 1275SOL    HW1 4724   3.556   1.778   4.606
 1275SOL    HW2 4725   3.440   1.663   4.606
 1276SOL     OW 4726   0.228   5.799   4.839
 1276SOL    HW1 4727   0.146   5.841   4.801
 1276SOL    HW2 4728   0.275   5.746   4.769
 1277SOL     OW 4729   1.497   5.714   6.532
 1277SOL    HW1 4730   1.522   5.622   6.561
 1277SOL    HW2 4731   1.526   5.728   6.437
 1278SOL     OW 4732   0.843   0.008   4.693
 1278SOL    HW1 4733   0.880   0.031   4.783
 1278SOL    HW2 4734   0.917   6.999   4.632
 1279SOL     OW 4735   2.916   6.329   0.637
 1279SOL    HW1 4736   2.872   6.243   0.661
 1279SOL    HW2 4737   2.885   6.401   0.700
 1280SOL     OW 4738   3.218   6.413   5.212
 1280SOL    HW1 4739   3.125   6.390   5.181
 1280SOL    HW2 4740   3.277   6.333   5.199
 1281SOL     OW 4741   1.739   6.451   3.490
 1281SOL    HW1 4742   1.837   6.471   3.495
 1281SOL    HW2 4743   1.689   6.515   3.548
 1282SOL     OW 4744   0.708   2.144   6.944
 1282SOL    HW1 4745   0.796   2.191   6.946
 1282SOL    HW2 4746   0.717   2.055   6.989
 1283SOL     OW 4747   0.361   2.911   5.452
 1283SOL    HW1 4748   0.302   2.855   5.393
 1283SOL    HW2 4749   0.441   2.858   5.480
 1284SOL     OW 4750   4.757   2.095   1.183
 1284SOL    HW1 4751   4.790   2.037   1.257
 1284SOL    HW2 4752   4.657   2.096   1.181
 1285SOL     OW 4753   4.722   1.939   6.469
 1285SOL    HW1 4754   4.631   1.901   6.454
 1285SOL    HW2 4755   4.717   2.038   6.477
 1286SOL     OW 4756   4.993   3.742   1.974
 1286SOL    HW1 4757   5.056   3.754   1.897
 1286SOL    HW2 4758   4.934   3.822   1.982
 1287SOL     OW 4759   5.626   6.031   5.027
 1287SOL    HW1 4760   5.640   5.954   4.964
 1287SOL    HW2 4761   5.537   6.022   5.072
 1288SOL     OW 4762   4.532   3.382   6.819
 1288SOL    HW1 4763   4.627   3.399   6.792
 1288SOL    HW2 4764   4.509   3.286   6.799
 1289SOL     OW 4765   1.098   5.943   2.008
 1289SOL    HW1 4766   1.180   5.923   1.954
 1289SOL    HW2 4767   1.018   5.943   1.948
 1290SOL     OW 4768   0.366   5.922   6.758
 1290SOL    HW1 4769   0.388   6.020   6.763
 1290SOL    HW2 4770   0.379   5.890   6.664
 1291SOL     OW 4771   0.336   3.379   5.061
 1291SOL    HW1 4772   0.334   3.373   5.161
 1291SOL    HW2 4773   0.248   3.415   5.028
 1292SOL     OW 4774   0.139   5.783   1.933
 1292SOL    HW1 4775   0.074   5.810   2.004
 1292SOL    HW2 4776   0.166   5.688   1.947
 1293SOL     OW 4777   1.079   2.258   0.320
 1293SOL    HW1 4778   1.163   2.301   0.355
 1293SOL    HW2 4779   1.060   2.175   0.373
 1294SOL     OW 4780   0.697   2.951   6.384
 1294SOL    HW1 4781   0.659   2.934   6.293
 1294SOL    HW2 4782   0.796   2.963   6.376
 1295SOL     OW 4783   0.222   3.402   2.055
 1295SOL    HW1 4784   0.146   3.448   2.011
 1295SOL    HW2 4785   0.202   3.388   2.152
 1296SOL     OW 4786   3.654   0.031   5.883
 1296SOL    HW1 4787   3.617   0.118   5.917
 1296SOL    HW2 4788   3.727   0.000   5.943
 1297SOL     OW 4789   6.645   0.776   1.567
 1297SOL    HW1 4790   6.611   0.855   1.618
 1297SOL    HW2 4791   6.685   0.710   1.631
 1298SOL     OW 4792   5.267   4.730   2.549
 1298SOL    HW1 4793   5.345   4.759   2.605
 1298SOL    HW2 4794   5.301   4.696   2.461
 1299SOL     OW 4795   1.304   3.824   2.970
 1299SOL    HW1 4796   1.348   3.909   2.999
 1299SOL    HW2 4797   1.204   3.834   2.977
 1300SOL     OW 4798   2.810   2.941   1.179
 1300SOL    HW1 4799   2.847   3.005   1.246
 1300SOL    HW2 4800   2.828   2.847   1.208
 1301SOL     OW 4801   0.846   6.305   1.376
 1301SOL    HW1 4802   0.812   6.394   1.407
 1301SOL    HW2 4803   0.770   6.240   1.373
 1302SOL     OW 4804   4.778   0.462   5.588
 1302SOL    HW1 4805   4.764   0.365   5.571
 1302SOL    HW2 4806   4.847   0.498   5.525
 1303SOL     OW 4807   4.577   2.174   1.467
 1303SOL    HW1 4808   4.677   2.169   1.467
 1303SOL    HW2 4809   4.544   2.183   1.561
 1304SOL     OW 4810   2.110   0.821   6.186
 1304SOL    HW1 4811   2.171   0.897   6.209
 1304SOL    HW2 4812   2.130   0.743   6.246
 1305SOL     OW 4813   5.148   3.602   0.316
 1305SOL    HW1 4814   5.194   3.637   0.398
 1305SOL    HW2 4815   5.060   3.648   0.304
 1306SOL     OW 4816   0.601   4.739   3.875
 1306SOL    HW1 4817   0.568   4.710   3.785
 1306SOL    HW2 4818   0.686   4.790   3.865
 1307SOL     OW 4819   0.842   4.335   4.178
 1307SOL    HW1 4820   0.880   4.265   4.116
 1307SOL    HW2 4821   0.750   4.307   4.206
 1308SOL     OW 4822   6.134   6.511   5.358
 1308SOL    HW1 4823   6.145   6.532   5.455
 1308SOL    HW2 4824   6.101   6.592   5.310
 1309SOL     OW 4825   5.719   3.182   5.185
 1309SOL    HW1 4826   5.762   3.270   5.207
 1309SOL    HW2 4827   5.789   3.113   5.172
 1310SOL     OW 4828   0.039   4.034   4.001
 1310SOL    HW1 4829   0.089   4.096   4.062
 1310SOL    HW2 4830   6.965   4.024   4.034
 1311SOL     OW 4831   0.622   6.697   4.969
 1311SOL    HW1 4832   0.656   6.742   4.887
 1311SOL    HW2 4833   0.531   6.659   4.951
 1312SOL     OW 4834   1.349   6.842   0.058
 1312SOL    HW1 4835   1.395   6.899   0.127
 1312SOL    HW2 4836   1.389   6.860   6.988
 1313SOL     OW 4837   0.411   4.144   3.682
 1313SOL    HW1 4838   0.351   4.075   3.644
 1313SOL    HW2 4839   0.484   4.165   3.617
 1314SOL     OW 4840   4.210   1.459   5.615
 1314SOL    HW1 4841   4.278   1.386   5.608
 1314SOL    HW2 4842   4.238   1.537   5.559
 1315SOL     OW 4843   0.166   1.141   1.471
 1315SOL    HW1 4844   0.238   1.210   1.469
 1315SOL    HW2 4845   0.190   1.069   1.537
 1316SOL     OW 4846   1.672   5.682   4.751
 1316SOL    HW1 4847   1.634   5.692   4.659
 1316SOL    HW2 4848   1.652   5.591   4.787
 1317SOL     OW 4849   2.353   4.606   6.230
 1317SOL    HW1 4850   2.284   4.672   6.260
 1317SOL    HW2 4851   2.420   4.652   6.171
 1318SOL     OW 4852   0.514   2.092   1.480
 1318SOL    HW1 4853   0.490   2.060   1.388
 1318SOL    HW2 4854   0.611   2.115   1.483
 1319SOL     OW 4855   6.933   0.071   0.629
 1319SOL    HW1 4856   6.913   0.047   0.534
 1319SOL    HW2 4857   6.943   7.007   0.683
 1320SOL     OW 4858   4.555   4.284   0.948
 1320SOL    HW1 4859   4.504   4.324   1.024
 1320SOL    HW2 4860   4.652   4.301   0.960
 1321SOL     OW 4861   5.714   1.394   6.736
 1321SOL    HW1 4862   5.792   1.381   6.797
 1321SOL    HW2 4863   5.717   1.326   6.663
 1322SOL     OW 4864   3.886   0.667   3.702
 1322SOL    HW1 4865   3.981   0.643   3.681
 1322SOL    HW2 4866   3.873   0.670   3.801
 1323SOL     OW 4867   4.911   0.839   5.599
 1323SOL    HW1 4868   4.844   0.767   5.577
 1323SOL    HW2 4869   5.003   0.804   5.583
 1324SOL     OW 4870   1.353   3.623   0.348
 1324SOL    HW1 4871   1.329   3.531   0.318
 1324SOL    HW2 4872   1.341   3.687   0.272
 1325SOL     OW 4873   2.005   0.395   2.873
 1325SOL    HW1 4874   2.080   0.373   2.811
 1325SOL    HW2 4875   2.039   0.451   2.948
 1326SOL     OW 4876   4.956   3.565   4.783
 1326SOL    HW1 4877   5.049   3.543   4.810
 1326SOL    HW2 4878   4.903   3.593   4.863
 1327SOL     OW 4879   1.085   5.472   2.250
 1327SOL    HW1 4880   1.010   5.427   2.299
 1327SOL    HW2 4881   1.064   5.569   2.238
 1328SOL     OW 4882   1.347   2.781   0.594
 1328SOL    HW1 4883   1.346   2.803   0.497
 1328SOL    HW2 4884   1.439   2.792   0.630
 1329SOL     OW 4885   0.097   2.323   1.548
 1329SOL    HW1 4886   0.065   2.308   1.641
 1329SOL    HW2 4887   0.094   2.421   1.527
 1330SOL     OW 4888   0.293   1.730   1.916
 1330SOL    HW1 4889   0.316   1.710   1.821
 1330SOL    HW2 4890   0.308   1.827   1.934
 1331SOL     OW 4891   5.053   2.501   3.112
 1331SOL    HW1 4892   5.001   2.513   3.197
 1331SOL    HW2 4893   5.082   2.591   3.079
 1332SOL     OW 4894   2.573   0.298   6.173
 1332SOL    HW1 4895   2.514   0.221   6.149
 1332SOL    HW2 4896   2.584   0.357   6.093
 1333SOL     OW 4897   3.818   4.068   4.920
 1333SOL    HW1 4898   3.751   4.140   4.941
 1333SOL    HW2 4899   3.888   4.105   4.860
 1334SOL     OW 4900   6.372   1.644   4.425
 1334SOL    HW1 4901   6.316   1.570   4.463
 1334SOL    HW2 4902   6.378   1.718   4.492
 1335SOL     OW 4903   2.195   2.130   3.250
 1335SOL    HW1 4904   2.123   2.167   3.310
 1335SOL    HW2 4905   2.156   2.060   3.191
 1336SOL     OW 4906   1.706   2.186   5.171
 1336SOL    HW1 4907   1.771   2.141   5.110
 1336SOL    HW2 4908   1.665   2.119   5.232
 1337SOL     OW 4909   1.949   2.438   4.518
 1337SOL    HW1 4910   2.016   2.399   4.582
 1337SOL    HW2 4911   1.919   2.367   4.454
 1338SOL     OW 4912   5.551   2.002   5.299
 1338SOL    HW1 4913   5.589   1.962   5.215
 1338SOL    HW2 4914   5.452   2.007   5.292
 1339SOL     OW 4915   6.810   1.668   6.149
 1339SOL    HW1 4916   6.872   1.733   6.194
 1339SOL    HW2 4917   6.733   1.648   6.209
 1340SOL     OW 4918   6.835   2.262   2.807
 1340SOL    HW1 4919   6.925   2.305   2.812
 1340SOL    HW2 4920   6.843   2.165   2.831
 1341SOL     OW 4921   5.509   6.997   5.955
 1341SOL    HW1 4922   5.432   0.019   6.004
 1341SOL    HW2 4923   5.561   6.940   6.018
 1342SOL     OW 4924   1.610   5.408   5.964
 1342SOL    HW1 4925   1.679   5.338   5.982
 1342SOL    HW2 4926   1.566   5.389   5.876
 1343SOL     OW 4927   4.380   5.723   3.360
 1343SOL    HW1 4928   4.347   5.795   3.299
 1343SOL    HW2 4929   4.411   5.764   3.446
 1344SOL     OW 4930   6.798   5.535   4.367
 1344SOL    HW1 4931   6.760   5.562   4.277
 1344SOL    HW2 4932   6.866   5.602   4.395
 1345SOL     OW 4933   1.428   0.690   2.893
 1345SOL    HW1 4934   1.486   0.705   2.813
 1345SOL    HW2 4935   1.374   0.607   2.880
 1346SOL     OW 4936   0.670   5.899   4.647
 1346SOL    HW1 4937   0.712   5.982   4.685
 1346SOL    HW2 4938   0.698   5.820   4.701
 1347SOL     OW 4939   6.365   6.431   4.458
 1347SOL    HW1 4940   6.380   6.438   4.557
 1347SOL    HW2 4941   6.294   6.495   4.430
 1348SOL     OW 4942   5.198   5.414   2.519
 1348SOL    HW1 4943   5.291   5.415   2.556
 1348SOL    HW2 4944   5.184   5.496   2.463
 1349SOL     OW 4945   4.556   2.489   5.574
 1349SOL    HW1 4946   4.642   2.526   5.609
 1349SOL    HW2 4947   4.575   2.417   5.508
 1350SOL     OW 4948   5.302   5.136   5.153
 1350SOL    HW1 4949   5.211   5.165   5.123
 1350SOL    HW2 4950   5.362   5.216   5.159
 1351SOL     OW 4951   6.154   1.677   3.537
 1351SOL    HW1 4952   6.063   1.716   3.524
 1351SOL    HW2 4953   6.152   1.611   3.613
 1352SOL     OW 4954   6.717   6.729   2.642
 1352SOL    HW1 4955   6.807   6.765   2.621
 1352SOL    HW2 4956   6.726   6.638   2.683
 1353SOL     OW 4957   0.449   3.392   0.461
 1353SOL    HW1 4958   0.410   3.301   0.471
 1353SOL    HW2 4959   0.543   3.385   0.427
 1354SOL     OW 4960   1.054   3.185   0.601
 1354SOL    HW1 4961   0.957   3.165   0.593
 1354SOL    HW2 4962   1.069   3.240   0.684
 1355SOL     OW 4963   6.783   2.500   5.190
 1355SOL    HW1 4964   6.701   2.554   5.168
 1355SOL    HW2 4965   6.759   2.426   5.253
 1356SOL     OW 4966   3.046   3.430   2.917
 1356SOL    HW1 4967   3.029   3.397   3.010
 1356SOL    HW2 4968   3.125   3.491   2.917
 1357SOL     OW 4969   1.275   2.933   5.403
 1357SOL    HW1 4970   1.347   2.870   5.375
 1357SOL    HW2 4971   1.316   3.016   5.440
 1358SOL     OW 4972   4.396   0.530   5.867
 1358SOL    HW1 4973   4.488   0.558   5.842
 1358SOL    HW2 4974   4.391   0.516   5.966
 1359SOL     OW 4975   5.699   4.323   1.707
 1359SOL    HW1 4976   5.723   4.366   1.794
 1359SOL    HW2 4977   5.624   4.258   1.722
 1360SOL     OW 4978   4.031   2.589   0.421
 1360SOL    HW1 4979   3.966   2.661   0.444
 1360SOL    HW2 4980   4.092   2.621   0.348
 1361SOL     OW 4981   6.742   5.373   5.067
 1361SOL    HW1 4982   6.732   5.463   5.109
 1361SOL    HW2 4983   6.803   5.379   4.988
 1362SOL     OW 4984   3.071   4.018   4.289
 1362SOL    HW1 4985   3.031   3.933   4.322
 1362SOL    HW2 4986   3.152   4.040   4.344
 1363SOL     OW 4987   6.848   5.666   3.340
 1363SOL    HW1 4988   6.860   5.758   3.302
 1363SOL    HW2 4989   6.793   5.671   3.423
 1364SOL     OW 4990   6.685   2.480   1.106
 1364SOL    HW1 4991   6.708   2.384   1.125
 1364SOL    HW2 4992   6.698   2.534   1.188
 1365SOL     OW 4993   1.034   2.648   6.111
 1365SOL    HW1 4994   1.117   2.688   6.071
 1365SOL    HW2 4995   1.037   2.549   6.100
 1366SOL     OW 4996   1.004   4.306   6.900
 1366SOL    HW1 4997   0.914   4.323   6.940
 1366SOL    HW2 4998   1.006   4.338   6.806
 1367SOL     OW 4999   2.116   0.030   2.786
 1367SOL    HW1 5000   2.024   0.032   2.746
 1367SOL    HW2 5001   2.129   6.963   2.835
 1368SOL     OW 5002   6.489   0.897   3.499
 1368SOL    HW1 5003   6.439   0.914   3.414
 1368SOL    HW2 5004   6.575   0.948   3.498
 1369SOL     OW 5005   2.452   0.164   1.806
 1369SOL    HW1 5006   2.364   0.120   1.827
 1369SOL    HW2 5007   2.479   0.141   1.712
 1370SOL     OW 5008   3.893   1.329   2.077
 1370SOL    HW1 5009   3.944   1.407   2.040
 1370SOL    HW2 5010   3.957   1.264   2.117
 1371SOL     OW 5011   6.435   1.365   4.157
 1371SOL    HW1 5012   6.358   1.377   4.094
 1371SOL    HW2 5013   6.460   1.454   4.196
 1372SOL     OW 5014   1.230   3.012   0.739
 1372SOL    HW1 5015   1.168   3.069   0.686
 1372SOL    HW2 5016   1.245   2.926   0.691
 1373SOL     OW 5017   4.916   2.432   6.825
 1373SOL    HW1 5018   4.906   2.365   6.752
 1373SOL    HW2 5019   4.838   2.426   6.887
 1374SOL     OW 5020   4.955   1.670   6.979
 1374SOL    HW1 5021   5.042   1.712   7.006
 1374SOL    HW2 5022   4.920   1.614   0.034
 1375SOL     OW 5023   0.516   3.973   6.402
 1375SOL    HW1 5024   0.426   4.014   6.416
 1375SOL    HW2 5025   0.506   3.890   6.347
 1376SOL     OW 5026   4.622   4.705   5.301
 1376SOL    HW1 5027   4.606   4.800   5.328
 1376SOL    HW2 5028   4.662   4.702   5.210
 1377SOL     OW 5029   0.742   3.373   5.783
 1377SOL    HW1 5030   0.662   3.312   5.783
 1377SOL    HW2 5031   0.802   3.348   5.859
 1378SOL     OW 5032   6.012   0.896   4.778
 1378SOL    HW1 5033   6.053   0.987   4.782
 1378SOL    HW2 5034   5.922   0.901   4.735
 1379SOL     OW 5035   3.596   6.913   3.317
 1379SOL    HW1 5036   3.540   6.876   3.392
 1379SOL    HW2 5037   3.609   6.842   3.248
 1380SOL     OW 5038   0.004   0.089   2.360
 1380SOL    HW1 5039   6.967   0.165   2.329
 1380SOL    HW2 5040   0.048   0.047   2.281
 1381SOL     OW 5041   5.763   2.373   6.684
 1381SOL    HW1 5042   5.707   2.298   6.650
 1381SOL    HW2 5043   5.848   2.337   6.723
 1382SOL     OW 5044   4.787   3.552   0.136
 1382SOL    HW1 5045   4.842   3.613   0.193
 1382SOL    HW2 5046   4.838   3.468   0.118
 1383SOL     OW 5047   0.766   0.378   2.304
 1383SOL    HW1 5048   0.781   0.331   2.391
 1383SOL    HW2 5049   0.700   0.452   2.316
 1384SOL     OW 5050   4.927   0.157   1.894
 1384SOL    HW1 5051   4.883   0.183   1.808
 1384SOL    HW2 5052   4.871   0.089   1.941
 1385SOL     OW 5053   1.800   3.981   3.468
 1385SOL    HW1 5054   1.840   3.964   3.378
 1385SOL    HW2 5055   1.719   4.038   3.458
 1386SOL     OW 5056   3.574   0.432   4.862
 1386SOL    HW1 5057   3.600   0.349   4.813
 1386SOL    HW2 5058   3.632   0.442   4.943
 1387SOL     OW 5059   3.371   5.560   2.397
 1387SOL    HW1 5060   3.437   5.497   2.438
 1387SOL    HW2 5061   3.289   5.509   2.371
 1388SOL     OW 5062   0.526   0.223   3.115
 1388SOL    HW1 5063   0.589   0.271   3.054
 1388SOL    HW2 5064   0.571   0.205   3.202
 1389SOL     OW 5065   6.425   1.148   3.874
 1389SOL    HW1 5066   6.509   1.134   3.926
 1389SOL    HW2 5067   6.365   1.069   3.887
 1390SOL     OW 5068   6.054   3.306   6.059
 1390SOL    HW1 5069   6.109   3.223   6.048
 1390SOL    HW2 5070   5.967   3.282   6.103
 1391SOL     OW 5071   6.059   6.809   5.543
 1391SOL    HW1 5072   6.102   6.898   5.528
 1391SOL    HW2 5073   6.130   6.740   5.559
 1392SOL     OW 5074   5.575   6.586   6.326
 1392SOL    HW1 5075   5.616   6.503   6.289
 1392SOL    HW2 5076   5.564   6.577   6.425
 1393SOL     OW 5077   6.902   3.276   5.791
 1393SOL    HW1 5078   6.891   3.185   5.751
 1393SOL    HW2 5079   6.983   3.277   5.850
 1394SOL     OW 5080   3.849   6.042   4.765
 1394SOL    HW1 5081   3.772   6.010   4.820
 1394SOL    HW2 5082   3.817   6.113   4.702
 1395SOL     OW 5083   1.751   4.416   3.970
 1395SOL    HW1 5084   1.677   4.405   4.036
 1395SOL    HW2 5085   1.829   4.360   3.999
 1396SOL     OW 5086   0.546   0.452   4.618
 1396SOL    HW1 5087   0.628   0.395   4.626
 1396SOL    HW2 5088   0.470   0.409   4.668
 1397SOL     OW 5089   0.344   5.546   4.324
 1397SOL    HW1 5090   0.319   5.524   4.230
 1397SOL    HW2 5091   0.426   5.604   4.325
 1398SOL     OW 5092   2.339   1.737   0.027
 1398SOL    HW1 5093   2.403   1.706   6.977
 1398SOL    HW2 5094   2.378   1.722   0.117
 1399SOL     OW 5095   3.781   6.457   0.177
 1399SOL    HW1 5096   3.724   6.375   0.184
 1399SOL    HW2 5097   3.724   6.538   0.189
 1400SOL     OW 5098   0.333   1.722   4.586
 1400SOL    HW1 5099   0.285   1.802   4.622
 1400SOL    HW2 5100   0.271   1.644   4.585
 1401SOL     OW 5101   5.779   0.153   4.565
 1401SOL    HW1 5102   5.753   0.213   4.640
 1401SOL    HW2 5103   5.856   0.193   4.516
 1402SOL     OW 5104   5.700   4.389   6.843
 1402SOL    HW1 5105   5.722   4.483   6.817
 1402SOL    HW2 5106   5.643   4.347   6.773
 1403SOL     OW 5107   1.829   2.004   1.084
 1403SOL    HW1 5108   1.762   2.048   1.024
 1403SOL    HW2 5109   1.904   2.068   1.101
 1404SOL     OW 5110   6.719   0.515   0.076
 1404SOL    HW1 5111   6.736   0.584   0.146
 1404SOL    HW2 5112   6.662   0.554   0.004
 1405SOL     OW 5113   2.671   4.170   1.100
 1405SOL    HW1 5114   2.644   4.260   1.135
 1405SOL    HW2 5115   2.601   4.137   1.036
 1406SOL     OW 5116   1.502   5.437   1.235
 1406SOL    HW1 5117   1.543   5.511   1.287
 1406SOL    HW2 5118   1.568   5.361   1.227
 1407SOL     OW 5119   1.423   4.068   3.046
 1407SOL    HW1 5120   1.456   4.128   2.973
 1407SOL    HW2 5121   1.336   4.104   3.082
 1408SOL     OW 5122   5.906   6.647   6.208
 1408SOL    HW1 5123   5.847   6.567   6.208
 1408SOL    HW2 5124   5.877   6.709   6.134
 1409SOL     OW 5125   0.878   0.223   5.233
 1409SOL    HW1 5126   0.957   0.170   5.260
 1409SOL    HW2 5127   0.840   0.271   5.313
 1410SOL     OW 5128   2.445   4.153   6.492
 1410SOL    HW1 5129   2.469   4.250   6.499
 1410SOL    HW2 5130   2.462   4.122   6.398
 1411SOL     OW 5131   3.565   6.225   0.333
 1411SOL    HW1 5132   3.599   6.153   0.393
 1411SOL    HW2 5133   3.593   6.207   0.239
 1412SOL     OW 5134   0.654   4.195   1.381
 1412SOL    HW1 5135   0.565   4.239   1.397
 1412SOL    HW2 5136   0.654   4.152   1.291
 1413SOL     OW 5137   2.486   1.441   4.508
 1413SOL    HW1 5138   2.469   1.342   4.507
 1413SOL    HW2 5139   2.419   1.487   4.449
 1414SOL     OW 5140   2.711   1.873   1.548
 1414SOL    HW1 5141   2.760   1.874   1.635
 1414SOL    HW2 5142   2.635   1.937   1.551
 1415SOL     OW 5143   2.990   1.657   4.211
 1415SOL    HW1 5144   2.979   1.726   4.139
 1415SOL    HW2 5145   3.070   1.680   4.266
 1416SOL     OW 5146   3.680   6.631   5.076
 1416SOL    HW1 5147   3.612   6.611   5.147
 1416SOL    HW2 5148   3.766   6.660   5.120
 1417SOL     OW 5149   3.119   2.661   6.570
 1417SOL    HW1 5150   3.107   2.615   6.658
 1417SOL    HW2 5151   3.029   2.674   6.527
 1418SOL     OW 5152   2.806   3.743   0.991
 1418SOL    HW1 5153   2.798   3.688   0.908
 1418SOL    HW2 5154   2.889   3.800   0.985
 1419SOL     OW 5155   3.345   5.990   4.187
 1419SOL    HW1 5156   3.275   6.038   4.240
 1419SOL    HW2 5157   3.349   5.894   4.215
 1420SOL     OW 5158   3.510   6.124   3.550
 1420SOL    HW1 5159   3.512   6.193   3.623
 1420SOL    HW2 5160   3.598   6.123   3.503
 1421SOL     OW 5161   0.971   3.868   4.244
 1421SOL    HW1 5162   1.064   3.899   4.261
 1421SOL    HW2 5163   0.921   3.863   4.330
 1422SOL     OW 5164   3.159   4.193   0.011
 1422SOL    HW1 5165   3.114   4.176   0.098
 1422SOL    HW2 5166   3.110   4.145   6.958
 1423SOL     OW 5167   4.027   0.706   4.455
 1423SOL    HW1 5168   4.081   0.695   4.539
 1423SOL    HW2 5169   4.034   0.801   4.424
 1424SOL     OW 5170   6.685   4.081   6.682
 1424SOL    HW1 5171   6.621   4.139   6.733
 1424SOL    HW2 5172   6.739   4.137   6.620
 1425SOL     OW 5173   2.331   5.232   5.061
 1425SOL    HW1 5174   2.379   5.308   5.018
 1425SOL    HW2 5175   2.311   5.254   5.156
 1426SOL     OW 5176   2.285   2.186   5.949
 1426SOL    HW1 5177   2.340   2.108   5.978
 1426SOL    HW2 5178   2.190   2.157   5.936
 1427SOL     OW 5179   6.786   6.766   3.731
 1427SOL    HW1 5180   6.731   6.763   3.647
 1427SOL    HW2 5181   6.883   6.758   3.708
 1428SOL     OW 5182   0.919   2.002   1.729
 1428SOL    HW1 5183   0.922   1.919   1.784
 1428SOL    HW2 5184   0.911   2.082   1.789
 1429SOL     OW 5185   5.731   1.737   0.235
 1429SOL    HW1 5186   5.751   1.642   0.259
 1429SOL    HW2 5187   5.800   1.797   0.276
 1430SOL     OW 5188   1.994   5.021   3.532
 1430SOL    HW1 5189   1.930   4.998   3.604
 1430SOL    HW2 5190   1.949   5.080   3.465
 1431SOL     OW 5191   2.749   2.903   6.528
 1431SOL    HW1 5192   2.761   2.829   6.462
 1431SOL    HW2 5193   2.685   2.874   6.599
 1432SOL     OW 5194   3.335   0.900   0.733
 1432SOL    HW1 5195   3.363   0.903   0.829
 1432SOL    HW2 5196   3.322   0.805   0.705
 1433SOL     OW 5197   4.709   0.453   5.018
 1433SOL    HW1 5198   4.623   0.414   5.052
 1433SOL    HW2 5199   4.765   0.380   4.980
 1434SOL     OW 5200   0.442   0.798   6.430
 1434SOL    HW1 5201   0.502   0.859   6.379
 1434SOL    HW2 5202   0.472   0.703   6.416
 1435SOL     OW 5203   6.617   0.073   2.978
 1435SOL    HW1 5204   6.683   0.041   3.046
 1435SOL    HW2 5205   6.525   0.051   3.008
 1436SOL     OW 5206   5.335   3.990   6.825
 1436SOL    HW1 5207   5.332   4.050   6.745
 1436SOL    HW2 5208   5.376   4.039   6.902
 1437SOL     OW 5209   3.794   1.573   6.280
 1437SOL    HW1 5210   3.782   1.642   6.351
 1437SOL    HW2 5211   3.707   1.525   6.266
 1438SOL     OW 5212   2.586   0.063   1.069
 1438SOL    HW1 5213   2.498   0.108   1.083
 1438SOL    HW2 5214   2.654   0.130   1.039
 1439SOL     OW 5215   0.226   4.815   0.589
 1439SOL    HW1 5216   0.155   4.790   0.655
 1439SOL    HW2 5217   0.191   4.803   0.496
 1440SOL     OW 5218   3.079   2.801   6.201
 1440SOL    HW1 5219   3.107   2.752   6.284
 1440SOL    HW2 5220   2.987   2.773   6.176
 1441SOL     OW 5221   6.129   3.374   3.888
 1441SOL    HW1 5222   6.198   3.435   3.927
 1441SOL    HW2 5223   6.055   3.361   3.953
 1442SOL     OW 5224   6.307   5.033   0.105
 1442SOL    HW1 5225   6.361   4.984   0.036
 1442SOL    HW2 5226   6.324   4.994   0.195
 1443SOL     OW 5227   1.086   2.941   4.740
 1443SOL    HW1 5228   1.118   2.904   4.652
 1443SOL    HW2 5229   0.986   2.948   4.739
 1444SOL     OW 5230   4.618   5.281   1.188
 1444SOL    HW1 5231   4.572   5.339   1.255
 1444SOL    HW2 5232   4.706   5.322   1.164
 1445SOL     OW 5233   0.081   2.511   1.931
 1445SOL    HW1 5234   0.114   2.452   2.005
 1445SOL    HW2 5235   0.029   2.588   1.970
 1446SOL     OW 5236   4.890   2.172   6.720
 1446SOL    HW1 5237   4.791   2.175   6.731
 1446SOL    HW2 5238   4.918   2.081   6.690
 1447SOL     OW 5239   6.212   6.566   5.601
 1447SOL    HW1 5240   6.158   6.567   5.685
 1447SOL    HW2 5241   6.309   6.575   5.624
 1448SOL     OW 5242   6.665   2.657   6.981
 1448SOL    HW1 5243   6.613   2.742   6.985
 1448SOL    HW2 5244   6.652   2.606   0.046
 1449SOL     OW 5245   6.527   0.893   0.105
 1449SOL    HW1 5246   6.508   0.888   0.203
 1449SOL    HW2 5247   6.623   0.871   0.087
 1450SOL     OW 5248   1.000   2.617   2.028
 1450SOL    HW1 5249   1.003   2.703   1.977
 1450SOL    HW2 5250   0.952   2.548   1.974
 1451SOL     OW 5251   3.044   1.347   2.723
 1451SOL    HW1 5252   3.137   1.383   2.718
 1451SOL    HW2 5253   2.979   1.423   2.731
 1452SOL     OW 5254   4.353   1.031   4.479
 1452SOL    HW1 5255   4.299   1.115   4.487
 1452SOL    HW2 5256   4.426   1.045   4.413
 1453SOL     OW 5257   0.045   3.203   5.295
 1453SOL    HW1 5258   0.054   3.303   5.302
 1453SOL    HW2 5259   6.986   3.172   5.348
 1454SOL     OW 5260   6.140   2.477   3.262
 1454SOL    HW1 5261   6.092   2.554   3.221
 1454SOL    HW2 5262   6.121   2.474   3.360
 1455SOL     OW 5263   1.137   0.294   1.262
 1455SOL    HW1 5264   1.186   0.248   1.335
 1455SOL    HW2 5265   1.043   0.261   1.258
 1456SOL     OW 5266   6.609   6.801   5.414
 1456SOL    HW1 5267   6.702   6.837   5.402
 1456SOL    HW2 5268   6.552   6.829   5.337
 1457SOL     OW 5269   1.296   0.084   1.367
 1457SOL    HW1 5270   1.222   0.046   1.313
 1457SOL    HW2 5271   1.371   0.111   1.307
 1458SOL     OW 5272   6.145   6.256   3.547
 1458SOL    HW1 5273   6.136   6.318   3.626
 1458SOL    HW2 5274   6.072   6.275   3.482
 1459SOL     OW 5275   2.436   5.470   5.373
 1459SOL    HW1 5276   2.356   5.409   5.375
 1459SOL    HW2 5277   2.427   5.534   5.297
 1460SOL     OW 5278   0.406   5.155   6.156
 1460SOL    HW1 5279   0.408   5.058   6.180
 1460SOL    HW2 5280   0.484   5.177   6.097
 1461SOL     OW 5281   0.610   5.229   3.869
 1461SOL    HW1 5282   0.693   5.186   3.835
 1461SOL    HW2 5283   0.537   5.161   3.877
 1462SOL     OW 5284   1.155   0.573   5.873
 1462SOL    HW1 5285   1.104   0.535   5.950
 1462SOL    HW2 5286   1.107   0.551   5.787
 1463SOL     OW 5287   0.239   5.214   7.015
 1463SOL    HW1 5288   0.257   5.312   0.005
 1463SOL    HW2 5289   0.304   5.175   6.950
 1464SOL     OW 5290   6.176   6.613   1.127
 1464SOL    HW1 5291   6.226   6.643   1.208
 1464SOL    HW2 5292   6.238   6.612   1.048
 1465SOL     OW 5293   1.588   1.528   3.953
 1465SOL    HW1 5294   1.576   1.599   3.883
 1465SOL    HW2 5295   1.498   1.500   3.987
 1466SOL     OW 5296   1.190   1.408   2.424
 1466SOL    HW1 5297   1.267   1.379   2.367
 1466SOL    HW2 5298   1.186   1.351   2.507
 1467SOL     OW 5299   1.983   1.811   2.040
 1467SOL    HW1 5300   2.009   1.753   2.118
 1467SOL    HW2 5301   1.913   1.876   2.069
 1468SOL     OW 5302   5.451   5.410   2.706
 1468SOL    HW1 5303   5.517   5.339   2.682
 1468SOL    HW2 5304   5.496   5.500   2.705
 1469SOL     OW 5305   0.892   1.367   1.891
 1469SOL    HW1 5306   0.955   1.306   1.939
 1469SOL    HW2 5307   0.942   1.417   1.820
 1470SOL     OW 5308   1.608   1.332   2.402
 1470SOL    HW1 5309   1.559   1.278   2.470
 1470SOL    HW2 5310   1.596   1.429   2.421
 1471SOL     OW 5311   1.286   0.368   0.742
 1471SOL    HW1 5312   1.342   0.295   0.781
 1471SOL    HW2 5313   1.190   0.351   0.765
 1472SOL     OW 5314   3.772   5.739   5.128
 1472SOL    HW1 5315   3.810   5.694   5.047
 1472SOL    HW2 5316   3.829   5.719   5.207
 1473SOL     OW 5317   5.549   6.172   3.685
 1473SOL    HW1 5318   5.576   6.234   3.758
 1473SOL    HW2 5319   5.492   6.099   3.723
 1474SOL     OW 5320   6.058   5.744   2.950
 1474SOL    HW1 5321   6.050   5.687   3.032
 1474SOL    HW2 5322   6.085   5.837   2.978
 1475SOL     OW 5323   6.253   0.633   1.665
 1475SOL    HW1 5324   6.249   0.541   1.703
 1475SOL    HW2 5325   6.314   0.689   1.722
 1476SOL     OW 5326   2.465   1.573   1.378
 1476SOL    HW1 5327   2.516   1.489   1.394
 1476SOL    HW2 5328   2.402   1.589   1.454
 1477SOL     OW 5329   3.412   1.049   6.744
 1477SOL    HW1 5330   3.398   0.950   6.741
 1477SOL    HW2 5331   3.332   1.093   6.783
 1478SOL     OW 5332   5.419   4.658   0.257
 1478SOL    HW1 5333   5.507   4.630   0.296
 1478SOL    HW2 5334   5.389   4.743   0.299
 1479SOL     OW 5335   1.467   3.307   6.953
 1479SOL    HW1 5336   1.428   3.379   7.012
 1479SOL    HW2 5337   1.419   3.307   6.865
 1480SOL     OW 5338   3.092   6.908   6.109
 1480SOL    HW1 5339   3.082   6.974   6.035
 1480SOL    HW2 5340   3.152   6.833   6.080
 1481SOL     OW 5341   0.166   2.755   5.356
 1481SOL    HW1 5342   0.105   2.776   5.280
 1481SOL    HW2 5343   0.205   2.663   5.343
 1482SOL     OW 5344   5.238   2.460   0.953
 1482SOL    HW1 5345   5.179   2.401   1.010
 1482SOL    HW2 5346   5.225   2.437   0.857
 1483SOL     OW 5347   5.822   1.976   5.896
 1483SOL    HW1 5348   5.866   1.906   5.841
 1483SOL    HW2 5349   5.768   1.934   5.969
 1484SOL     OW 5350   5.805   5.243   4.004
 1484SOL    HW1 5351   5.876   5.176   4.026
 1484SOL    HW2 5352   5.780   5.293   4.087
 1485SOL     OW 5353   3.296   1.700   3.260
 1485SOL    HW1 5354   3.257   1.609   3.271
 1485SOL    HW2 5355   3.259   1.760   3.331
 1486SOL     OW 5356   4.856   2.258   3.246
 1486SOL    HW1 5357   4.916   2.184   3.213
 1486SOL    HW2 5358   4.909   2.322   3.301
 1487SOL     OW 5359   6.704   3.022   6.665
 1487SOL    HW1 5360   6.689   2.943   6.605
 1487SOL    HW2 5361   6.631   3.025   6.734
 1488SOL     OW 5362   5.645   1.862   3.716
 1488SOL    HW1 5363   5.736   1.903   3.723
 1488SOL    HW2 5364   5.582   1.911   3.776
 1489SOL     OW 5365   3.842   5.316   3.858
 1489SOL    HW1 5366   3.873   5.373   3.934
 1489SOL    HW2 5367   3.839   5.220   3.887
 1490SOL     OW 5368   1.343   2.963   1.002
 1490SOL    HW1 5369   1.350   2.877   1.052
 1490SOL    HW2 5370   1.304   2.946   0.911
 1491SOL     OW 5371   6.674   3.787   3.632
 1491SOL    HW1 5372   6.765   3.807   3.594
 1491SOL    HW2 5373   6.668   3.826   3.724
 1492SOL     OW 5374   5.545   1.734   2.888
 1492SOL    HW1 5375   5.451   1.728   2.855
 1492SOL    HW2 5376   5.584   1.822   2.863
 1493SOL     OW 5377   4.525   0.403   4.123
 1493SOL    HW1 5378   4.608   0.370   4.167
 1493SOL    HW2 5379   4.452   0.411   4.191
 1494SOL     OW 5380   6.045   1.544   5.389
 1494SOL    HW1 5381   6.047   1.644   5.391
 1494SOL    HW2 5382   6.055   1.509   5.482
 1495SOL     OW 5383   6.535   2.612   5.071
 1495SOL    HW1 5384   6.578   2.577   4.988
 1495SOL    HW2 5385   6.507   2.707   5.057
 1496SOL     OW 5386   0.673   1.754   2.485
 1496SOL    HW1 5387   0.693   1.664   2.448
 1496SOL    HW2 5388   0.694   1.824   2.417
 1497SOL     OW 5389   6.842   2.912   3.434
 1497SOL    HW1 5390   6.884   2.984   3.489
 1497SOL    HW2 5391   6.765   2.873   3.484
 1498SOL     OW 5392   2.010   4.596   6.149
 1498SOL    HW1 5393   1.987   4.592   6.052
 1498SOL    HW2 5394   2.055   4.684   6.169
 1499SOL     OW 5395   1.031   3.566   6.352
 1499SOL    HW1 5396   1.107   3.554   6.415
 1499SOL    HW2 5397   1.058   3.628   6.278
 1500SOL     OW 5398   6.716   6.308   0.033
 1500SOL    HW1 5399   6.645   6.375   0.054
 1500SOL    HW2 5400   6.675   6.229   7.007
 1501SOL     OW 5401   5.685   1.872   6.094
 1501SOL    HW1 5402   5.687   1.772   6.089
 1501SOL    HW2 5403   5.593   1.902   6.120
 1502SOL     OW 5404   5.687   0.459   1.136
 1502SOL    HW1 5405   5.589   0.455   1.157
 1502SOL    HW2 5406   5.736   0.495   1.216
 1503SOL     OW 5407   2.435   1.929   2.295
 1503SOL    HW1 5408   2.416   1.903   2.200
 1503SOL    HW2 5409   2.534   1.930   2.310
 1504SOL     OW 5410   0.779   0.538   5.028
 1504SOL    HW1 5411   0.712   0.485   5.081
 1504SOL    HW2 5412   0.734   0.618   4.989
 1505SOL     OW 5413   6.051   0.248   5.826
 1505SOL    HW1 5414   6.106   0.330   5.837
 1505SOL    HW2 5415   5.982   0.244   5.898
 1506SOL     OW 5416   1.619   5.173   1.162
 1506SOL    HW1 5417   1.653   5.101   1.222
 1506SOL    HW2 5418   1.696   5.216   1.114
 1507SOL     OW 5419   0.950   1.864   5.481
 1507SOL    HW1 5420   0.947   1.840   5.384
 1507SOL    HW2 5421   0.955   1.780   5.535
 1508SOL     OW 5422   6.699   0.377   1.783
 1508SOL    HW1 5423   6.658   0.348   1.869
 1508SOL    HW2 5424   6.780   0.320   1.763
 1509SOL     OW 5425   4.612   2.862   5.967
 1509SOL    HW1 5426   4.668   2.833   6.045
 1509SOL    HW2 5427   4.667   2.857   5.883
 1510SOL     OW 5428   5.633   2.627   4.943
 1510SOL    HW1 5429   5.642   2.679   4.857
 1510SOL    HW2 5430   5.536   2.616   4.965
 1511SOL     OW 5431   3.069   3.089   1.302
 1511SOL    HW1 5432   3.143   3.137   1.255
 1511SOL    HW2 5433   3.106   3.010   1.350
 1512SOL     OW 5434   0.714   5.199   1.447
 1512SOL    HW1 5435   0.677   5.172   1.359
 1512SOL    HW2 5436   0.640   5.213   1.512
 1513SOL     OW 5437   3.298   0.823   3.783
 1513SOL    HW1 5438   3.366   0.794   3.850
 1513SOL    HW2 5439   3.340   0.828   3.692
 1514SOL     OW 5440   4.742   2.746   6.190
 1514SOL    HW1 5441   4.841   2.748   6.172
 1514SOL    HW2 5442   4.719   2.667   6.247
 1515SOL     OW 5443   5.741   2.527   5.199
 1515SOL    HW1 5444   5.658   2.569   5.236
 1515SOL    HW2 5445   5.746   2.546   5.101
 1516SOL     OW 5446   0.258   7.002   0.724
 1516SOL    HW1 5447   0.182   7.007   0.789
 1516SOL    HW2 5448   0.225   0.005   0.632
 1517SOL     OW 5449   4.181   6.281   3.590
 1517SOL    HW1 5450   4.128   6.245   3.513
 1517SOL    HW2 5451   4.132   6.358   3.631
 1518SOL     OW 5452   0.850   2.986   0.056
 1518SOL    HW1 5453   0.824   2.969   6.981
 1518SOL    HW2 5454   0.903   2.909   0.090
 1519SOL     OW 5455   6.113   4.904   1.833
 1519SOL    HW1 5456   6.138   4.986   1.781
 1519SOL    HW2 5457   6.035   4.924   1.891
 1520SOL     OW 5458   0.340   3.971   2.469
 1520SOL    HW1 5459   0.329   3.885   2.418
 1520SOL    HW2 5460   0.287   3.967   2.553
 1521SOL     OW 5461   2.104   3.767   0.500
 1521SOL    HW1 5462   2.119   3.778   0.401
 1521SOL    HW2 5463   2.188   3.787   0.549
 1522SOL     OW 5464   6.437   6.941   4.767
 1522SOL    HW1 5465   6.497   6.862   4.759
 1522SOL    HW2 5466   6.388   6.937   4.854
 1523SOL     OW 5467   5.114   4.440   0.246
 1523SOL    HW1 5468   5.163   4.416   0.162
 1523SOL    HW2 5469   5.145   4.381   0.321
 1524SOL     OW 5470   1.576   2.164   2.014
 1524SOL    HW1 5471   1.571   2.181   2.112
 1524SOL    HW2 5472   1.571   2.065   1.996
 1525SOL     OW 5473   6.742   2.360   0.155
 1525SOL    HW1 5474   6.777   2.421   0.226
 1525SOL    HW2 5475   6.818   2.330   0.097
 1526SOL     OW 5476   0.884   0.236   6.715
 1526SOL    HW1 5477   0.939   0.156   6.692
 1526SOL    HW2 5478   0.796   0.206   6.752
 1527SOL     OW 5479   3.953   0.686   5.878
 1527SOL    HW1 5480   3.985   0.731   5.794
 1527SOL    HW2 5481   3.869   0.730   5.909
 1528SOL     OW 5482   4.897   5.807   2.413
 1528SOL    HW1 5483   4.812   5.758   2.432
 1528SOL    HW2 5484   4.965   5.783   2.483
 1529SOL     OW 5485   4.242   0.078   0.608
 1529SOL    HW1 5486   4.204   0.066   0.700
 1529SOL    HW2 5487   4.330   0.124   0.615
 1530SOL     OW 5488   3.267   1.271   2.955
 1530SOL    HW1 5489   3.256   1.326   2.873
 1530SOL    HW2 5490   3.212   1.310   3.029
 1531SOL     OW 5491   5.326   1.055   4.992
 1531SOL    HW1 5492   5.265   1.022   4.920
 1531SOL    HW2 5493   5.384   1.128   4.955
 1532SOL     OW 5494   2.861   3.822   5.739
 1532SOL    HW1 5495   2.831   3.883   5.812
 1532SOL    HW2 5496   2.876   3.731   5.776
 1533SOL     OW 5497   6.799   3.203   0.193
 1533SOL    HW1 5498   6.746   3.266   0.250
 1533SOL    HW2 5499   6.892   3.195   0.231
 1534SOL     OW 5500   1.738   5.064   6.549
 1534SOL    HW1 5501   1.824   5.066   6.600
 1534SOL    HW2 5502   1.733   5.143   6.489
 1535SOL     OW 5503   4.696   6.059   4.863
 1535SOL    HW1 5504   4.714   6.108   4.948
 1535SOL    HW2 5505   4.762   6.087   4.793
 1536SOL     OW 5506   4.133   4.278   5.323
 1536SOL    HW1 5507   4.108   4.190   5.283
 1536SOL    HW2 5508   4.182   4.333   5.256
 1537SOL     OW 5509   4.043   6.185   3.372
 1537SOL    HW1 5510   4.044   6.158   3.276
 1537SOL    HW2 5511   3.948   6.192   3.404
 1538SOL     OW 5512   3.739   5.765   5.549
 1538SOL    HW1 5513   3.700   5.688   5.599
 1538SOL    HW2 5514   3.746   5.844   5.610
 1539SOL     OW 5515   4.243   3.650   1.809
 1539SOL    HW1 5516   4.189   3.626   1.728
 1539SOL    HW2 5517   4.312   3.718   1.784
 1540SOL     OW 5518   1.697   6.669   6.143
 1540SOL    HW1 5519   1.648   6.583   6.126
 1540SOL    HW2 5520   1.690   6.692   6.240
 1541SOL     OW 5521   3.521   2.979   2.468
 1541SOL    HW1 5522   3.436   2.934   2.492
 1541SOL    HW2 5523   3.580   2.985   2.548
 1542SOL     OW 5524   6.576   6.019   1.392
 1542SOL    HW1 5525   6.649   6.053   1.332
 1542SOL    HW2 5526   6.587   6.057   1.483
 1543SOL     OW 5527   3.432   3.995   4.302
 1543SOL    HW1 5528   3.482   4.065   4.250
 1543SOL    HW2 5529   3.448   4.007   4.399
 1544SOL     OW 5530   3.418   3.715   2.243
 1544SOL    HW1 5531   3.356   3.663   2.184
 1544SOL    HW2 5532   3.493   3.752   2.187
 1545SOL     OW 5533   5.216   0.931   4.519
 1545SOL    HW1 5534   5.241   0.844   4.562
 1545SOL    HW2 5535   5.300   0.981   4.497
 1546SOL     OW 5536   4.843   6.629   6.164
 1546SOL    HW1 5537   4.823   6.705   6.226
 1546SOL    HW2 5538   4.879   6.552   6.217
 1547SOL     OW 5539   1.917   4.163   2.809
 1547SOL    HW1 5540   1.838   4.186   2.865
 1547SOL    HW2 5541   1.889   4.101   2.735
 1548SOL     OW 5542   4.829   4.007   5.677
 1548SOL    HW1 5543   4.861   3.913   5.668
 1548SOL    HW2 5544   4.744   4.009   5.729
 1549SOL     OW 5545   4.302   1.045   2.795
 1549SOL    HW1 5546   4.304   1.040   2.695
 1549SOL    HW2 5547   4.317   0.954   2.834
 1550SOL     OW 5548   2.618   5.026   6.102
 1550SOL    HW1 5549   2.679   4.961   6.147
 1550SOL    HW2 5550   2.584   4.988   6.017
 1551SOL     OW 5551   2.575   3.815   6.814
 1551SOL    HW1 5552   2.557   3.897   6.869
 1551SOL    HW2 5553   2.535   3.826   6.723
 1552SOL     OW 5554   0.542   0.118   1.147
 1552SOL    HW1 5555   0.501   0.153   1.063
 1552SOL    HW2 5556   0.569   0.194   1.205
 1553SOL     OW 5557   0.003   0.674   5.695
 1553SOL    HW1 5558   6.968   0.592   5.684
 1553SOL    HW2 5559   6.976   0.738   5.756
 1554SOL     OW 5560   3.780   1.761   3.725
 1554SOL    HW1 5561   3.772   1.781   3.627
 1554SOL    HW2 5562   3.761   1.664   3.741
 1555SOL     OW 5563   5.102   1.837   6.768
 1555SOL    HW1 5564   5.103   1.918   6.827
 1555SOL    HW2 5565   5.011   1.826   6.728
 1556SOL     OW 5566   3.884   0.915   0.542
 1556SOL    HW1 5567   3.910   0.972   0.620
 1556SOL    HW2 5568   3.965   0.868   0.507
 1557SOL     OW 5569   2.213   1.122   6.536
 1557SOL    HW1 5570   2.203   1.112   6.437
 1557SOL    HW2 5571   2.123   1.125   6.579
 1558SOL     OW 5572   5.131   1.279   4.233
 1558SOL    HW1 5573   5.209   1.218   4.232
 1558SOL    HW2 5574   5.140   1.344   4.309
 1559SOL     OW 5575   6.999   2.598   0.066
 1559SOL    HW1 5576   0.050   2.653   0.111
 1559SOL    HW2 5577   6.910   2.620   0.106
 1560SOL     OW 5578   3.403   1.365   6.062
 1560SOL    HW1 5579   3.502   1.381   6.056
 1560SOL    HW2 5580   3.354   1.448   6.035
 1561SOL     OW 5581   6.373   6.637   2.483
 1561SOL    HW1 5582   6.455   6.582   2.467
 1561SOL    HW2 5583   6.292   6.581   2.467
 1562SOL     OW 5584   4.289   6.080   1.176
 1562SOL    HW1 5585   4.376   6.126   1.162
 1562SOL    HW2 5586   4.220   6.119   1.115
 1563SOL     OW 5587   2.587   0.854   6.052
 1563SOL    HW1 5588   2.537   0.930   6.011
 1563SOL    HW2 5589   2.671   0.838   6.001
 1564SOL     OW 5590   1.379   2.483   2.518
 1564SOL    HW1 5591   1.336   2.463   2.606
 1564SOL    HW2 5592   1.425   2.572   2.523
 1565SOL     OW 5593   4.253   5.740   3.892
 1565SOL    HW1 5594   4.184   5.799   3.849
 1565SOL    HW2 5595   4.232   5.645   3.873
 1566SOL     OW 5596   5.757   4.905   4.404
 1566SOL    HW1 5597   5.801   4.847   4.473
 1566SOL    HW2 5598   5.773   4.866   4.313
 1567SOL     OW 5599   6.536   6.001   0.164
 1567SOL    HW1 5600   6.607   5.944   0.122
 1567SOL    HW2 5601   6.450   5.991   0.114
 1568SOL     OW 5602   1.931   6.547   1.859
 1568SOL    HW1 5603   1.995   6.523   1.932
 1568SOL    HW2 5604   1.927   6.647   1.850
 1569SOL     OW 5605   2.753   0.138   3.520
 1569SOL    HW1 5606   2.764   0.111   3.424
 1569SOL    HW2 5607   2.657   0.127   3.547
 1570SOL     OW 5608   2.436   6.611   0.617
 1570SOL    HW1 5609   2.522   6.615   0.566
 1570SOL    HW2 5610   2.418   6.699   0.660
 1571SOL     OW 5611   6.183   1.826   2.749
 1571SOL    HW1 5612   6.206   1.854   2.842
 1571SOL    HW2 5613   6.230   1.886   2.684
 1572SOL     OW 5614   1.550   5.806   0.840
 1572SOL    HW1 5615   1.541   5.723   0.896
 1572SOL    HW2 5616   1.585   5.880   0.897
 1573SOL     OW 5617   6.389   4.042   1.782
 1573SOL    HW1 5618   6.336   3.969   1.741
 1573SOL    HW2 5619   6.408   4.112   1.714
 1574SOL     OW 5620   6.305   1.797   3.817
 1574SOL    HW1 5621   6.390   1.850   3.821
 1574SOL    HW2 5622   6.293   1.759   3.726
 1575SOL     OW 5623   2.311   2.026   1.410
 1575SOL    HW1 5624   2.324   2.063   1.318
 1575SOL    HW2 5625   2.271   2.096   1.469
 1576SOL     OW 5626   1.082   0.516   3.080
 1576SOL    HW1 5627   1.083   0.545   2.984
 1576SOL    HW2 5628   0.987   0.515   3.113
 1577SOL     OW 5629   2.632   0.430   5.896
 1577SOL    HW1 5630   2.567   0.502   5.920
 1577SOL    HW2 5631   2.583   0.356   5.850
 1578SOL     OW 5632   5.802   2.409   5.577
 1578SOL    HW1 5633   5.768   2.498   5.608
 1578SOL    HW2 5634   5.736   2.338   5.603
 1579SOL     OW 5635   0.063   2.073   2.169
 1579SOL    HW1 5636   0.016   2.037   2.250
 1579SOL    HW2 5637   0.052   2.009   2.093
 1580SOL     OW 5638   3.763   3.997   4.234
 1580SOL    HW1 5639   3.708   4.071   4.195
 1580SOL    HW2 5640   3.707   3.914   4.239
 1581SOL     OW 5641   6.161   4.420   4.255
 1581SOL    HW1 5642   6.182   4.324   4.272
 1581SOL    HW2 5643   6.118   4.460   4.337
 1582SOL     OW 5644   1.654   6.571   4.494
 1582SOL    HW1 5645   1.712   6.570   4.412
 1582SOL    HW2 5646   1.675   6.491   4.550
 1583SOL     OW 5647   0.708   5.915   2.743
 1583SOL    HW1 5648   0.773   5.930   2.817
 1583SOL    HW2 5649   0.622   5.882   2.780
 1584SOL     OW 5650   0.800   6.020   6.283
 1584SOL    HW1 5651   0.882   6.048   6.333
 1584SOL    HW2 5652   0.807   6.053   6.189
 1585SOL     OW 5653   4.226   1.964   2.943
 1585SOL    HW1 5654   4.173   2.048   2.930
 1585SOL    HW2 5655   4.196   1.919   3.028
 1586SOL     OW 5656   3.166   4.834   2.003
 1586SOL    HW1 5657   3.172   4.932   2.020
 1586SOL    HW2 5658   3.247   4.804   1.953
 1587SOL     OW 5659   2.798   5.735   5.701
 1587SOL    HW1 5660   2.788   5.817   5.757
 1587SOL    HW2 5661   2.717   5.722   5.644
 1588SOL     OW 5662   4.106   0.783   2.357
 1588SOL    HW1 5663   4.025   0.832   2.326
 1588SOL    HW2 5664   4.091   0.684   2.346
 1589SOL     OW 5665   0.294   3.003   2.055
 1589SOL    HW1 5666   0.301   2.905   2.039
 1589SOL    HW2 5667   0.350   3.052   1.988
 1590SOL     OW 5668   4.190   0.282   4.496
 1590SOL    HW1 5669   4.137   0.303   4.579
 1590SOL    HW2 5670   4.279   0.245   4.522
 1591SOL     OW 5671   0.140   5.301   1.350
 1591SOL    HW1 5672   0.149   5.202   1.359
 1591SOL    HW2 5673   0.226   5.345   1.373
 1592SOL     OW 5674   2.512   3.892   6.574
 1592SOL    HW1 5675   2.527   3.990   6.564
 1592SOL    HW2 5676   2.424   3.867   6.535
 1593SOL     OW 5677   1.069   6.509   5.557
 1593SOL    HW1 5678   1.124   6.554   5.628
 1593SOL    HW2 5679   1.122   6.505   5.472
 1594SOL     OW 5680   1.328   6.624   1.577
 1594SOL    HW1 5681   1.329   6.688   1.500
 1594SOL    HW2 5682   1.364   6.671   1.659
 1595SOL     OW 5683   1.631   5.020   0.663
 1595SOL    HW1 5684   1.636   4.949   0.593
 1595SOL    HW2 5685   1.589   5.102   0.624
 1596SOL     OW 5686   0.608   2.823   3.748
 1596SOL    HW1 5687   0.527   2.841   3.804
 1596SOL    HW2 5688   0.589   2.748   3.685
 1597SOL     OW 5689   1.266   6.288   0.333
 1597SOL    HW1 5690   1.168   6.274   0.346
 1597SOL    HW2 5691   1.287   6.386   0.335
 1598SOL     OW 5692   6.874   4.741   5.442
 1598SOL    HW1 5693   6.880   4.722   5.344
 1598SOL    HW2 5694   6.786   4.708   5.477
 1599SOL     OW 5695   4.814   5.414   4.825
 1599SOL    HW1 5696   4.763   5.383   4.905
 1599SOL    HW2 5697   4.911   5.399   4.839
 1600SOL     OW 5698   3.941   0.971   3.770
 1600SOL    HW1 5699   4.018   0.913   3.795
 1600SOL    HW2 5700   3.938   1.051   3.830
 1601SOL     OW 5701   6.982   6.159   4.406
 1601SOL    HW1 5702   0.043   6.154   4.465
 1601SOL    HW2 5703   6.900   6.170   4.463
 1602SOL     OW 5704   3.648   5.268   4.081
 1602SOL    HW1 5705   3.664   5.169   4.073
 1602SOL    HW2 5706   3.723   5.310   4.132
 1603SOL     OW 5707   1.795   6.567   3.011
 1603SOL    HW1 5708   1.776   6.486   2.956
 1603SOL    HW2 5709   1.752   6.558   3.100
 1604SOL     OW 5710   5.435   4.241   0.840
 1604SOL    HW1 5711   5.367   4.238   0.767
 1604SOL    HW2 5712   5.404   4.304   0.911
 1605SOL     OW 5713   6.471   5.353   1.520
 1605SOL    HW1 5714   6.454   5.449   1.540
 1605SOL    HW2 5715   6.511   5.345   1.429
 1606SOL     OW 5716   3.462   6.811   5.555
 1606SOL    HW1 5717   3.464   6.712   5.565
 1606SOL    HW2 5718   3.530   6.838   5.486
 1607SOL     OW 5719   4.534   1.322   0.738
 1607SOL    HW1 5720   4.482   1.237   0.747
 1607SOL    HW2 5721   4.603   1.327   0.810
 1608SOL     OW 5722   0.279   0.944   3.851
 1608SOL    HW1 5723   0.217   1.021   3.857
 1608SOL    HW2 5724   0.327   0.946   3.764
 1609SOL     OW 5725   4.826   6.923   0.070
 1609SOL    HW1 5726   4.737   6.968   0.060
 1609SOL    HW2 5727   4.876   6.966   0.145
 1610SOL     OW 5728   6.333   4.662   0.013
 1610SOL    HW1 5729   6.385   4.748   0.019
 1610SOL    HW2 5730   6.354   4.605   0.092
 1611SOL     OW 5731   2.515   3.765   0.270
 1611SOL    HW1 5732   2.415   3.772   0.264
 1611SOL    HW2 5733   2.548   3.701   0.201
 1612SOL     OW 5734   2.883   0.321   0.647
 1612SOL    HW1 5735   2.934   0.290   0.567
 1612SOL    HW2 5736   2.807   0.259   0.665
 1613SOL     OW 5737   1.510   5.846   2.355
 1613SOL    HW1 5738   1.590   5.873   2.301
 1613SOL    HW2 5739   1.440   5.917   2.348
 1614SOL     OW 5740   5.108   2.540   6.507
 1614SOL    HW1 5741   5.195   2.587   6.521
 1614SOL    HW2 5742   5.048   2.557   6.585
 1615SOL     OW 5743   6.025   5.443   0.621
 1615SOL    HW1 5744   5.956   5.397   0.566
 1615SOL    HW2 5745   6.086   5.375   0.661
 1616SOL     OW 5746   3.588   1.138   5.279
 1616SOL    HW1 5747   3.530   1.111   5.202
 1616SOL    HW2 5748   3.537   1.199   5.339
 1617SOL     OW 5749   5.725   6.742   2.583
 1617SOL    HW1 5750   5.798   6.742   2.515
 1617SOL    HW2 5751   5.655   6.807   2.557
 1618SOL     OW 5752   1.268   5.893   2.687
 1618SOL    HW1 5753   1.238   5.798   2.678
 1618SOL    HW2 5754   1.310   5.923   2.602
 1619SOL     OW 5755   0.871   4.155   1.535
 1619SOL    HW1 5756   0.843   4.058   1.537
 1619SOL    HW2 5757   0.807   4.207   1.478
 1620SOL     OW 5758   2.776   4.529   1.588
 1620SOL    HW1 5759   2.853   4.501   1.530
 1620SOL    HW2 5760   2.809   4.542   1.682
 1621SOL     OW 5761   6.565   1.194   0.515
 1621SOL    HW1 5762   6.534   1.210   0.609
 1621SOL    HW2 5763   6.537   1.102   0.487
 1622SOL     OW 5764   0.381   2.997   4.835
 1622SOL    HW1 5765   0.395   2.926   4.765
 1622SOL    HW2 5766   0.378   2.954   4.925
 1623SOL     OW 5767   1.734   2.859   4.814
 1623SOL    HW1 5768   1.734   2.944   4.762
 1623SOL    HW2 5769   1.826   2.821   4.815
 1624SOL     OW 5770   3.352   1.533   5.519
 1624SOL    HW1 5771   3.410   1.613   5.503
 1624SOL    HW2 5772   3.380   1.488   5.603
 1625SOL     OW 5773   1.510   4.730   0.275
 1625SOL    HW1 5774   1.577   4.796   0.308
 1625SOL    HW2 5775   1.540   4.637   0.295
 1626SOL     OW 5776   4.204   1.243   0.328
 1626SOL    HW1 5777   4.113   1.284   0.318
 1626SOL    HW2 5778   4.230   1.242   0.424
 1627SOL     OW 5779   6.195   2.943   3.500
 1627SOL    HW1 5780   6.180   3.041   3.510
 1627SOL    HW2 5781   6.121   2.892   3.544
 1628SOL     OW 5782   4.700   4.573   0.466
 1628SOL    HW1 5783   4.626   4.614   0.413
 1628SOL    HW2 5784   4.693   4.603   0.561
 1629SOL     OW 5785   3.082   0.975   3.928
 1629SOL    HW1 5786   3.136   0.897   3.896
 1629SOL    HW2 5787   3.089   0.981   4.028
 1630SOL     OW 5788   1.156   4.869   6.238
 1630SOL    HW1 5789   1.196   4.879   6.147
 1630SOL    HW2 5790   1.227   4.882   6.307
 1631SOL     OW 5791   0.955   3.026   0.392
 1631SOL    HW1 5792   1.007   3.030   0.307
 1631SOL    HW2 5793   1.002   3.079   0.462
 1632SOL     OW 5794   5.782   2.434   0.931
 1632SOL    HW1 5795   5.740   2.427   0.841
 1632SOL    HW2 5796   5.789   2.343   0.972
 1633SOL     OW 5797   5.468   4.027   4.705
 1633SOL    HW1 5798   5.455   4.039   4.803
 1633SOL    HW2 5799   5.527   3.948   4.688
 1634SOL     OW 5800   4.236   5.607   4.158
 1634SOL    HW1 5801   4.200   5.537   4.096
 1634SOL    HW2 5802   4.299   5.666   4.108
 1635SOL     OW 5803   0.092   4.838   6.848
 1635SOL    HW1 5804   0.109   4.885   6.761
 1635SOL    HW2 5805   0.072   4.905   6.919
 1636SOL     OW 5806   2.963   4.493   1.360
 1636SOL    HW1 5807   2.902   4.509   1.283
 1636SOL    HW2 5808   3.001   4.401   1.354
 1637SOL     OW 5809   0.402   0.652   3.082
 1637SOL    HW1 5810   0.376   0.559   3.107
 1637SOL    HW2 5811   0.382   0.714   3.159
 1638SOL     OW 5812   6.834   4.605   3.726
 1638SOL    HW1 5813   6.739   4.635   3.737
 1638SOL    HW2 5814   6.886   4.624   3.809
 1639SOL     OW 5815   5.061   6.482   1.943
 1639SOL    HW1 5816   5.067   6.421   2.023
 1639SOL    HW2 5817   5.017   6.433   1.868
 1640SOL     OW 5818   6.049   0.386   0.115
 1640SOL    HW1 5819   6.131   0.329   0.109
 1640SOL    HW2 5820   6.013   0.384   0.208
 1641SOL     OW 5821   4.542   1.612   3.099
 1641SOL    HW1 5822   4.485   1.578   3.175
 1641SOL    HW2 5823   4.484   1.656   3.031
 1642SOL     OW 5824   6.657   3.606   6.520
 1642SOL    HW1 5825   6.560   3.632   6.520
 1642SOL    HW2 5826   6.704   3.651   6.444
 1643SOL     OW 5827   2.759   5.041   4.770
 1643SOL    HW1 5828   2.731   4.945   4.776
 1643SOL    HW2 5829   2.792   5.072   4.859
 1644SOL     OW 5830   5.959   3.760   6.872
 1644SOL    HW1 5831   5.927   3.846   6.832
 1644SOL    HW2 5832   5.892   3.726   6.937
 1645SOL     OW 5833   2.970   4.935   6.729
 1645SOL    HW1 5834   2.977   4.982   6.641
 1645SOL    HW2 5835   3.059   4.937   6.775
 1646SOL     OW 5836   2.738   6.688   0.048
 1646SOL    HW1 5837   2.701   6.682   6.976
 1646SOL    HW2 5838   2.667   6.721   0.111
 1647SOL     OW 5839   6.076   3.336   4.201
 1647SOL    HW1 5840   6.145   3.315   4.270
 1647SOL    HW2 5841   6.011   3.260   4.196
 1648SOL     OW 5842   5.500   5.382   0.535
 1648SOL    HW1 5843   5.483   5.326   0.454
 1648SOL    HW2 5844   5.574   5.341   0.589
 1649SOL     OW 5845   3.419   1.479   3.859
 1649SOL    HW1 5846   3.415   1.553   3.926
 1649SOL    HW2 5847   3.351   1.409   3.883
 1650SOL     OW 5848   1.495   6.183   5.594
 1650SOL    HW1 5849   1.409   6.193   5.644
 1650SOL    HW2 5850   1.476   6.144   5.504
 1651SOL     OW 5851   0.365   1.916   1.635
 1651SOL    HW1 5852   0.422   1.976   1.579
 1651SOL    HW2 5853   0.281   1.965   1.660
 1652SOL     OW 5854   1.229   3.369   2.442
 1652SOL    HW1 5855   1.208   3.290   2.384
 1652SOL    HW2 5856   1.319   3.405   2.419
 1653SOL     OW 5857   0.796   6.971   0.203
 1653SOL    HW1 5858   0.821   0.047   0.195
 1653SOL    HW2 5859   0.730   6.959   0.277
 1654SOL     OW 5860   0.243   3.467   1.677
 1654SOL    HW1 5861   0.333   3.472   1.633
 1654SOL    HW2 5862   0.177   3.520   1.623
 1655SOL     OW 5863   0.511   2.245   4.713
 1655SOL    HW1 5864   0.571   2.222   4.790
 1655SOL    HW2 5865   0.491   2.163   4.660
 1656SOL     OW 5866   2.386   4.252   2.666
 1656SOL    HW1 5867   2.321   4.245   2.590
 1656SOL    HW2 5868   2.473   4.210   2.639
 1657SOL     OW 5869   6.623   1.163   4.088
 1657SOL    HW1 5870   6.675   1.120   4.162
 1657SOL    HW2 5871   6.572   1.241   4.124
 1658SOL     OW 5872   0.097   6.504   1.300
 1658SOL    HW1 5873   0.151   6.421   1.314
 1658SOL    HW2 5874   0.155   6.574   1.258
 1659SOL     OW 5875   3.844   6.948   6.977
 1659SOL    HW1 5876   3.798   6.930   0.044
 1659SOL    HW2 5877   3.912   6.877   6.960
 1660SOL     OW 5878   1.431   5.813   3.542
 1660SOL    HW1 5879   1.481   5.763   3.470
 1660SOL    HW2 5880   1.422   5.755   3.623
 1661SOL     OW 5881   3.159   6.934   0.837
 1661SOL    HW1 5882   3.109   6.951   0.922
 1661SOL    HW2 5883   3.257   6.951   0.852
 1662SOL     OW 5884   6.948   0.226   4.209
 1662SOL    HW1 5885   6.969   0.145   4.153
 1662SOL    HW2 5886   6.884   0.285   4.160
 1663SOL     OW 5887   4.236   6.593   3.401
 1663SOL    HW1 5888   4.242   6.664   3.472
 1663SOL    HW2 5889   4.172   6.622   3.329
 1664SOL     OW 5890   2.026   6.211   4.977
 1664SOL    HW1 5891   2.104   6.268   4.949
 1664SOL    HW2 5892   1.981   6.252   5.056
 1665SOL     OW 5893   0.323   2.466   2.807
 1665SOL    HW1 5894   0.388   2.396   2.777
 1665SOL    HW2 5895   0.317   2.538   2.738
 1666SOL     OW 5896   5.842   1.781   6.442
 1666SOL    HW1 5897   5.880   1.817   6.528
 1666SOL    HW2 5898   5.846   1.681   6.444
 1667SOL     OW 5899   6.921   6.206   0.954
 1667SOL    HW1 5900   7.018   6.214   0.980
 1667SOL    HW2 5901   6.891   6.290   0.909
 1668SOL     OW 5902   5.316   6.590   3.733
 1668SOL    HW1 5903   5.238   6.607   3.673
 1668SOL    HW2 5904   5.315   6.495   3.763
 1669SOL     OW 5905   6.766   5.117   6.571
 1669SOL    HW1 5906   6.795   5.055   6.497
 1669SOL    HW2 5907   6.666   5.125   6.569
 1670SOL     OW 5908   0.041   3.810   5.829
 1670SOL    HW1 5909   0.008   3.723   5.864
 1670SOL    HW2 5910   0.137   3.802   5.803
 1671SOL     OW 5911   5.500   1.202   2.801
 1671SOL    HW1 5912   5.453   1.115   2.782
 1671SOL    HW2 5913   5.576   1.185   2.863
 1672SOL     OW 5914   1.236   2.722   0.845
 1672SOL    HW1 5915   1.246   2.631   0.885
 1672SOL    HW2 5916   1.264   2.718   0.749
 1673SOL     OW 5917   1.275   1.106   4.926
 1673SOL    HW1 5918   1.348   1.169   4.900
 1673SOL    HW2 5919   1.196   1.119   4.866
 1674SOL     OW 5920   0.939   3.129   2.339
 1674SOL    HW1 5921   0.876   3.058   2.311
 1674SOL    HW2 5922   0.888   3.207   2.376
 1675SOL     OW 5923   5.642   6.976   0.579
 1675SOL    HW1 5924   5.717   6.925   0.537
 1675SOL    HW2 5925   5.670   0.050   0.596
 1676SOL     OW 5926   1.913   2.592   1.679
 1676SOL    HW1 5927   1.966   2.664   1.633
 1676SOL    HW2 5928   1.970   2.550   1.749
 1677SOL     OW 5929   3.435   3.536   4.133
 1677SOL    HW1 5930   3.462   3.567   4.224
 1677SOL    HW2 5931   3.472   3.445   4.116
 1678SOL     OW 5932   5.597   4.360   3.352
 1678SOL    HW1 5933   5.508   4.341   3.312
 1678SOL    HW2 5934   5.598   4.454   3.389
 1679SOL     OW 5935   2.374   2.482   4.466
 1679SOL    HW1 5936   2.328   2.452   4.383
 1679SOL    HW2 5937   2.336   2.570   4.496
 1680SOL     OW 5938   6.905   2.984   4.970
 1680SOL    HW1 5939   6.896   2.947   4.877
 1680SOL    HW2 5940   6.980   3.050   4.973
 1681SOL     OW 5941   6.837   5.547   6.881
 1681SOL    HW1 5942   6.743   5.580   6.868
 1681SOL    HW2 5943   6.898   5.600   6.821
 1682SOL     OW 5944   1.989   0.678   5.193
 1682SOL    HW1 5945   1.904   0.625   5.195
 1682SOL    HW2 5946   1.979   0.755   5.131
 1683SOL     OW 5947   4.523   4.552   1.619
 1683SOL    HW1 5948   4.604   4.551   1.560
 1683SOL    HW2 5949   4.463   4.627   1.592
 1684SOL     OW 5950   1.336   6.196   2.136
 1684SOL    HW1 5951   1.257   6.136   2.152
 1684SOL    HW2 5952   1.357   6.247   2.219
 1685SOL     OW 5953   2.605   1.281   4.929
 1685SOL    HW1 5954   2.610   1.373   4.970
 1685SOL    HW2 5955   2.650   1.216   4.989
 1686SOL     OW 5956   2.394   6.097   4.399
 1686SOL    HW1 5957   2.397   6.000   4.422
 1686SOL    HW2 5958   2.351   6.109   4.310
 1687SOL     OW 5959   2.240   3.073   1.716
 1687SOL    HW1 5960   2.257   3.169   1.694
 1687SOL    HW2 5961   2.147   3.049   1.691
 1688SOL     OW 5962   2.254   2.451   4.203
 1688SOL    HW1 5963   2.171   2.506   4.211
 1688SOL    HW2 5964   2.234   2.365   4.157
 1689SOL     OW 5965   5.854   1.458   2.647
 1689SOL    HW1 5966   5.894   1.493   2.732
 1689SOL    HW2 5967   5.862   1.358   2.647
 1690SOL     OW 5968   1.798   2.714   4.396
 1690SOL    HW1 5969   1.717   2.662   4.368
 1690SOL    HW2 5970   1.835   2.676   4.480
 1691SOL     OW 5971   5.968   3.781   3.262
 1691SOL    HW1 5972   5.906   3.794   3.339
 1691SOL    HW2 5973   6.006   3.869   3.235
 1692SOL     OW 5974   5.202   6.439   1.559
 1692SOL    HW1 5975   5.216   6.474   1.466
 1692SOL    HW2 5976   5.213   6.513   1.625
 1693SOL     OW 5977   6.567   2.050   2.435
 1693SOL    HW1 5978   6.640   2.086   2.376
 1693SOL    HW2 5979   6.607   2.008   2.516
 1694SOL     OW 5980   5.414   1.343   2.568
 1694SOL    HW1 5981   5.367   1.419   2.614
 1694SOL    HW2 5982   5.468   1.292   2.635
 1695SOL     OW 5983   3.953   0.507   6.192
 1695SOL    HW1 5984   4.024   0.577   6.199
 1695SOL    HW2 5985   3.892   0.514   6.271
 1696SOL     OW 5986   4.212   5.227   1.070
 1696SOL    HW1 5987   4.190   5.183   0.982
 1696SOL    HW2 5988   4.279   5.300   1.054
 1697SOL     OW 5989   6.045   0.884   0.592
 1697SOL    HW1 5990   6.096   0.825   0.654
 1697SOL    HW2 5991   6.108   0.927   0.527
 1698SOL     OW 5992   3.537   6.924   7.008
 1698SOL    HW1 5993   3.554   6.832   0.023
 1698SOL    HW2 5994   3.531   6.921   6.908
 1699SOL     OW 5995   2.213   1.407   6.782
 1699SOL    HW1 5996   2.191   1.483   6.843
 1699SOL    HW2 5997   2.258   1.442   6.700
 1700SOL     OW 5998   6.241   3.612   3.569
 1700SOL    HW1 5999   6.216   3.683   3.503
 1700SOL    HW2 6000   6.335   3.584   3.554
 1701SOL     OW 6001   5.284   4.448   5.685
 1701SOL    HW1 6002   5.229   4.366   5.701
 1701SOL    HW2 6003   5.380   4.427   5.703
 1702SOL     OW 6004   6.401   1.353   0.357
 1702SOL    HW1 6005   6.374   1.416   0.429
 1702SOL    HW2 6006   6.460   1.281   0.395
 1703SOL     OW 6007   3.509   2.875   0.973
 1703SOL    HW1 6008   3.445   2.948   0.953
 1703SOL    HW2 6009   3.501   2.803   0.905
 1704SOL     OW 6010   0.976   1.942   1.295
 1704SOL    HW1 6011   1.004   2.021   1.349
 1704SOL    HW2 6012   0.904   1.968   1.231
 1705SOL     OW 6013   2.847   2.008   2.301
 1705SOL    HW1 6014   2.929   2.055   2.270
 1705SOL    HW2 6015   2.825   1.933   2.239
 1706SOL     OW 6016   5.110   1.365   2.039
 1706SOL    HW1 6017   5.117   1.417   1.954
 1706SOL    HW2 6018   5.148   1.419   2.114
 1707SOL     OW 6019   4.760   2.042   1.707
 1707SOL    HW1 6020   4.760   1.967   1.773
 1707SOL    HW2 6021   4.806   2.012   1.623
 1708SOL     OW 6022   4.653   5.452   2.176
 1708SOL    HW1 6023   4.652   5.421   2.081
 1708SOL    HW2 6024   4.726   5.406   2.226
 1709SOL     OW 6025   2.917   6.273   2.272
 1709SOL    HW1 6026   2.900   6.197   2.210
 1709SOL    HW2 6027   2.993   6.329   2.237
 1710SOL     OW 6028   4.914   4.630   3.867
 1710SOL    HW1 6029   4.842   4.583   3.816
 1710SOL    HW2 6030   5.001   4.620   3.817
 1711SOL     OW 6031   1.660   4.344   4.372
 1711SOL    HW1 6032   1.618   4.288   4.444
 1711SOL    HW2 6033   1.752   4.309   4.352
 1712SOL     OW 6034   6.323   2.230   4.744
 1712SOL    HW1 6035   6.315   2.140   4.787
 1712SOL    HW2 6036   6.419   2.258   4.742
 1713SOL     OW 6037   4.714   2.490   1.356
 1713SOL    HW1 6038   4.619   2.459   1.361
 1713SOL    HW2 6039   4.758   2.447   1.277
 1714SOL     OW 6040   3.719   0.860   5.828
 1714SOL    HW1 6041   3.644   0.889   5.887
 1714SOL    HW2 6042   3.750   0.936   5.772
 1715SOL     OW 6043   0.803   5.361   3.105
 1715SOL    HW1 6044   0.756   5.283   3.146
 1715SOL    HW2 6045   0.757   5.446   3.133
 1716SOL     OW 6046   5.291   0.003   3.007
 1716SOL    HW1 6047   5.368   0.066   3.018
 1716SOL    HW2 6048   5.207   0.046   3.039
 1717SOL     OW 6049   2.650   6.228   6.409
 1717SOL    HW1 6050   2.594   6.221   6.327
 1717SOL    HW2 6051   2.713   6.304   6.401
 1718SOL     OW 6052   2.344   1.529   1.844
 1718SOL    HW1 6053   2.281   1.584   1.898
 1718SOL    HW2 6054   2.295   1.454   1.801
 1719SOL     OW 6055   2.309   3.006   1.350
 1719SOL    HW1 6056   2.268   3.087   1.308
 1719SOL    HW2 6057   2.276   2.924   1.305
 1720SOL     OW 6058   7.009   3.074   0.310
 1720SOL    HW1 6059   0.086   3.055   0.324
 1720SOL    HW2 6060   6.956   3.038   0.387
 1721SOL     OW 6061   1.909   7.000   1.698
 1721SOL    HW1 6062   1.978   0.045   1.667
 1721SOL    HW2 6063   1.872   6.950   1.620
 1722SOL     OW 6064   3.515   1.349   3.451
 1722SOL    HW1 6065   3.416   1.358   3.441
 1722SOL    HW2 6066   3.536   1.273   3.513
 1723SOL     OW 6067   5.622   2.250   2.104
 1723SOL    HW1 6068   5.617   2.349   2.118
 1723SOL    HW2 6069   5.545   2.221   2.047
 1724SOL     OW 6070   6.687   2.694   1.544
 1724SOL    HW1 6071   6.719   2.762   1.610
 1724SOL    HW2 6072   6.680   2.737   1.454
 1725SOL     OW 6073   2.275   5.096   6.401
 1725SOL    HW1 6074   2.191   5.042   6.404
 1725SOL    HW2 6075   2.354   5.036   6.398
 1726SOL     OW 6076   6.651   4.517   5.033
 1726SOL    HW1 6077   6.557   4.495   5.059
 1726SOL    HW2 6078   6.671   4.479   4.943
 1727SOL     OW 6079   3.406   2.908   3.787
 1727SOL    HW1 6080   3.308   2.925   3.794
 1727SOL    HW2 6081   3.426   2.866   3.698
 1728SOL     OW 6082   4.962   5.003   4.621
 1728SOL    HW1 6083   4.906   5.086   4.614
 1728SOL    HW2 6084   4.952   4.948   4.538
 1729SOL     OW 6085   2.087   4.275   3.218
 1729SOL    HW1 6086   2.020   4.348   3.208
 1729SOL    HW2 6087   2.040   4.187   3.225
 1730SOL     OW 6088   1.178   6.599   5.792
 1730SOL    HW1 6089   1.154   6.696   5.795
 1730SOL    HW2 6090   1.277   6.589   5.799
 1731SOL     OW 6091   0.039   3.940   3.305
 1731SOL    HW1 6092   0.139   3.932   3.305
 1731SOL    HW2 6093   0.013   4.026   3.350
 1732SOL     OW 6094   2.614   5.108   5.325
 1732SOL    HW1 6095   2.538   5.131   5.386
 1732SOL    HW2 6096   2.579   5.084   5.235
 1733SOL     OW 6097   1.719   4.922   2.042
 1733SOL    HW1 6098   1.788   4.947   1.975
 1733SOL    HW2 6099   1.652   4.861   1.999
 1734SOL     OW 6100   4.864   3.499   1.261
 1734SOL    HW1 6101   4.774   3.460   1.280
 1734SOL    HW2 6102   4.909   3.445   1.190
 1735SOL     OW 6103   4.670   5.340   0.444
 1735SOL    HW1 6104   4.748   5.365   0.387
 1735SOL    HW2 6105   4.635   5.251   0.415
 1736SOL     OW 6106   3.570   3.646   0.571
 1736SOL    HW1 6107   3.660   3.685   0.553
 1736SOL    HW2 6108   3.499   3.709   0.539
 1737SOL     OW 6109   3.694   1.384   4.180
 1737SOL    HW1 6110   3.783   1.418   4.151
 1737SOL    HW2 6111   3.705   1.295   4.225
 1738SOL     OW 6112   1.446   2.902   4.217
 1738SOL    HW1 6113   1.510   2.836   4.180
 1738SOL    HW2 6114   1.375   2.922   4.150
 1739SOL     OW 6115   0.332   1.872   5.310
 1739SOL    HW1 6116   0.391   1.953   5.312
 1739SOL    HW2 6117   0.269   1.878   5.232
 1740SOL     OW 6118   0.007   2.122   5.812
 1740SOL    HW1 6119   0.037   2.217   5.810
 1740SOL    HW2 6120   0.064   2.068   5.749
 1741SOL     OW 6121   2.069   0.673   3.989
 1741SOL    HW1 6122   2.092   0.765   4.021
 1741SOL    HW2 6123   2.065   0.610   4.067
 1742SOL     OW 6124   5.638   0.988   6.522
 1742SOL    HW1 6125   5.660   0.896   6.554
 1742SOL    HW2 6126   5.584   0.982   6.438
 1743SOL     OW 6127   0.682   2.195   2.118
 1743SOL    HW1 6128   0.772   2.166   2.149
 1743SOL    HW2 6129   0.669   2.168   2.023
 1744SOL     OW 6130   6.451   2.716   3.443
 1744SOL    HW1 6131   6.433   2.699   3.346
 1744SOL    HW2 6132   6.374   2.767   3.482
 1745SOL     OW 6133   5.570   5.563   2.348
 1745SOL    HW1 6134   5.543   5.468   2.363
 1745SOL    HW2 6135   5.501   5.609   2.292
 1746SOL     OW 6136   1.523   3.931   4.540
 1746SOL    HW1 6137   1.573   3.919   4.454
 1746SOL    HW2 6138   1.463   3.853   4.555
 1747SOL     OW 6139   4.694   1.247   3.388
 1747SOL    HW1 6140   4.601   1.253   3.352
 1747SOL    HW2 6141   4.731   1.156   3.370
 1748SOL     OW 6142   0.695   1.094   5.268
 1748SOL    HW1 6143   0.666   1.020   5.330
 1748SOL    HW2 6144   0.637   1.174   5.283
 1749SOL     OW 6145   2.193   6.880   5.026
 1749SOL    HW1 6146   2.107   6.918   5.059
 1749SOL    HW2 6147   2.196   6.782   5.043
 1750SOL     OW 6148   5.173   6.313   4.207
 1750SOL    HW1 6149   5.083   6.314   4.164
 1750SOL    HW2 6150   5.183   6.394   4.264
 1751SOL     OW 6151   3.771   6.877   4.592
 1751SOL    HW1 6152   3.744   6.933   4.513
 1751SOL    HW2 6153   3.689   6.854   4.645
 1752SOL     OW 6154   6.371   2.008   2.242
 1752SOL    HW1 6155   6.322   2.093   2.263
 1752SOL    HW2 6156   6.450   2.000   2.302
 1753SOL     OW 6157   6.364   1.195   1.189
 1753SOL    HW1 6158   6.313   1.111   1.168
 1753SOL    HW2 6159   6.443   1.172   1.246
 1754SOL     OW 6160   1.648   4.480   6.983
 1754SOL    HW1 6161   1.608   4.493   6.892
 1754SOL    HW2 6162   1.625   4.388   7.016
 1755SOL     OW 6163   6.955   6.249   1.619
 1755SOL    HW1 6164   6.949   6.186   1.541
 1755SOL    HW2 6165   6.875   6.309   1.619
 1756SOL     OW 6166   4.422   5.318   5.630
 1756SOL    HW1 6167   4.504   5.357   5.673
 1756SOL    HW2 6168   4.344   5.328   5.692
 1757SOL     OW 6169   2.375   4.970   4.615
 1757SOL    HW1 6170   2.384   4.871   4.608
 1757SOL    HW2 6171   2.426   5.014   4.541
 1758SOL     OW 6172   2.440   0.454   4.337
 1758SOL    HW1 6173   2.537   0.465   4.361
 1758SOL    HW2 6174   2.384   0.507   4.400
 1759SOL     OW 6175   1.414   6.387   5.007
 1759SOL    HW1 6176   1.406   6.439   4.921
 1759SOL    HW2 6177   1.503   6.404   5.048
 1760SOL     OW 6178   5.313   1.378   2.860
 1760SOL    HW1 6179   5.310   1.468   2.816
 1760SOL    HW2 6180   5.403   1.337   2.845
 1761SOL     OW 6181   7.011   0.787   1.120
 1761SOL    HW1 6182   7.016   0.688   1.133
 1761SOL    HW2 6183   0.053   0.832   1.184
 1762SOL     OW 6184   0.596   0.936   4.556
 1762SOL    HW1 6185   0.556   0.937   4.465
 1762SOL    HW2 6186   0.684   0.888   4.554
 1763SOL     OW 6187   1.063   4.097   4.071
 1763SOL    HW1 6188   1.071   4.100   3.972
 1763SOL    HW2 6189   1.016   4.013   4.099
 1764SOL     OW 6190   2.116   3.179   2.175
 1764SOL    HW1 6191   2.168   3.199   2.092
 1764SOL    HW2 6192   2.153   3.232   2.251
 1765SOL     OW 6193   3.848   0.849   1.354
 1765SOL    HW1 6194   3.947   0.850   1.366
 1765SOL    HW2 6195   3.822   0.770   1.299
 1766SOL     OW 6196   4.982   4.661   2.677
 1766SOL    HW1 6197   4.885   4.637   2.669
 1766SOL    HW2 6198   5.015   4.696   2.590
 1767SOL     OW 6199   0.612   3.947   2.394
 1767SOL    HW1 6200   0.611   3.884   2.317
 1767SOL    HW2 6201   0.526   3.939   2.444
 1768SOL     OW 6202   3.953   1.600   6.668
 1768SOL    HW1 6203   3.969   1.505   6.695
 1768SOL    HW2 6204   3.858   1.610   6.637
 1769SOL     OW 6205   4.796   1.248   6.499
 1769SOL    HW1 6206   4.849   1.324   6.462
 1769SOL    HW2 6207   4.858   1.181   6.539
 1770SOL     OW 6208   6.958   4.554   4.621
 1770SOL    HW1 6209   6.884   4.493   4.595
 1770SOL    HW2 6210   6.923   4.622   4.686
 1771SOL     OW 6211   2.241   5.641   0.701
 1771SOL    HW1 6212   2.276   5.559   0.655
 1771SOL    HW2 6213   2.209   5.616   0.792
 1772SOL     OW 6214   3.380   6.857   3.582
 1772SOL    HW1 6215   3.374   6.854   3.682
 1772SOL    HW2 6216   3.397   6.766   3.546
 1773SOL     OW 6217   2.560   3.324   5.980
 1773SOL    HW1 6218   2.554   3.303   6.078
 1773SOL    HW2 6219   2.625   3.263   5.936
 1774SOL     OW 6220   4.761   6.631   1.797
 1774SOL    HW1 6221   4.841   6.685   1.824
 1774SOL    HW2 6222   4.784   6.534   1.801
 1775SOL     OW 6223   1.759   4.976   5.243
 1775SOL    HW1 6224   1.827   5.043   5.211
 1775SOL    HW2 6225   1.800   4.917   5.312
 1776SOL     OW 6226   5.161   1.216   6.216
 1776SOL    HW1 6227   5.068   1.251   6.226
 1776SOL    HW2 6228   5.204   1.258   6.135
 1777SOL     OW 6229   3.388   6.064   5.728
 1777SOL    HW1 6230   3.382   6.029   5.822
 1777SOL    HW2 6231   3.344   6.154   5.723
 1778SOL     OW 6232   4.498   1.862   4.747
 1778SOL    HW1 6233   4.407   1.905   4.745
 1778SOL    HW2 6234   4.516   1.826   4.838
 1779SOL     OW 6235   3.851   1.366   4.935
 1779SOL    HW1 6236   3.847   1.308   4.854
 1779SOL    HW2 6237   3.946   1.385   4.959
 1780SOL     OW 6238   2.445   4.141   6.171
 1780SOL    HW1 6239   2.378   4.215   6.171
 1780SOL    HW2 6240   2.513   4.158   6.099
 1781SOL     OW 6241   4.875   5.198   3.856
 1781SOL    HW1 6242   4.915   5.108   3.845
 1781SOL    HW2 6243   4.939   5.258   3.904
 1782SOL     OW 6244   2.951   1.729   3.511
 1782SOL    HW1 6245   2.888   1.787   3.563
 1782SOL    HW2 6246   3.003   1.785   3.447
 1783SOL     OW 6247   2.215   3.275   6.112
 1783SOL    HW1 6248   2.226   3.240   6.019
 1783SOL    HW2 6249   2.191   3.372   6.109
 1784SOL     OW 6250   2.653   1.555   2.121
 1784SOL    HW1 6251   2.624   1.532   2.028
 1784SOL    HW2 6252   2.581   1.529   2.185
 1785SOL     OW 6253   5.785   5.893   3.364
 1785SOL    HW1 6254   5.696   5.898   3.318
 1785SOL    HW2 6255   5.855   5.936   3.307
 1786SOL     OW 6256   1.345   3.246   0.522
 1786SOL    HW1 6257   1.246   3.255   0.531
 1786SOL    HW2 6258   1.375   3.283   0.435
 1787SOL     OW 6259   2.217   1.106   5.556
 1787SOL    HW1 6260   2.231   1.120   5.458
 1787SOL    HW2 6261   2.120   1.121   5.578
 1788SOL     OW 6262   3.707   4.103   0.279
 1788SOL    HW1 6263   3.803   4.131   0.271
 1788SOL    HW2 6264   3.650   4.167   0.228
 1789SOL     OW 6265   5.453   2.817   2.199
 1789SOL    HW1 6266   5.416   2.910   2.193
 1789SOL    HW2 6267   5.551   2.822   2.222
 1790SOL     OW 6268   3.634   0.194   4.718
 1790SOL    HW1 6269   3.616   0.147   4.631
 1790SOL    HW2 6270   3.617   0.132   4.794
 1791SOL     OW 6271   6.687   0.979   4.619
 1791SOL    HW1 6272   6.766   0.988   4.558
 1791SOL    HW2 6273   6.610   1.031   4.581
 1792SOL     OW 6274   0.699   1.074   4.832
 1792SOL    HW1 6275   0.663   1.017   4.758
 1792SOL    HW2 6276   0.665   1.168   4.821
 1793SOL     OW 6277   6.355   0.843   3.719
 1793SOL    HW1 6278   6.256   0.842   3.706
 1793SOL    HW2 6279   6.399   0.881   3.638
 1794SOL     OW 6280   5.005   6.092   6.048
 1794SOL    HW1 6281   5.045   6.181   6.069
 1794SOL    HW2 6282   4.917   6.106   6.002
 1795SOL     OW 6283   6.152   5.095   2.335
 1795SOL    HW1 6284   6.134   5.032   2.410
 1795SOL    HW2 6285   6.066   5.133   2.302
 1796SOL     OW 6286   1.973   0.690   4.857
 1796SOL    HW1 6287   1.945   0.627   4.784
 1796SOL    HW2 6288   2.049   0.746   4.826
 1797SOL     OW 6289   1.447   6.788   5.526
 1797SOL    HW1 6290   1.464   6.764   5.621
 1797SOL    HW2 6291   1.428   6.704   5.474
 1798SOL     OW 6292   4.245   3.148   5.342
 1798SOL    HW1 6293   4.210   3.199   5.264
 1798SOL    HW2 6294   4.248   3.207   5.423
 1799SOL     OW 6295   5.771   2.802   6.503
 1799SOL    HW1 6296   5.802   2.897   6.497
 1799SOL    HW2 6297   5.791   2.756   6.416
 1800SOL     OW 6298   4.906   4.550   3.462
 1800SOL    HW1 6299   4.963   4.615   3.513
 1800SOL    HW2 6300   4.814   4.548   3.502
 1801SOL     OW 6301   1.359   1.559   2.895
 1801SOL    HW1 6302   1.362   1.553   2.995
 1801SOL    HW2 6303   1.345   1.654   2.867
 1802SOL     OW 6304   6.207   6.561   2.931
 1802SOL    HW1 6305   6.299   6.535   2.902
 1802SOL    HW2 6306   6.153   6.586   2.850
 1803SOL     OW 6307   6.909   6.575   1.991
 1803SOL    HW1 6308   6.895   6.631   2.073
 1803SOL    HW2 6309   6.978   6.506   2.009
 1804SOL     OW 6310   3.485   3.374   5.598
 1804SOL    HW1 6311   3.468   3.473   5.600
 1804SOL    HW2 6312   3.573   3.355   5.643
 1805SOL     OW 6313   1.209   4.450   6.197
 1805SOL    HW1 6314   1.233   4.530   6.141
 1805SOL    HW2 6315   1.203   4.369   6.139
 1806SOL     OW 6316   0.856   2.496   1.786
 1806SOL    HW1 6317   0.760   2.470   1.773
 1806SOL    HW2 6318   0.887   2.551   1.708
 1807SOL     OW 6319   6.251   2.162   6.066
 1807SOL    HW1 6320   6.199   2.079   6.088
 1807SOL    HW2 6321   6.210   2.240   6.113
 1808SOL     OW 6322   5.640   4.528   4.320
 1808SOL    HW1 6323   5.663   4.580   4.403
 1808SOL    HW2 6324   5.541   4.518   4.314
 1809SOL     OW 6325   2.476   2.434   4.916
 1809SOL    HW1 6326   2.562   2.422   4.965
 1809SOL    HW2 6327   2.468   2.528   4.885
 1810SOL     OW 6328   1.286   0.128   4.512
 1810SOL    HW1 6329   1.282   0.043   4.564
 1810SOL    HW2 6330   1.261   0.205   4.571
 1811SOL     OW 6331   4.781   4.914   2.746
 1811SOL    HW1 6332   4.727   4.896   2.664
 1811SOL    HW2 6333   4.877   4.925   2.722
 1812SOL     OW 6334   5.095   6.776   6.078
 1812SOL    HW1 6335   5.031   6.710   6.116
 1812SOL    HW2 6336   5.175   6.728   6.042
 1813SOL     OW 6337   5.100   5.026   1.433
 1813SOL    HW1 6338   5.047   5.014   1.349
 1813SOL    HW2 6339   5.058   5.097   1.489
 1814SOL     OW 6340   6.102   0.515   0.789
 1814SOL    HW1 6341   6.019   0.491   0.840
 1814SOL    HW2 6342   6.180   0.465   0.827
 1815SOL     OW 6343   6.077   0.400   3.038
 1815SOL    HW1 6344   6.056   0.370   3.131
 1815SOL    HW2 6345   6.020   0.350   2.973
 1816SOL     OW 6346   3.037   4.970   0.500
 1816SOL    HW1 6347   2.980   4.940   0.425
 1816SOL    HW2 6348   3.058   4.893   0.560
 1817SOL     OW 6349   3.739   0.457   3.396
 1817SOL    HW1 6350   3.774   0.498   3.480
 1817SOL    HW2 6351   3.642   0.478   3.386
 1818SOL     OW 6352   2.143   6.703   1.350
 1818SOL    HW1 6353   2.237   6.666   1.348
 1818SOL    HW2 6354   2.112   6.711   1.444
 1819SOL     OW 6355   1.524   6.906   1.929
 1819SOL    HW1 6356   1.504   6.809   1.943
 1819SOL    HW2 6357   1.448   6.948   1.879
 1820SOL     OW 6358   3.574   0.318   2.650
 1820SOL    HW1 6359   3.569   0.379   2.571
 1820SOL    HW2 6360   3.612   0.230   2.622
 1821SOL     OW 6361   2.729   0.890   1.432
 1821SOL    HW1 6362   2.644   0.864   1.387
 1821SOL    HW2 6363   2.728   0.988   1.452
 1822SOL     OW 6364   0.614   2.504   1.670
 1822SOL    HW1 6365   0.607   2.513   1.571
 1822SOL    HW2 6366   0.567   2.580   1.714
 1823SOL     OW 6367   3.150   6.324   2.970
 1823SOL    HW1 6368   3.159   6.290   2.877
 1823SOL    HW2 6369   3.240   6.325   3.014
 1824SOL     OW 6370   4.016   3.921   0.559
 1824SOL    HW1 6371   4.067   3.945   0.642
 1824SOL    HW2 6372   4.034   3.991   0.488
 1825SOL     OW 6373   0.961   2.566   4.675
 1825SOL    HW1 6374   0.868   2.561   4.639
 1825SOL    HW2 6375   1.011   2.639   4.629
 1826SOL     OW 6376   3.154   1.707   1.512
 1826SOL    HW1 6377   3.239   1.760   1.515
 1826SOL    HW2 6378   3.086   1.756   1.457
 1827SOL     OW 6379   6.493   5.375   1.222
 1827SOL    HW1 6380   6.556   5.423   1.161
 1827SOL    HW2 6381   6.419   5.437   1.249
 1828SOL     OW 6382   1.150   2.611   6.851
 1828SOL    HW1 6383   1.091   2.537   6.817
 1828SOL    HW2 6384   1.237   2.610   6.802
 1829SOL     OW 6385   4.123   0.894   3.141
 1829SOL    HW1 6386   4.189   0.901   3.067
 1829SOL    HW2 6387   4.046   0.837   3.112
 1830SOL     OW 6388   5.582   5.862   4.782
 1830SOL    HW1 6389   5.656   5.929   4.780
 1830SOL    HW2 6390   5.519   5.881   4.707
 1831SOL     OW 6391   5.580   6.160   1.863
 1831SOL    HW1 6392   5.671   6.186   1.832
 1831SOL    HW2 6393   5.519   6.240   1.860
 1832SOL     OW 6394   4.235   1.729   0.758
 1832SOL    HW1 6395   4.309   1.764   0.816
 1832SOL    HW2 6396   4.243   1.630   0.750
 1833SOL     OW 6397   5.386   0.728   2.030
 1833SOL    HW1 6398   5.313   0.793   2.050
 1833SOL    HW2 6399   5.423   0.692   2.116
 1834SOL     OW 6400   1.861   3.872   0.643
 1834SOL    HW1 6401   1.840   3.946   0.579
 1834SOL    HW2 6402   1.944   3.825   0.614
 1835SOL     OW 6403   0.293   4.858   1.971
 1835SOL    HW1 6404   0.343   4.848   1.885
 1835SOL    HW2 6405   0.357   4.849   2.048
 1836SOL     OW 6406   5.625   2.574   1.390
 1836SOL    HW1 6407   5.537   2.617   1.412
 1836SOL    HW2 6408   5.699   2.641   1.402
 1837SOL     OW 6409   1.131   6.813   5.410
 1837SOL    HW1 6410   1.053   6.776   5.360
 1837SOL    HW2 6411   1.213   6.760   5.388
 1838SOL     OW 6412   6.480   0.844   5.304
 1838SOL    HW1 6413   6.510   0.817   5.395
 1838SOL    HW2 6414   6.558   0.841   5.241
 1839SOL     OW 6415   0.477   1.376   5.174
 1839SOL    HW1 6416   0.428   1.339   5.095
 1839SOL    HW2 6417   0.425   1.358   5.257
 1840SOL     OW 6418   3.974   6.854   2.025
 1840SOL    HW1 6419   3.967   6.862   1.926
 1840SOL    HW2 6420   3.897   6.901   2.068
 1841SOL     OW 6421   2.453   0.969   3.343
 1841SOL    HW1 6422   2.503   0.987   3.258
 1841SOL    HW2 6423   2.423   0.874   3.344
 1842SOL     OW 6424   1.617   5.974   1.025
 1842SOL    HW1 6425   1.668   5.977   1.111
 1842SOL    HW2 6426   1.527   6.016   1.038
 1843SOL     OW 6427   6.019   0.417   4.876
 1843SOL    HW1 6428   5.970   0.473   4.810
 1843SOL    HW2 6429   5.991   0.441   4.968
 1844SOL     OW 6430   3.387   6.809   5.171
 1844SOL    HW1 6431   3.328   6.766   5.239
 1844SOL    HW2 6432   3.331   6.856   5.103
 1845SOL     OW 6433   2.403   6.707   4.467
 1845SOL    HW1 6434   2.408   6.800   4.503
 1845SOL    HW2 6435   2.495   6.674   4.445
 1846SOL     OW 6436   3.649   1.295   2.391
 1846SOL    HW1 6437   3.744   1.314   2.416
 1846SOL    HW2 6438   3.602   1.382   2.375
 1847SOL     OW 6439   1.668   0.019   5.735
 1847SOL    HW1 6440   1.712   0.023   5.825
 1847SOL    HW2 6441   1.569   0.031   5.746
 1848SOL     OW 6442   2.150   6.234   2.926
 1848SOL    HW1 6443   2.226   6.299   2.936
 1848SOL    HW2 6444   2.082   6.271   2.863
 1849SOL     OW 6445   4.407   2.769   1.609
 1849SOL    HW1 6446   4.395   2.860   1.569
 1849SOL    HW2 6447   4.413   2.701   1.535
 1850SOL     OW 6448   0.031   2.490   2.446
 1850SOL    HW1 6449   0.009   2.414   2.385
 1850SOL    HW2 6450   6.967   2.537   2.473
 1851SOL     OW 6451   0.435   3.361   6.481
 1851SOL    HW1 6452   0.364   3.354   6.551
 1851SOL    HW2 6453   0.482   3.273   6.471
 1852SOL     OW 6454   0.047   4.579   2.805
 1852SOL    HW1 6455   0.120   4.513   2.788
 1852SOL    HW2 6456   0.025   4.626   2.719
 1853SOL     OW 6457   0.038   2.617   3.164
 1853SOL    HW1 6458   0.112   2.622   3.096
 1853SOL    HW2 6459   6.970   2.626   3.117
 1854SOL     OW 6460   2.065   5.515   3.063
 1854SOL    HW1 6461   2.097   5.453   2.992
 1854SOL    HW2 6462   1.987   5.568   3.029
 1855SOL     OW 6463   5.703   3.548   5.228
 1855SOL    HW1 6464   5.655   3.589   5.305
 1855SOL    HW2 6465   5.694   3.606   5.147
 1856SOL     OW 6466   5.033   3.333   5.808
 1856SOL    HW1 6467   5.048   3.291   5.719
 1856SOL    HW2 6468   5.050   3.266   5.880
 1857SOL     OW 6469   4.126   2.191   0.150
 1857SOL    HW1 6470   4.045   2.210   0.206
 1857SOL    HW2 6471   4.111   2.225   0.057
 1858SOL     OW 6472   5.531   3.435   3.093
 1858SOL    HW1 6473   5.519   3.362   3.026
 1858SOL    HW2 6474   5.626   3.439   3.122
 1859SOL     OW 6475   5.224   1.898   3.608
 1859SOL    HW1 6476   5.178   1.985   3.590
 1859SOL    HW2 6477   5.251   1.856   3.521
 1860SOL     OW 6478   0.319   1.238   4.954
 1860SOL    HW1 6479   0.335   1.142   4.972
 1860SOL    HW2 6480   0.338   1.258   4.858
 1861SOL     OW 6481   6.130   0.480   2.620
 1861SOL    HW1 6482   6.036   0.446   2.624
 1861SOL    HW2 6483   6.165   0.492   2.713
 1862SOL     OW 6484   2.511   0.446   6.444
 1862SOL    HW1 6485   2.517   0.365   6.386
 1862SOL    HW2 6486   2.495   0.527   6.388
 1863SOL     OW 6487   0.176   2.696   3.874
 1863SOL    HW1 6488   0.084   2.669   3.904
 1863SOL    HW2 6489   0.177   2.707   3.775
 1864SOL     OW 6490   2.688   5.845   4.792
 1864SOL    HW1 6491   2.592   5.829   4.769
 1864SOL    HW2 6492   2.736   5.879   4.711
 1865SOL     OW 6493   3.864   0.455   0.015
 1865SOL    HW1 6494   3.898   0.360   0.015
 1865SOL    HW2 6495   3.782   0.460   0.071
 1866SOL     OW 6496   6.599   4.645   3.901
 1866SOL    HW1 6497   6.575   4.681   3.811
 1866SOL    HW2 6498   6.516   4.612   3.947
 1867SOL     OW 6499   1.648   3.994   1.304
 1867SOL    HW1 6500   1.586   4.030   1.235
 1867SOL    HW2 6501   1.600   3.926   1.360
 1868SOL     OW 6502   4.834   3.242   6.782
 1868SOL    HW1 6503   4.844   3.296   6.698
 1868SOL    HW2 6504   4.907   3.174   6.788
 1869SOL     OW 6505   6.482   3.389   4.341
 1869SOL    HW1 6506   6.560   3.401   4.402
 1869SOL    HW2 6507   6.471   3.292   4.319
 1870SOL     OW 6508   1.000   3.379   5.181
 1870SOL    HW1 6509   1.039   3.287   5.173
 1870SOL    HW2 6510   0.946   3.400   5.100
 1871SOL     OW 6511   0.260   0.716   0.386
 1871SOL    HW1 6512   0.294   0.687   0.297
 1871SOL    HW2 6513   0.291   0.651   0.456
 1872SOL     OW 6514   4.723   2.140   0.097
 1872SOL    HW1 6515   4.732   2.047   0.060
 1872SOL    HW2 6516   4.663   2.139   0.177
 1873SOL     OW 6517   5.821   0.749   5.982
 1873SOL    HW1 6518   5.747   0.687   5.956
 1873SOL    HW2 6519   5.800   0.792   6.069
 1874SOL     OW 6520   1.632   1.116   6.809
 1874SOL    HW1 6521   1.589   1.151   6.893
 1874SOL    HW2 6522   1.701   1.181   6.778
 1875SOL     OW 6523   6.343   0.386   0.916
 1875SOL    HW1 6524   6.398   0.386   0.833
 1875SOL    HW2 6525   6.397   0.420   0.993
 1876SOL     OW 6526   3.534   5.785   6.157
 1876SOL    HW1 6527   3.577   5.720   6.219
 1876SOL    HW2 6528   3.562   5.765   6.063
 1877SOL     OW 6529   1.227   1.582   3.402
 1877SOL    HW1 6530   1.169   1.662   3.420
 1877SOL    HW2 6531   1.288   1.567   3.480
 1878SOL     OW 6532   6.952   2.943   4.020
 1878SOL    HW1 6533   6.873   2.890   3.992
 1878SOL    HW2 6534   6.996   2.899   4.098
 1879SOL     OW 6535   2.310   6.304   3.974
 1879SOL    HW1 6536   2.378   6.343   3.912
 1879SOL    HW2 6537   2.225   6.356   3.967
 1880SOL     OW 6538   0.123   1.820   3.199
 1880SOL    HW1 6539   0.170   1.753   3.256
 1880SOL    HW2 6540   0.132   1.911   3.240
 1881SOL     OW 6541   1.340   1.425   4.030
 1881SOL    HW1 6542   1.330   1.356   3.958
 1881SOL    HW2 6543   1.254   1.476   4.039
 1882SOL     OW 6544   1.087   4.667   6.646
 1882SOL    HW1 6545   1.158   4.681   6.715
 1882SOL    HW2 6546   1.130   4.645   6.558
 1883SOL     OW 6547   1.186   3.554   3.328
 1883SOL    HW1 6548   1.270   3.561   3.273
 1883SOL    HW2 6549   1.199   3.488   3.401
 1884SOL     OW 6550   5.891   2.622   0.784
 1884SOL    HW1 6551   5.984   2.600   0.754
 1884SOL    HW2 6552   5.858   2.550   0.845
 1885SOL     OW 6553   0.176   2.148   0.182
 1885SOL    HW1 6554   0.157   2.231   0.235
 1885SOL    HW2 6555   0.176   2.170   0.085
 1886SOL     OW 6556   2.746   1.496   0.771
 1886SOL    HW1 6557   2.739   1.569   0.839
 1886SOL    HW2 6558   2.841   1.466   0.762
 1887SOL     OW 6559   0.440   4.690   5.838
 1887SOL    HW1 6560   0.418   4.604   5.885
 1887SOL    HW2 6561   0.470   4.669   5.745
 1888SOL     OW 6562   3.267   1.937   6.151
 1888SOL    HW1 6563   3.211   2.018   6.134
 1888SOL    HW2 6564   3.279   1.925   6.249
 1889SOL     OW 6565   5.624   2.269   5.939
 1889SOL    HW1 6566   5.672   2.344   5.986
 1889SOL    HW2 6567   5.558   2.228   6.001
 1890SOL     OW 6568   1.360   5.465   5.276
 1890SOL    HW1 6569   1.413   5.458   5.360
 1890SOL    HW2 6570   1.301   5.384   5.268
 1891SOL     OW 6571   5.474   3.239   4.186
 1891SOL    HW1 6572   5.427   3.269   4.103
 1891SOL    HW2 6573   5.427   3.275   4.266
 1892SOL     OW 6574   4.020   0.381   0.813
 1892SOL    HW1 6575   3.946   0.411   0.873
 1892SOL    HW2 6576   4.103   0.368   0.867
 1893SOL     OW 6577   3.391   1.673   5.854
 1893SOL    HW1 6578   3.473   1.729   5.866
 1893SOL    HW2 6579   3.309   1.729   5.868
 1894SOL     OW 6580   3.735   4.028   2.357
 1894SOL    HW1 6581   3.792   4.022   2.275
 1894SOL    HW2 6582   3.786   4.078   2.428
 1895SOL     OW 6583   5.359   0.969   2.435
 1895SOL    HW1 6584   5.370   0.878   2.395
 1895SOL    HW2 6585   5.300   1.024   2.375
 1896SOL     OW 6586   0.839   0.554   3.202
 1896SOL    HW1 6587   0.774   0.488   3.165
 1896SOL    HW2 6588   0.808   0.647   3.181
 1897SOL     OW 6589   0.670   5.041   2.349
 1897SOL    HW1 6590   0.729   5.119   2.331
 1897SOL    HW2 6591   0.577   5.062   2.321
 1898SOL     OW 6592   3.248   4.926   2.304
 1898SOL    HW1 6593   3.183   4.850   2.304
 1898SOL    HW2 6594   3.340   4.892   2.289
 1899SOL     OW 6595   0.917   2.058   2.558
 1899SOL    HW1 6596   0.996   1.996   2.562
 1899SOL    HW2 6597   0.949   2.153   2.561
 1900SOL     OW 6598   1.349   0.183   5.226
 1900SOL    HW1 6599   1.431   0.232   5.198
 1900SOL    HW2 6600   1.268   0.230   5.192
 1901SOL     OW 6601   2.298   1.257   1.476
 1901SOL    HW1 6602   2.388   1.294   1.453
 1901SOL    HW2 6603   2.269   1.292   1.566
 1902SOL     OW 6604   2.281   2.347   4.685
 1902SOL    HW1 6605   2.357   2.319   4.744
 1902SOL    HW2 6606   2.317   2.393   4.604
 1903SOL     OW 6607   6.435   3.930   3.609
 1903SOL    HW1 6608   6.529   3.899   3.624
 1903SOL    HW2 6609   6.400   3.971   3.693
 1904SOL     OW 6610   6.287   6.412   3.970
 1904SOL    HW1 6611   6.222   6.340   3.994
 1904SOL    HW2 6612   6.261   6.496   4.018
 1905SOL     OW 6613   1.843   0.952   4.468
 1905SOL    HW1 6614   1.896   1.011   4.408
 1905SOL    HW2 6615   1.878   0.858   4.461
 1906SOL     OW 6616   2.753   0.306   5.084
 1906SOL    HW1 6617   2.786   0.385   5.033
 1906SOL    HW2 6618   2.830   0.252   5.116
 1907SOL     OW 6619   3.364   0.263   3.395
 1907SOL    HW1 6620   3.425   0.222   3.328
 1907SOL    HW2 6621   3.296   0.195   3.424
 1908SOL     OW 6622   4.219   0.953   5.024
 1908SOL    HW1 6623   4.277   0.874   5.009
 1908SOL    HW2 6624   4.179   0.982   4.937
 1909SOL     OW 6625   1.017   4.334   2.448
 1909SOL    HW1 6626   0.944   4.400   2.465
 1909SOL    HW2 6627   0.985   4.242   2.468
 1910SOL     OW 6628   0.408   2.619   6.926
 1910SOL    HW1 6629   0.336   2.689   6.924
 1910SOL    HW2 6630   0.373   2.537   6.972
 1911SOL     OW 6631   6.171   3.043   5.940
 1911SOL    HW1 6632   6.209   2.953   5.960
 1911SOL    HW2 6633   6.240   3.098   5.891
 1912SOL     OW 6634   3.532   0.173   1.149
 1912SOL    HW1 6635   3.483   0.220   1.222
 1912SOL    HW2 6636   3.573   0.089   1.185
 1913SOL     OW 6637   1.150   5.878   5.395
 1913SOL    HW1 6638   1.156   5.962   5.450
 1913SOL    HW2 6639   1.240   5.835   5.389
 1914SOL     OW 6640   3.348   2.810   6.616
 1914SOL    HW1 6641   3.257   2.768   6.618
 1914SOL    HW2 6642   3.372   2.834   6.522
 1915SOL     OW 6643   3.652   1.679   5.575
 1915SOL    HW1 6644   3.636   1.581   5.584
 1915SOL    HW2 6645   3.616   1.727   5.655
 1916SOL     OW 6646   3.182   6.299   1.156
 1916SOL    HW1 6647   3.165   6.366   1.228
 1916SOL    HW2 6648   3.268   6.320   1.110
 1917SOL     OW 6649   3.028   3.135   4.390
 1917SOL    HW1 6650   3.110   3.077   4.394
 1917SOL    HW2 6651   3.022   3.191   4.472
 1918SOL     OW 6652   0.709   1.322   0.004
 1918SOL    HW1 6653   0.636   1.254   0.003
 1918SOL    HW2 6654   0.729   1.348   0.099
 1919SOL     OW 6655   2.065   0.464   1.524
 1919SOL    HW1 6656   2.124   0.423   1.594
 1919SOL    HW2 6657   2.117   0.532   1.472
 1920SOL     OW 6658   1.107   5.005   2.944
 1920SOL    HW1 6659   1.042   4.944   2.988
 1920SOL    HW2 6660   1.067   5.096   2.935
 1921SOL     OW 6661   1.459   4.282   0.115
 1921SOL    HW1 6662   1.495   4.199   0.159
 1921SOL    HW2 6663   1.365   4.298   0.147
 1922SOL     OW 6664   3.015   4.050   0.756
 1922SOL    HW1 6665   2.986   4.059   0.852
 1922SOL    HW2 6666   3.001   4.136   0.709
 1923SOL     OW 6667   3.536   0.987   6.024
 1923SOL    HW1 6668   3.463   0.954   6.084
 1923SOL    HW2 6669   3.514   1.080   5.994
 1924SOL     OW 6670   5.043   5.242   1.589
 1924SOL    HW1 6671   5.101   5.298   1.648
 1924SOL    HW2 6672   4.982   5.186   1.645
 1925SOL     OW 6673   2.347   3.407   1.036
 1925SOL    HW1 6674   2.391   3.390   0.948
 1925SOL    HW2 6675   2.355   3.504   1.059
 1926SOL     OW 6676   1.272   6.669   2.728
 1926SOL    HW1 6677   1.300   6.693   2.635
 1926SOL    HW2 6678   1.178   6.700   2.743
 1927SOL     OW 6679   3.341   4.712   6.344
 1927SOL    HW1 6680   3.317   4.619   6.316
 1927SOL    HW2 6681   3.396   4.756   6.272
 1928SOL     OW 6682   6.937   3.488   5.595
 1928SOL    HW1 6683   6.852   3.500   5.544
 1928SOL    HW2 6684   6.928   3.411   5.659
 1929SOL     OW 6685   0.860   5.876   1.874
 1929SOL    HW1 6686   0.909   5.803   1.827
 1929SOL    HW2 6687   0.764   5.850   1.884
 1930SOL     OW 6688   3.254   4.109   6.716
 1930SOL    HW1 6689   3.281   4.175   6.646
 1930SOL    HW2 6690   3.328   4.098   6.782
 1931SOL     OW 6691   0.019   2.882   2.328
 1931SOL    HW1 6692   0.026   2.958   2.263
 1931SOL    HW2 6693   6.985   2.911   2.407
 1932SOL     OW 6694   5.059   3.275   3.295
 1932SOL    HW1 6695   5.006   3.308   3.374
 1932SOL    HW2 6696   5.077   3.351   3.233
 1933SOL     OW 6697   2.769   4.449   0.871
 1933SOL    HW1 6698   2.736   4.380   0.806
 1933SOL    HW2 6699   2.698   4.466   0.939
 1934SOL     OW 6700   1.149   0.388   5.119
 1934SOL    HW1 6701   1.201   0.470   5.142
 1934SOL    HW2 6702   1.081   0.370   5.191
 1935SOL     OW 6703   3.277   6.478   4.848
 1935SOL    HW1 6704   3.178   6.483   4.866
 1935SOL    HW2 6705   3.294   6.420   4.768
 1936SOL     OW 6706   6.666   3.855   3.897
 1936SOL    HW1 6707   6.675   3.943   3.943
 1936SOL    HW2 6708   6.590   3.804   3.937
 1937SOL     OW 6709   4.835   0.207   0.879
 1937SOL    HW1 6710   4.853   0.115   0.844
 1937SOL    HW2 6711   4.821   0.202   0.978
 1938SOL     OW 6712   2.300   1.062   1.822
 1938SOL    HW1 6713   2.293   1.042   1.920
 1938SOL    HW2 6714   2.395   1.052   1.793
 1939SOL     OW 6715   0.123   0.144   4.696
 1939SOL    HW1 6716   0.047   0.207   4.712
 1939SOL    HW2 6717   0.088   0.061   4.653
 1940SOL     OW 6718   4.487   4.820   0.008
 1940SOL    HW1 6719   4.568   4.762   0.022
 1940SOL    HW2 6720   4.510   4.915   0.030
 1941SOL     OW 6721   0.011   4.545   3.544
 1941SOL    HW1 6722   0.084   4.531   3.611
 1941SOL    HW2 6723   6.944   4.556   3.592
 1942SOL     OW 6724   5.157   0.549   1.660
 1942SOL    HW1 6725   5.153   0.475   1.727
 1942SOL    HW2 6726   5.070   0.599   1.660
 1943SOL     OW 6727   2.563   6.259   2.132
 1943SOL    HW1 6728   2.616   6.260   2.047
 1943SOL    HW2 6729   2.591   6.336   2.190
 1944SOL     OW 6730   6.008   2.508   0.382
 1944SOL    HW1 6731   6.032   2.576   0.313
 1944SOL    HW2 6732   5.922   2.464   0.357
 1945SOL     OW 6733   3.361   5.531   1.767
 1945SOL    HW1 6734   3.355   5.575   1.678
 1945SOL    HW2 6735   3.269   5.525   1.807
 1946SOL     OW 6736   6.340   0.312   1.408
 1946SOL    HW1 6737   6.310   0.373   1.482
 1946SOL    HW2 6738   6.274   0.238   1.398
 1947SOL     OW 6739   4.509   6.986   5.307
 1947SOL    HW1 6740   4.524   0.034   5.236
 1947SOL    HW2 6741   4.478   6.900   5.266
 1948SOL     OW 6742   5.604   5.402   3.902
 1948SOL    HW1 6743   5.536   5.350   3.852
 1948SOL    HW2 6744   5.679   5.341   3.929
 1949SOL     OW 6745   3.407   4.485   6.608
 1949SOL    HW1 6746   3.358   4.424   6.671
 1949SOL    HW2 6747   3.346   4.511   6.534
 1950SOL     OW 6748   4.070   4.331   0.736
 1950SOL    HW1 6749   4.102   4.248   0.782
 1950SOL    HW2 6750   3.985   4.312   0.688
 1951SOL     OW 6751   5.860   4.239   0.016
 1951SOL    HW1 6752   5.851   4.141   0.032
 1951SOL    HW2 6753   5.789   4.269   6.972
 1952SOL     OW 6754   4.371   2.365   0.422
 1952SOL    HW1 6755   4.337   2.407   0.506
 1952SOL    HW2 6756   4.455   2.313   0.442
 1953SOL     OW 6757   5.744   1.849   6.791
 1953SOL    HW1 6758   5.674   1.905   6.835
 1953SOL    HW2 6759   5.832   1.896   6.795
 1954SOL     OW 6760   5.465   1.510   3.378
 1954SOL    HW1 6761   5.472   1.553   3.468
 1954SOL    HW2 6762   5.519   1.562   3.312
 1955SOL     OW 6763   0.963   1.413   2.282
 1955SOL    HW1 6764   1.047   1.454   2.318
 1955SOL    HW2 6765   0.985   1.328   2.235
 1956SOL     OW 6766   4.990   6.718   2.883
 1956SOL    HW1 6767   4.991   6.803   2.937
 1956SOL    HW2 6768   4.954   6.738   2.792
 1957SOL     OW 6769   6.195   4.748   4.255
 1957SOL    HW1 6770   6.100   4.757   4.225
 1957SOL    HW2 6771   6.256   4.782   4.184
 1958SOL     OW 6772   4.499   2.507   2.700
 1958SOL    HW1 6773   4.566   2.434   2.716
 1958SOL    HW2 6774   4.428   2.504   2.771
 1959SOL     OW 6775   0.364   0.981   4.969
 1959SOL    HW1 6776   0.397   0.893   5.003
 1959SOL    HW2 6777   0.366   0.981   4.869
 1960SOL     OW 6778   6.762   4.540   1.777
 1960SOL    HW1 6779   6.809   4.616   1.824
 1960SOL    HW2 6780   6.664   4.547   1.792
 1961SOL     OW 6781   5.592   4.114   4.111
 1961SOL    HW1 6782   5.621   4.203   4.075
 1961SOL    HW2 6783   5.498   4.096   4.081
 1962SOL     OW 6784   2.027   6.639   3.866
 1962SOL    HW1 6785   1.938   6.647   3.911
 1962SOL    HW2 6786   2.056   6.544   3.866
 1963SOL     OW 6787   0.978   1.777   1.860
 1963SOL    HW1 6788   1.023   1.733   1.937
 1963SOL    HW2 6789   0.959   1.710   1.789
 1964SOL     OW 6790   4.718   4.035   0.578
 1964SOL    HW1 6791   4.675   4.103   0.637
 1964SOL    HW2 6792   4.659   4.016   0.499
 1965SOL     OW 6793   1.493   3.382   4.678
 1965SOL    HW1 6794   1.407   3.341   4.707
 1965SOL    HW2 6795   1.514   3.461   4.737
 1966SOL     OW 6796   6.568   6.521   0.135
 1966SOL    HW1 6797   6.662   6.552   0.144
 1966SOL    HW2 6798   6.508   6.600   0.121
 1967SOL     OW 6799   5.652   2.593   5.717
 1967SOL    HW1 6800   5.662   2.602   5.816
 1967SOL    HW2 6801   5.569   2.541   5.697
 1968SOL     OW 6802   2.256   0.417   6.801
 1968SOL    HW1 6803   2.192   0.340   6.793
 1968SOL    HW2 6804   2.341   0.395   6.754
 1969SOL     OW 6805   1.117   1.702   2.092
 1969SOL    HW1 6806   1.028   1.703   2.138
 1969SOL    HW2 6807   1.167   1.620   2.120
 1970SOL     OW 6808   2.223   6.444   6.006
 1970SOL    HW1 6809   2.309   6.464   6.053
 1970SOL    HW2 6810   2.146   6.471   6.064
 1971SOL     OW 6811   6.940   0.444   5.823
 1971SOL    HW1 6812   6.954   0.372   5.755
 1971SOL    HW2 6813   0.009   0.472   5.859
 1972SOL     OW 6814   4.953   2.534   2.128
 1972SOL    HW1 6815   4.914   2.612   2.079
 1972SOL    HW2 6816   4.899   2.517   2.210
 1973SOL     OW 6817   3.091   2.505   0.358
 1973SOL    HW1 6818   3.095   2.525   0.260
 1973SOL    HW2 6819   2.996   2.505   0.389
 1974SOL     OW 6820   6.051   6.736   4.625
 1974SOL    HW1 6821   5.975   6.745   4.691
 1974SOL    HW2 6822   6.095   6.825   4.613
 1975SOL     OW 6823   2.037   1.622   3.741
 1975SOL    HW1 6824   2.039   1.674   3.655
 1975SOL    HW2 6825   2.119   1.641   3.794
 1976SOL     OW 6826   0.317   6.632   6.794
 1976SOL    HW1 6827   0.363   6.574   6.727
 1976SOL    HW2 6828   0.219   6.610   6.794
 1977SOL     OW 6829   0.788   3.469   4.710
 1977SOL    HW1 6830   0.854   3.525   4.661
 1977SOL    HW2 6831   0.816   3.459   4.806
 1978SOL     OW 6832   1.764   0.129   3.127
 1978SOL    HW1 6833   1.751   0.185   3.046
 1978SOL    HW2 6834   1.698   0.054   3.127
 1979SOL     OW 6835   6.357   4.244   6.249
 1979SOL    HW1 6836   6.330   4.153   6.218
 1979SOL    HW2 6837   6.436   4.275   6.196
 1980SOL     OW 6838   2.902   0.408   4.716
 1980SOL    HW1 6839   2.989   0.373   4.752
 1980SOL    HW2 6840   2.920   0.469   4.639
 1981SOL     OW 6841   6.345   2.068   2.614
 1981SOL    HW1 6842   6.384   2.137   2.553
 1981SOL    HW2 6843   6.417   2.007   2.647
 1982SOL     OW 6844   0.195   4.140   4.910
 1982SOL    HW1 6845   0.144   4.123   4.995
 1982SOL    HW2 6846   0.282   4.183   4.932
 1983SOL     OW 6847   0.454   1.523   2.984
 1983SOL    HW1 6848   0.528   1.525   3.051
 1983SOL    HW2 6849   0.408   1.612   2.984
 1984SOL     OW 6850   6.220   1.855   5.124
 1984SOL    HW1 6851   6.264   1.911   5.194
 1984SOL    HW2 6852   6.254   1.761   5.130
 1985SOL     OW 6853   1.388   6.400   2.317
 1985SOL    HW1 6854   1.298   6.420   2.277
 1985SOL    HW2 6855   1.375   6.353   2.404
 1986SOL     OW 6856   1.645   0.977   0.110
 1986SOL    HW1 6857   1.610   1.064   0.076
 1986SOL    HW2 6858   1.599   0.954   0.196
 1987SOL     OW 6859   2.146   2.570   2.230
 1987SOL    HW1 6860   2.140   2.549   2.328
 1987SOL    HW2 6861   2.058   2.602   2.197
 1988SOL     OW 6862   5.894   4.739   0.781
 1988SOL    HW1 6863   5.883   4.650   0.736
 1988SOL    HW2 6864   5.825   4.802   0.747
 1989SOL     OW 6865   2.752   5.481   4.389
 1989SOL    HW1 6866   2.742   5.570   4.345
 1989SOL    HW2 6867   2.662   5.438   4.398
 1990SOL     OW 6868   3.607   6.583   0.778
 1990SOL    HW1 6869   3.516   6.609   0.811
 1990SOL    HW2 6870   3.598   6.514   0.707
 1991SOL     OW 6871   3.821   4.663   6.706
 1991SOL    HW1 6872   3.788   4.580   6.660
 1991SOL    HW2 6873   3.888   4.709   6.648
 1992SOL     OW 6874   0.917   1.091   0.877
 1992SOL    HW1 6875   0.828   1.129   0.899
 1992SOL    HW2 6876   0.954   1.136   0.795
 1993SOL     OW 6877   3.685   2.845   5.070
 1993SOL    HW1 6878   3.646   2.875   4.983
 1993SOL    HW2 6879   3.649   2.756   5.095
 1994SOL     OW 6880   0.710   0.931   1.044
 1994SOL    HW1 6881   0.758   0.868   0.984
 1994SOL    HW2 6882   0.726   1.025   1.014
 1995SOL     OW 6883   4.997   2.444   3.378
 1995SOL    HW1 6884   5.087   2.401   3.386
 1995SOL    HW2 6885   4.962   2.464   3.469
 1996SOL     OW 6886   2.419   3.325   0.587
 1996SOL    HW1 6887   2.433   3.387   0.665
 1996SOL    HW2 6888   2.321   3.315   0.571
 1997SOL     OW 6889   4.173   1.236   4.525
 1997SOL    HW1 6890   4.084   1.282   4.527
 1997SOL    HW2 6891   4.244   1.299   4.559
 1998SOL     OW 6892   2.033   4.444   6.401
 1998SOL    HW1 6893   2.010   4.347   6.405
 1998SOL    HW2 6894   1.998   4.483   6.316
 1999SOL     OW 6895   2.720   6.878   0.633
 1999SOL    HW1 6896   2.670   6.826   0.703
 1999SOL    HW2 6897   2.656   6.937   0.584
 2000SOL     OW 6898   4.401   2.305   5.345
 2000SOL    HW1 6899   4.333   2.243   5.305
 2000SOL    HW2 6900   4.485   2.255   5.364
 2001SOL     OW 6901   3.101   1.208   1.842
 2001SOL    HW1 6902   3.024   1.243   1.896
 2001SOL    HW2 6903   3.077   1.209   1.745
 2002SOL     OW 6904   0.834   4.544   6.590
 2002SOL    HW1 6905   0.909   4.604   6.618
 2002SOL    HW2 6906   0.807   4.567   6.497
 2003SOL     OW 6907   6.297   5.911   2.263
 2003SOL    HW1 6908   6.381   5.906   2.317
 2003SOL    HW2 6909   6.220   5.875   2.317
 2004SOL     OW 6910   5.595   0.423   5.832
 2004SOL    HW1 6911   5.609   0.519   5.856
 2004SOL    HW2 6912   5.643   0.364   5.897
 2005SOL     OW 6913   1.170   4.666   0.612
 2005SOL    HW1 6914   1.105   4.647   0.539
 2005SOL    HW2 6915   1.174   4.765   0.629
 2006SOL     OW 6916   4.743   6.536   3.987
 2006SOL    HW1 6917   4.792   6.450   3.979
 2006SOL    HW2 6918   4.790   6.594   4.054
 2007SOL     OW 6919   3.948   4.570   0.826
 2007SOL    HW1 6920   3.984   4.489   0.780
 2007SOL    HW2 6921   3.876   4.611   0.770
 2008SOL     OW 6922   2.671   5.220   4.049
 2008SOL    HW1 6923   2.632   5.264   4.130
 2008SOL    HW2 6924   2.714   5.134   4.075
 2009SOL     OW 6925   5.886   1.190   2.586
 2009SOL    HW1 6926   5.809   1.206   2.525
 2009SOL    HW2 6927   5.928   1.101   2.564
 2010SOL     OW 6928   1.937   1.799   0.791
 2010SOL    HW1 6929   1.971   1.783   0.698
 2010SOL    HW2 6930   1.846   1.839   0.787
 2011SOL     OW 6931   6.885   6.913   4.718
 2011SOL    HW1 6932   6.959   6.906   4.652
 2011SOL    HW2 6933   6.922   6.935   4.808
 2012SOL     OW 6934   1.745   3.511   1.732
 2012SOL    HW1 6935   1.838   3.528   1.698
 2012SOL    HW2 6936   1.688   3.478   1.657
 2013SOL     OW 6937   6.204   2.233   3.647
 2013SOL    HW1 6938   6.249   2.174   3.715
 2013SOL    HW2 6939   6.208   2.328   3.678
 2014SOL     OW 6940   2.538   5.119   3.578
 2014SOL    HW1 6941   2.488   5.119   3.492
 2014SOL    HW2 6942   2.583   5.207   3.591
 2015SOL     OW 6943   2.132   0.636   6.864
 2015SOL    HW1 6944   2.145   0.675   6.955
 2015SOL    HW2 6945   2.181   0.549   6.858
 2016SOL     OW 6946   0.816   5.916   5.074
 2016SOL    HW1 6947   0.843   5.887   5.166
 2016SOL    HW2 6948   0.894   5.962   5.031
 2017SOL     OW 6949   2.987   6.994   4.366
 2017SOL    HW1 6950   3.015   6.904   4.332
 2017SOL    HW2 6951   2.893   6.989   4.399
 2018SOL     OW 6952   5.741   6.743   5.786
 2018SOL    HW1 6953   5.754   6.779   5.693
 2018SOL    HW2 6954   5.747   6.643   5.783
 2019SOL     OW 6955   5.591   2.975   0.037
 2019SOL    HW1 6956   5.507   2.995   7.007
 2019SOL    HW2 6957   5.576   2.990   0.135
 2020SOL     OW 6958   1.155   6.240   4.853
 2020SOL    HW1 6959   1.250   6.240   4.822
 2020SOL    HW2 6960   1.099   6.294   4.790
 2021SOL     OW 6961   1.291   6.069   3.898
 2021SOL    HW1 6962   1.243   6.113   3.974
 2021SOL    HW2 6963   1.225   6.030   3.834
 2022SOL     OW 6964   1.569   3.897   3.193
 2022SOL    HW1 6965   1.501   3.962   3.159
 2022SOL    HW2 6966   1.661   3.934   3.174
 2023SOL     OW 6967   6.319   0.901   6.414
 2023SOL    HW1 6968   6.255   0.846   6.361
 2023SOL    HW2 6969   6.330   0.990   6.372
 2024SOL     OW 6970   0.485   6.766   3.984
 2024SOL    HW1 6971   0.515   6.737   4.075
 2024SOL    HW2 6972   0.555   6.824   3.942
 2025SOL     OW 6973   2.749   1.879   3.302
 2025SOL    HW1 6974   2.846   1.864   3.320
 2025SOL    HW2 6975   2.733   1.872   3.203
 2026SOL     OW 6976   0.208   2.593   5.830
 2026SOL    HW1 6977   0.306   2.580   5.841
 2026SOL    HW2 6978   0.191   2.670   5.768
 2027SOL     OW 6979   0.703   0.817   0.415
 2027SOL    HW1 6980   0.739   0.899   0.460
 2027SOL    HW2 6981   0.711   0.739   0.477
 2028SOL     OW 6982   3.034   6.697   5.135
 2028SOL    HW1 6983   3.024   6.689   5.234
 2028SOL    HW2 6984   2.999   6.614   5.092
 2029SOL     OW 6985   6.607   0.641   0.603
 2029SOL    HW1 6986   6.670   0.602   0.672
 2029SOL    HW2 6987   6.581   0.733   0.631
 2030SOL     OW 6988   2.212   1.040   2.750
 2030SOL    HW1 6989   2.132   0.980   2.752
 2030SOL    HW2 6990   2.183   1.135   2.750
 2031SOL     OW 6991   6.405   5.606   0.944
 2031SOL    HW1 6992   6.471   5.621   0.870
 2031SOL    HW2 6993   6.363   5.516   0.933
 2032SOL     OW 6994   4.710   7.017   2.037
 2032SOL    HW1 6995   4.758   7.015   2.124
 2032SOL    HW2 6996   4.684   6.924   2.011
 2033SOL     OW 6997   3.290   4.240   6.451
 2033SOL    HW1 6998   3.274   4.148   6.415
 2033SOL    HW2 6999   3.389   4.255   6.458
 2034SOL     OW 7000   2.861   5.899   5.395
 2034SOL    HW1 7001   2.768   5.869   5.373
 2034SOL    HW2 7002   2.913   5.822   5.433
 2035SOL     OW 7003   0.060   0.494   3.232
 2035SOL    HW1 7004   0.127   0.473   3.303
 2035SOL    HW2 7005   6.992   0.453   3.256
 2036SOL     OW 7006   1.520   4.243   2.859
 2036SOL    HW1 7007   1.550   4.206   2.771
 2036SOL    HW2 7008   1.450   4.313   2.843
 2037SOL     OW 7009   6.266   2.789   5.553
 2037SOL    HW1 7010   6.254   2.692   5.533
 2037SOL    HW2 7011   6.363   2.811   5.558
 2038SOL     OW 7012   1.671   2.520   6.965
 2038SOL    HW1 7013   1.717   2.478   0.023
 2038SOL    HW2 7014   1.740   2.555   6.901
 2039SOL     OW 7015   0.439   5.352   3.697
 2039SOL    HW1 7016   0.455   5.306   3.610
 2039SOL    HW2 7017   0.514   5.332   3.760
 2040SOL     OW 7018   3.197   3.488   4.994
 2040SOL    HW1 7019   3.292   3.482   4.962
 2040SOL    HW2 7020   3.137   3.439   4.931
 2041SOL     OW 7021   0.712   6.140   6.027
 2041SOL    HW1 7022   0.749   6.186   5.947
 2041SOL    HW2 7023   0.673   6.052   6.000
 2042SOL     OW 7024   4.891   5.919   0.209
 2042SOL    HW1 7025   4.855   6.011   0.192
 2042SOL    HW2 7026   4.949   5.893   0.132
 2043SOL     OW 7027   0.079   3.663   3.665
 2043SOL    HW1 7028   0.064   3.571   3.703
 2043SOL    HW2 7029   0.034   3.730   3.724
 2044SOL     OW 7030   6.314   6.857   1.780
 2044SOL    HW1 7031   6.412   6.847   1.764
 2044SOL    HW2 7032   6.283   6.788   1.845
 2045SOL     OW 7033   2.336   5.095   3.902
 2045SOL    HW1 7034   2.379   5.021   3.851
 2045SOL    HW2 7035   2.379   5.102   3.993
 2046SOL     OW 7036   6.448   2.286   4.030
 2046SOL    HW1 7037   6.476   2.357   4.095
 2046SOL    HW2 7038   6.504   2.292   3.948
 2047SOL     OW 7039   6.708   2.301   6.737
 2047SOL    HW1 7040   6.752   2.386   6.711
 2047SOL    HW2 7041   6.765   2.252   6.803
 2048SOL     OW 7042   2.007   6.568   6.154
 2048SOL    HW1 7043   1.919   6.520   6.165
 2048SOL    HW2 7044   1.991   6.656   6.109
 2049SOL     OW 7045   5.980   1.489   5.114
 2049SOL    HW1 7046   5.997   1.523   5.207
 2049SOL    HW2 7047   6.067   1.471   5.068
 2050SOL     OW 7048   6.416   2.745   4.161
 2050SOL    HW1 7049   6.323   2.722   4.192
 2050SOL    HW2 7050   6.413   2.766   4.063
 2051SOL     OW 7051   1.081   5.213   0.597
 2051SOL    HW1 7052   1.170   5.237   0.561
 2051SOL    HW2 7053   1.010   5.238   0.531
 2052SOL     OW 7054   1.639   3.449   0.654
 2052SOL    HW1 7055   1.664   3.485   0.744
 2052SOL    HW2 7056   1.630   3.350   0.659
 2053SOL     OW 7057   5.744   6.781   4.474
 2053SOL    HW1 7058   5.728   6.841   4.396
 2053SOL    HW2 7059   5.778   6.835   4.551
 2054SOL     OW 7060   3.367   4.148   3.139
 2054SOL    HW1 7061   3.444   4.143   3.202
 2054SOL    HW2 7062   3.297   4.082   3.166
 2055SOL     OW 7063   6.176   3.334   3.078
 2055SOL    HW1 7064   6.118   3.414   3.093
 2055SOL    HW2 7065   6.144   3.285   2.997
 2056SOL     OW 7066   3.816   5.734   2.590
 2056SOL    HW1 7067   3.862   5.676   2.657
 2056SOL    HW2 7068   3.879   5.755   2.515
 2057SOL     OW 7069   5.519   3.974   5.305
 2057SOL    HW1 7070   5.563   3.898   5.352
 2057SOL    HW2 7071   5.514   4.053   5.367
 2058SOL     OW 7072   0.835   2.088   3.306
 2058SOL    HW1 7073   0.792   2.066   3.393
 2058SOL    HW2 7074   0.809   2.021   3.237
 2059SOL     OW 7075   1.843   5.866   6.465
 2059SOL    HW1 7076   1.806   5.956   6.491
 2059SOL    HW2 7077   1.888   5.825   6.543
 2060SOL     OW 7078   0.300   4.369   1.740
 2060SOL    HW1 7079   0.202   4.358   1.756
 2060SOL    HW2 7080   0.330   4.459   1.770
 2061SOL     OW 7081   1.171   2.039   3.481
 2061SOL    HW1 7082   1.135   2.114   3.537
 2061SOL    HW2 7083   1.185   2.070   3.387
 2062SOL     OW 7084   6.485   6.457   3.791
 2062SOL    HW1 7085   6.491   6.396   3.712
 2062SOL    HW2 7086   6.403   6.434   3.844
 2063SOL     OW 7087   1.895   6.681   6.591
 2063SOL    HW1 7088   1.863   6.719   6.504
 2063SOL    HW2 7089   1.953   6.749   6.637
 2064SOL     OW 7090   1.164   2.645   5.247
 2064SOL    HW1 7091   1.253   2.634   5.290
 2064SOL    HW2 7092   1.092   2.641   5.317
 2065SOL     OW 7093   6.319   2.416   4.990
 2065SOL    HW1 7094   6.334   2.354   4.913
 2065SOL    HW2 7095   6.391   2.485   4.993
 2066SOL     OW 7096   0.295   4.630   4.202
 2066SOL    HW1 7097   0.288   4.702   4.271
 2066SOL    HW2 7098   0.244   4.550   4.232
 2067SOL     OW 7099   6.509   4.949   1.002
 2067SOL    HW1 7100   6.440   4.879   0.987
 2067SOL    HW2 7101   6.474   5.018   1.065
 2068SOL     OW 7102   2.315   0.491   4.598
 2068SOL    HW1 7103   2.283   0.417   4.657
 2068SOL    HW2 7104   2.414   0.501   4.608
 2069SOL     OW 7105   0.261   2.439   3.909
 2069SOL    HW1 7106   0.258   2.536   3.884
 2069SOL    HW2 7107   0.214   2.385   3.840
 2070SOL     OW 7108   0.493   1.227   1.694
 2070SOL    HW1 7109   0.401   1.239   1.732
 2070SOL    HW2 7110   0.493   1.247   1.596
 2071SOL     OW 7111   6.540   6.901   6.015
 2071SOL    HW1 7112   6.508   6.850   5.935
 2071SOL    HW2 7113   6.462   6.943   6.061
 2072SOL     OW 7114   4.435   6.300   4.303
 2072SOL    HW1 7115   4.485   6.214   4.299
 2072SOL    HW2 7116   4.409   6.319   4.398
 2073SOL     OW 7117   3.962   0.172   5.184
 2073SOL    HW1 7118   3.989   0.223   5.103
 2073SOL    HW2 7119   4.034   0.177   5.253
 2074SOL     OW 7120   1.917   2.584   6.815
 2074SOL    HW1 7121   1.875   2.674   6.827
 2074SOL    HW2 7122   1.931   2.566   6.717
 2075SOL     OW 7123   6.891   2.958   2.585
 2075SOL    HW1 7124   6.977   2.953   2.636
 2075SOL    HW2 7125   6.819   2.914   2.638
 2076SOL     OW 7126   6.294   0.154   6.458
 2076SOL    HW1 7127   6.377   0.197   6.424
 2076SOL    HW2 7128   6.215   0.194   6.413
 2077SOL     OW 7129   5.882   2.811   3.260
 2077SOL    HW1 7130   5.962   2.842   3.209
 2077SOL    HW2 7131   5.815   2.772   3.197
 2078SOL     OW 7132   1.350   5.966   6.226
 2078SOL    HW1 7133   1.333   6.063   6.207
 2078SOL    HW2 7134   1.392   5.957   6.317
 2079SOL     OW 7135   5.264   2.379   3.430
 2079SOL    HW1 7136   5.355   2.355   3.465
 2079SOL    HW2 7137   5.247   2.477   3.446
 2080SOL     OW 7138   1.587   6.865   4.493
 2080SOL    HW1 7139   1.619   6.904   4.407
 2080SOL    HW2 7140   1.626   6.773   4.504
 2081SOL     OW 7141   1.208   5.268   4.387
 2081SOL    HW1 7142   1.268   5.194   4.358
 2081SOL    HW2 7143   1.242   5.355   4.351
 2082SOL     OW 7144   0.405   0.102   2.848
 2082SOL    HW1 7145   0.381   0.182   2.903
 2082SOL    HW2 7146   0.478   0.051   2.893
 2083SOL     OW 7147   6.484   4.893   5.551
 2083SOL    HW1 7148   6.500   4.864   5.645
 2083SOL    HW2 7149   6.437   4.821   5.501
 2084SOL     OW 7150   0.699   4.601   3.207
 2084SOL    HW1 7151   0.659   4.580   3.296
 2084SOL    HW2 7152   0.635   4.576   3.134
 2085SOL     OW 7153   4.873   0.305   0.239
 2085SOL    HW1 7154   4.893   0.304   0.141
 2085SOL    HW2 7155   4.955   0.328   0.290
 2086SOL     OW 7156   4.228   6.300   5.953
 2086SOL    HW1 7157   4.312   6.248   5.936
 2086SOL    HW2 7158   4.249   6.379   6.010
 2087SOL     OW 7159   4.869   0.643   1.742
 2087SOL    HW1 7160   4.855   0.552   1.703
 2087SOL    HW2 7161   4.795   0.664   1.806
 2088SOL     OW 7162   1.824   6.016   0.478
 2088SOL    HW1 7163   1.905   6.017   0.536
 2088SOL    HW2 7164   1.755   5.955   0.517
 2089SOL     OW 7165   5.286   2.336   6.559
 2089SOL    HW1 7166   5.283   2.257   6.497
 2089SOL    HW2 7167   5.212   2.399   6.536
 2090SOL     OW 7168   4.391   3.562   5.537
 2090SOL    HW1 7169   4.340   3.643   5.567
 2090SOL    HW2 7170   4.394   3.559   5.437
 2091SOL     OW 7171   0.270   5.527   0.885
 2091SOL    HW1 7172   0.240   5.619   0.910
 2091SOL    HW2 7173   0.214   5.460   0.933
 2092SOL     OW 7174   4.499   3.872   7.006
 2092SOL    HW1 7175   4.533   3.944   6.946
 2092SOL    HW2 7176   4.541   3.785   6.980
 2093SOL     OW 7177   3.076   2.117   1.152
 2093SOL    HW1 7178   3.148   2.058   1.115
 2093SOL    HW2 7179   3.045   2.079   1.240
 2094SOL     OW 7180   5.955   1.679   3.273
 2094SOL    HW1 7181   5.922   1.702   3.181
 2094SOL    HW2 7182   5.880   1.688   3.338
 2095SOL     OW 7183   5.792   6.814   5.519
 2095SOL    HW1 7184   5.892   6.810   5.524
 2095SOL    HW2 7185   5.762   6.910   5.515
 2096SOL     OW 7186   4.829   4.263   3.201
 2096SOL    HW1 7187   4.813   4.184   3.141
 2096SOL    HW2 7188   4.818   4.347   3.148
 2097SOL     OW 7189   2.402   3.408   6.621
 2097SOL    HW1 7190   2.374   3.317   6.593
 2097SOL    HW2 7191   2.452   3.403   6.708
 2098SOL     OW 7192   3.613   6.007   1.921
 2098SOL    HW1 7193   3.680   5.940   1.890
 2098SOL    HW2 7194   3.521   5.968   1.915
 2099SOL     OW 7195   3.483   2.912   6.408
 2099SOL    HW1 7196   3.443   2.968   6.335
 2099SOL    HW2 7197   3.581   2.903   6.394
 2100SOL     OW 7198   5.418   2.373   6.829
 2100SOL    HW1 7199   5.357   2.339   6.758
 2100SOL    HW2 7200   5.513   2.362   6.798
 2101SOL     OW 7201   1.174   0.040   1.589
 2101SOL    HW1 7202   1.112   0.117   1.576
 2101SOL    HW2 7203   1.242   0.040   1.516
 2102SOL     OW 7204   5.340   5.022   2.755
 2102SOL    HW1 7205   5.426   4.971   2.745
 2102SOL    HW2 7206   5.348   5.085   2.833
 2103SOL     OW 7207   3.085   3.679   6.321
 2103SOL    HW1 7208   3.151   3.636   6.383
 2103SOL    HW2 7209   3.003   3.704   6.373
 2104SOL     OW 7210   1.928   4.567   1.381
 2104SOL    HW1 7211   1.833   4.598   1.384
 2104SOL    HW2 7212   1.976   4.601   1.462
 2105SOL     OW 7213   5.390   4.908   4.976
 2105SOL    HW1 7214   5.372   4.967   5.055
 2105SOL    HW2 7215   5.489   4.892   4.969
 2106SOL     OW 7216   5.082   3.733   0.929
 2106SOL    HW1 7217   5.136   3.662   0.885
 2106SOL    HW2 7218   5.110   3.823   0.894
 2107SOL     OW 7219   6.054   2.544   4.988
 2107SOL    HW1 7220   6.136   2.489   4.999
 2107SOL    HW2 7221   5.973   2.485   4.995
 2108SOL     OW 7222   6.493   6.144   4.662
 2108SOL    HW1 7223   6.591   6.138   4.640
 2108SOL    HW2 7224   6.450   6.056   4.642
 2109SOL     OW 7225   4.622   5.782   2.126
 2109SOL    HW1 7226   4.548   5.820   2.181
 2109SOL    HW2 7227   4.614   5.683   2.122
 2110SOL     OW 7228   2.538   1.774   0.321
 2110SOL    HW1 7229   2.559   1.744   0.414
 2110SOL    HW2 7230   2.605   1.734   0.257
 2111SOL     OW 7231   1.951   2.832   6.396
 2111SOL    HW1 7232   2.023   2.792   6.453
 2111SOL    HW2 7233   1.984   2.919   6.358
 2112SOL     OW 7234   5.270   2.993   0.632
 2112SOL    HW1 7235   5.231   2.955   0.716
 2112SOL    HW2 7236   5.206   2.980   0.557
 2113SOL     OW 7237   2.581   2.010   4.550
 2113SOL    HW1 7238   2.530   2.093   4.527
 2113SOL    HW2 7239   2.651   2.032   4.618
 2114SOL     OW 7240   2.168   1.753   6.640
 2114SOL    HW1 7241   2.211   1.838   6.611
 2114SOL    HW2 7242   2.081   1.773   6.684
 2115SOL     OW 7243   1.144   4.435   3.207
 2115SOL    HW1 7244   1.188   4.524   3.195
 2115SOL    HW2 7245   1.088   4.437   3.290
 2116SOL     OW 7246   0.615   4.713   2.843
 2116SOL    HW1 7247   0.576   4.657   2.917
 2116SOL    HW2 7248   0.591   4.809   2.857
 2117SOL     OW 7249   6.858   4.740   1.995
 2117SOL    HW1 7250   6.793   4.686   2.047
 2117SOL    HW2 7251   6.848   4.837   2.018
 2118SOL     OW 7252   6.263   2.612   2.957
 2118SOL    HW1 7253   6.200   2.552   2.908
 2118SOL    HW2 7254   6.315   2.667   2.892
 2119SOL     OW 7255   1.320   0.559   0.948
 2119SOL    HW1 7256   1.390   0.543   1.018
 2119SOL    HW2 7257   1.312   0.477   0.891
 2120SOL     OW 7258   0.356   4.613   3.920
 2120SOL    HW1 7259   0.439   4.669   3.918
 2120SOL    HW2 7260   0.313   4.620   4.010
 2121SOL     OW 7261   1.542   3.556   6.213
 2121SOL    HW1 7262   1.596   3.530   6.133
 2121SOL    HW2 7263   1.557   3.489   6.286
 2122SOL     OW 7264   5.675   4.586   5.921
 2122SOL    HW1 7265   5.597   4.641   5.893
 2122SOL    HW2 7266   5.740   4.580   5.846
 2123SOL     OW 7267   6.659   5.187   2.119
 2123SOL    HW1 7268   6.605   5.150   2.195
 2123SOL    HW2 7269   6.647   5.286   2.114
 2124SOL     OW 7270   3.226   2.266   0.937
 2124SOL    HW1 7271   3.211   2.191   1.002
 2124SOL    HW2 7272   3.171   2.344   0.964
 2125SOL     OW 7273   1.957   0.558   2.495
 2125SOL    HW1 7274   1.875   0.531   2.545
 2125SOL    HW2 7275   1.931   0.607   2.412
 2126SOL     OW 7276   4.094   2.543   6.685
 2126SOL    HW1 7277   4.097   2.642   6.669
 2126SOL    HW2 7278   4.180   2.502   6.653
 2127SOL     OW 7279   1.163   2.131   5.261
 2127SOL    HW1 7280   1.231   2.201   5.286
 2127SOL    HW2 7281   1.189   2.091   5.173
 2128SOL     OW 7282   6.535   3.650   4.030
 2128SOL    HW1 7283   6.591   3.567   4.032
 2128SOL    HW2 7284   6.544   3.697   4.117
 2129SOL     OW 7285   4.765   3.072   5.281
 2129SOL    HW1 7286   4.781   3.170   5.284
 2129SOL    HW2 7287   4.675   3.052   5.320
 2130SOL     OW 7288   3.593   0.604   2.771
 2130SOL    HW1 7289   3.538   0.619   2.688
 2130SOL    HW2 7290   3.558   0.662   2.844
 2131SOL     OW 7291   4.621   1.404   6.890
 2131SOL    HW1 7292   4.560   1.375   6.964
 2131SOL    HW2 7293   4.589   1.491   6.852
 2132SOL     OW 7294   4.116   0.664   0.890
 2132SOL    HW1 7295   4.051   0.595   0.855
 2132SOL    HW2 7296   4.153   0.717   0.814
 2133SOL     OW 7297   3.392   3.485   1.147
 2133SOL    HW1 7298   3.460   3.477   1.074
 2133SOL    HW2 7299   3.345   3.572   1.140
 2134SOL     OW 7300   1.045   0.510   5.615
 2134SOL    HW1 7301   0.981   0.584   5.591
 2134SOL    HW2 7302   1.091   0.478   5.533
 2135SOL     OW 7303   1.542   3.209   5.114
 2135SOL    HW1 7304   1.571   3.142   5.046
 2135SOL    HW2 7305   1.464   3.261   5.077
 2136SOL     OW 7306   0.618   4.256   4.561
 2136SOL    HW1 7307   0.550   4.183   4.561
 2136SOL    HW2 7308   0.673   4.251   4.644
 2137SOL     OW 7309   0.589   5.682   4.306
 2137SOL    HW1 7310   0.642   5.636   4.235
 2137SOL    HW2 7311   0.632   5.666   4.395
 2138SOL     OW 7312   6.925   0.966   2.478
 2138SOL    HW1 7313   6.906   1.063   2.495
 2138SOL    HW2 7314   6.996   0.958   2.408
 2139SOL     OW 7315   3.333   1.156   2.538
 2139SOL    HW1 7316   3.334   1.078   2.475
 2139SOL    HW2 7317   3.402   1.141   2.609
 2140SOL     OW 7318   3.898   6.311   4.228
 2140SOL    HW1 7319   3.908   6.386   4.293
 2140SOL    HW2 7320   3.846   6.342   4.148
 2141SOL     OW 7321   6.094   4.449   1.867
 2141SOL    HW1 7322   6.174   4.443   1.926
 2141SOL    HW2 7323   6.123   4.451   1.772
 2142SOL     OW 7324   1.354   2.018   3.164
 2142SOL    HW1 7325   1.385   2.063   3.080
 2142SOL    HW2 7326   1.422   2.032   3.236
 2143SOL     OW 7327   3.079   4.245   1.359
 2143SOL    HW1 7328   3.131   4.266   1.276
 2143SOL    HW2 7329   3.081   4.147   1.376
 2144SOL     OW 7330   1.294   5.665   3.994
 2144SOL    HW1 7331   1.258   5.576   4.021
 2144SOL    HW2 7332   1.380   5.682   4.043
 2145SOL     OW 7333   4.579   5.965   4.160
 2145SOL    HW1 7334   4.494   5.990   4.113
 2145SOL    HW2 7335   4.657   5.995   4.105
 2146SOL     OW 7336   2.559   3.830   0.934
 2146SOL    HW1 7337   2.651   3.799   0.955
 2146SOL    HW2 7338   2.493   3.763   0.968
 2147SOL     OW 7339   6.801   1.409   6.073
 2147SOL    HW1 7340   6.809   1.508   6.084
 2147SOL    HW2 7341   6.716   1.377   6.116
 2148SOL     OW 7342   5.157   2.375   5.088
 2148SOL    HW1 7343   5.224   2.316   5.043
 2148SOL    HW2 7344   5.189   2.470   5.084
 2149SOL     OW 7345   3.407   2.513   1.243
 2149SOL    HW1 7346   3.310   2.493   1.254
 2149SOL    HW2 7347   3.422   2.612   1.248
 2150SOL     OW 7348   3.022   1.920   2.531
 2150SOL    HW1 7349   2.923   1.933   2.526
 2150SOL    HW2 7350   3.067   2.008   2.551
 2151SOL     OW 7351   1.837   1.019   5.271
 2151SOL    HW1 7352   1.817   0.985   5.363
 2151SOL    HW2 7353   1.754   1.015   5.215
 2152SOL     OW 7354   3.978   6.021   1.551
 2152SOL    HW1 7355   4.060   6.039   1.606
 2152SOL    HW2 7356   3.993   5.942   1.492
 2153SOL     OW 7357   3.504   0.759   2.983
 2153SOL    HW1 7358   3.579   0.783   3.044
 2153SOL    HW2 7359   3.455   0.841   2.956
 2154SOL     OW 7360   4.852   0.239   4.942
 2154SOL    HW1 7361   4.928   0.223   4.880
 2154SOL    HW2 7362   4.847   0.164   5.009
 2155SOL     OW 7363   1.909   5.885   0.216
 2155SOL    HW1 7364   1.881   5.917   0.306
 2155SOL    HW2 7365   1.828   5.877   0.157
 2156SOL     OW 7366   2.866   0.844   4.498
 2156SOL    HW1 7367   2.845   0.934   4.536
 2156SOL    HW2 7368   2.822   0.835   4.408
 2157SOL     OW 7369   6.207   1.315   3.471
 2157SOL    HW1 7370   6.226   1.351   3.379
 2157SOL    HW2 7371   6.148   1.378   3.520
 2158SOL     OW 7372   4.097   6.397   0.792
 2158SOL    HW1 7373   4.050   6.411   0.879
 2158SOL    HW2 7374   4.189   6.436   0.797
 2159SOL     OW 7375   1.911   6.288   5.661
 2159SOL    HW1 7376   1.831   6.231   5.639
 2159SOL    HW2 7377   1.895   6.381   5.627
 2160SOL     OW 7378   4.466   4.039   0.929
 2160SOL    HW1 7379   4.519   4.123   0.917
 2160SOL    HW2 7380   4.528   3.962   0.941
 2161SOL     OW 7381   5.107   4.232   3.181
 2161SOL    HW1 7382   5.011   4.243   3.208
 2161SOL    HW2 7383   5.112   4.169   3.103
 2162SOL     OW 7384   2.830   0.849   0.946
 2162SOL    HW1 7385   2.750   0.900   0.915
 2162SOL    HW2 7386   2.863   0.887   1.033
 2163SOL     OW 7387   0.338   4.133   6.579
 2163SOL    HW1 7388   0.384   4.187   6.649
 2163SOL    HW2 7389   0.254   4.180   6.551
 2164SOL     OW 7390   1.439   2.871   6.797
 2164SOL    HW1 7391   1.428   2.778   6.764
 2164SOL    HW2 7392   1.474   2.870   6.891
 2165SOL     OW 7393   0.539   2.258   2.994
 2165SOL    HW1 7394   0.620   2.282   3.049
 2165SOL    HW2 7395   0.456   2.286   3.042
 2166SOL     OW 7396   1.332   2.307   4.961
 2166SOL    HW1 7397   1.359   2.308   4.864
 2166SOL    HW2 7398   1.289   2.394   4.984
 2167SOL     OW 7399   1.700   1.246   4.080
 2167SOL    HW1 7400   1.796   1.226   4.098
 2167SOL    HW2 7401   1.694   1.318   4.010
 2168SOL     OW 7402   0.910   1.756   3.708
 2168SOL    HW1 7403   0.844   1.789   3.776
 2168SOL    HW2 7404   0.886   1.663   3.681
 2169SOL     OW 7405   5.681   2.199   5.689
 2169SOL    HW1 7406   5.711   2.105   5.673
 2169SOL    HW2 7407   5.679   2.217   5.788
 2170SOL     OW 7408   6.308   5.520   5.323
 2170SOL    HW1 7409   6.281   5.425   5.307
 2170SOL    HW2 7410   6.397   5.522   5.370
 2171SOL     OW 7411   0.165   3.835   1.690
 2171SOL    HW1 7412   0.194   3.762   1.751
 2171SOL    HW2 7413   0.241   3.862   1.631
 2172SOL     OW 7414   2.682   2.333   0.535
 2172SOL    HW1 7415   2.646   2.301   0.447
 2172SOL    HW2 7416   2.654   2.269   0.607
 2173SOL     OW 7417   3.991   0.332   4.953
 2173SOL    HW1 7418   3.904   0.381   4.962
 2173SOL    HW2 7419   4.033   0.355   4.865
 2174SOL     OW 7420   5.496   5.330   5.169
 2174SOL    HW1 7421   5.546   5.244   5.168
 2174SOL    HW2 7422   5.560   5.406   5.171
 2175SOL     OW 7423   2.415   2.196   4.392
 2175SOL    HW1 7424   2.444   2.184   4.297
 2175SOL    HW2 7425   2.455   2.280   4.428
 2176SOL     OW 7426   0.722   2.862   6.818
 2176SOL    HW1 7427   0.679   2.937   6.769
 2176SOL    HW2 7428   0.785   2.814   6.757
 2177SOL     OW 7429   6.140   1.530   3.751
 2177SOL    HW1 7430   6.084   1.447   3.759
 2177SOL    HW2 7431   6.206   1.533   3.826
 2178SOL     OW 7432   1.055   3.339   0.196
 2178SOL    HW1 7433   1.043   3.371   0.102
 2178SOL    HW2 7434   0.998   3.393   0.257
 2179SOL     OW 7435   1.730   5.344   4.620
 2179SOL    HW1 7436   1.782   5.429   4.630
 2179SOL    HW2 7437   1.785   5.276   4.572
 2180SOL     OW 7438   2.322   2.740   1.701
 2180SOL    HW1 7439   2.244   2.728   1.639
 2180SOL    HW2 7440   2.364   2.829   1.685
 2181SOL     OW 7441   4.775   4.595   5.501
 2181SOL    HW1 7442   4.717   4.614   5.422
 2181SOL    HW2 7443   4.832   4.514   5.482
 2182SOL     OW 7444   0.506   3.373   4.486
 2182SOL    HW1 7445   0.532   3.363   4.582
 2182SOL    HW2 7446   0.581   3.340   4.428
 2183SOL     OW 7447   3.125   4.220   5.613
 2183SOL    HW1 7448   3.057   4.168   5.666
 2183SOL    HW2 7449   3.091   4.313   5.598
 2184SOL     OW 7450   4.875   1.791   6.641
 2184SOL    HW1 7451   4.831   1.703   6.659
 2184SOL    HW2 7452   4.815   1.848   6.584
 2185SOL     OW 7453   1.548   2.170   0.648
 2185SOL    HW1 7454   1.569   2.142   0.555
 2185SOL    HW2 7455   1.451   2.153   0.667
 2186SOL     OW 7456   0.398   5.430   2.365
 2186SOL    HW1 7457   0.346   5.499   2.315
 2186SOL    HW2 7458   0.338   5.384   2.431
 2187SOL     OW 7459   6.542   1.772   2.178
 2187SOL    HW1 7460   6.513   1.812   2.091
 2187SOL    HW2 7461   6.507   1.679   2.185
 2188SOL     OW 7462   5.759   6.129   4.277
 2188SOL    HW1 7463   5.718   6.220   4.283
 2188SOL    HW2 7464   5.729   6.085   4.193
 2189SOL     OW 7465   1.742   6.990   0.271
 2189SOL    HW1 7466   1.772   7.011   0.364
 2189SOL    HW2 7467   1.814   7.014   0.206
 2190SOL     OW 7468   0.526   2.773   1.725
 2190SOL    HW1 7469   0.540   2.842   1.796
 2190SOL    HW2 7470   0.439   2.726   1.740
 2191SOL     OW 7471   3.230   1.900   6.442
 2191SOL    HW1 7472   3.219   1.828   6.510
 2191SOL    HW2 7473   3.164   1.973   6.459
 2192SOL     OW 7474   3.909   0.746   3.033
 2192SOL    HW1 7475   3.912   0.742   2.933
 2192SOL    HW2 7476   3.827   0.795   3.062
 2193SOL     OW 7477   6.629   5.728   5.771
 2193SOL    HW1 7478   6.649   5.748   5.675
 2193SOL    HW2 7479   6.709   5.685   5.813
 2194SOL     OW 7480   2.047   4.913   6.451
 2194SOL    HW1 7481   2.016   4.843   6.515
 2194SOL    HW2 7482   2.013   4.892   6.359
 2195SOL     OW 7483   6.924   0.477   3.621
 2195SOL    HW1 7484   6.912   0.444   3.528
 2195SOL    HW2 7485   7.001   0.540   3.624
 2196SOL     OW 7486   3.378   0.392   5.117
 2196SOL    HW1 7487   3.314   0.316   5.111
 2196SOL    HW2 7488   3.434   0.396   5.034
 2197SOL     OW 7489   3.078   3.444   1.008
 2197SOL    HW1 7490   3.111   3.352   0.990
 2197SOL    HW2 7491   3.045   3.449   1.103
 2198SOL     OW 7492   6.785   1.176   0.212
 2198SOL    HW1 7493   6.713   1.218   0.156
 2198SOL    HW2 7494   6.786   1.218   0.302
 2199SOL     OW 7495   5.169   1.283   3.044
 2199SOL    HW1 7496   5.233   1.319   2.976
 2199SOL    HW2 7497   5.180   1.334   3.130
 2200SOL     OW 7498   3.325   0.282   4.704
 2200SOL    HW1 7499   3.248   0.333   4.744
 2200SOL    HW2 7500   3.315   0.185   4.726
 2201SOL     OW 7501   6.197   2.229   3.191
 2201SOL    HW1 7502   6.170   2.324   3.207
 2201SOL    HW2 7503   6.177   2.205   3.096
 2202SOL     OW 7504   2.966   4.795   2.733
 2202SOL    HW1 7505   2.932   4.888   2.718
 2202SOL    HW2 7506   2.943   4.766   2.826
 2203SOL     OW 7507   2.259   2.756   1.230
 2203SOL    HW1 7508   2.345   2.707   1.219
 2203SOL    HW2 7509   2.215   2.766   1.141
 2204SOL     OW 7510   4.301   1.074   6.846
 2204SOL    HW1 7511   4.211   1.068   6.889
 2204SOL    HW2 7512   4.352   0.990   6.861
 2205SOL     OW 7513   1.504   6.795   6.022
 2205SOL    HW1 7514   1.503   6.895   6.034
 2205SOL    HW2 7515   1.595   6.760   6.043
 2206SOL     OW 7516   2.265   4.341   6.251
 2206SOL    HW1 7517   2.309   4.430   6.240
 2206SOL    HW2 7518   2.187   4.349   6.313
 2207SOL     OW 7519   3.137   3.726   6.763
 2207SOL    HW1 7520   3.094   3.816   6.773
 2207SOL    HW2 7521   3.066   3.657   6.750
 2208SOL     OW 7522   1.451   6.285   2.584
 2208SOL    HW1 7523   1.530   6.253   2.636
 2208SOL    HW2 7524   1.380   6.318   2.646
 2209SOL     OW 7525   1.384   5.984   5.941
 2209SOL    HW1 7526   1.391   5.990   6.040
 2209SOL    HW2 7527   1.318   5.913   5.917
 2210SOL     OW 7528   6.865   5.042   4.093
 2210SOL    HW1 7529   6.933   5.115   4.101
 2210SOL    HW2 7530   6.836   5.013   4.184
 2211SOL     OW 7531   5.456   0.389   0.103
 2211SOL    HW1 7532   5.511   0.430   0.030
 2211SOL    HW2 7533   5.466   0.444   0.186
 2212SOL     OW 7534   2.026   6.190   6.981
 2212SOL    HW1 7535   2.060   6.239   6.901
 2212SOL    HW2 7536   1.939   6.146   6.959
 2213SOL     OW 7537   3.929   2.767   5.309
 2213SOL    HW1 7538   3.989   2.709   5.254
 2213SOL    HW2 7539   3.835   2.759   5.277
 2214SOL     OW 7540   3.910   2.771   5.792
 2214SOL    HW1 7541   3.958   2.758   5.705
 2214SOL    HW2 7542   3.974   2.753   5.867
 2215SOL     OW 7543   6.611   1.645   6.779
 2215SOL    HW1 7544   6.582   1.733   6.743
 2215SOL    HW2 7545   6.657   1.659   6.867
 2216SOL     OW 7546   1.568   0.277   5.956
 2216SOL    HW1 7547   1.523   0.335   6.023
 2216SOL    HW2 7548   1.552   0.181   5.978
 2217SOL     OW 7549   4.051   6.740   1.496
 2217SOL    HW1 7550   4.075   6.659   1.549
 2217SOL    HW2 7551   4.129   6.766   1.439
 2218SOL     OW 7552   0.329   6.724   0.781
 2218SOL    HW1 7553   0.304   6.818   0.761
 2218SOL    HW2 7554   0.247   6.673   0.809
 2219SOL     OW 7555   6.487   2.545   2.031
 2219SOL    HW1 7556   6.505   2.533   1.934
 2219SOL    HW2 7557   6.503   2.458   2.079
 2220SOL     OW 7558   0.894   0.371   3.947
 2220SOL    HW1 7559   0.833   0.397   4.021
 2220SOL    HW2 7560   0.918   0.453   3.894
 2221SOL     OW 7561   6.070   0.981   5.160
 2221SOL    HW1 7562   6.160   1.017   5.135
 2221SOL    HW2 7563   6.008   1.058   5.178
 2222SOL     OW 7564   4.416   0.398   0.674
 2222SOL    HW1 7565   4.432   0.334   0.599
 2222SOL    HW2 7566   4.492   0.394   0.739
 2223SOL     OW 7567   6.063   0.531   3.855
 2223SOL    HW1 7568   6.044   0.541   3.953
 2223SOL    HW2 7569   5.991   0.477   3.812
 2224SOL     OW 7570   1.939   4.309   1.242
 2224SOL    HW1 7571   1.922   4.368   1.322
 2224SOL    HW2 7572   1.935   4.213   1.270
 2225SOL     OW 7573   6.343   6.050   2.734
 2225SOL    HW1 7574   6.373   6.082   2.825
 2225SOL    HW2 7575   6.400   5.974   2.706
 2226SOL     OW 7576   3.861   5.376   0.688
 2226SOL    HW1 7577   3.802   5.398   0.766
 2226SOL    HW2 7578   3.903   5.460   0.654
 2227SOL     OW 7579   5.446   4.035   0.262
 2227SOL    HW1 7580   5.536   4.076   0.274
 2227SOL    HW2 7581   5.453   3.936   0.273
 2228SOL     OW 7582   2.776   5.203   1.257
 2228SOL    HW1 7583   2.676   5.197   1.265
 2228SOL    HW2 7584   2.817   5.194   1.348
 2229SOL     OW 7585   3.968   1.564   4.601
 2229SOL    HW1 7586   3.920   1.477   4.587
 2229SOL    HW2 7587   3.912   1.624   4.658
 2230SOL     OW 7588   6.177   5.637   5.530
 2230SOL    HW1 7589   6.128   5.723   5.537
 2230SOL    HW2 7590   6.242   5.642   5.454
 2231SOL     OW 7591   0.392   0.969   1.938
 2231SOL    HW1 7592   0.471   1.017   1.974
 2231SOL    HW2 7593   0.364   0.897   2.003
 2232SOL     OW 7594   0.681   3.272   4.304
 2232SOL    HW1 7595   0.657   3.324   4.222
 2232SOL    HW2 7596   0.716   3.182   4.278
 2233SOL     OW 7597   2.513   4.412   1.332
 2233SOL    HW1 7598   2.513   4.337   1.266
 2233SOL    HW2 7599   2.422   4.421   1.372
 2234SOL     OW 7600   4.157   1.921   1.959
 2234SOL    HW1 7601   4.148   1.823   1.979
 2234SOL    HW2 7602   4.066   1.963   1.956
 2235SOL     OW 7603   2.036   0.866   1.089
 2235SOL    HW1 7604   2.010   0.866   0.992
 2235SOL    HW2 7605   1.953   0.863   1.146
 2236SOL     OW 7606   0.729   4.026   6.557
 2236SOL    HW1 7607   0.645   3.986   6.521
 2236SOL    HW2 7608   0.770   3.964   6.624
 2237SOL     OW 7609   5.463   4.820   3.638
 2237SOL    HW1 7610   5.505   4.891   3.695
 2237SOL    HW2 7611   5.375   4.853   3.604
 2238SOL     OW 7612   5.267   4.900   1.918
 2238SOL    HW1 7613   5.209   4.973   1.954
 2238SOL    HW2 7614   5.329   4.938   1.848
 2239SOL     OW 7615   3.344   5.066   3.287
 2239SOL    HW1 7616   3.320   5.159   3.258
 2239SOL    HW2 7617   3.311   5.051   3.380
 2240SOL     OW 7618   5.192   6.087   3.922
 2240SOL    HW1 7619   5.135   6.026   3.977
 2240SOL    HW2 7620   5.279   6.041   3.903
 2241SOL     OW 7621   0.373   0.235   2.618
 2241SOL    HW1 7622   0.397   0.186   2.702
 2241SOL    HW2 7623   0.279   0.212   2.592
 2242SOL     OW 7624   4.851   2.203   2.891
 2242SOL    HW1 7625   4.876   2.149   2.971
 2242SOL    HW2 7626   4.815   2.143   2.820
 2243SOL     OW 7627   2.782   6.525   5.487
 2243SOL    HW1 7628   2.807   6.452   5.423
 2243SOL    HW2 7629   2.811   6.500   5.580
 2244SOL     OW 7630   2.226   0.079   1.929
 2244SOL    HW1 7631   2.215   7.015   1.983
 2244SOL    HW2 7632   2.248   0.155   1.990
 2245SOL     OW 7633   0.472   2.031   2.374
 2245SOL    HW1 7634   0.378   1.998   2.367
 2245SOL    HW2 7635   0.535   1.962   2.338
 2246SOL     OW 7636   1.004   1.037   6.024
 2246SOL    HW1 7637   1.058   0.959   5.991
 2246SOL    HW2 7638   0.971   1.090   5.946
 2247SOL     OW 7639   2.955   2.938   5.547
 2247SOL    HW1 7640   2.910   3.003   5.607
 2247SOL    HW2 7641   3.032   2.981   5.501
 2248SOL     OW 7642   3.861   4.004   6.336
 2248SOL    HW1 7643   3.765   3.977   6.346
 2248SOL    HW2 7644   3.876   4.090   6.385
 2249SOL     OW 7645   6.146   6.471   2.481
 2249SOL    HW1 7646   6.178   6.379   2.506
 2249SOL    HW2 7647   6.046   6.469   2.472
 2250SOL     OW 7648   4.328   3.761   0.178
 2250SOL    HW1 7649   4.393   3.807   0.117
 2250SOL    HW2 7650   4.315   3.666   0.148
 2251SOL     OW 7651   4.769   0.826   0.343
 2251SOL    HW1 7652   4.835   0.888   0.385
 2251SOL    HW2 7653   4.683   0.874   0.328
 2252SOL     OW 7654   5.340   2.297   2.828
 2252SOL    HW1 7655   5.294   2.371   2.780
 2252SOL    HW2 7656   5.321   2.210   2.783
 2253SOL     OW 7657   1.245   3.957   6.330
 2253SOL    HW1 7658   1.313   3.895   6.290
 2253SOL    HW2 7659   1.235   4.037   6.270
 2254SOL     OW 7660   2.817   3.471   5.389
 2254SOL    HW1 7661   2.731   3.455   5.340
 2254SOL    HW2 7662   2.824   3.568   5.412
 2255SOL     OW 7663   4.658   2.564   6.649
 2255SOL    HW1 7664   4.598   2.644   6.649
 2255SOL    HW2 7665   4.622   2.496   6.712
 2256SOL     OW 7666   4.899   6.095   1.576
 2256SOL    HW1 7667   4.868   6.006   1.611
 2256SOL    HW2 7668   4.932   6.084   1.482
 2257SOL     OW 7669   0.272   2.049   4.162
 2257SOL    HW1 7670   0.183   2.050   4.115
 2257SOL    HW2 7671   0.272   2.121   4.232
 2258SOL     OW 7672   1.290   5.501   6.064
 2258SOL    HW1 7673   1.354   5.576   6.079
 2258SOL    HW2 7674   1.311   5.455   5.977
 2259SOL     OW 7675   4.733   4.108   6.364
 2259SOL    HW1 7676   4.703   4.183   6.424
 2259SOL    HW2 7677   4.724   4.136   6.269
 2260SOL     OW 7678   5.693   4.573   3.114
 2260SOL    HW1 7679   5.740   4.495   3.156
 2260SOL    HW2 7680   5.693   4.650   3.177
 2261SOL     OW 7681   6.910   6.248   0.545
 2261SOL    HW1 7682   6.884   6.161   0.586
 2261SOL    HW2 7683   6.890   6.246   0.447
 2262SOL     OW 7684   5.229   1.973   1.867
 2262SOL    HW1 7685   5.166   2.018   1.931
 2262SOL    HW2 7686   5.237   1.876   1.891
 2263SOL     OW 7687   2.802   5.804   6.623
 2263SOL    HW1 7688   2.783   5.901   6.607
 2263SOL    HW2 7689   2.717   5.756   6.644
 2264SOL     OW 7690   3.572   3.248   0.736
 2264SOL    HW1 7691   3.513   3.228   0.658
 2264SOL    HW2 7692   3.614   3.163   0.769
 2265SOL     OW 7693   0.281   0.555   4.061
 2265SOL    HW1 7694   0.233   0.628   4.012
 2265SOL    HW2 7695   0.290   0.475   4.002
 2266SOL     OW 7696   6.362   2.263   1.327
 2266SOL    HW1 7697   6.339   2.286   1.232
 2266SOL    HW2 7698   6.457   2.232   1.332
 2267SOL     OW 7699   4.975   2.183   5.167
 2267SOL    HW1 7700   4.991   2.136   5.080
 2267SOL    HW2 7701   5.015   2.274   5.164
 2268SOL     OW 7702   6.745   3.883   5.939
 2268SOL    HW1 7703   6.814   3.921   6.001
 2268SOL    HW2 7704   6.752   3.928   5.850
 2269SOL     OW 7705   5.743   6.070   4.717
 2269SOL    HW1 7706   5.824   6.094   4.771
 2269SOL    HW2 7707   5.699   6.154   4.684
 2270SOL     OW 7708   3.726   2.400   6.311
 2270SOL    HW1 7709   3.792   2.441   6.248
 2270SOL    HW2 7710   3.771   2.377   6.397
 2271SOL     OW 7711   6.217   4.105   0.600
 2271SOL    HW1 7712   6.273   4.160   0.662
 2271SOL    HW2 7713   6.275   4.066   0.529
 2272SOL     OW 7714   6.158   1.616   4.863
 2272SOL    HW1 7715   6.071   1.625   4.912
 2272SOL    HW2 7716   6.232   1.651   4.921
 2273SOL     OW 7717   1.601   0.815   2.187
 2273SOL    HW1 7718   1.527   0.848   2.245
 2273SOL    HW2 7719   1.574   0.823   2.091
 2274SOL     OW 7720   1.844   2.202   5.530
 2274SOL    HW1 7721   1.889   2.247   5.453
 2274SOL    HW2 7722   1.813   2.271   5.595
 2275SOL     OW 7723   6.096   0.784   4.510
 2275SOL    HW1 7724   6.149   0.710   4.468
 2275SOL    HW2 7725   6.055   0.750   4.595
 2276SOL     OW 7726   3.159   4.601   1.150
 2276SOL    HW1 7727   3.145   4.510   1.112
 2276SOL    HW2 7728   3.073   4.653   1.147
 2277SOL     OW 7729   3.849   3.496   5.687
 2277SOL    HW1 7730   3.933   3.550   5.695
 2277SOL    HW2 7731   3.863   3.423   5.619
 2278SOL     OW 7732   6.554   5.548   3.666
 2278SOL    HW1 7733   6.640   5.503   3.687
 2278SOL    HW2 7734   6.507   5.499   3.592
 2279SOL     OW 7735   4.546   6.277   4.790
 2279SOL    HW1 7736   4.446   6.289   4.793
 2279SOL    HW2 7737   4.569   6.186   4.827
 2280SOL     OW 7738   0.340   6.026   4.689
 2280SOL    HW1 7739   0.408   5.986   4.628
 2280SOL    HW2 7740   0.318   5.962   4.762
 2281SOL     OW 7741   3.769   1.615   1.351
 2281SOL    HW1 7742   3.825   1.697   1.348
 2281SOL    HW2 7743   3.785   1.566   1.437
 2282SOL     OW 7744   4.599   6.613   5.198
 2282SOL    HW1 7745   4.666   6.598   5.125
 2282SOL    HW2 7746   4.549   6.698   5.181
 2283SOL     OW 7747   6.320   4.696   1.870
 2283SOL    HW1 7748   6.255   4.764   1.836
 2283SOL    HW2 7749   6.393   4.743   1.920
 2284SOL     OW 7750   2.381   2.245   0.377
 2284SOL    HW1 7751   2.326   2.300   0.314
 2284SOL    HW2 7752   2.395   2.154   0.338
 2285SOL     OW 7753   1.693   1.928   0.735
 2285SOL    HW1 7754   1.684   2.014   0.785
 2285SOL    HW2 7755   1.725   1.947   0.642
 2286SOL     OW 7756   0.551   0.166   4.900
 2286SOL    HW1 7757   0.508   0.181   4.988
 2286SOL    HW2 7758   0.644   0.131   4.914
 2287SOL     OW 7759   1.998   1.471   2.475
 2287SOL    HW1 7760   1.997   1.372   2.486
 2287SOL    HW2 7761   1.924   1.511   2.530
 2288SOL     OW 7762   6.173   5.230   4.289
 2288SOL    HW1 7763   6.162   5.168   4.367
 2288SOL    HW2 7764   6.270   5.249   4.275
 2289SOL     OW 7765   6.672   4.404   2.789
 2289SOL    HW1 7766   6.685   4.500   2.812
 2289SOL    HW2 7767   6.716   4.384   2.701
 2290SOL     OW 7768   1.533   3.494   2.138
 2290SOL    HW1 7769   1.476   3.576   2.134
 2290SOL    HW2 7770   1.629   3.521   2.144
 2291SOL     OW 7771   2.219   2.514   6.844
 2291SOL    HW1 7772   2.128   2.549   6.821
 2291SOL    HW2 7773   2.277   2.591   6.872
 2292SOL     OW 7774   5.833   2.864   3.706
 2292SOL    HW1 7775   5.885   2.950   3.702
 2292SOL    HW2 7776   5.863   2.803   3.633
 2293SOL     OW 7777   6.007   6.738   1.403
 2293SOL    HW1 7778   5.953   6.783   1.331
 2293SOL    HW2 7779   5.976   6.644   1.414
 2294SOL     OW 7780   3.663   0.807   6.368
 2294SOL    HW1 7781   3.679   0.709   6.357
 2294SOL    HW2 7782   3.579   0.822   6.421
 2295SOL     OW 7783   0.507   1.996   2.817
 2295SOL    HW1 7784   0.489   2.083   2.862
 2295SOL    HW2 7785   0.534   2.013   2.722
 2296SOL     OW 7786   3.583   5.872   2.562
 2296SOL    HW1 7787   3.659   5.810   2.581
 2296SOL    HW2 7788   3.596   5.914   2.473
 2297SOL     OW 7789   5.240   4.549   5.436
 2297SOL    HW1 7790   5.270   4.644   5.438
 2297SOL    HW2 7791   5.263   4.505   5.524
 2298SOL     OW 7792   4.105   3.803   2.235
 2298SOL    HW1 7793   4.173   3.838   2.171
 2298SOL    HW2 7794   4.125   3.708   2.256
 2299SOL     OW 7795   4.614   4.401   5.172
 2299SOL    HW1 7796   4.714   4.387   5.173
 2299SOL    HW2 7797   4.570   4.320   5.209
 2300SOL     OW 7798   2.038   5.876   2.889
 2300SOL    HW1 7799   2.042   5.951   2.955
 2300SOL    HW2 7800   2.121   5.821   2.896
 2301SOL     OW 7801   3.286   2.962   3.302
 2301SOL    HW1 7802   3.352   2.965   3.377
 2301SOL    HW2 7803   3.333   2.938   3.217
 2302SOL     OW 7804   3.931   0.415   1.362
 2302SOL    HW1 7805   3.926   0.379   1.455
 2302SOL    HW2 7806   3.851   0.472   1.343
 2303SOL     OW 7807   2.578   3.649   0.025
 2303SOL    HW1 7808   2.580   3.696   6.957
 2303SOL    HW2 7809   2.490   3.603   0.036
 2304SOL     OW 7810   5.449   6.760   4.216
 2304SOL    HW1 7811   5.419   6.714   4.132
 2304SOL    HW2 7812   5.538   6.803   4.199
 2305SOL     OW 7813   2.111   0.537   3.070
 2305SOL    HW1 7814   2.047   0.538   3.147
 2305SOL    HW2 7815   2.201   0.566   3.103
 2306SOL     OW 7816   2.533   5.551   2.041
 2306SOL    HW1 7817   2.623   5.591   2.021
 2306SOL    HW2 7818   2.545   5.472   2.102
 2307SOL     OW 7819   6.807   2.854   4.379
 2307SOL    HW1 7820   6.844   2.944   4.359
 2307SOL    HW2 7821   6.707   2.859   4.382
 2308SOL     OW 7822   2.266   4.929   1.973
 2308SOL    HW1 7823   2.228   5.011   1.930
 2308SOL    HW2 7824   2.325   4.883   1.908
 2309SOL     OW 7825   1.775   0.659   5.501
 2309SOL    HW1 7826   1.762   0.635   5.405
 2309SOL    HW2 7827   1.814   0.581   5.550
 2310SOL     OW 7828   5.609   5.404   0.961
 2310SOL    HW1 7829   5.659   5.322   0.934
 2310SOL    HW2 7830   5.531   5.418   0.900
 2311SOL     OW 7831   2.486   0.339   1.127
 2311SOL    HW1 7832   2.461   0.300   1.216
 2311SOL    HW2 7833   2.463   0.436   1.126
 2312SOL     OW 7834   4.677   6.337   3.324
 2312SOL    HW1 7835   4.698   6.323   3.420
 2312SOL    HW2 7836   4.595   6.393   3.315
 2313SOL     OW 7837   5.355   5.804   1.903
 2313SOL    HW1 7838   5.364   5.901   1.927
 2313SOL    HW2 7839   5.277   5.792   1.841
 2314SOL     OW 7840   5.397   5.960   3.808
 2314SOL    HW1 7841   5.485   5.920   3.837
 2314SOL    HW2 7842   5.338   5.888   3.772
 2315SOL     OW 7843   5.353   2.625   6.608
 2315SOL    HW1 7844   5.327   2.642   6.703
 2315SOL    HW2 7845   5.449   2.595   6.605
 2316SOL     OW 7846   4.242   1.774   3.898
 2316SOL    HW1 7847   4.179   1.821   3.837
 2316SOL    HW2 7848   4.283   1.840   3.961
 2317SOL     OW 7849   0.521   6.100   3.167
 2317SOL    HW1 7850   0.494   6.162   3.093
 2317SOL    HW2 7851   0.507   6.005   3.139
 2318SOL     OW 7852   0.766   2.570   3.482
 2318SOL    HW1 7853   0.849   2.539   3.437
 2318SOL    HW2 7854   0.750   2.667   3.460
 2319SOL     OW 7855   1.881   4.758   3.259
 2319SOL    HW1 7856   1.783   4.771   3.243
 2319SOL    HW2 7857   1.927   4.847   3.258
 2320SOL     OW 7858   0.920   2.549   3.993
 2320SOL    HW1 7859   0.856   2.626   3.996
 2320SOL    HW2 7860   1.013   2.582   3.983
 2321SOL     OW 7861   2.955   0.246   6.310
 2321SOL    HW1 7862   2.931   0.340   6.332
 2321SOL    HW2 7863   2.972   0.238   6.212
 2322SOL     OW 7864   2.543   1.939   5.012
 2322SOL    HW1 7865   2.611   1.870   4.986
 2322SOL    HW2 7866   2.488   1.963   4.932
 2323SOL     OW 7867   2.628   5.058   2.081
 2323SOL    HW1 7868   2.699   5.112   2.127
 2323SOL    HW2 7869   2.643   4.961   2.100
 2324SOL     OW 7870   6.387   6.661   2.058
 2324SOL    HW1 7871   6.384   6.735   2.125
 2324SOL    HW2 7872   6.297   6.649   2.017
 2325SOL     OW 7873   1.058   4.822   1.903
 2325SOL    HW1 7874   1.019   4.913   1.913
 2325SOL    HW2 7875   0.992   4.754   1.938
 2326SOL     OW 7876   3.379   4.818   5.273
 2326SOL    HW1 7877   3.345   4.727   5.296
 2326SOL    HW2 7878   3.303   4.882   5.270
 2327SOL     OW 7879   6.265   3.538   5.078
 2327SOL    HW1 7880   6.340   3.605   5.079
 2327SOL    HW2 7881   6.282   3.469   5.008
 2328SOL     OW 7882   3.236   2.112   3.376
 2328SOL    HW1 7883   3.156   2.148   3.327
 2328SOL    HW2 7884   3.227   2.013   3.384
 2329SOL     OW 7885   1.395   4.320   5.057
 2329SOL    HW1 7886   1.370   4.225   5.072
 2329SOL    HW2 7887   1.469   4.325   4.990
 2330SOL     OW 7888   1.102   3.651   2.178
 2330SOL    HW1 7889   1.026   3.715   2.168
 2330SOL    HW2 7890   1.094   3.578   2.110
 2331SOL     OW 7891   6.544   3.680   0.400
 2331SOL    HW1 7892   6.475   3.716   0.462
 2331SOL    HW2 7893   6.546   3.734   0.316
 2332SOL     OW 7894   4.448   2.123   5.908
 2332SOL    HW1 7895   4.361   2.083   5.879
 2332SOL    HW2 7896   4.523   2.062   5.883
 2333SOL     OW 7897   0.196   5.812   3.242
 2333SOL    HW1 7898   0.208   5.829   3.339
 2333SOL    HW2 7899   0.175   5.899   3.195
 2334SOL     OW 7900   2.447   0.417   0.070
 2334SOL    HW1 7901   2.546   0.401   0.071
 2334SOL    HW2 7902   2.413   0.408   6.996
 2335SOL     OW 7903   5.509   1.120   3.463
 2335SOL    HW1 7904   5.484   1.194   3.525
 2335SOL    HW2 7905   5.427   1.089   3.414
 2336SOL     OW 7906   4.032   2.064   5.322
 2336SOL    HW1 7907   4.093   1.987   5.342
 2336SOL    HW2 7908   3.942   2.047   5.361
 2337SOL     OW 7909   4.688   1.006   3.859
 2337SOL    HW1 7910   4.763   0.949   3.892
 2337SOL    HW2 7911   4.725   1.085   3.809
 2338SOL     OW 7912   0.975   1.226   7.010
 2338SOL    HW1 7913   0.920   1.306   0.010
 2338SOL    HW2 7914   1.044   1.249   6.941
 2339SOL     OW 7915   3.718   3.653   5.289
 2339SOL    HW1 7916   3.647   3.586   5.310
 2339SOL    HW2 7917   3.704   3.688   5.196
 2340SOL     OW 7918   5.451   5.429   6.064
 2340SOL    HW1 7919   5.488   5.338   6.080
 2340SOL    HW2 7920   5.390   5.428   5.986
 2341SOL     OW 7921   5.217   4.360   1.596
 2341SOL    HW1 7922   5.126   4.394   1.620
 2341SOL    HW2 7923   5.234   4.274   1.644
 2342SOL     OW 7924   0.567   5.943   5.206
 2342SOL    HW1 7925   0.663   5.924   5.184
 2342SOL    HW2 7926   0.560   6.034   5.247
 2343SOL     OW 7927   2.115   6.725   2.249
 2343SOL    HW1 7928   2.204   6.748   2.208
 2343SOL    HW2 7929   2.119   6.739   2.348
 2344SOL     OW 7930   1.775   1.258   1.261
 2344SOL    HW1 7931   1.775   1.294   1.354
 2344SOL    HW2 7932   1.778   1.158   1.264
 2345SOL     OW 7933   2.023   5.495   5.305
 2345SOL    HW1 7934   2.012   5.477   5.403
 2345SOL    HW2 7935   2.065   5.584   5.293
 2346SOL     OW 7936   4.875   3.322   4.833
 2346SOL    HW1 7937   4.896   3.412   4.796
 2346SOL    HW2 7938   4.900   3.318   4.930
 2347SOL     OW 7939   2.135   3.840   1.461
 2347SOL    HW1 7940   2.229   3.807   1.460
 2347SOL    HW2 7941   2.110   3.873   1.369
 2348SOL     OW 7942   3.534   6.291   3.780
 2348SOL    HW1 7943   3.538   6.222   3.852
 2348SOL    HW2 7944   3.483   6.370   3.812
 2349SOL     OW 7945   0.691   5.111   6.281
 2349SOL    HW1 7946   0.649   5.150   6.363
 2349SOL    HW2 7947   0.788   5.093   6.298
 2350SOL     OW 7948   5.540   6.487   6.572
 2350SOL    HW1 7949   5.619   6.427   6.584
 2350SOL    HW2 7950   5.499   6.505   6.661
 2351SOL     OW 7951   3.779   4.948   2.633
 2351SOL    HW1 7952   3.803   5.011   2.559
 2351SOL    HW2 7953   3.681   4.931   2.633
 2352SOL     OW 7954   0.968   3.455   2.366
 2352SOL    HW1 7955   1.055   3.411   2.391
 2352SOL    HW2 7956   0.987   3.533   2.307
 2353SOL     OW 7957   2.813   4.850   4.510
 2353SOL    HW1 7958   2.758   4.930   4.532
 2353SOL    HW2 7959   2.826   4.795   4.593
 2354SOL     OW 7960   3.117   2.495   6.801
 2354SOL    HW1 7961   3.211   2.485   6.769
 2354SOL    HW2 7962   3.115   2.489   6.901
 2355SOL     OW 7963   1.255   4.913   6.720
 2355SOL    HW1 7964   1.306   4.867   6.647
 2355SOL    HW2 7965   1.173   4.955   6.682
 2356SOL     OW 7966   2.390   4.082   0.427
 2356SOL    HW1 7967   2.410   4.178   0.411
 2356SOL    HW2 7968   2.339   4.045   0.349
 2357SOL     OW 7969   3.884   5.353   4.157
 2357SOL    HW1 7970   3.956   5.297   4.199
 2357SOL    HW2 7971   3.886   5.444   4.197
 2358SOL     OW 7972   2.513   5.171   4.780
 2358SOL    HW1 7973   2.447   5.111   4.735
 2358SOL    HW2 7974   2.606   5.137   4.764
 2359SOL     OW 7975   0.569   1.366   6.088
 2359SOL    HW1 7976   0.663   1.375   6.054
 2359SOL    HW2 7977   0.518   1.307   6.026
 2360SOL     OW 7978   4.890   6.049   5.622
 2360SOL    HW1 7979   4.852   5.957   5.629
 2360SOL    HW2 7980   4.947   6.068   5.702
 2361SOL     OW 7981   2.766   0.215   4.818
 2361SOL    HW1 7982   2.805   0.298   4.779
 2361SOL    HW2 7983   2.709   0.238   4.896
 2362SOL     OW 7984   3.828   6.949   5.654
 2362SOL    HW1 7985   3.907   7.006   5.680
 2362SOL    HW2 7986   3.748   6.979   5.706
 2363SOL     OW 7987   4.711   2.790   4.972
 2363SOL    HW1 7988   4.630   2.756   5.020
 2363SOL    HW2 7989   4.728   2.734   4.891
 2364SOL     OW 7990   0.281   2.355   3.082
 2364SOL    HW1 7991   0.247   2.280   3.025
 2364SOL    HW2 7992   0.280   2.440   3.029
 2365SOL     OW 7993   5.773   2.644   6.278
 2365SOL    HW1 7994   5.685   2.596   6.271
 2365SOL    HW2 7995   5.804   2.670   6.187
 2366SOL     OW 7996   1.273   3.848   5.400
 2366SOL    HW1 7997   1.184   3.839   5.444
 2366SOL    HW2 7998   1.337   3.782   5.441
 2367SOL     OW 7999   2.169   3.718   6.339
 2367SOL    HW1 8000   2.238   3.646   6.346
 2367SOL    HW2 8001   2.213   3.805   6.317
 2368SOL     OW 8002   5.349   1.093   4.218
 2368SOL    HW1 8003   5.437   1.128   4.185
 2368SOL    HW2 8004   5.359   0.998   4.245
 2369SOL     OW 8005   2.233   3.053   4.499
 2369SOL    HW1 8006   2.142   3.081   4.528
 2369SOL    HW2 8007   2.250   2.959   4.527
 2370SOL     OW 8008   4.390   4.273   0.020
 2370SOL    HW1 8009   4.299   4.289   7.003
 2370SOL    HW2 8010   4.455   4.263   6.965
 2371SOL     OW 8011   1.307   6.381   1.923
 2371SOL    HW1 8012   1.225   6.408   1.872
 2371SOL    HW2 8013   1.283   6.315   1.994
 2372SOL     OW 8014   1.015   1.974   0.791
 2372SOL    HW1 8015   0.985   2.068   0.806
 2372SOL    HW2 8016   0.939   1.912   0.810
 2373SOL     OW 8017   5.803   0.292   6.989
 2373SOL    HW1 8018   5.751   0.370   6.955
 2373SOL    HW2 8019   5.885   0.324   0.015
 2374SOL     OW 8020   6.405   6.713   3.643
 2374SOL    HW1 8021   6.339   6.699   3.570
 2374SOL    HW2 8022   6.435   6.624   3.678
 2375SOL     OW 8023   1.421   6.802   3.510
 2375SOL    HW1 8024   1.375   6.809   3.422
 2375SOL    HW2 8025   1.401   6.883   3.565
 2376SOL     OW 8026   6.480   2.838   3.883
 2376SOL    HW1 8027   6.553   2.843   3.816
 2376SOL    HW2 8028   6.393   2.859   3.840
 2377SOL     OW 8029   3.244   3.805   3.642
 2377SOL    HW1 8030   3.168   3.756   3.684
 2377SOL    HW2 8031   3.322   3.742   3.633
 2378SOL     OW 8032   5.186   1.914   6.524
 2378SOL    HW1 8033   5.153   1.874   6.610
 2378SOL    HW2 8034   5.118   1.900   6.452
 2379SOL     OW 8035   6.808   2.521   6.566
 2379SOL    HW1 8036   6.870   2.523   6.487
 2379SOL    HW2 8037   6.861   2.538   6.650
 2380SOL     OW 8038   6.517   0.241   6.067
 2380SOL    HW1 8039   6.466   0.211   5.986
 2380SOL    HW2 8040   6.568   0.324   6.044
 2381SOL     OW 8041   2.105   4.130   4.077
 2381SOL    HW1 8042   2.135   4.057   4.139
 2381SOL    HW2 8043   2.128   4.105   3.983
 2382SOL     OW 8044   2.458   5.255   2.534
 2382SOL    HW1 8045   2.372   5.303   2.519
 2382SOL    HW2 8046   2.449   5.160   2.503
 2383SOL     OW 8047   5.416   6.171   6.803
 2383SOL    HW1 8048   5.350   6.117   6.855
 2383SOL    HW2 8049   5.382   6.186   6.711
 2384SOL     OW 8050   1.226   1.258   1.973
 2384SOL    HW1 8051   1.300   1.192   1.981
 2384SOL    HW2 8052   1.215   1.286   1.878
 2385SOL     OW 8053   6.122   0.311   1.076
 2385SOL    HW1 8054   6.050   0.369   1.037
 2385SOL    HW2 8055   6.210   0.337   1.036
 2386SOL     OW 8056   3.905   4.995   4.170
 2386SOL    HW1 8057   3.843   4.978   4.247
 2386SOL    HW2 8058   3.960   5.076   4.190
 2387SOL     OW 8059   6.745   2.516   4.069
 2387SOL    HW1 8060   6.665   2.511   4.129
 2387SOL    HW2 8061   6.819   2.564   4.116
 2388SOL     OW 8062   1.120   1.862   4.898
 2388SOL    HW1 8063   1.082   1.773   4.926
 2388SOL    HW2 8064   1.163   1.853   4.808
 2389SOL     OW 8065   4.859   4.210   3.888
 2389SOL    HW1 8066   4.945   4.260   3.895
 2389SOL    HW2 8067   4.803   4.230   3.968
 2390SOL     OW 8068   3.393   3.844   4.709
 2390SOL    HW1 8069   3.387   3.745   4.691
 2390SOL    HW2 8070   3.470   3.882   4.659
 2391SOL     OW 8071   3.424   4.420   5.571
 2391SOL    HW1 8072   3.523   4.424   5.557
 2391SOL    HW2 8073   3.386   4.343   5.519
 2392SOL     OW 8074   3.369   5.800   5.628
 2392SOL    HW1 8075   3.354   5.747   5.712
 2392SOL    HW2 8076   3.389   5.896   5.652
 2393SOL     OW 8077   3.656   5.433   1.213
 2393SOL    HW1 8078   3.595   5.479   1.149
 2393SOL    HW2 8079   3.608   5.356   1.256
 2394SOL     OW 8080   1.646   3.972   4.811
 2394SOL    HW1 8081   1.597   3.990   4.725
 2394SOL    HW2 8082   1.734   3.929   4.791
 2395SOL     OW 8083   0.051   2.355   6.700
 2395SOL    HW1 8084   0.092   2.299   6.772
 2395SOL    HW2 8085   7.000   2.302   6.654
 2396SOL     OW 8086   5.298   5.917   0.900
 2396SOL    HW1 8087   5.385   5.917   0.951
 2396SOL    HW2 8088   5.247   6.000   0.923
 2397SOL     OW 8089   6.748   4.844   0.685
 2397SOL    HW1 8090   6.772   4.898   0.604
 2397SOL    HW2 8091   6.693   4.765   0.657
 2398SOL     OW 8092   2.543   4.942   5.858
 2398SOL    HW1 8093   2.614   5.006   5.827
 2398SOL    HW2 8094   2.459   4.958   5.807
 2399SOL     OW 8095   4.387   1.805   2.329
 2399SOL    HW1 8096   4.425   1.818   2.237
 2399SOL    HW2 8097   4.359   1.893   2.367
 2400SOL     OW 8098   3.842   4.310   0.573
 2400SOL    HW1 8099   3.818   4.360   0.490
 2400SOL    HW2 8100   3.759   4.272   0.614
 2401SOL     OW 8101   3.798   0.510   5.584
 2401SOL    HW1 8102   3.853   0.553   5.512
 2401SOL    HW2 8103   3.843   0.426   5.615
 2402SOL     OW 8104   6.830   2.146   4.368
 2402SOL    HW1 8105   6.822   2.207   4.289
 2402SOL    HW2 8106   6.885   2.066   4.342
 2403SOL     OW 8107   2.633   2.780   7.004
 2403SOL    HW1 8108   2.636   2.872   0.021
 2403SOL    HW2 8109   2.715   2.730   0.011
 2404SOL     OW 8110   5.225   1.671   2.508
 2404SOL    HW1 8111   5.167   1.590   2.501
 2404SOL    HW2 8112   5.299   1.665   2.441
 2405SOL     OW 8113   3.959   3.506   5.303
 2405SOL    HW1 8114   4.052   3.538   5.287
 2405SOL    HW2 8115   3.896   3.583   5.300
 2406SOL     OW 8116   1.952   0.597   3.478
 2406SOL    HW1 8117   1.940   0.664   3.404
 2406SOL    HW2 8118   1.877   0.531   3.475
 2407SOL     OW 8119   4.523   2.081   2.894
 2407SOL    HW1 8120   4.461   2.022   2.842
 2407SOL    HW2 8121   4.506   2.070   2.992
 2408SOL     OW 8122   3.633   5.368   2.535
 2408SOL    HW1 8123   3.623   5.404   2.628
 2408SOL    HW2 8124   3.717   5.315   2.529
 2409SOL     OW 8125   2.319   2.731   1.971
 2409SOL    HW1 8126   2.278   2.805   2.024
 2409SOL    HW2 8127   2.298   2.743   1.874
 2410SOL     OW 8128   6.625   2.551   5.740
 2410SOL    HW1 8129   6.623   2.613   5.662
 2410SOL    HW2 8130   6.613   2.457   5.707
 2411SOL     OW 8131   3.683   4.491   5.560
 2411SOL    HW1 8132   3.655   4.577   5.516
 2411SOL    HW2 8133   3.748   4.444   5.501
 2412SOL     OW 8134   2.823   3.916   0.064
 2412SOL    HW1 8135   2.864   3.930   0.154
 2412SOL    HW2 8136   2.792   3.821   0.056
 2413SOL     OW 8137   6.450   3.250   6.679
 2413SOL    HW1 8138   6.352   3.262   6.665
 2413SOL    HW2 8139   6.488   3.196   6.605
 2414SOL     OW 8140   6.129   3.852   2.665
 2414SOL    HW1 8141   6.137   3.948   2.689
 2414SOL    HW2 8142   6.120   3.843   2.565
 2415SOL     OW 8143   1.823   0.411   0.786
 2415SOL    HW1 8144   1.861   0.332   0.738
 2415SOL    HW2 8145   1.746   0.448   0.734
 2416SOL     OW 8146   3.070   1.268   5.019
 2416SOL    HW1 8147   3.008   1.192   5.000
 2416SOL    HW2 8148   3.159   1.249   4.979
 2417SOL     OW 8149   4.558   2.544   0.208
 2417SOL    HW1 8150   4.466   2.505   0.200
 2417SOL    HW2 8151   4.609   2.524   0.124
 2418SOL     OW 8152   3.360   3.544   4.644
 2418SOL    HW1 8153   3.368   3.512   4.738
 2418SOL    HW2 8154   3.406   3.479   4.583
 2419SOL     OW 8155   0.400   6.559   4.509
 2419SOL    HW1 8156   0.304   6.583   4.526
 2419SOL    HW2 8157   0.404   6.476   4.454
 2420SOL     OW 8158   3.856   6.921   2.515
 2420SOL    HW1 8159   3.948   6.948   2.487
 2420SOL    HW2 8160   3.861   6.869   2.600
 2421SOL     OW 8161   3.155   0.842   4.570
 2421SOL    HW1 8162   3.061   0.809   4.561
 2421SOL    HW2 8163   3.166   0.888   4.658
 2422SOL     OW 8164   5.435   0.441   1.236
 2422SOL    HW1 8165   5.461   0.490   1.319
 2422SOL    HW2 8166   5.405   0.349   1.259
 2423SOL     OW 8167   0.790   5.989   3.030
 2423SOL    HW1 8168   0.871   5.980   2.972
 2423SOL    HW2 8169   0.756   6.083   3.026
 2424SOL     OW 8170   5.673   5.804   5.865
 2424SOL    HW1 8171   5.661   5.781   5.961
 2424SOL    HW2 8172   5.629   5.891   5.844
 2425SOL     OW 8173   6.413   0.273   4.202
 2425SOL    HW1 8174   6.473   0.211   4.254
 2425SOL    HW2 8175   6.424   0.256   4.104
 2426SOL     OW 8176   1.205   4.200   4.472
 2426SOL    HW1 8177   1.108   4.195   4.494
 2426SOL    HW2 8178   1.220   4.272   4.404
 2427SOL     OW 8179   6.438   5.415   6.954
 2427SOL    HW1 8180   6.404   5.509   6.943
 2427SOL    HW2 8181   6.363   5.351   6.938
 2428SOL     OW 8182   1.219   0.186   3.545
 2428SOL    HW1 8183   1.139   0.128   3.562
 2428SOL    HW2 8184   1.302   0.131   3.553
 2429SOL     OW 8185   6.731   5.466   3.164
 2429SOL    HW1 8186   6.731   5.382   3.219
 2429SOL    HW2 8187   6.796   5.531   3.204
 2430SOL     OW 8188   5.603   2.436   0.673
 2430SOL    HW1 8189   5.647   2.522   0.648
 2430SOL    HW2 8190   5.515   2.455   0.716
 2431SOL     OW 8191   4.316   0.596   2.000
 2431SOL    HW1 8192   4.402   0.546   2.004
 2431SOL    HW2 8193   4.310   0.658   2.078
 2432SOL     OW 8194   3.979   6.206   3.076
 2432SOL    HW1 8195   3.930   6.155   3.005
 2432SOL    HW2 8196   3.918   6.273   3.118
 2433SOL     OW 8197   2.908   6.517   0.388
 2433SOL    HW1 8198   2.961   6.533   0.471
 2433SOL    HW2 8199   2.944   6.574   0.314
 2434SOL     OW 8200   4.983   1.584   3.717
 2434SOL    HW1 8201   4.894   1.540   3.716
 2434SOL    HW2 8202   4.972   1.682   3.701
 2435SOL     OW 8203   4.447   5.826   0.095
 2435SOL    HW1 8204   4.398   5.912   0.108
 2435SOL    HW2 8205   4.519   5.838   0.026
 2436SOL     OW 8206   2.215   0.183   0.739
 2436SOL    HW1 8207   2.185   0.239   0.816
 2436SOL    HW2 8208   2.311   0.202   0.719
 2437SOL     OW 8209   5.321   5.765   1.243
 2437SOL    HW1 8210   5.381   5.845   1.252
 2437SOL    HW2 8211   5.374   5.688   1.207
 2438SOL     OW 8212   4.346   0.822   5.713
 2438SOL    HW1 8213   4.294   0.737   5.706
 2438SOL    HW2 8214   4.319   0.871   5.797
 2439SOL     OW 8215   1.055   3.740   6.894
 2439SOL    HW1 8216   1.060   3.704   6.987
 2439SOL    HW2 8217   1.053   3.840   6.896
 2440SOL     OW 8218   3.422   6.226   5.227
 2440SOL    HW1 8219   3.432   6.130   5.256
 2440SOL    HW2 8220   3.429   6.232   5.128
 2441SOL     OW 8221   6.628   1.393   0.174
 2441SOL    HW1 8222   6.595   1.326   0.108
 2441SOL    HW2 8223   6.566   1.471   0.176
 2442SOL     OW 8224   5.798   5.942   3.646
 2442SOL    HW1 8225   5.770   5.954   3.551
 2442SOL    HW2 8226   5.859   5.863   3.653
 2443SOL     OW 8227   2.987   0.413   6.726
 2443SOL    HW1 8228   3.067   0.424   6.668
 2443SOL    HW2 8229   2.946   0.502   6.745
 2444SOL     OW 8230   4.074   4.301   6.559
 2444SOL    HW1 8231   4.064   4.218   6.613
 2444SOL    HW2 8232   4.121   4.279   6.473
 2445SOL     OW 8233   0.019   0.886   2.124
 2445SOL    HW1 8234   0.010   0.977   2.165
 2445SOL    HW2 8235   0.009   0.893   2.025
 2446SOL     OW 8236   0.286   3.249   4.080
 2446SOL    HW1 8237   0.244   3.339   4.093
 2446SOL    HW2 8238   0.251   3.208   3.996
 2447SOL     OW 8239   2.931   1.135   1.324
 2447SOL    HW1 8240   2.955   1.220   1.276
 2447SOL    HW2 8241   2.944   1.057   1.262
 2448SOL     OW 8242   6.802   0.625   4.178
 2448SOL    HW1 8243   6.898   0.598   4.172
 2448SOL    HW2 8244   6.745   0.544   4.193
 2449SOL     OW 8245   6.451   4.280   2.917
 2449SOL    HW1 8246   6.398   4.352   2.963
 2449SOL    HW2 8247   6.538   4.318   2.885
 2450SOL     OW 8248   3.562   5.295   5.753
 2450SOL    HW1 8249   3.494   5.235   5.710
 2450SOL    HW2 8250   3.597   5.251   5.836
 2451SOL     OW 8251   0.568   0.615   3.914
 2451SOL    HW1 8252   0.488   0.571   3.873
 2451SOL    HW2 8253   0.618   0.549   3.969
 2452SOL     OW 8254   2.611   2.078   3.433
 2452SOL    HW1 8255   2.579   2.148   3.370
 2452SOL    HW2 8256   2.672   2.015   3.385
 2453SOL     OW 8257   6.271   3.739   0.883
 2453SOL    HW1 8258   6.352   3.798   0.884
 2453SOL    HW2 8259   6.256   3.704   0.790
 2454SOL     OW 8260   3.503   1.046   0.410
 2454SOL    HW1 8261   3.541   1.034   0.318
 2454SOL    HW2 8262   3.521   0.964   0.464
 2455SOL     OW 8263   4.696   0.429   0.790
 2455SOL    HW1 8264   4.682   0.500   0.859
 2455SOL    HW2 8265   4.749   0.353   0.829
 2456SOL     OW 8266   5.934   1.873   0.362
 2456SOL    HW1 8267   5.907   1.956   0.410
 2456SOL    HW2 8268   6.014   1.893   0.304
 2457SOL     OW 8269   6.972   6.494   6.220
 2457SOL    HW1 8270   0.000   6.477   6.306
 2457SOL    HW2 8271   6.949   6.591   6.214
 2458SOL     OW 8272   2.064   6.002   4.351
 2458SOL    HW1 8273   2.120   6.004   4.268
 2458SOL    HW2 8274   2.065   5.909   4.389
 2459SOL     OW 8275   2.839   5.870   6.133
 2459SOL    HW1 8276   2.888   5.953   6.161
 2459SOL    HW2 8277   2.812   5.818   6.214
 2460SOL     OW 8278   1.978   1.614   1.809
 2460SOL    HW1 8279   1.948   1.568   1.893
 2460SOL    HW2 8280   2.056   1.673   1.830
 2461SOL     OW 8281   4.688   0.659   3.005
 2461SOL    HW1 8282   4.592   0.633   3.016
 2461SOL    HW2 8283   4.694   0.738   2.944
 2462SOL     OW 8284   2.045   6.025   0.662
 2462SOL    HW1 8285   2.056   5.946   0.602
 2462SOL    HW2 8286   2.010   5.995   0.751
 2463SOL     OW 8287   6.530   2.341   5.625
 2463SOL    HW1 8288   6.447   2.378   5.665
 2463SOL    HW2 8289   6.529   2.241   5.632
 2464SOL     OW 8290   2.006   4.146   2.003
 2464SOL    HW1 8291   2.037   4.064   1.953
 2464SOL    HW2 8292   1.918   4.176   1.965
 2465SOL     OW 8293   0.333   0.609   1.824
 2465SOL    HW1 8294   0.265   0.537   1.808
 2465SOL    HW2 8295   0.298   0.673   1.893
 2466SOL     OW 8296   2.629   2.059   2.504
 2466SOL    HW1 8297   2.549   2.119   2.510
 2466SOL    HW2 8298   2.694   2.096   2.438
 2467SOL     OW 8299   5.325   0.992   5.265
 2467SOL    HW1 8300   5.232   0.960   5.285
 2467SOL    HW2 8301   5.330   1.025   5.171
 2468SOL     OW 8302   4.828   6.281   2.114
 2468SOL    HW1 8303   4.921   6.282   2.151
 2468SOL    HW2 8304   4.788   6.190   2.124
 2469SOL     OW 8305   3.945   3.905   5.470
 2469SOL    HW1 8306   3.874   3.958   5.424
 2469SOL    HW2 8307   3.952   3.935   5.565
 2470SOL     OW 8308   3.778   4.717   6.346
 2470SOL    HW1 8309   3.694   4.718   6.401
 2470SOL    HW2 8310   3.857   4.703   6.405
 2471SOL     OW 8311   2.783   6.121   1.074
 2471SOL    HW1 8312   2.861   6.184   1.068
 2471SOL    HW2 8313   2.814   6.034   1.113
 2472SOL     OW 8314   5.058   2.198   4.723
 2472SOL    HW1 8315   5.133   2.260   4.746
 2472SOL    HW2 8316   5.044   2.134   4.799
 2473SOL     OW 8317   2.185   4.124   4.695
 2473SOL    HW1 8318   2.126   4.205   4.700
 2473SOL    HW2 8319   2.235   4.115   4.781
 2474SOL     OW 8320   0.512   6.078   1.223
 2474SOL    HW1 8321   0.517   6.158   1.163
 2474SOL    HW2 8322   0.465   6.004   1.177
 2475SOL     OW 8323   4.597   1.416   1.854
 2475SOL    HW1 8324   4.631   1.449   1.942
 2475SOL    HW2 8325   4.497   1.410   1.856
 2476SOL     OW 8326   0.154   1.786   3.624
 2476SOL    HW1 8327   0.082   1.722   3.650
 2476SOL    HW2 8328   0.156   1.862   3.689
 2477SOL     OW 8329   4.888   1.198   2.119
 2477SOL    HW1 8330   4.973   1.251   2.122
 2477SOL    HW2 8331   4.909   1.101   2.130
 2478SOL     OW 8332   6.285   1.367   2.414
 2478SOL    HW1 8333   6.253   1.294   2.474
 2478SOL    HW2 8334   6.322   1.442   2.470
 2479SOL     OW 8335   1.619   3.596   1.289
 2479SOL    HW1 8336   1.597   3.676   1.344
 2479SOL    HW2 8337   1.538   3.565   1.240
 2480SOL     OW 8338   5.896   4.221   0.597
 2480SOL    HW1 8339   5.952   4.244   0.517
 2480SOL    HW2 8340   5.858   4.130   0.587
 2481SOL     OW 8341   2.173   0.953   0.101
 2481SOL    HW1 8342   2.253   0.965   0.042
 2481SOL    HW2 8343   2.138   0.860   0.091
 2482SOL     OW 8344   4.796   3.206   5.847
 2482SOL    HW1 8345   4.813   3.107   5.848
 2482SOL    HW2 8346   4.883   3.254   5.840
 2483SOL     OW 8347   1.837   2.044   6.680
 2483SOL    HW1 8348   1.909   2.035   6.749
 2483SOL    HW2 8349   1.864   1.995   6.597
 2484SOL     OW 8350   3.088   0.572   0.544
 2484SOL    HW1 8351   3.023   0.545   0.473
 2484SOL    HW2 8352   3.049   0.551   0.634
 2485SOL     OW 8353   5.730   3.536   1.619
 2485SOL    HW1 8354   5.804   3.536   1.686
 2485SOL    HW2 8355   5.645   3.506   1.663
 2486SOL     OW 8356   1.962   4.579   4.762
 2486SOL    HW1 8357   2.031   4.603   4.694
 2486SOL    HW2 8358   1.981   4.628   4.848
 2487SOL     OW 8359   3.666   5.877   0.170
 2487SOL    HW1 8360   3.577   5.912   0.141
 2487SOL    HW2 8361   3.653   5.789   0.215
 2488SOL     OW 8362   2.112   4.554   2.244
 2488SOL    HW1 8363   2.094   4.459   2.269
 2488SOL    HW2 8364   2.054   4.614   2.297
 2489SOL     OW 8365   1.016   5.519   3.178
 2489SOL    HW1 8366   0.983   5.592   3.118
 2489SOL    HW2 8367   0.971   5.433   3.154
 2490SOL     OW 8368   6.277   5.110   1.443
 2490SOL    HW1 8369   6.277   5.129   1.542
 2490SOL    HW2 8370   6.242   5.190   1.394
 2491SOL     OW 8371   3.028   5.284   0.983
 2491SOL    HW1 8372   3.038   5.372   0.937
 2491SOL    HW2 8373   2.933   5.253   0.977
 2492SOL     OW 8374   4.119   2.781   0.251
 2492SOL    HW1 8375   4.121   2.752   0.155
 2492SOL    HW2 8376   4.069   2.867   0.258
 2493SOL     OW 8377   6.334   0.728   2.634
 2493SOL    HW1 8378   6.433   0.736   2.630
 2493SOL    HW2 8379   6.300   0.694   2.546
 2494SOL     OW 8380   6.034   4.150   1.873
 2494SOL    HW1 8381   6.032   4.246   1.900
 2494SOL    HW2 8382   6.109   4.103   1.920
 2495SOL     OW 8383   4.895   0.168   4.619
 2495SOL    HW1 8384   4.955   0.169   4.539
 2495SOL    HW2 8385   4.867   0.261   4.641
 2496SOL     OW 8386   0.261   4.077   5.906
 2496SOL    HW1 8387   0.171   4.105   5.870
 2496SOL    HW2 8388   0.270   3.978   5.900
 2497SOL     OW 8389   0.161   0.934   0.912
 2497SOL    HW1 8390   0.061   0.932   0.905
 2497SOL    HW2 8391   0.189   0.896   1.000
 2498SOL     OW 8392   3.520   2.060   4.283
 2498SOL    HW1 8393   3.599   2.100   4.236
 2498SOL    HW2 8394   3.545   1.970   4.319
 2499SOL     OW 8395   5.181   2.276   4.121
 2499SOL    HW1 8396   5.085   2.278   4.148
 2499SOL    HW2 8397   5.198   2.345   4.051
 2500SOL     OW 8398   4.223   3.025   0.002
 2500SOL    HW1 8399   4.258   3.061   0.089
 2500SOL    HW2 8400   4.136   2.978   0.018
 2501SOL     OW 8401   6.358   5.695   6.919
 2501SOL    HW1 8402   6.329   5.735   7.006
 2501SOL    HW2 8403   6.345   5.762   6.845
 2502SOL     OW 8404   1.901   6.043   3.338
 2502SOL    HW1 8405   1.964   6.013   3.409
 2502SOL    HW2 8406   1.951   6.054   3.252
 2503SOL     OW 8407   3.250   5.743   4.733
 2503SOL    HW1 8408   3.154   5.735   4.760
 2503SOL    HW2 8409   3.300   5.661   4.761
 2504SOL     OW 8410   2.809   5.097   5.037
 2504SOL    HW1 8411   2.715   5.079   5.066
 2504SOL    HW2 8412   2.827   5.195   5.046
 2505SOL     OW 8413   1.848   5.736   4.240
 2505SOL    HW1 8414   1.905   5.816   4.255
 2505SOL    HW2 8415   1.906   5.658   4.215
 2506SOL     OW 8416   6.003   3.329   6.379
 2506SOL    HW1 8417   5.979   3.331   6.282
 2506SOL    HW2 8418   5.959   3.406   6.426
 2507SOL     OW 8419   1.088   4.232   0.865
 2507SOL    HW1 8420   1.129   4.316   0.830
 2507SOL    HW2 8421   1.036   4.187   0.793
 2508SOL     OW 8422   2.920   1.311   2.038
 2508SOL    HW1 8423   2.831   1.267   2.050
 2508SOL    HW2 8424   2.981   1.283   2.113
 2509SOL     OW 8425   6.027   2.480   2.791
 2509SOL    HW1 8426   5.972   2.551   2.747
 2509SOL    HW2 8427   5.967   2.406   2.822
 2510SOL     OW 8428   3.431   4.211   1.431
 2510SOL    HW1 8429   3.523   4.188   1.463
 2510SOL    HW2 8430   3.382   4.126   1.411
 2511SOL     OW 8431   2.782   1.273   3.561
 2511SOL    HW1 8432   2.731   1.353   3.594
 2511SOL    HW2 8433   2.797   1.210   3.637
 2512SOL     OW 8434   5.108   4.992   4.838
 2512SOL    HW1 8435   5.034   5.004   4.772
 2512SOL    HW2 8436   5.191   4.965   4.791
 2513SOL     OW 8437   1.336   3.358   4.981
 2513SOL    HW1 8438   1.333   3.289   4.908
 2513SOL    HW2 8439   1.311   3.447   4.943
 2514SOL     OW 8440   6.698   3.458   4.171
 2514SOL    HW1 8441   6.614   3.450   4.226
 2514SOL    HW2 8442   6.741   3.368   4.163
 2515SOL     OW 8443   1.392   6.559   0.390
 2515SOL    HW1 8444   1.488   6.539   0.410
 2515SOL    HW2 8445   1.368   6.648   0.428
 2516SOL     OW 8446   5.819   0.344   3.748
 2516SOL    HW1 8447   5.776   0.281   3.813
 2516SOL    HW2 8448   5.761   0.353   3.667
 2517SOL     OW 8449   1.048   5.577   6.135
 2517SOL    HW1 8450   1.060   5.676   6.150
 2517SOL    HW2 8451   1.133   5.539   6.098
 2518SOL     OW 8452   2.015   3.351   6.636
 2518SOL    HW1 8453   2.051   3.336   6.728
 2518SOL    HW2 8454   1.960   3.273   6.608
 2519SOL     OW 8455   5.006   6.327   3.815
 2519SOL    HW1 8456   5.010   6.357   3.720
 2519SOL    HW2 8457   5.097   6.295   3.844
 2520SOL     OW 8458   1.275   3.094   6.951
 2520SOL    HW1 8459   1.265   2.999   6.923
 2520SOL    HW2 8460   1.371   3.115   6.966
 2521SOL     OW 8461   1.165   6.160   6.134
 2521SOL    HW1 8462   1.085   6.107   6.109
 2521SOL    HW2 8463   1.155   6.254   6.101
 2522SOL     OW 8464   0.049   3.037   5.746
 2522SOL    HW1 8465   0.039   3.037   5.845
 2522SOL    HW2 8466   6.981   3.013   5.704
 2523SOL     OW 8467   0.185   2.922   1.428
 2523SOL    HW1 8468   0.195   2.930   1.329
 2523SOL    HW2 8469   0.093   2.892   1.450
 2524SOL     OW 8470   0.678   5.076   4.677
 2524SOL    HW1 8471   0.620   5.137   4.623
 2524SOL    HW2 8472   0.772   5.080   4.642
 2525SOL     OW 8473   0.543   2.763   4.130
 2525SOL    HW1 8474   0.475   2.692   4.151
 2525SOL    HW2 8475   0.555   2.822   4.209
 2526SOL     OW 8476   1.745   4.335   5.378
 2526SOL    HW1 8477   1.799   4.277   5.317
 2526SOL    HW2 8478   1.648   4.313   5.368
 2527SOL     OW 8479   5.480   6.234   5.350
 2527SOL    HW1 8480   5.402   6.290   5.323
 2527SOL    HW2 8481   5.564   6.290   5.346
 2528SOL     OW 8482   5.783   4.453   0.721
 2528SOL    HW1 8483   5.817   4.426   0.811
 2528SOL    HW2 8484   5.772   4.372   0.663
 2529SOL     OW 8485   6.937   6.222   6.688
 2529SOL    HW1 8486   6.948   6.283   6.766
 2529SOL    HW2 8487   7.016   6.161   6.682
 2530SOL     OW 8488   1.160   6.618   4.467
 2530SOL    HW1 8489   1.143   6.714   4.445
 2530SOL    HW2 8490   1.253   6.593   4.440
 2531SOL     OW 8491   5.153   5.988   4.258
 2531SOL    HW1 8492   5.185   6.083   4.266
 2531SOL    HW2 8493   5.099   5.979   4.174
 2532SOL     OW 8494   0.781   5.930   0.833
 2532SOL    HW1 8495   0.871   5.912   0.873
 2532SOL    HW2 8496   0.755   6.025   0.850
 2533SOL     OW 8497   3.536   0.343   3.133
 2533SOL    HW1 8498   3.591   0.385   3.060
 2533SOL    HW2 8499   3.563   0.247   3.143
 2534SOL     OW 8500   2.551   0.961   3.068
 2534SOL    HW1 8501   2.627   1.013   3.030
 2534SOL    HW2 8502   2.583   0.870   3.095
 2535SOL     OW 8503   2.614   2.757   6.703
 2535SOL    HW1 8504   2.624   2.741   6.801
 2535SOL    HW2 8505   2.644   2.675   6.653
 2536SOL     OW 8506   6.557   1.909   3.781
 2536SOL    HW1 8507   6.652   1.881   3.791
 2536SOL    HW2 8508   6.540   1.937   3.687
 2537SOL     OW 8509   5.270   6.273   6.600
 2537SOL    HW1 8510   5.333   6.341   6.563
 2537SOL    HW2 8511   5.188   6.318   6.634
 2538SOL     OW 8512   1.226   3.925   4.367
 2538SOL    HW1 8513   1.246   4.014   4.409
 2538SOL    HW2 8514   1.308   3.893   4.320
 2539SOL     OW 8515   5.195   0.514   6.037
 2539SOL    HW1 8516   5.261   0.458   5.987
 2539SOL    HW2 8517   5.235   0.603   6.057
 2540SOL     OW 8518   4.581   0.825   2.226
 2540SOL    HW1 8519   4.493   0.812   2.270
 2540SOL    HW2 8520   4.578   0.906   2.167
 2541SOL     OW 8521   1.791   6.506   5.544
 2541SOL    HW1 8522   1.758   6.593   5.581
 2541SOL    HW2 8523   1.842   6.523   5.460
 2542SOL     OW 8524   5.156   1.482   5.787
 2542SOL    HW1 8525   5.146   1.515   5.694
 2542SOL    HW2 8526   5.167   1.382   5.786
 2543SOL     OW 8527   1.885   1.650   2.687
 2543SOL    HW1 8528   1.814   1.695   2.741
 2543SOL    HW2 8529   1.965   1.710   2.679
 2544SOL     OW 8530   0.008   4.998   1.665
 2544SOL    HW1 8531   0.022   5.084   1.714
 2544SOL    HW2 8532   0.096   4.964   1.632
 2545SOL     OW 8533   2.039   0.999   0.850
 2545SOL    HW1 8534   1.983   1.074   0.884
 2545SOL    HW2 8535   1.982   0.937   0.796
 2546SOL     OW 8536   0.193   2.649   2.283
 2546SOL    HW1 8537   0.128   2.725   2.273
 2546SOL    HW2 8538   0.149   2.575   2.335
 2547SOL     OW 8539   5.909   4.894   6.808
 2547SOL    HW1 8540   5.917   4.986   6.846
 2547SOL    HW2 8541   5.950   4.891   6.717
 2548SOL     OW 8542   3.003   0.000   5.445
 2548SOL    HW1 8543   3.071   6.952   5.469
 2548SOL    HW2 8544   2.913   6.992   5.478
 2549SOL     OW 8545   2.032   1.198   1.397
 2549SOL    HW1 8546   1.999   1.264   1.329
 2549SOL    HW2 8547   2.132   1.204   1.402
 2550SOL     OW 8548   6.951   0.686   6.325
 2550SOL    HW1 8549   6.883   0.692   6.252
 2550SOL    HW2 8550   0.016   0.649   6.287
 2551SOL     OW 8551   2.864   5.748   6.950
 2551SOL    HW1 8552   2.797   5.821   6.967
 2551SOL    HW2 8553   2.816   5.661   6.938
 2552SOL     OW 8554   1.094   5.836   6.213
 2552SOL    HW1 8555   1.186   5.867   6.235
 2552SOL    HW2 8556   1.038   5.914   6.186
 2553SOL     OW 8557   3.644   3.800   6.831
 2553SOL    HW1 8558   3.563   3.793   6.774
 2553SOL    HW2 8559   3.704   3.871   6.795
 2554SOL     OW 8560   1.488   5.755   6.980
 2554SOL    HW1 8561   1.546   5.811   0.019
 2554SOL    HW2 8562   1.489   5.660   7.013
 2555SOL     OW 8563   6.502   6.440   5.923
 2555SOL    HW1 8564   6.584   6.491   5.947
 2555SOL    HW2 8565   6.429   6.461   5.988
 2556SOL     OW 8566   3.968   5.966   0.508
 2556SOL    HW1 8567   4.022   5.923   0.436
 2556SOL    HW2 8568   4.013   6.050   0.538
 2557SOL     OW 8569   2.522   2.381   6.408
 2557SOL    HW1 8570   2.479   2.382   6.498
 2557SOL    HW2 8571   2.492   2.461   6.356
 2558SOL     OW 8572   4.053   3.356   6.103
 2558SOL    HW1 8573   4.100   3.345   6.015
 2558SOL    HW2 8574   4.024   3.451   6.113
 2559SOL     OW 8575   6.297   3.601   4.382
 2559SOL    HW1 8576   6.264   3.616   4.289
 2559SOL    HW2 8577   6.359   3.523   4.383
 2560SOL     OW 8578   5.548   3.652   4.086
 2560SOL    HW1 8579   5.565   3.613   4.176
 2560SOL    HW2 8580   5.459   3.697   4.086
 2561SOL     OW 8581   3.039   0.331   4.047
 2561SOL    HW1 8582   3.001   0.423   4.054
 2561SOL    HW2 8583   3.104   0.327   3.971
 2562SOL     OW 8584   1.993   5.641   2.449
 2562SOL    HW1 8585   1.951   5.557   2.415
 2562SOL    HW2 8586   1.940   5.720   2.419
 2563SOL     OW 8587   4.284   1.606   7.006
 2563SOL    HW1 8588   4.279   1.638   0.080
 2563SOL    HW2 8589   4.192   1.585   6.973
 2564SOL     OW 8590   0.983   6.816   6.465
 2564SOL    HW1 8591   1.062   6.874   6.448
 2564SOL    HW2 8592   0.940   6.791   6.379
 2565SOL     OW 8593   0.001   0.680   0.159
 2565SOL    HW1 8594   6.961   0.749   0.117
 2565SOL    HW2 8595   7.009   0.680   0.258
 2566SOL     OW 8596   1.887   0.119   0.871
 2566SOL    HW1 8597   1.788   0.122   0.856
 2566SOL    HW2 8598   1.927   0.047   0.815
 2567SOL     OW 8599   1.167   1.355   1.733
 2567SOL    HW1 8600   1.131   1.316   1.649
 2567SOL    HW2 8601   1.177   1.454   1.723
 2568SOL     OW 8602   3.139   0.267   6.912
 2568SOL    HW1 8603   3.089   0.306   6.835
 2568SOL    HW2 8604   3.106   0.175   6.931
 2569SOL     OW 8605   2.722   0.523   1.541
 2569SOL    HW1 8606   2.645   0.526   1.477
 2569SOL    HW2 8607   2.709   0.591   1.613
 2570SOL     OW 8608   6.116   0.651   7.000
 2570SOL    HW1 8609   6.184   0.714   6.961
 2570SOL    HW2 8610   6.153   0.608   0.062
 2571SOL     OW 8611   2.332   3.532   5.584
 2571SOL    HW1 8612   2.381   3.479   5.654
 2571SOL    HW2 8613   2.355   3.628   5.594
 2572SOL     OW 8614   2.026   6.542   1.170
 2572SOL    HW1 8615   1.939   6.547   1.219
 2572SOL    HW2 8616   2.098   6.584   1.225
 2573SOL     OW 8617   6.434   1.628   2.533
 2573SOL    HW1 8618   6.526   1.668   2.533
 2573SOL    HW2 8619   6.367   1.697   2.507
 2574SOL     OW 8620   0.137   3.345   0.307
 2574SOL    HW1 8621   0.060   3.359   0.370
 2574SOL    HW2 8622   0.147   3.248   0.288
 2575SOL     OW 8623   5.045   4.893   6.961
 2575SOL    HW1 8624   5.036   4.806   7.010
 2575SOL    HW2 8625   4.980   4.959   6.998
 2576SOL     OW 8626   4.204   6.774   4.372
 2576SOL    HW1 8627   4.164   6.820   4.293
 2576SOL    HW2 8628   4.215   6.839   4.447
 2577SOL     OW 8629   4.261   5.800   2.377
 2577SOL    HW1 8630   4.273   5.899   2.379
 2577SOL    HW2 8631   4.349   5.755   2.392
 2578SOL     OW 8632   4.910   2.495   4.692
 2578SOL    HW1 8633   4.874   2.463   4.605
 2578SOL    HW2 8634   4.990   2.440   4.717
 2579SOL     OW 8635   0.884   0.836   3.222
 2579SOL    HW1 8636   0.794   0.804   3.251
 2579SOL    HW2 8637   0.932   0.877   3.300
 2580SOL     OW 8638   2.242   2.848   6.908
 2580SOL    HW1 8639   2.151   2.869   6.943
 2580SOL    HW2 8640   2.296   2.802   6.979
 2581SOL     OW 8641   6.924   4.136   1.122
 2581SOL    HW1 8642   6.959   4.227   1.146
 2581SOL    HW2 8643   6.856   4.144   1.050
 2582SOL     OW 8644   0.957   4.289   2.177
 2582SOL    HW1 8645   1.004   4.205   2.149
 2582SOL    HW2 8646   0.988   4.316   2.268
 2583SOL     OW 8647   0.403   1.970   1.262
 2583SOL    HW1 8648   0.397   2.020   1.176
 2583SOL    HW2 8649   0.342   1.890   1.258
 2584SOL     OW 8650   3.897   5.667   0.119
 2584SOL    HW1 8651   3.961   5.609   0.069
 2584SOL    HW2 8652   3.840   5.611   0.179
 2585SOL     OW 8653   3.998   1.650   0.252
 2585SOL    HW1 8654   4.092   1.682   0.242
 2585SOL    HW2 8655   3.936   1.729   0.249
 2586SOL     OW 8656   3.703   1.484   3.804
 2586SOL    HW1 8657   3.715   1.413   3.735
 2586SOL    HW2 8658   3.606   1.490   3.829
 2587SOL     OW 8659   6.949   0.954   3.715
 2587SOL    HW1 8660   6.944   0.876   3.653
 2587SOL    HW2 8661   6.909   1.034   3.671
 2588SOL     OW 8662   4.784   6.725   6.862
 2588SOL    HW1 8663   4.795   6.777   6.946
 2588SOL    HW2 8664   4.782   6.628   6.883
 2589SOL     OW 8665   0.390   5.838   5.988
 2589SOL    HW1 8666   0.410   5.886   6.073
 2589SOL    HW2 8667   0.459   5.767   5.973
 2590SOL     OW 8668   3.126   6.179   1.904
 2590SOL    HW1 8669   3.059   6.141   1.967
 2590SOL    HW2 8670   3.151   6.110   1.836
 2591SOL     OW 8671   6.876   5.669   1.790
 2591SOL    HW1 8672   6.893   5.604   1.716
 2591SOL    HW2 8673   6.923   5.755   1.771
 2592SOL     OW 8674   3.409   6.580   1.285
 2592SOL    HW1 8675   3.425   6.588   1.383
 2592SOL    HW2 8676   3.497   6.588   1.237
 2593SOL     OW 8677   2.714   6.256   1.569
 2593SOL    HW1 8678   2.702   6.232   1.472
 2593SOL    HW2 8679   2.631   6.234   1.619
 2594SOL     OW 8680   0.220   5.902   5.795
 2594SOL    HW1 8681   0.142   5.938   5.847
 2594SOL    HW2 8682   0.291   5.872   5.859
 2595SOL     OW 8683   6.335   1.390   4.710
 2595SOL    HW1 8684   6.306   1.471   4.760
 2595SOL    HW2 8685   6.255   1.333   4.690
 2596SOL     OW 8686   3.751   2.134   1.679
 2596SOL    HW1 8687   3.766   2.191   1.760
 2596SOL    HW2 8688   3.697   2.185   1.612
 2597SOL     OW 8689   1.901   3.716   6.423
 2597SOL    HW1 8690   1.994   3.706   6.390
 2597SOL    HW2 8691   1.849   3.774   6.360
 2598SOL     OW 8692   6.228   1.082   4.725
 2598SOL    HW1 8693   6.247   1.061   4.629
 2598SOL    HW2 8694   6.304   1.047   4.781
 2599SOL     OW 8695   3.009   0.520   0.790
 2599SOL    HW1 8696   2.940   0.561   0.849
 2599SOL    HW2 8697   2.968   0.445   0.739
 2600SOL     OW 8698   5.080   3.389   4.298
 2600SOL    HW1 8699   5.015   3.427   4.362
 2600SOL    HW2 8700   5.035   3.321   4.240
 2601SOL     OW 8701   2.280   2.136   6.764
 2601SOL    HW1 8702   2.291   2.093   6.674
 2601SOL    HW2 8703   2.186   2.169   6.774
 2602SOL     OW 8704   6.693   4.364   3.900
 2602SOL    HW1 8705   6.662   4.458   3.887
 2602SOL    HW2 8706   6.792   4.359   3.885
 2603SOL     OW 8707   2.379   1.854   2.036
 2603SOL    HW1 8708   2.457   1.838   1.976
 2603SOL    HW2 8709   2.314   1.915   1.990
 2604SOL     OW 8710   4.782   1.518   3.348
 2604SOL    HW1 8711   4.706   1.569   3.308
 2604SOL    HW2 8712   4.765   1.420   3.339
 2605SOL     OW 8713   2.146   4.085   2.926
 2605SOL    HW1 8714   2.062   4.133   2.904
 2605SOL    HW2 8715   2.194   4.061   2.841
 2606SOL     OW 8716   6.826   4.720   1.202
 2606SOL    HW1 8717   6.759   4.652   1.233
 2606SOL    HW2 8718   6.789   4.812   1.215
 2607SOL     OW 8719   6.898   1.299   6.904
 2607SOL    HW1 8720   6.913   1.354   6.986
 2607SOL    HW2 8721   6.962   1.327   6.833
 2608SOL     OW 8722   4.745   4.806   1.415
 2608SOL    HW1 8723   4.756   4.884   1.353
 2608SOL    HW2 8724   4.743   4.839   1.510
 2609SOL     OW 8725   6.653   1.426   1.717
 2609SOL    HW1 8726   6.740   1.475   1.728
 2609SOL    HW2 8727   6.649   1.352   1.784
 2610SOL     OW 8728   6.974   4.886   4.343
 2610SOL    HW1 8729   6.984   4.961   4.277
 2610SOL    HW2 8730   7.006   4.917   4.433
 2611SOL     OW 8731   4.538   5.964   0.824
 2611SOL    HW1 8732   4.538   5.886   0.887
 2611SOL    HW2 8733   4.509   6.047   0.872
 2612SOL     OW 8734   6.599   0.180   5.542
 2612SOL    HW1 8735   6.533   0.109   5.565
 2612SOL    HW2 8736   6.645   0.155   5.457
 2613SOL     OW 8737   2.690   6.642   0.471
 2613SOL    HW1 8738   2.741   6.708   0.526
 2613SOL    HW2 8739   2.737   6.554   0.472
 2614SOL     OW 8740   6.795   0.714   6.100
 2614SOL    HW1 8741   6.696   0.725   6.105
 2614SOL    HW2 8742   6.829   0.763   6.020
 2615SOL     OW 8743   0.255   3.465   2.813
 2615SOL    HW1 8744   0.319   3.538   2.788
 2615SOL    HW2 8745   0.192   3.499   2.883
 2616SOL     OW 8746   3.915   3.044   4.972
 2616SOL    HW1 8747   3.859   2.975   5.018
 2616SOL    HW2 8748   3.985   3.078   5.035
 2617SOL     OW 8749   3.680   6.694   1.173
 2617SOL    HW1 8750   3.710   6.607   1.213
 2617SOL    HW2 8751   3.704   6.696   1.076
 2618SOL     OW 8752   0.349   0.344   4.298
 2618SOL    HW1 8753   0.370   0.386   4.210
 2618SOL    HW2 8754   0.426   0.288   4.328
 2619SOL     OW 8755   4.161   1.854   3.238
 2619SOL    HW1 8756   4.257   1.882   3.236
 2619SOL    HW2 8757   4.148   1.786   3.310
 2620SOL     OW 8758   6.989   6.844   2.453
 2620SOL    HW1 8759   6.971   6.860   2.550
 2620SOL    HW2 8760   6.995   6.932   2.406
 2621SOL     OW 8761   1.215   5.906   3.111
 2621SOL    HW1 8762   1.142   5.848   3.075
 2621SOL    HW2 8763   1.199   5.924   3.208
 2622SOL     OW 8764   2.252   2.747   5.838
 2622SOL    HW1 8765   2.224   2.758   5.933
 2622SOL    HW2 8766   2.351   2.755   5.831
 2623SOL     OW 8767   2.250   1.395   5.503
 2623SOL    HW1 8768   2.304   1.438   5.431
 2623SOL    HW2 8769   2.237   1.298   5.481
 2624SOL     OW 8770   6.732   2.365   5.420
 2624SOL    HW1 8771   6.755   2.268   5.426
 2624SOL    HW2 8772   6.665   2.387   5.492
 2625SOL     OW 8773   2.267   2.080   5.301
 2625SOL    HW1 8774   2.333   2.128   5.243
 2625SOL    HW2 8775   2.250   2.133   5.384
 2626SOL     OW 8776   0.758   6.842   5.490
 2626SOL    HW1 8777   0.757   6.791   5.576
 2626SOL    HW2 8778   0.832   6.808   5.432
 2627SOL     OW 8779   1.409   1.491   5.613
 2627SOL    HW1 8780   1.379   1.420   5.549
 2627SOL    HW2 8781   1.337   1.560   5.622
 2628SOL     OW 8782   2.338   5.175   5.864
 2628SOL    HW1 8783   2.371   5.233   5.938
 2628SOL    HW2 8784   2.292   5.231   5.795
 2629SOL     OW 8785   2.759   3.314   1.669
 2629SOL    HW1 8786   2.724   3.224   1.643
 2629SOL    HW2 8787   2.767   3.319   1.768
 2630SOL     OW 8788   3.009   1.788   2.989
 2630SOL    HW1 8789   3.062   1.871   2.973
 2630SOL    HW2 8790   2.913   1.813   3.004
 2631SOL     OW 8791   5.489   0.426   5.357
 2631SOL    HW1 8792   5.477   0.330   5.383
 2631SOL    HW2 8793   5.587   0.446   5.350
 2632SOL     OW 8794   3.963   2.378   6.475
 2632SOL    HW1 8795   3.980   2.443   6.549
 2632SOL    HW2 8796   4.006   2.412   6.391
 2633SOL     OW 8797   6.908   1.004   4.455
 2633SOL    HW1 8798   6.941   0.991   4.361
 2633SOL    HW2 8799   6.971   1.064   4.504
 2634SOL     OW 8800   0.923   4.451   3.015
 2634SOL    HW1 8801   0.994   4.405   3.068
 2634SOL    HW2 8802   0.878   4.520   3.072
 2635SOL     OW 8803   6.165   6.097   5.780
 2635SOL    HW1 8804   6.265   6.090   5.779
 2635SOL    HW2 8805   6.128   6.047   5.702
 2636SOL     OW 8806   4.680   0.213   5.557
 2636SOL    HW1 8807   4.742   0.157   5.612
 2636SOL    HW2 8808   4.591   0.220   5.603
 2637SOL     OW 8809   4.964   1.869   3.730
 2637SOL    HW1 8810   5.053   1.880   3.686
 2637SOL    HW2 8811   4.962   1.923   3.814
 2638SOL     OW 8812   6.742   0.759   3.275
 2638SOL    HW1 8813   6.788   0.771   3.187
 2638SOL    HW2 8814   6.649   0.726   3.260
 2639SOL     OW 8815   0.680   6.536   1.107
 2639SOL    HW1 8816   0.676   6.561   1.204
 2639SOL    HW2 8817   0.624   6.600   1.054
 2640SOL     OW 8818   0.488   5.777   4.968
 2640SOL    HW1 8819   0.538   5.848   5.017
 2640SOL    HW2 8820   0.391   5.802   4.963
 2641SOL     OW 8821   4.891   3.070   2.171
 2641SOL    HW1 8822   4.832   3.076   2.091
 2641SOL    HW2 8823   4.843   3.021   2.244
 2642SOL     OW 8824   4.079   6.474   4.031
 2642SOL    HW1 8825   4.055   6.383   3.996
 2642SOL    HW2 8826   4.139   6.520   3.966
 2643SOL     OW 8827   0.352   3.930   2.888
 2643SOL    HW1 8828   0.403   3.975   2.962
 2643SOL    HW2 8829   0.297   3.855   2.926
 2644SOL     OW 8830   6.397   5.961   6.042
 2644SOL    HW1 8831   6.402   5.898   6.119
 2644SOL    HW2 8832   6.359   5.913   5.962
 2645SOL     OW 8833   4.672   5.661   4.744
 2645SOL    HW1 8834   4.720   5.610   4.815
 2645SOL    HW2 8835   4.617   5.733   4.785
 2646SOL     OW 8836   6.029   0.528   6.763
 2646SOL    HW1 8837   6.056   0.543   6.859
 2646SOL    HW2 8838   6.068   0.441   6.732
 2647SOL     OW 8839   6.524   0.301   1.992
 2647SOL    HW1 8840   6.611   0.262   2.021
 2647SOL    HW2 8841   6.459   0.227   1.975
 2648SOL     OW 8842   0.498   0.288   4.067
 2648SOL    HW1 8843   0.453   0.205   4.100
 2648SOL    HW2 8844   0.455   0.316   3.981
 2649SOL     OW 8845   5.801   3.157   0.059
 2649SOL    HW1 8846   5.891   3.125   0.088
 2649SOL    HW2 8847   5.738   3.080   0.051
 2650SOL     OW 8848   0.902   4.307   4.505
 2650SOL    HW1 8849   0.855   4.395   4.514
 2650SOL    HW2 8850   0.838   4.233   4.527
 2651SOL     OW 8851   0.865   1.038   0.511
 2651SOL    HW1 8852   0.893   1.017   0.418
 2651SOL    HW2 8853   0.938   1.087   0.558
 2652SOL     OW 8854   3.604   3.780   4.257
 2652SOL    HW1 8855   3.519   3.831   4.273
 2652SOL    HW2 8856   3.633   3.736   4.342
 2653SOL     OW 8857   5.002   6.730   5.453
 2653SOL    HW1 8858   5.023   6.702   5.359
 2653SOL    HW2 8859   5.080   6.781   5.490
 2654SOL     OW 8860   4.764   5.672   1.405
 2654SOL    HW1 8861   4.823   5.626   1.339
 2654SOL    HW2 8862   4.703   5.735   1.357
 2655SOL     OW 8863   4.321   5.971   4.069
 2655SOL    HW1 8864   4.234   5.996   4.112
 2655SOL    HW2 8865   4.310   5.886   4.018
 2656SOL     OW 8866   3.288   5.065   4.355
 2656SOL    HW1 8867   3.196   5.091   4.384
 2656SOL    HW2 8868   3.282   5.003   4.276
 2657SOL     OW 8869   1.021   3.946   6.088
 2657SOL    HW1 8870   0.940   3.935   6.145
 2657SOL    HW2 8871   1.088   3.876   6.112
 2658SOL     OW 8872   5.008   4.052   0.527
 2658SOL    HW1 8873   4.910   4.031   0.536
 2658SOL    HW2 8874   5.021   4.151   0.530
 2659SOL     OW 8875   5.750   3.235   4.161
 2659SOL    HW1 8876   5.794   3.182   4.233
 2659SOL    HW2 8877   5.652   3.245   4.181
 2660SOL     OW 8878   1.191   0.788   1.112
 2660SOL    HW1 8879   1.253   0.725   1.066
 2660SOL    HW2 8880   1.227   0.881   1.106
 2661SOL     OW 8881   2.782   6.921   1.239
 2661SOL    HW1 8882   2.756   7.012   1.207
 2661SOL    HW2 8883   2.708   6.882   1.293
 2662SOL     OW 8884   4.979   6.421   5.270
 2662SOL    HW1 8885   4.996   6.372   5.184
 2662SOL    HW2 8886   5.020   6.512   5.265
 2663SOL     OW 8887   3.167   3.694   0.045
 2663SOL    HW1 8888   3.261   3.717   0.019
 2663SOL    HW2 8889   3.107   3.703   6.986
 2664SOL     OW 8890   4.147   3.988   5.302
 2664SOL    HW1 8891   4.096   3.952   5.379
 2664SOL    HW2 8892   4.244   3.965   5.313
 2665SOL     OW 8893   2.503   2.695   5.159
 2665SOL    HW1 8894   2.425   2.685   5.097
 2665SOL    HW2 8895   2.523   2.792   5.171
 2666SOL     OW 8896   5.688   4.056   0.909
 2666SOL    HW1 8897   5.650   4.098   0.991
 2666SOL    HW2 8898   5.648   4.099   0.827
 2667SOL     OW 8899   0.749   6.626   3.906
 2667SOL    HW1 8900   0.720   6.681   3.828
 2667SOL    HW2 8901   0.823   6.565   3.878
 2668SOL     OW 8902   7.005   3.076   4.410
 2668SOL    HW1 8903   0.074   3.073   4.364
 2668SOL    HW2 8904   7.019   3.061   4.508
 2669SOL     OW 8905   2.689   4.369   5.327
 2669SOL    HW1 8906   2.740   4.417   5.256
 2669SOL    HW2 8907   2.741   4.290   5.358
 2670SOL     OW 8908   6.270   3.379   6.335
 2670SOL    HW1 8909   6.177   3.354   6.362
 2670SOL    HW2 8910   6.287   3.347   6.241
 2671SOL     OW 8911   4.002   5.167   5.760
 2671SOL    HW1 8912   4.038   5.238   5.699
 2671SOL    HW2 8913   3.918   5.199   5.803
 2672SOL     OW 8914   1.381   4.765   0.977
 2672SOL    HW1 8915   1.434   4.845   0.951
 2672SOL    HW2 8916   1.363   4.768   1.076
 2673SOL     OW 8917   6.065   0.712   3.617
 2673SOL    HW1 8918   6.058   0.719   3.517
 2673SOL    HW2 8919   6.038   0.620   3.645
 2674SOL     OW 8920   1.327   4.478   4.054
 2674SOL    HW1 8921   1.329   4.443   3.960
 2674SOL    HW2 8922   1.301   4.575   4.052
 2675SOL     OW 8923   6.426   5.461   3.442
 2675SOL    HW1 8924   6.388   5.553   3.449
 2675SOL    HW2 8925   6.423   5.431   3.346
 2676SOL     OW 8926   4.207   2.268   0.843
 2676SOL    HW1 8927   4.134   2.293   0.779
 2676SOL    HW2 8928   4.227   2.171   0.834
 2677SOL     OW 8929   3.170   3.348   0.132
 2677SOL    HW1 8930   3.238   3.397   0.078
 2677SOL    HW2 8931   3.216   3.286   0.195
 2678SOL     OW 8932   0.289   2.752   1.079
 2678SOL    HW1 8933   0.298   2.696   1.161
 2678SOL    HW2 8934   0.367   2.734   1.018
 2679SOL     OW 8935   3.493   4.401   1.197
 2679SOL    HW1 8936   3.439   4.465   1.252
 2679SOL    HW2 8937   3.575   4.448   1.164
 2680SOL     OW 8938   1.158   1.425   0.596
 2680SOL    HW1 8939   1.131   1.506   0.544
 2680SOL    HW2 8940   1.178   1.451   0.690
 2681SOL     OW 8941   1.303   2.615   4.200
 2681SOL    HW1 8942   1.362   2.626   4.280
 2681SOL    HW2 8943   1.266   2.522   4.198
 2682SOL     OW 8944   5.012   3.977   2.431
 2682SOL    HW1 8945   5.031   4.071   2.458
 2682SOL    HW2 8946   4.951   3.976   2.352
 2683SOL     OW 8947   2.579   5.015   1.484
 2683SOL    HW1 8948   2.622   4.928   1.506
 2683SOL    HW2 8949   2.627   5.089   1.531
 2684SOL     OW 8950   3.868   5.399   1.447
 2684SOL    HW1 8951   3.808   5.435   1.519
 2684SOL    HW2 8952   3.825   5.410   1.358
 2685SOL     OW 8953   6.649   6.573   6.436
 2685SOL    HW1 8954   6.676   6.477   6.438
 2685SOL    HW2 8955   6.656   6.608   6.343
 2686SOL     OW 8956   1.514   1.669   5.853
 2686SOL    HW1 8957   1.581   1.625   5.912
 2686SOL    HW2 8958   1.488   1.606   5.779
 2687SOL     OW 8959   4.554   4.482   2.327
 2687SOL    HW1 8960   4.576   4.421   2.403
 2687SOL    HW2 8961   4.497   4.557   2.360
 2688SOL     OW 8962   3.899   4.284   6.938
 2688SOL    HW1 8963   3.806   4.258   6.910
 2688SOL    HW2 8964   3.906   4.383   6.944
 2689SOL     OW 8965   1.335   3.965   3.557
 2689SOL    HW1 8966   1.285   3.898   3.502
 2689SOL    HW2 8967   1.407   3.918   3.608
 2690SOL     OW 8968   3.599   3.287   3.747
 2690SOL    HW1 8969   3.551   3.361   3.700
 2690SOL    HW2 8970   3.600   3.206   3.689
 2691SOL     OW 8971   1.486   5.298   2.218
 2691SOL    HW1 8972   1.497   5.376   2.280
 2691SOL    HW2 8973   1.572   5.246   2.213
 2692SOL     OW 8974   3.366   5.534   3.080
 2692SOL    HW1 8975   3.369   5.537   2.980
 2692SOL    HW2 8976   3.451   5.497   3.115
 2693SOL     OW 8977   2.532   5.568   3.084
 2693SOL    HW1 8978   2.513   5.495   3.019
 2693SOL    HW2 8979   2.465   5.565   3.159
 2694SOL     OW 8980   3.894   6.552   2.714
 2694SOL    HW1 8981   3.841   6.494   2.652
 2694SOL    HW2 8982   3.879   6.648   2.691
 2695SOL     OW 8983   5.537   0.399   2.601
 2695SOL    HW1 8984   5.460   0.462   2.613
 2695SOL    HW2 8985   5.558   0.391   2.503
 2696SOL     OW 8986   3.694   3.735   5.630
 2696SOL    HW1 8987   3.748   3.746   5.546
 2696SOL    HW2 8988   3.722   3.651   5.676
 2697SOL     OW 8989   3.240   1.758   2.579
 2697SOL    HW1 8990   3.159   1.815   2.567
 2697SOL    HW2 8991   3.215   1.662   2.567
 2698SOL     OW 8992   2.308   6.772   0.102
 2698SOL    HW1 8993   2.214   6.769   0.135
 2698SOL    HW2 8994   2.330   6.686   0.056
 2699SOL     OW 8995   2.629   6.719   0.830
 2699SOL    HW1 8996   2.546   6.740   0.882
 2699SOL    HW2 8997   2.647   6.621   0.835
 2700SOL     OW 8998   1.987   3.517   0.511
 2700SOL    HW1 8999   2.038   3.602   0.524
 2700SOL    HW2 9000   1.944   3.517   0.421
 2701SOL     OW 9001   5.693   1.283   6.200
 2701SOL    HW1 9002   5.745   1.226   6.136
 2701SOL    HW2 9003   5.601   1.245   6.210
 2702SOL     OW 9004   0.763   3.250   3.388
 2702SOL    HW1 9005   0.716   3.331   3.425
 2702SOL    HW2 9006   0.762   3.177   3.457
 2703SOL     OW 9007   1.633   0.230   1.289
 2703SOL    HW1 9008   1.662   0.304   1.230
 2703SOL    HW2 9009   1.692   0.226   1.370
 2704SOL     OW 9010   6.733   5.820   1.210
 2704SOL    HW1 9011   6.674   5.900   1.202
 2704SOL    HW2 9012   6.828   5.847   1.191
 2705SOL     OW 9013   6.961   5.730   4.467
 2705SOL    HW1 9014   6.934   5.770   4.555
 2705SOL    HW2 9015   6.999   5.802   4.409
 2706SOL     OW 9016   0.377   6.644   1.595
 2706SOL    HW1 9017   0.415   6.598   1.514
 2706SOL    HW2 9018   0.452   6.676   1.653
 2707SOL     OW 9019   3.565   0.144   4.419
 2707SOL    HW1 9020   3.500   0.148   4.343
 2707SOL    HW2 9021   3.640   0.083   4.394
 2708SOL     OW 9022   0.329   2.116   6.760
 2708SOL    HW1 9023   0.393   2.148   6.690
 2708SOL    HW2 9024   0.248   2.077   6.717
 2709SOL     OW 9025   6.207   6.620   6.947
 2709SOL    HW1 9026   6.279   6.641   7.013
 2709SOL    HW2 9027   6.225   6.531   6.905
 2710SOL     OW 9028   1.160   3.801   3.444
 2710SOL    HW1 9029   1.108   3.809   3.529
 2710SOL    HW2 9030   1.149   3.709   3.406
 2711SOL     OW 9031   2.440   1.274   3.937
 2711SOL    HW1 9032   2.470   1.293   4.031
 2711SOL    HW2 9033   2.474   1.184   3.909
 2712SOL     OW 9034   2.998   4.417   0.994
 2712SOL    HW1 9035   2.991   4.321   1.019
 2712SOL    HW2 9036   2.925   4.440   0.929
 2713SOL     OW 9037   2.535   2.203   4.793
 2713SOL    HW1 9038   2.516   2.284   4.847
 2713SOL    HW2 9039   2.632   2.203   4.766
 2714SOL     OW 9040   4.051   2.346   0.645
 2714SOL    HW1 9041   4.041   2.442   0.618
 2714SOL    HW2 9042   3.992   2.289   0.586
 2715SOL     OW 9043   5.066   1.921   0.878
 2715SOL    HW1 9044   5.110   1.858   0.943
 2715SOL    HW2 9045   5.130   1.944   0.806
 2716SOL     OW 9046   5.112   4.234   2.447
 2716SOL    HW1 9047   5.085   4.234   2.350
 2716SOL    HW2 9048   5.137   4.326   2.475
 2717SOL     OW 9049   0.992   6.186   2.491
 2717SOL    HW1 9050   0.896   6.214   2.492
 2717SOL    HW2 9051   1.035   6.213   2.577
 2718SOL     OW 9052   2.093   1.902   5.180
 2718SOL    HW1 9053   2.152   1.980   5.200
 2718SOL    HW2 9054   2.075   1.851   5.265
 2719SOL     OW 9055   6.356   5.475   0.511
 2719SOL    HW1 9056   6.337   5.420   0.592
 2719SOL    HW2 9057   6.280   5.465   0.446
 2720SOL     OW 9058   1.857   6.571   2.221
 2720SOL    HW1 9059   1.824   6.606   2.133
 2720SOL    HW2 9060   1.929   6.631   2.256
 2721SOL     OW 9061   2.312   0.398   3.752
 2721SOL    HW1 9062   2.347   0.462   3.821
 2721SOL    HW2 9063   2.258   0.449   3.685
 2722SOL     OW 9064   6.729   5.522   1.174
 2722SOL    HW1 9065   6.713   5.618   1.198
 2722SOL    HW2 9066   6.790   5.480   1.242
 2723SOL     OW 9067   0.566   7.009   6.340
 2723SOL    HW1 9068   0.582   7.008   6.241
 2723SOL    HW2 9069   0.531   6.920   6.369
 2724SOL     OW 9070   2.058   6.720   0.203
 2724SOL    HW1 9071   2.086   6.774   0.282
 2724SOL    HW2 9072   1.959   6.711   0.201
 2725SOL     OW 9073   5.446   5.291   4.207
 2725SOL    HW1 9074   5.475   5.272   4.301
 2725SOL    HW2 9075   5.463   5.387   4.185
 2726SOL     OW 9076   7.002   2.673   1.069
 2726SOL    HW1 9077   0.080   2.694   1.064
 2726SOL    HW2 9078   6.954   2.748   1.115
 2727SOL     OW 9079   0.231   5.156   3.025
 2727SOL    HW1 9080   0.254   5.254   3.022
 2727SOL    HW2 9081   0.296   5.108   3.083
 2728SOL     OW 9082   4.773   6.154   5.914
 2728SOL    HW1 9083   4.775   6.206   5.829
 2728SOL    HW2 9084   4.716   6.201   5.981
 2729SOL     OW 9085   6.940   5.934   0.932
 2729SOL    HW1 9086   6.845   5.907   0.915
 2729SOL    HW2 9087   6.949   6.033   0.919
 2730SOL     OW 9088   1.507   5.648   1.464
 2730SOL    HW1 9089   1.592   5.700   1.472
 2730SOL    HW2 9090   1.504   5.577   1.535
 2731SOL     OW 9091   4.042   3.441   3.027
 2731SOL    HW1 9092   4.093   3.385   2.962
 2731SOL    HW2 9093   4.061   3.409   3.120
 2732SOL     OW 9094   5.293   2.257   1.658
 2732SOL    HW1 9095   5.352   2.209   1.593
 2732SOL    HW2 9096   5.214   2.200   1.680
 2733SOL     OW 9097   6.846   0.204   4.798
 2733SOL    HW1 9098   6.816   0.131   4.735
 2733SOL    HW2 9099   6.819   0.293   4.761
 2734SOL     OW 9100   2.414   6.434   1.913
 2734SOL    HW1 9101   2.453   6.387   1.992
 2734SOL    HW2 9102   2.331   6.387   1.884
 2735SOL     OW 9103   1.528   3.350   2.692
 2735SOL    HW1 9104   1.429   3.347   2.680
 2735SOL    HW2 9105   1.564   3.435   2.652
 2736SOL     OW 9106   4.913   6.987   5.397
 2736SOL    HW1 9107   4.999   0.016   5.412
 2736SOL    HW2 9108   4.923   6.892   5.427
 2737SOL     OW 9109   3.466   4.084   5.607
 2737SOL    HW1 9110   3.415   4.144   5.544
 2737SOL    HW2 9111   3.431   3.991   5.601
 2738SOL     OW 9112   4.956   6.071   2.839
 2738SOL    HW1 9113   4.862   6.080   2.805
 2738SOL    HW2 9114   5.006   6.156   2.820
 2739SOL     OW 9115   0.052   4.932   1.332
 2739SOL    HW1 9116   0.092   4.844   1.355
 2739SOL    HW2 9117   6.979   4.937   1.368
 2740SOL     OW 9118   6.868   3.977   2.332
 2740SOL    HW1 9119   6.787   3.980   2.274
 2740SOL    HW2 9120   6.919   3.894   2.314
 2741SOL     OW 9121   6.512   6.885   5.161
 2741SOL    HW1 9122   6.569   6.962   5.132
 2741SOL    HW2 9123   6.420   6.917   5.181
 2742SOL     OW 9124   2.411   5.754   6.958
 2742SOL    HW1 9125   2.324   5.791   6.992
 2742SOL    HW2 9126   2.405   5.655   6.954
 2743SOL     OW 9127   6.885   4.974   2.163
 2743SOL    HW1 9128   6.973   5.020   2.171
 2743SOL    HW2 9129   6.813   5.043   2.147
 2744SOL     OW 9130   5.281   2.126   6.410
 2744SOL    HW1 9131   5.318   2.078   6.331
 2744SOL    HW2 9132   5.244   2.060   6.475
 2745SOL     OW 9133   6.921   6.754   5.903
 2745SOL    HW1 9134   6.987   6.826   5.924
 2745SOL    HW2 9135   6.871   6.730   5.986
 2746SOL     OW 9136   2.387   2.304   3.754
 2746SOL    HW1 9137   2.414   2.364   3.679
 2746SOL    HW2 9138   2.328   2.231   3.719
 2747SOL     OW 9139   6.019   3.974   6.569
 2747SOL    HW1 9140   6.083   3.920   6.514
 2747SOL    HW2 9141   6.054   4.067   6.579
 2748SOL     OW 9142   5.746   1.346   1.127
 2748SOL    HW1 9143   5.670   1.376   1.069
 2748SOL    HW2 9144   5.715   1.273   1.188
 2749SOL     OW 9145   0.201   5.083   2.344
 2749SOL    HW1 9146   0.153   5.164   2.379
 2749SOL    HW2 9147   0.199   5.011   2.414
 2750SOL     OW 9148   0.910   5.551   1.101
 2750SOL    HW1 9149   0.831   5.558   1.041
 2750SOL    HW2 9150   0.925   5.639   1.146
 2751SOL     OW 9151   0.873   5.851   1.441
 2751SOL    HW1 9152   0.966   5.867   1.473
 2751SOL    HW2 9153   0.846   5.757   1.465
 2752SOL     OW 9154   4.074   4.982   6.167
 2752SOL    HW1 9155   4.119   4.923   6.100
 2752SOL    HW2 9156   4.122   5.069   6.174
 2753SOL     OW 9157   0.584   6.231   5.302
 2753SOL    HW1 9158   0.607   6.217   5.398
 2753SOL    HW2 9159   0.545   6.322   5.290
 2754SOL     OW 9160   0.306   0.885   2.856
 2754SOL    HW1 9161   0.348   0.805   2.899
 2754SOL    HW2 9162   0.369   0.926   2.790
 2755SOL     OW 9163   2.070   6.864   3.174
 2755SOL    HW1 9164   2.016   6.843   3.256
 2755SOL    HW2 9165   2.164   6.883   3.201
 2756SOL     OW 9166   6.059   4.788   6.593
 2756SOL    HW1 9167   6.140   4.779   6.651
 2756SOL    HW2 9168   6.017   4.698   6.583
 2757SOL     OW 9169   2.317   0.855   6.526
 2757SOL    HW1 9170   2.294   0.951   6.540
 2757SOL    HW2 9171   2.387   0.827   6.592
 2758SOL     OW 9172   4.489   6.988   3.474
 2758SOL    HW1 9173   4.516   6.957   3.565
 2758SOL    HW2 9174   4.393   6.964   3.457
 2759SOL     OW 9175   4.990   5.552   5.577
 2759SOL    HW1 9176   5.012   5.499   5.495
 2759SOL    HW2 9177   5.031   5.643   5.570
 2760SOL     OW 9178   0.545   6.058   2.553
 2760SOL    HW1 9179   0.604   6.006   2.614
 2760SOL    HW2 9180   0.459   6.009   2.538
 2761SOL     OW 9181   1.730   4.513   4.964
 2761SOL    HW1 9182   1.745   4.417   4.940
 2761SOL    HW2 9183   1.632   4.530   4.972
 2762SOL     OW 9184   2.026   0.199   6.482
 2762SOL    HW1 9185   2.033   0.232   6.388
 2762SOL    HW2 9186   1.968   0.262   6.534
 2763SOL     OW 9187   4.783   2.376   4.486
 2763SOL    HW1 9188   4.765   2.279   4.506
 2763SOL    HW2 9189   4.740   2.401   4.400
 2764SOL     OW 9190   6.705   1.197   1.506
 2764SOL    HW1 9191   6.691   1.291   1.475
 2764SOL    HW2 9192   6.758   1.146   1.438
 2765SOL     OW 9193   6.406   0.011   0.352
 2765SOL    HW1 9194   6.366   0.066   0.425
 2765SOL    HW2 9195   6.416   0.068   0.270
 2766SOL     OW 9196   4.819   2.652   0.307
 2766SOL    HW1 9197   4.743   2.638   0.369
 2766SOL    HW2 9198   4.900   2.681   0.358
 2767SOL     OW 9199   6.385   4.867   0.347
 2767SOL    HW1 9200   6.308   4.869   0.412
 2767SOL    HW2 9201   6.449   4.940   0.369
 2768SOL     OW 9202   4.329   0.462   1.176
 2768SOL    HW1 9203   4.376   0.440   1.262
 2768SOL    HW2 9204   4.251   0.521   1.196
 2769SOL     OW 9205   1.748   4.601   6.204
 2769SOL    HW1 9206   1.744   4.552   6.117
 2769SOL    HW2 9207   1.840   4.594   6.243
 2770SOL     OW 9208   4.447   5.467   5.978
 2770SOL    HW1 9209   4.455   5.566   5.981
 2770SOL    HW2 9210   4.538   5.426   5.974
 2771SOL     OW 9211   6.056   0.871   4.124
 2771SOL    HW1 9212   6.059   0.772   4.136
 2771SOL    HW2 9213   6.137   0.912   4.166
 2772SOL     OW 9214   3.973   1.713   0.653
 2772SOL    HW1 9215   4.069   1.734   0.670
 2772SOL    HW2 9216   3.965   1.660   0.569
 2773SOL     OW 9217   6.022   1.956   4.934
 2773SOL    HW1 9218   6.078   1.920   5.008
 2773SOL    HW2 9219   5.946   2.009   4.972
 2774SOL     OW 9220   5.305   2.698   2.898
 2774SOL    HW1 9221   5.365   2.664   2.970
 2774SOL    HW2 9222   5.261   2.621   2.851
 2775SOL     OW 9223   6.902   4.060   5.412
 2775SOL    HW1 9224   6.951   4.137   5.451
 2775SOL    HW2 9225   6.922   3.977   5.465
 2776SOL     OW 9226   4.953   4.425   6.125
 2776SOL    HW1 9227   4.980   4.438   6.029
 2776SOL    HW2 9228   4.938   4.328   6.142
 2777SOL     OW 9229   2.962   1.899   1.373
 2777SOL    HW1 9230   2.881   1.854   1.411
 2777SOL    HW2 9231   2.996   1.967   1.437
 2778SOL     OW 9232   1.903   6.892   5.323
 2778SOL    HW1 9233   1.930   6.952   5.248
 2778SOL    HW2 9234   1.966   6.815   5.328
 2779SOL     OW 9235   5.096   6.352   2.191
 2779SOL    HW1 9236   5.107   6.423   2.261
 2779SOL    HW2 9237   5.176   6.293   2.191
 2780SOL     OW 9238   0.656   6.653   6.881
 2780SOL    HW1 9239   0.630   6.602   6.962
 2780SOL    HW2 9240   0.661   6.750   6.902
 2781SOL     OW 9241   5.988   0.355   2.185
 2781SOL    HW1 9242   6.054   0.366   2.259
 2781SOL    HW2 9243   5.973   0.257   2.168
 2782SOL     OW 9244   4.769   1.261   5.415
 2782SOL    HW1 9245   4.746   1.301   5.326
 2782SOL    HW2 9246   4.735   1.320   5.488
 2783SOL     OW 9247   4.940   4.281   2.672
 2783SOL    HW1 9248   4.962   4.348   2.743
 2783SOL    HW2 9249   5.004   4.291   2.596
 2784SOL     OW 9250   3.297   1.478   2.097
 2784SOL    HW1 9251   3.361   1.521   2.033
 2784SOL    HW2 9252   3.203   1.497   2.069
 2785SOL     OW 9253   5.502   2.676   0.578
 2785SOL    HW1 9254   5.431   2.649   0.514
 2785SOL    HW2 9255   5.471   2.660   0.672
 2786SOL     OW 9256   4.562   6.793   2.618
 2786SOL    HW1 9257   4.511   6.733   2.558
 2786SOL    HW2 9258   4.553   6.761   2.713
 2787SOL     OW 9259   5.624   0.282   6.184
 2787SOL    HW1 9260   5.571   0.211   6.230
 2787SOL    HW2 9261   5.597   0.371   6.220
 2788SOL     OW 9262   1.868   5.723   6.052
 2788SOL    HW1 9263   1.960   5.700   6.083
 2788SOL    HW2 9264   1.874   5.779   5.969
 2789SOL     OW 9265   1.335   2.141   4.090
 2789SOL    HW1 9266   1.369   2.136   3.997
 2789SOL    HW2 9267   1.272   2.065   4.107
 2790SOL     OW 9268   3.380   5.750   2.172
 2790SOL    HW1 9269   3.430   5.833   2.195
 2790SOL    HW2 9270   3.380   5.688   2.251
 2791SOL     OW 9271   0.592   2.603   2.878
 2791SOL    HW1 9272   0.563   2.536   2.810
 2791SOL    HW2 9273   0.601   2.692   2.835
 2792SOL     OW 9274   1.636   0.718   4.014
 2792SOL    HW1 9275   1.688   0.801   4.030
 2792SOL    HW2 9276   1.688   0.639   4.047
 2793SOL     OW 9277   5.167   3.572   1.558
 2793SOL    HW1 9278   5.106   3.633   1.609
 2793SOL    HW2 9279   5.236   3.626   1.511
 2794SOL     OW 9280   6.934   1.868   6.250
 2794SOL    HW1 9281   7.004   1.918   6.200
 2794SOL    HW2 9282   6.928   1.903   6.344
 2795SOL     OW 9283   0.551   3.657   0.618
 2795SOL    HW1 9284   0.499   3.648   0.703
 2795SOL    HW2 9285   0.618   3.583   0.612
 2796SOL     OW 9286   6.935   6.573   2.738
 2796SOL    HW1 9287   6.891   6.597   2.825
 2796SOL    HW2 9288   7.009   6.637   2.719
 2797SOL     OW 9289   5.114   5.675   5.154
 2797SOL    HW1 9290   5.041   5.705   5.093
 2797SOL    HW2 9291   5.192   5.643   5.100
 2798SOL     OW 9292   0.084   5.344   2.403
 2798SOL    HW1 9293   0.003   5.316   2.454
 2798SOL    HW2 9294   0.069   5.434   2.361
 2799SOL     OW 9295   6.311   5.418   5.634
 2799SOL    HW1 9296   6.254   5.495   5.607
 2799SOL    HW2 9297   6.278   5.335   5.588
 2800SOL     OW 9298   4.800   6.196   6.440
 2800SOL    HW1 9299   4.731   6.137   6.398
 2800SOL    HW2 9300   4.798   6.185   6.539
 2801SOL     OW 9301   0.104   5.577   5.682
 2801SOL    HW1 9302   0.033   5.575   5.612
 2801SOL    HW2 9303   0.074   5.525   5.762
 2802SOL     OW 9304   5.617   6.073   5.543
 2802SOL    HW1 9305   5.557   6.001   5.579
 2802SOL    HW2 9306   5.566   6.129   5.477
 2803SOL     OW 9307   4.373   5.453   6.237
 2803SOL    HW1 9308   4.402   5.468   6.143
 2803SOL    HW2 9309   4.452   5.459   6.298
 2804SOL     OW 9310   0.527   4.659   5.580
 2804SOL    HW1 9311   0.560   4.565   5.572
 2804SOL    HW2 9312   0.577   4.718   5.517
 2805SOL     OW 9313   6.152   3.117   2.499
 2805SOL    HW1 9314   6.172   3.206   2.539
 2805SOL    HW2 9315   6.082   3.126   2.428
 2806SOL     OW 9316   0.873   4.248   5.610
 2806SOL    HW1 9317   0.892   4.150   5.607
 2806SOL    HW2 9318   0.950   4.298   5.569
 2807SOL     OW 9319   3.418   6.767   4.231
 2807SOL    HW1 9320   3.408   6.866   4.238
 2807SOL    HW2 9321   3.453   6.731   4.318
 2808SOL     OW 9322   6.260   5.316   1.994
 2808SOL    HW1 9323   6.180   5.340   2.050
 2808SOL    HW2 9324   6.297   5.229   2.026
 2809SOL     OW 9325   5.463   2.802   1.023
 2809SOL    HW1 9326   5.472   2.901   1.031
 2809SOL    HW2 9327   5.548   2.758   1.050
 2810SOL     OW 9328   2.751   5.699   2.777
 2810SOL    HW1 9329   2.799   5.662   2.856
 2810SOL    HW2 9330   2.732   5.796   2.791
 2811SOL     OW 9331   1.487   2.085   4.307
 2811SOL    HW1 9332   1.423   2.101   4.232
 2811SOL    HW2 9333   1.545   2.006   4.285
 2812SOL     OW 9334   5.237   3.123   0.065
 2812SOL    HW1 9335   5.263   3.214   0.097
 2812SOL    HW2 9336   5.154   3.093   0.113
 2813SOL     OW 9337   0.785   0.641   6.402
 2813SOL    HW1 9338   0.769   0.726   6.452
 2813SOL    HW2 9339   0.858   0.589   6.445
 2814SOL     OW 9340   3.455   3.765   5.497
 2814SOL    HW1 9341   3.498   3.803   5.415
 2814SOL    HW2 9342   3.526   3.733   5.560
 2815SOL     OW 9343   0.114   5.475   6.441
 2815SOL    HW1 9344   0.116   5.563   6.395
 2815SOL    HW2 9345   0.025   5.431   6.425
 2816SOL     OW 9346   6.482   6.042   3.417
 2816SOL    HW1 9347   6.422   6.093   3.354
 2816SOL    HW2 9348   6.506   5.954   3.376
 2817SOL     OW 9349   2.981   0.023   1.895
 2817SOL    HW1 9350   2.884   0.001   1.893
 2817SOL    HW2 9351   3.032   6.969   1.939
 2818SOL     OW 9352   0.478   0.822   2.397
 2818SOL    HW1 9353   0.512   0.802   2.305
 2818SOL    HW2 9354   0.380   0.844   2.393
 2819SOL     OW 9355   2.240   0.917   1.585
 2819SOL    HW1 9356   2.258   0.980   1.661
 2819SOL    HW2 9357   2.146   0.931   1.551
 2820SOL     OW 9358   1.127   2.136   3.811
 2820SOL    HW1 9359   1.077   2.116   3.896
 2820SOL    HW2 9360   1.218   2.171   3.834
 2821SOL     OW 9361   3.535   4.842   6.191
 2821SOL    HW1 9362   3.508   4.901   6.115
 2821SOL    HW2 9363   3.618   4.793   6.168
 2822SOL     OW 9364   3.694   1.728   0.448
 2822SOL    HW1 9365   3.706   1.654   0.514
 2822SOL    HW2 9366   3.675   1.813   0.496
 2823SOL     OW 9367   5.473   1.092   1.031
 2823SOL    HW1 9368   5.508   1.086   1.124
 2823SOL    HW2 9369   5.384   1.047   1.026
 2824SOL     OW 9370   2.362   1.699   4.671
 2824SOL    HW1 9371   2.289   1.637   4.700
 2824SOL    HW2 9372   2.411   1.659   4.593
 2825SOL     OW 9373   4.859   6.028   6.690
 2825SOL    HW1 9374   4.801   5.959   6.733
 2825SOL    HW2 9375   4.920   5.983   6.624
 2826SOL     OW 9376   4.842   1.516   6.747
 2826SOL    HW1 9377   4.875   1.558   6.832
 2826SOL    HW2 9378   4.757   1.467   6.765
 2827SOL     OW 9379   0.522   1.479   6.513
 2827SOL    HW1 9380   0.521   1.391   6.466
 2827SOL    HW2 9381   0.440   1.487   6.570
 2828SOL     OW 9382   2.448   2.498   0.600
 2828SOL    HW1 9383   2.429   2.441   0.520
 2828SOL    HW2 9384   2.510   2.450   0.662
 2829SOL     OW 9385   3.311   2.945   4.069
 2829SOL    HW1 9386   3.244   2.870   4.075
 2829SOL    HW2 9387   3.304   2.989   3.980
 2830SOL     OW 9388   3.293   4.049   5.218
 2830SOL    HW1 9389   3.265   3.982   5.287
 2830SOL    HW2 9390   3.237   4.039   5.136
 2831SOL     OW 9391   0.698   3.953   2.928
 2831SOL    HW1 9392   0.644   3.948   3.012
 2831SOL    HW2 9393   0.717   3.860   2.896
 2832SOL     OW 9394   0.902   3.150   1.979
 2832SOL    HW1 9395   0.984   3.198   1.946
 2832SOL    HW2 9396   0.840   3.132   1.903
 2833SOL     OW 9397   2.869   1.564   2.616
 2833SOL    HW1 9398   2.795   1.571   2.549
 2833SOL    HW2 9399   2.957   1.561   2.569
 2834SOL     OW 9400   4.010   6.544   5.750
 2834SOL    HW1 9401   4.068   6.619   5.781
 2834SOL    HW2 9402   4.065   6.479   5.697
 2835SOL     OW 9403   0.218   6.249   1.362
 2835SOL    HW1 9404   0.310   6.255   1.401
 2835SOL    HW2 9405   0.169   6.171   1.402
 2836SOL     OW 9406   0.598   6.714   1.729
 2836SOL    HW1 9407   0.661   6.640   1.753
 2836SOL    HW2 9408   0.584   6.773   1.809
 2837SOL     OW 9409   4.672   4.315   2.563
 2837SOL    HW1 9410   4.628   4.354   2.644
 2837SOL    HW2 9411   4.768   4.295   2.583
 2838SOL     OW 9412   3.865   3.890   0.862
 2838SOL    HW1 9413   3.918   3.822   0.811
 2838SOL    HW2 9414   3.810   3.944   0.799
 2839SOL     OW 9415   6.966   2.160   3.461
 2839SOL    HW1 9416   0.020   2.119   3.408
 2839SOL    HW2 9417   6.951   2.254   3.431
 2840SOL     OW 9418   1.877   0.334   1.906
 2840SOL    HW1 9419   1.920   0.344   1.995
 2840SOL    HW2 9420   1.830   0.245   1.901
 2841SOL     OW 9421   6.091   1.524   6.237
 2841SOL    HW1 9422   6.096   1.622   6.259
 2841SOL    HW2 9423   6.037   1.512   6.154
 2842SOL     OW 9424   6.974   4.697   3.973
 2842SOL    HW1 9425   6.992   4.619   4.032
 2842SOL    HW2 9426   6.901   4.752   4.013
 2843SOL     OW 9427   1.994   2.126   2.692
 2843SOL    HW1 9428   1.974   2.212   2.646
 2843SOL    HW2 9429   2.085   2.095   2.667
 2844SOL     OW 9430   6.313   5.161   6.880
 2844SOL    HW1 9431   6.326   5.088   6.813
 2844SOL    HW2 9432   6.319   5.123   6.972
 2845SOL     OW 9433   5.605   3.750   2.298
 2845SOL    HW1 9434   5.558   3.664   2.279
 2845SOL    HW2 9435   5.681   3.734   2.360
 2846SOL     OW 9436   4.106   0.459   0.313
 2846SOL    HW1 9437   4.151   0.370   0.304
 2846SOL    HW2 9438   4.077   0.472   0.408
 2847SOL     OW 9439   5.529   4.343   2.650
 2847SOL    HW1 9440   5.471   4.263   2.664
 2847SOL    HW2 9441   5.554   4.382   2.739
 2848SOL     OW 9442   1.978   2.401   4.999
 2848SOL    HW1 9443   1.901   2.466   4.994
 2848SOL    HW2 9444   1.949   2.312   4.964
 2849SOL     OW 9445   3.957   0.492   0.543
 2849SOL    HW1 9446   3.861   0.464   0.550
 2849SOL    HW2 9447   4.013   0.434   0.603
 2850SOL     OW 9448   1.743   0.283   2.801
 2850SOL    HW1 9449   1.827   0.320   2.839
 2850SOL    HW2 9450   1.751   0.183   2.794
 2851SOL     OW 9451   5.386   2.351   6.111
 2851SOL    HW1 9452   5.472   2.402   6.115
 2851SOL    HW2 9453   5.386   2.280   6.180
 2852SOL     OW 9454   6.968   4.429   6.711
 2852SOL    HW1 9455   0.007   4.475   6.644
 2852SOL    HW2 9456   0.005   4.379   6.776
 2853SOL     OW 9457   1.820   1.859   5.766
 2853SOL    HW1 9458   1.840   1.865   5.668
 2853SOL    HW2 9459   1.765   1.937   5.794
 2854SOL     OW 9460   4.600   1.105   5.697
 2854SOL    HW1 9461   4.620   1.121   5.794
 2854SOL    HW2 9462   4.631   1.014   5.671
 2855SOL     OW 9463   2.023   1.511   5.645
 2855SOL    HW1 9464   2.109   1.474   5.610
 2855SOL    HW2 9465   1.961   1.529   5.568
 2856SOL     OW 9466   0.645   3.431   5.320
 2856SOL    HW1 9467   0.640   3.459   5.224
 2856SOL    HW2 9468   0.567   3.468   5.370
 2857SOL     OW 9469   1.282   2.500   1.381
 2857SOL    HW1 9470   1.340   2.501   1.300
 2857SOL    HW2 9471   1.338   2.516   1.463
 2858SOL     OW 9472   4.299   5.112   1.841
 2858SOL    HW1 9473   4.246   5.131   1.924
 2858SOL    HW2 9474   4.381   5.060   1.866
 2859SOL     OW 9475   6.401   6.721   0.112
 2859SOL    HW1 9476   6.460   6.789   0.067
 2859SOL    HW2 9477   6.340   6.768   0.176
 2860SOL     OW 9478   1.857   1.475   2.032
 2860SOL    HW1 9479   1.935   1.429   2.075
 2860SOL    HW2 9480   1.773   1.429   2.059
 2861SOL     OW 9481   2.875   5.165   6.225
 2861SOL    HW1 9482   2.923   5.107   6.159
 2861SOL    HW2 9483   2.840   5.246   6.178
 2862SOL     OW 9484   4.389   1.514   1.407
 2862SOL    HW1 9485   4.335   1.566   1.474
 2862SOL    HW2 9486   4.405   1.422   1.442
 2863SOL     OW 9487   4.475   1.638   6.816
 2863SOL    HW1 9488   4.440   1.633   6.723
 2863SOL    HW2 9489   4.401   1.618   6.881
 2864SOL     OW 9490   4.895   2.446   1.067
 2864SOL    HW1 9491   4.983   2.468   1.109
 2864SOL    HW2 9492   4.894   2.350   1.039
 2865SOL     OW 9493   4.125   6.556   4.499
 2865SOL    HW1 9494   4.143   6.647   4.460
 2865SOL    HW2 9495   4.211   6.505   4.504
 2866SOL     OW 9496   5.644   4.895   6.512
 2866SOL    HW1 9497   5.655   4.981   6.462
 2866SOL    HW2 9498   5.622   4.913   6.608
 2867SOL     OW 9499   5.931   6.322   2.794
 2867SOL    HW1 9500   5.870   6.367   2.860
 2867SOL    HW2 9501   5.980   6.392   2.742
 2868SOL     OW 9502   1.965   1.174   5.967
 2868SOL    HW1 9503   1.906   1.228   5.907
 2868SOL    HW2 9504   2.058   1.175   5.932
 2869SOL     OW 9505   6.855   1.004   2.886
 2869SOL    HW1 9506   6.932   1.067   2.893
 2869SOL    HW2 9507   6.796   1.033   2.810
 2870SOL     OW 9508   0.401   1.860   5.574
 2870SOL    HW1 9509   0.458   1.941   5.584
 2870SOL    HW2 9510   0.363   1.856   5.482
 2871SOL     OW 9511   5.902   1.067   0.003
 2871SOL    HW1 9512   5.811   1.103   0.023
 2871SOL    HW2 9513   5.895   0.971   6.997
 2872SOL     OW 9514   2.534   2.245   1.611
 2872SOL    HW1 9515   2.441   2.208   1.609
 2872SOL    HW2 9516   2.530   2.344   1.597
 2873SOL     OW 9517   6.684   5.820   2.125
 2873SOL    HW1 9518   6.590   5.787   2.115
 2873SOL    HW2 9519   6.701   5.893   2.058
 2874SOL     OW 9520   4.656   0.018   2.871
 2874SOL    HW1 9521   4.580   0.082   2.885
 2874SOL    HW2 9522   4.620   6.946   2.860
 2875SOL     OW 9523   5.426   7.000   1.446
 2875SOL    HW1 9524   5.376   6.961   1.524
 2875SOL    HW2 9525   5.512   0.019   1.478
 2876SOL     OW 9526   2.153   0.714   2.666
 2876SOL    HW1 9527   2.245   0.686   2.693
 2876SOL    HW2 9528   2.099   0.633   2.643
 2877SOL     OW 9529   2.759   1.207   5.334
 2877SOL    HW1 9530   2.714   1.294   5.353
 2877SOL    HW2 9531   2.847   1.224   5.289
 2878SOL     OW 9532   3.880   4.357   5.404
 2878SOL    HW1 9533   3.828   4.276   5.432
 2878SOL    HW2 9534   3.978   4.335   5.406
 2879SOL     OW 9535   5.053   5.142   6.300
 2879SOL    HW1 9536   5.057   5.209   6.225
 2879SOL    HW2 9537   5.146   5.122   6.331
 2880SOL     OW 9538   0.199   2.081   2.623
 2880SOL    HW1 9539   0.197   2.086   2.722
 2880SOL    HW2 9540   0.237   2.167   2.586
 2881SOL     OW 9541   4.155   5.846   6.854
 2881SOL    HW1 9542   4.210   5.778   6.805
 2881SOL    HW2 9543   4.059   5.818   6.853
 2882SOL     OW 9544   0.268   5.594   1.638
 2882SOL    HW1 9545   0.367   5.588   1.623
 2882SOL    HW2 9546   0.237   5.513   1.688
 2883SOL     OW 9547   6.049   0.138   3.745
 2883SOL    HW1 9548   5.962   0.181   3.768
 2883SOL    HW2 9549   6.106   0.202   3.692
 2884SOL     OW 9550   0.511   6.701   3.014
 2884SOL    HW1 9551   0.502   6.665   2.922
 2884SOL    HW2 9552   0.432   6.675   3.069
 2885SOL     OW 9553   1.772   3.971   3.818
 2885SOL    HW1 9554   1.717   3.969   3.735
 2885SOL    HW2 9555   1.866   3.943   3.797
 2886SOL     OW 9556   1.204   2.789   5.871
 2886SOL    HW1 9557   1.106   2.800   5.855
 2886SOL    HW2 9558   1.250   2.764   5.786
 2887SOL     OW 9559   0.651   6.697   5.710
 2887SOL    HW1 9560   0.740   6.659   5.735
 2887SOL    HW2 9561   0.591   6.623   5.681
 2888SOL     OW 9562   6.914   4.236   6.257
 2888SOL    HW1 9563   6.989   4.251   6.320
 2888SOL    HW2 9564   6.832   4.283   6.290
 2889SOL     OW 9565   2.854   6.377   2.577
 2889SOL    HW1 9566   2.872   6.346   2.484
 2889SOL    HW2 9567   2.763   6.344   2.606
 2890SOL     OW 9568   1.785   5.765   0.682
 2890SOL    HW1 9569   1.719   5.791   0.753
 2890SOL    HW2 9570   1.780   5.666   0.666
 2891SOL     OW 9571   0.546   4.823   3.228
 2891SOL    HW1 9572   0.607   4.750   3.196
 2891SOL    HW2 9573   0.567   4.844   3.323
 2892SOL     OW 9574   6.359   3.374   0.659
 2892SOL    HW1 9575   6.324   3.342   0.747
 2892SOL    HW2 9576   6.453   3.406   0.670
 2893SOL     OW 9577   0.273   5.384   4.526
 2893SOL    HW1 9578   0.292   5.430   4.439
 2893SOL    HW2 9579   0.176   5.360   4.530
 2894SOL     OW 9580   0.297   2.737   2.005
 2894SOL    HW1 9581   0.344   2.691   2.080
 2894SOL    HW2 9582   0.302   2.680   1.923
 2895SOL     OW 9583   4.995   1.136   5.500
 2895SOL    HW1 9584   4.912   1.186   5.475
 2895SOL    HW2 9585   4.976   1.038   5.503
 2896SOL     OW 9586   4.541   6.555   5.720
 2896SOL    HW1 9587   4.486   6.606   5.786
 2896SOL    HW2 9588   4.530   6.595   5.629
 2897SOL     OW 9589   3.823   4.830   2.876
 2897SOL    HW1 9590   3.730   4.844   2.909
 2897SOL    HW2 9591   3.835   4.876   2.788
 2898SOL     OW 9592   4.608   4.478   4.660
 2898SOL    HW1 9593   4.524   4.530   4.677
 2898SOL    HW2 9594   4.687   4.537   4.679
 2899SOL     OW 9595   0.812   1.744   0.302
 2899SOL    HW1 9596   0.845   1.743   0.397
 2899SOL    HW2 9597   0.776   1.835   0.280
 2900SOL     OW 9598   2.641   4.372   6.240
 2900SOL    HW1 9599   2.683   4.455   6.276
 2900SOL    HW2 9600   2.548   4.364   6.274
 2901SOL     OW 9601   2.476   4.790   3.086
 2901SOL    HW1 9602   2.506   4.734   3.010
 2901SOL    HW2 9603   2.378   4.775   3.102
 2902SOL     OW 9604   6.058   5.563   3.136
 2902SOL    HW1 9605   6.006   5.588   3.218
 2902SOL    HW2 9606   6.090   5.469   3.145
 2903SOL     OW 9607   4.130   6.984   0.820
 2903SOL    HW1 9608   4.119   6.887   0.800
 2903SOL    HW2 9609   4.061   7.013   0.887
 2904SOL     OW 9610   2.553   4.854   3.976
 2904SOL    HW1 9611   2.615   4.915   3.927
 2904SOL    HW2 9612   2.601   4.769   3.998
 2905SOL     OW 9613   1.487   3.552   4.482
 2905SOL    HW1 9614   1.584   3.578   4.486
 2905SOL    HW2 9615   1.469   3.482   4.551
 2906SOL     OW 9616   4.688   5.077   2.335
 2906SOL    HW1 9617   4.787   5.062   2.342
 2906SOL    HW2 9618   4.648   5.078   2.427
 2907SOL     OW 9619   0.512   1.692   3.715
 2907SOL    HW1 9620   0.425   1.646   3.695
 2907SOL    HW2 9621   0.494   1.780   3.759
 2908SOL     OW 9622   4.905   6.554   3.288
 2908SOL    HW1 9623   4.885   6.518   3.197
 2908SOL    HW2 9624   4.884   6.484   3.357
 2909SOL     OW 9625   1.446   5.650   3.760
 2909SOL    HW1 9626   1.389   5.693   3.830
 2909SOL    HW2 9627   1.466   5.555   3.786
 2910SOL     OW 9628   6.004   1.201   4.206
 2910SOL    HW1 9629   5.918   1.246   4.185
 2910SOL    HW2 9630   6.064   1.203   4.126
 2911SOL     OW 9631   1.485   6.079   3.554
 2911SOL    HW1 9632   1.539   6.117   3.480
 2911SOL    HW2 9633   1.481   5.979   3.545
 2912SOL     OW 9634   5.509   6.649   0.524
 2912SOL    HW1 9635   5.482   6.629   0.429
 2912SOL    HW2 9636   5.606   6.629   0.536
 2913SOL     OW 9637   3.521   5.138   2.072
 2913SOL    HW1 9638   3.542   5.081   1.993
 2913SOL    HW2 9639   3.536   5.085   2.156
 2914SOL     OW 9640   6.777   6.303   6.474
 2914SOL    HW1 9641   6.811   6.250   6.397
 2914SOL    HW2 9642   6.841   6.295   6.551
 2915SOL     OW 9643   3.661   1.843   3.973
 2915SOL    HW1 9644   3.693   1.810   3.884
 2915SOL    HW2 9645   3.583   1.904   3.960
 2916SOL     OW 9646   1.509   5.278   0.607
 2916SOL    HW1 9647   1.465   5.344   0.667
 2916SOL    HW2 9648   1.454   5.266   0.524
 2917SOL     OW 9649   2.415   0.520   3.398
 2917SOL    HW1 9650   2.321   0.489   3.411
 2917SOL    HW2 9651   2.471   0.444   3.364
 2918SOL     OW 9652   6.387   4.436   5.141
 2918SOL    HW1 9653   6.319   4.364   5.151
 2918SOL    HW2 9654   6.399   4.484   5.228
 2919SOL     OW 9655   5.712   0.403   2.357
 2919SOL    HW1 9656   5.779   0.401   2.431
 2919SOL    HW2 9657   5.742   0.468   2.287
 2920SOL     OW 9658   3.408   1.399   1.298
 2920SOL    HW1 9659   3.424   1.494   1.270
 2920SOL    HW2 9660   3.495   1.358   1.326
 2921SOL     OW 9661   0.732   6.788   4.753
 2921SOL    HW1 9662   0.676   6.750   4.680
 2921SOL    HW2 9663   0.787   6.864   4.718
 2922SOL     OW 9664   4.633   0.076   1.449
 2922SOL    HW1 9665   4.563   0.064   1.378
 2922SOL    HW2 9666   4.702   0.005   1.439
 2923SOL     OW 9667   6.114   5.163   2.970
 2923SOL    HW1 9668   6.143   5.191   2.878
 2923SOL    HW2 9669   6.022   5.125   2.965
 2924SOL     OW 9670   6.563   2.067   5.671
 2924SOL    HW1 9671   6.481   2.058   5.728
 2924SOL    HW2 9672   6.639   2.098   5.728
 2925SOL     OW 9673   4.848   1.964   1.427
 2925SOL    HW1 9674   4.939   1.924   1.411
 2925SOL    HW2 9675   4.858   2.062   1.443
 2926SOL     OW 9676   5.833   1.248   5.943
 2926SOL    HW1 9677   5.762   1.251   5.872
 2926SOL    HW2 9678   5.885   1.164   5.934
 2927SOL     OW 9679   1.641   3.902   1.665
 2927SOL    HW1 9680   1.739   3.880   1.663
 2927SOL    HW2 9681   1.593   3.836   1.723
 2928SOL     OW 9682   0.569   0.683   0.060
 2928SOL    HW1 9683   0.589   0.773   0.098
 2928SOL    HW2 9684   0.475   0.681   0.026
 2929SOL     OW 9685   1.449   2.467   6.225
 2929SOL    HW1 9686   1.430   2.462   6.127
 2929SOL    HW2 9687   1.400   2.544   6.264
 2930SOL     OW 9688   5.524   6.587   5.279
 2930SOL    HW1 9689   5.431   6.553   5.262
 2930SOL    HW2 9690   5.580   6.511   5.313
 2931SOL     OW 9691   5.612   4.823   6.896
 2931SOL    HW1 9692   5.678   4.774   6.952
 2931SOL    HW2 9693   5.548   4.759   6.855
 2932SOL     OW 9694   0.997   5.737   2.183
 2932SOL    HW1 9695   1.034   5.785   2.103
 2932SOL    HW2 9696   0.962   5.803   2.248
 2933SOL     OW 9697   0.947   5.698   2.507
 2933SOL    HW1 9698   0.964   5.773   2.443
 2933SOL    HW2 9699   1.033   5.673   2.552
 2934SOL     OW 9700   5.123   1.233   0.004
 2934SOL    HW1 9701   5.168   1.323   0.001
 2934SOL    HW2 9702   5.028   1.243   6.997
 2935SOL     OW 9703   0.069   2.691   6.558
 2935SOL    HW1 9704   0.021   2.630   6.495
 2935SOL    HW2 9705   0.046   2.666   6.652
 2936SOL     OW 9706   4.509   6.374   0.705
 2936SOL    HW1 9707   4.493   6.298   0.768
 2936SOL    HW2 9708   4.553   6.339   0.622
 2937SOL     OW 9709   5.798   4.455   1.500
 2937SOL    HW1 9710   5.810   4.417   1.408
 2937SOL    HW2 9711   5.765   4.382   1.561
 2938SOL     OW 9712   4.700   5.112   6.764
 2938SOL    HW1 9713   4.687   5.207   6.793
 2938SOL    HW2 9714   4.637   5.091   6.689
 2939SOL     OW 9715   2.198   0.875   2.439
 2939SOL    HW1 9716   2.176   0.854   2.534
 2939SOL    HW2 9717   2.278   0.822   2.411
 2940SOL     OW 9718   5.889   4.622   5.557
 2940SOL    HW1 9719   5.795   4.611   5.525
 2940SOL    HW2 9720   5.941   4.676   5.491
 2941SOL     OW 9721   1.607   2.290   4.433
 2941SOL    HW1 9722   1.551   2.223   4.385
 2941SOL    HW2 9723   1.624   2.258   4.527
 2942SOL     OW 9724   3.699   2.327   0.622
 2942SOL    HW1 9725   3.749   2.387   0.685
 2942SOL    HW2 9726   3.629   2.379   0.575
 2943SOL     OW 9727   5.126   3.751   3.725
 2943SOL    HW1 9728   5.194   3.805   3.676
 2943SOL    HW2 9729   5.100   3.671   3.670
 2944SOL     OW 9730   2.563   6.389   4.069
 2944SOL    HW1 9731   2.475   6.383   4.117
 2944SOL    HW2 9732   2.608   6.299   4.071
 2945SOL     OW 9733   3.292   3.845   2.979
 2945SOL    HW1 9734   3.263   3.892   3.062
 2945SOL    HW2 9735   3.388   3.866   2.961
 2946SOL     OW 9736   1.464   4.895   5.615
 2946SOL    HW1 9737   1.510   4.925   5.531
 2946SOL    HW2 9738   1.388   4.958   5.635
 2947SOL     OW 9739   0.248   4.891   1.585
 2947SOL    HW1 9740   0.268   4.877   1.488
 2947SOL    HW2 9741   0.331   4.920   1.632
 2948SOL     OW 9742   0.477   3.764   4.548
 2948SOL    HW1 9743   0.482   3.719   4.637
 2948SOL    HW2 9744   0.416   3.713   4.487
 2949SOL     OW 9745   2.402   5.232   0.911
 2949SOL    HW1 9746   2.321   5.197   0.864
 2949SOL    HW2 9747   2.474   5.163   0.909
 2950SOL     OW 9748   5.364   5.320   3.744
 2950SOL    HW1 9749   5.273   5.303   3.708
 2950SOL    HW2 9750   5.364   5.407   3.794
 2951SOL     OW 9751   5.330   1.313   2.313
 2951SOL    HW1 9752   5.389   1.383   2.273
 2951SOL    HW2 9753   5.333   1.320   2.412
 2952SOL     OW 9754   6.638   5.195   4.724
 2952SOL    HW1 9755   6.617   5.292   4.725
 2952SOL    HW2 9756   6.729   5.180   4.763
 2953SOL     OW 9757   5.756   4.058   2.552
 2953SOL    HW1 9758   5.815   3.979   2.536
 2953SOL    HW2 9759   5.744   4.109   2.467
 2954SOL     OW 9760   1.185   5.438   1.992
 2954SOL    HW1 9761   1.151   5.428   2.086
 2954SOL    HW2 9762   1.195   5.347   1.951
 2955SOL     OW 9763   0.732   3.913   1.642
 2955SOL    HW1 9764   0.717   3.815   1.628
 2955SOL    HW2 9765   0.647   3.963   1.627
 2956SOL     OW 9766   5.593   5.813   3.143
 2956SOL    HW1 9767   5.493   5.807   3.146
 2956SOL    HW2 9768   5.631   5.721   3.127
 2957SOL     OW 9769   5.497   3.974   1.486
 2957SOL    HW1 9770   5.548   3.957   1.570
 2957SOL    HW2 9771   5.464   4.069   1.486
 2958SOL     OW 9772   2.317   4.307   3.380
 2958SOL    HW1 9773   2.387   4.280   3.314
 2958SOL    HW2 9774   2.229   4.315   3.334
 2959SOL     OW 9775   4.851   3.577   0.986
 2959SOL    HW1 9776   4.925   3.639   0.962
 2959SOL    HW2 9777   4.807   3.607   1.071
 2960SOL     OW 9778   2.727   0.610   0.841
 2960SOL    HW1 9779   2.745   0.688   0.900
 2960SOL    HW2 9780   2.731   0.638   0.745
 2961SOL     OW 9781   5.543   3.974   2.953
 2961SOL    HW1 9782   5.611   3.928   2.896
 2961SOL    HW2 9783   5.566   3.961   3.049
 2962SOL     OW 9784   4.241   6.686   2.988
 2962SOL    HW1 9785   4.213   6.592   3.009
 2962SOL    HW2 9786   4.198   6.716   2.903
 2963SOL     OW 9787   1.882   0.907   6.024
 2963SOL    HW1 9788   1.895   0.993   5.974
 2963SOL    HW2 9789   1.963   0.889   6.079
 2964SOL     OW 9790   0.179   0.790   4.521
 2964SOL    HW1 9791   0.246   0.723   4.488
 2964SOL    HW2 9792   0.126   0.824   4.444
 2965SOL     OW 9793   0.365   0.591   4.444
 2965SOL    HW1 9794   0.422   0.567   4.523
 2965SOL    HW2 9795   0.332   0.508   4.400
 2966SOL     OW 9796   4.071   5.069   3.374
 2966SOL    HW1 9797   4.099   5.001   3.441
 2966SOL    HW2 9798   4.105   5.044   3.283
 2967SOL     OW 9799   6.418   0.726   4.626
 2967SOL    HW1 9800   6.388   0.814   4.588
 2967SOL    HW2 9801   6.377   0.713   4.716
 2968SOL     OW 9802   0.894   2.820   0.555
 2968SOL    HW1 9803   0.849   2.749   0.501
 2968SOL    HW2 9804   0.925   2.894   0.495
 2969SOL     OW 9805   5.125   2.397   4.458
 2969SOL    HW1 9806   5.036   2.357   4.438
 2969SOL    HW2 9807   5.191   2.325   4.478
 2970SOL     OW 9808   2.801   2.720   5.501
 2970SOL    HW1 9809   2.713   2.749   5.463
 2970SOL    HW2 9810   2.853   2.801   5.528
 2971SOL     OW 9811   5.203   4.376   0.014
 2971SOL    HW1 9812   5.266   4.301   7.016
 2971SOL    HW2 9813   5.143   4.390   6.955
 2972SOL     OW 9814   6.804   4.621   6.412
 2972SOL    HW1 9815   6.722   4.574   6.444
 2972SOL    HW2 9816   6.784   4.719   6.402
 2973SOL     OW 9817   5.341   6.008   2.425
 2973SOL    HW1 9818   5.345   5.916   2.386
 2973SOL    HW2 9819   5.313   6.001   2.521
 2974SOL     OW 9820   0.766   4.469   3.735
 2974SOL    HW1 9821   0.835   4.399   3.714
 2974SOL    HW2 9822   0.763   4.483   3.834
 2975SOL     OW 9823   5.139   3.464   3.655
 2975SOL    HW1 9824   5.155   3.482   3.752
 2975SOL    HW2 9825   5.040   3.465   3.637
 2976SOL     OW 9826   3.760   2.135   3.046
 2976SOL    HW1 9827   3.661   2.146   3.052
 2976SOL    HW2 9828   3.785   2.043   3.076
 2977SOL     OW 9829   2.241   0.304   2.759
 2977SOL    HW1 9830   2.306   0.347   2.822
 2977SOL    HW2 9831   2.209   0.217   2.798
 2978SOL     OW 9832   4.126   5.181   6.782
 2978SOL    HW1 9833   4.167   5.102   6.738
 2978SOL    HW2 9834   4.027   5.181   6.765
 2979SOL     OW 9835   3.659   1.023   3.995
 2979SOL    HW1 9836   3.657   0.982   3.904
 2979SOL    HW2 9837   3.736   1.087   4.001
 2980SOL     OW 9838   1.460   5.410   4.598
 2980SOL    HW1 9839   1.521   5.447   4.528
 2980SOL    HW2 9840   1.506   5.410   4.686
 2981SOL     OW 9841   2.664   1.649   6.460
 2981SOL    HW1 9842   2.685   1.640   6.362
 2981SOL    HW2 9843   2.595   1.581   6.485
 2982SOL     OW 9844   2.910   5.409   2.071
 2982SOL    HW1 9845   2.880   5.325   2.117
 2982SOL    HW2 9846   2.842   5.481   2.084
 2983SOL     OW 9847   6.383   2.294   2.790
 2983SOL    HW1 9848   6.340   2.374   2.748
 2983SOL    HW2 9849   6.405   2.227   2.719
 2984SOL     OW 9850   5.935   4.547   0.413
 2984SOL    HW1 9851   5.913   4.502   0.326
 2984SOL    HW2 9852   5.994   4.487   0.467
 2985SOL     OW 9853   1.850   2.639   4.985
 2985SOL    HW1 9854   1.772   2.653   5.045
 2985SOL    HW2 9855   1.918   2.710   5.002
 2986SOL     OW 9856   3.613   4.119   3.312
 2986SOL    HW1 9857   3.702   4.121   3.359
 2986SOL    HW2 9858   3.540   4.125   3.379
 2987SOL     OW 9859   0.841   1.492   3.950
 2987SOL    HW1 9860   0.743   1.507   3.944
 2987SOL    HW2 9861   0.877   1.536   4.032
 2988SOL     OW 9862   1.804   6.005   2.749
 2988SOL    HW1 9863   1.781   5.918   2.705
 2988SOL    HW2 9864   1.887   5.993   2.804
 2989SOL     OW 9865   5.501   5.592   5.745
 2989SOL    HW1 9866   5.565   5.516   5.733
 2989SOL    HW2 9867   5.541   5.659   5.808
 2990SOL     OW 9868   3.469   2.083   4.869
 2990SOL    HW1 9869   3.456   2.091   4.770
 2990SOL    HW2 9870   3.565   2.099   4.892
 2991SOL     OW 9871   0.044   4.089   5.140
 2991SOL    HW1 9872   6.989   4.148   5.168
 2991SOL    HW2 9873   0.129   4.120   5.183
 2992SOL     OW 9874   1.634   5.806   4.460
 2992SOL    HW1 9875   1.718   5.764   4.426
 2992SOL    HW2 9876   1.639   5.906   4.449
 2993SOL     OW 9877   0.655   4.730   1.195
 2993SOL    HW1 9878   0.705   4.785   1.128
 2993SOL    HW2 9879   0.565   4.707   1.159
 2994SOL     OW 9880   3.862   6.510   6.705
 2994SOL    HW1 9881   3.928   6.480   6.773
 2994SOL    HW2 9882   3.880   6.463   6.618
 2995SOL     OW 9883   2.806   1.572   6.221
 2995SOL    HW1 9884   2.824   1.496   6.158
 2995SOL    HW2 9885   2.860   1.651   6.193
 2996SOL     OW 9886   1.447   1.306   5.170
 2996SOL    HW1 9887   1.354   1.303   5.134
 2996SOL    HW2 9888   1.506   1.353   5.105
 2997SOL     OW 9889   5.627   6.909   3.096
 2997SOL    HW1 9890   5.652   6.856   3.015
 2997SOL    HW2 9891   5.586   6.996   3.068
 2998SOL     OW 9892   4.684   6.969   3.940
 2998SOL    HW1 9893   4.613   6.901   3.928
 2998SOL    HW2 9894   4.646   0.030   3.984
 2999SOL     OW 9895   2.543   5.053   5.066
 2999SOL    HW1 9896   2.520   4.963   5.031
 2999SOL    HW2 9897   2.465   5.114   5.058
 3000SOL     OW 9898   3.172   4.039   6.045
 3000SOL    HW1 9899   3.088   4.094   6.045
 3000SOL    HW2 9900   3.152   3.947   6.012
 3001SOL     OW 9901   0.144   0.509   5.989
 3001SOL    HW1 9902   0.178   0.579   6.052
 3001SOL    HW2 9903   0.169   0.419   6.022
 3002SOL     OW 9904   3.029   1.818   0.070
 3002SOL    HW1 9905   3.122   1.795   0.100
 3002SOL    HW2 9906   2.996   1.897   0.121
 3003SOL     OW 9907   1.625   0.014   0.827
 3003SOL    HW1 9908   1.648   6.941   0.854
 3003SOL    HW2 9909   1.529   0.032   0.849
 3004SOL     OW 9910   0.756   3.962   2.662
 3004SOL    HW1 9911   0.703   3.953   2.578
 3004SOL    HW2 9912   0.701   4.009   2.731
 3005SOL     OW 9913   1.799   2.201   6.949
 3005SOL    HW1 9914   1.712   2.201   6.998
 3005SOL    HW2 9915   1.791   2.262   6.869
 3006SOL     OW 9916   5.244   1.254   4.657
 3006SOL    HW1 9917   5.148   1.240   4.634
 3006SOL    HW2 9918   5.300   1.243   4.575
 3007SOL     OW 9919   5.610   4.123   0.640
 3007SOL    HW1 9920   5.533   4.171   0.682
 3007SOL    HW2 9921   5.626   4.159   0.547
 3008SOL     OW 9922   3.881   2.177   5.987
 3008SOL    HW1 9923   3.918   2.256   5.940
 3008SOL    HW2 9924   3.789   2.197   6.019
 3009SOL     OW 9925   6.887   2.026   2.877
 3009SOL    HW1 9926   6.959   1.960   2.898
 3009SOL    HW2 9927   6.841   2.053   2.961
 3010SOL     OW 9928   3.305   5.785   3.782
 3010SOL    HW1 9929   3.352   5.816   3.699
 3010SOL    HW2 9930   3.222   5.839   3.795
 3011SOL     OW 9931   6.277   1.583   2.756
 3011SOL    HW1 9932   6.327   1.575   2.670
 3011SOL    HW2 9933   6.250   1.678   2.771
 3012SOL     OW 9934   1.918   3.374   6.066
 3012SOL    HW1 9935   1.935   3.278   6.088
 3012SOL    HW2 9936   2.005   3.423   6.059
 3013SOL     OW 9937   5.279   5.723   3.719
 3013SOL    HW1 9938   5.292   5.662   3.797
 3013SOL    HW2 9939   5.182   5.727   3.696
 3014SOL     OW 9940   4.557   2.082   5.092
 3014SOL    HW1 9941   4.631   2.112   5.152
 3014SOL    HW2 9942   4.487   2.153   5.087
 3015SOL     OW 9943   3.014   2.044   0.257
 3015SOL    HW1 9944   3.047   1.972   0.318
 3015SOL    HW2 9945   2.917   2.059   0.273
 3016SOL     OW 9946   2.620   6.271   3.800
 3016SOL    HW1 9947   2.717   6.295   3.788
 3016SOL    HW2 9948   2.591   6.214   3.723
 3017SOL     OW 9949   5.797   5.628   2.181
 3017SOL    HW1 9950   5.780   5.691   2.106
 3017SOL    HW2 9951   5.711   5.613   2.231
 3018SOL     OW 9952   2.568   0.180   5.793
 3018SOL    HW1 9953   2.483   0.218   5.830
 3018SOL    HW2 9954   2.578   0.086   5.824
 3019SOL     OW 9955   0.478   6.793   0.160
 3019SOL    HW1 9956   0.497   6.859   0.088
 3019SOL    HW2 9957   0.549   6.722   0.160
 3020SOL     OW 9958   3.871   2.578   1.449
 3020SOL    HW1 9959   3.958   2.532   1.432
 3020SOL    HW2 9960   3.839   2.555   1.541
 3021SOL     OW 9961   3.027   0.207   6.045
 3021SOL    HW1 9962   2.974   0.253   5.974
 3021SOL    HW2 9963   3.091   0.143   6.003
 3022SOL     OW 9964   4.014   5.297   4.889
 3022SOL    HW1 9965   4.071   5.345   4.823
 3022SOL    HW2 9966   3.962   5.225   4.843
 3023SOL     OW 9967   3.877   6.881   3.009
 3023SOL    HW1 9968   3.868   6.931   3.095
 3023SOL    HW2 9969   3.878   6.783   3.028
 3024SOL     OW 9970   5.089   6.676   5.200
 3024SOL    HW1 9971   5.048   6.738   5.133
 3024SOL    HW2 9972   5.186   6.663   5.179
 3025SOL     OW 9973   4.004   6.656   0.551
 3025SOL    HW1 9974   4.073   6.711   0.503
 3025SOL    HW2 9975   3.983   6.575   0.497
 3026SOL     OW 9976   1.450   0.392   6.185
 3026SOL    HW1 9977   1.377   0.323   6.183
 3026SOL    HW2 9978   1.412   0.481   6.158
 3027SOL     OW 9979   4.409   1.231   2.983
 3027SOL    HW1 9980   4.501   1.234   2.943
 3027SOL    HW2 9981   4.347   1.185   2.919
 3028SOL     OW 9982   1.440   3.906   5.952
 3028SOL    HW1 9983   1.457   4.000   5.923
 3028SOL    HW2 9984   1.359   3.871   5.905
 3029SOL     OW 9985   0.499   2.785   5.215
 3029SOL    HW1 9986   0.567   2.848   5.254
 3029SOL    HW2 9987   0.541   2.736   5.138
 3030SOL     OW 9988   0.546   3.375   0.082
 3030SOL    HW1 9989   0.489   3.401   0.160
 3030SOL    HW2 9990   0.620   3.315   0.113
 3031SOL     OW 9991   0.111   4.663   1.633
 3031SOL    HW1 9992   0.148   4.754   1.618
 3031SOL    HW2 9993   0.094   4.650   1.731
 3032SOL     OW 9994   2.703   6.536   1.450
 3032SOL    HW1 9995   2.712   6.460   1.515
 3032SOL    HW2 9996   2.739   6.507   1.361
 3033SOL     OW 9997   5.507   1.777   1.175
 3033SOL    HW1 9998   5.549   1.709   1.235
 3033SOL    HW2 9999   5.443   1.731   1.113
 3034SOL     OW10000   1.322   6.745   2.437
 3034SOL    HW110001   1.375   6.723   2.355
 3034SOL    HW210002   1.289   6.839   2.431
 3035SOL     OW10003   6.998   2.825   6.271
 3035SOL    HW110004   6.977   2.730   6.246
 3035SOL    HW210005   0.001   2.830   6.368
 3036SOL     OW10006   2.328   1.606   6.298
 3036SOL    HW110007   2.233   1.629   6.275
 3036SOL    HW210008   2.370   1.682   6.347
 3037SOL     OW10009   6.339   5.782   6.236
 3037SOL    HW110010   6.307   5.708   6.177
 3037SOL    HW210011   6.261   5.822   6.284
 3038SOL     OW10012   4.934   5.627   5.987
 3038SOL    HW110013   4.971   5.535   5.973
 3038SOL    HW210014   4.963   5.661   6.076
 3039SOL     OW10015   0.268   3.505   0.856
 3039SOL    HW110016   0.260   3.485   0.758
 3039SOL    HW210017   0.180   3.488   0.900
 3040SOL     OW10018   3.576   4.191   5.836
 3040SOL    HW110019   3.532   4.146   5.758
 3040SOL    HW210020   3.527   4.167   5.920
 3041SOL     OW10021   1.974   3.119   5.321
 3041SOL    HW110022   2.009   3.211   5.301
 3041SOL    HW210023   1.984   3.061   5.240
 3042SOL     OW10024   5.592   5.651   2.741
 3042SOL    HW110025   5.640   5.691   2.663
 3042SOL    HW210026   5.531   5.718   2.782
 3043SOL     OW10027   2.856   4.227   1.571
 3043SOL    HW110028   2.927   4.256   1.507
 3043SOL    HW210029   2.859   4.286   1.652
 3044SOL     OW10030   3.592   4.756   5.745
 3044SOL    HW110031   3.527   4.686   5.773
 3044SOL    HW210032   3.665   4.714   5.691
 3045SOL     OW10033   4.904   6.966   3.015
 3045SOL    HW110034   4.877   6.908   3.091
 3045SOL    HW210035   4.839   0.020   3.004
 3046SOL     OW10036   2.498   1.070   5.609
 3046SOL    HW110037   2.520   0.972   5.611
 3046SOL    HW210038   2.399   1.081   5.599
 3047SOL     OW10039   5.747   0.365   1.792
 3047SOL    HW110040   5.745   0.367   1.692
 3047SOL    HW210041   5.674   0.424   1.827
 3048SOL     OW10042   4.020   2.250   1.601
 3048SOL    HW110043   3.942   2.221   1.656
 3048SOL    HW210044   3.999   2.239   1.504
 3049SOL     OW10045   1.189   0.245   2.833
 3049SOL    HW110046   1.225   0.210   2.747
 3049SOL    HW210047   1.103   0.292   2.816
 3050SOL     OW10048   3.118   1.515   1.713
 3050SOL    HW110049   3.101   1.591   1.649
 3050SOL    HW210050   3.088   1.429   1.671
 3051SOL     OW10051   1.887   5.626   6.305
 3051SOL    HW110052   1.864   5.680   6.224
 3051SOL    HW210053   1.872   5.682   6.387
 3052SOL     OW10054   4.904   5.433   2.265
 3052SOL    HW110055   4.914   5.523   2.224
 3052SOL    HW210056   4.987   5.410   2.316
 3053SOL     OW10057   0.104   2.438   0.813
 3053SOL    HW110058   0.011   2.401   0.810
 3053SOL    HW210059   0.136   2.438   0.908
 3054SOL     OW10060   6.543   2.597   0.942
 3054SOL    HW110061   6.452   2.555   0.950
 3054SOL    HW210062   6.605   2.556   1.009
 3055SOL     OW10063   5.214   0.287   4.949
 3055SOL    HW110064   5.156   0.351   5.000
 3055SOL    HW210065   5.303   0.280   4.994
 3056SOL     OW10066   6.196   0.727   5.731
 3056SOL    HW110067   6.274   0.699   5.675
 3056SOL    HW210068   6.215   0.816   5.772
 3057SOL     OW10069   4.455   5.455   3.432
 3057SOL    HW110070   4.434   5.428   3.527
 3057SOL    HW210071   4.410   5.543   3.412
 3058SOL     OW10072   0.092   4.789   1.056
 3058SOL    HW110073   0.111   4.866   1.118
 3058SOL    HW210074   0.010   4.741   1.087
 3059SOL     OW10075   2.980   2.225   4.018
 3059SOL    HW110076   2.923   2.261   3.945
 3059SOL    HW210077   2.952   2.265   4.105
 3060SOL     OW10078   1.525   4.751   0.586
 3060SOL    HW110079   1.454   4.786   0.646
 3060SOL    HW210080   1.484   4.720   0.500
 3061SOL     OW10081   6.963   5.867   5.695
 3061SOL    HW110082   6.939   5.829   5.606
 3061SOL    HW210083   0.012   5.810   5.739
 3062SOL     OW10084   2.430   0.606   1.097
 3062SOL    HW110085   2.432   0.623   0.998
 3062SOL    HW210086   2.340   0.629   1.133
 3063SOL     OW10087   1.966   5.281   2.569
 3063SOL    HW110088   2.018   5.298   2.653
 3063SOL    HW210089   1.881   5.333   2.571
 3064SOL     OW10090   4.941   3.688   1.644
 3064SOL    HW110091   4.851   3.669   1.604
 3064SOL    HW210092   4.931   3.695   1.744
 3065SOL     OW10093   1.791   1.550   6.704
 3065SOL    HW110094   1.841   1.516   6.624
 3065SOL    HW210095   1.843   1.625   6.745
 3066SOL     OW10096   5.066   4.730   0.447
 3066SOL    HW110097   5.029   4.784   0.523
 3066SOL    HW210098   4.992   4.684   0.399
 3067SOL     OW10099   4.001   0.417   5.895
 3067SOL    HW110100   3.993   0.504   5.847
 3067SOL    HW210101   3.960   0.424   5.985
 3068SOL     OW10102   6.779   6.393   0.812
 3068SOL    HW110103   6.793   6.348   0.724
 3068SOL    HW210104   6.793   6.492   0.803
 3069SOL     OW10105   6.725   6.416   1.501
 3069SOL    HW110106   6.661   6.416   1.424
 3069SOL    HW210107   6.674   6.424   1.587
 3070SOL     OW10108   3.263   1.182   0.401
 3070SOL    HW110109   3.343   1.124   0.416
 3070SOL    HW210110   3.190   1.155   0.464
 3071SOL     OW10111   0.025   6.390   3.557
 3071SOL    HW110112   0.032   6.291   3.572
 3071SOL    HW210113   0.032   6.438   3.645
 3072SOL     OW10114   2.334   5.798   6.129
 3072SOL    HW110115   2.329   5.895   6.104
 3072SOL    HW210116   2.419   5.760   6.093
 3073SOL     OW10117   6.525   3.764   4.291
 3073SOL    HW110118   6.463   3.705   4.342
 3073SOL    HW210119   6.528   3.854   4.335
 3074SOL     OW10120   6.223   3.805   1.185
 3074SOL    HW110121   6.294   3.842   1.124
 3074SOL    HW210122   6.133   3.837   1.155
 3075SOL     OW10123   3.008   5.599   1.622
 3075SOL    HW110124   3.081   5.571   1.561
 3075SOL    HW210125   2.921   5.564   1.588
 3076SOL     OW10126   6.057   0.759   3.333
 3076SOL    HW110127   6.126   0.709   3.280
 3076SOL    HW210128   6.084   0.855   3.340
 3077SOL     OW10129   6.008   4.797   1.388
 3077SOL    HW110130   5.967   4.774   1.477
 3077SOL    HW210131   6.107   4.806   1.400
 3078SOL     OW10132   0.140   3.122   2.787
 3078SOL    HW110133   0.183   3.150   2.873
 3078SOL    HW210134   0.138   3.200   2.724
 3079SOL     OW10135   2.628   2.305   2.708
 3079SOL    HW110136   2.567   2.383   2.721
 3079SOL    HW210137   2.659   2.303   2.613
 3080SOL     OW10138   5.308   5.115   2.501
 3080SOL    HW110139   5.322   5.054   2.579
 3080SOL    HW210140   5.257   5.196   2.531
 3081SOL     OW10141   0.913   2.662   5.425
 3081SOL    HW110142   0.858   2.717   5.362
 3081SOL    HW210143   0.863   2.579   5.450
 3082SOL     OW10144   2.037   5.554   4.130
 3082SOL    HW110145   2.113   5.593   4.077
 3082SOL    HW210146   1.983   5.494   4.071
 3083SOL     OW10147   2.871   6.382   3.751
 3083SOL    HW110148   2.939   6.309   3.755
 3083SOL    HW210149   2.896   6.447   3.678
 3084SOL     OW10150   6.937   3.888   4.363
 3084SOL    HW110151   0.006   3.844   4.375
 3084SOL    HW210152   6.868   3.817   4.347
 3085SOL     OW10153   5.434   4.159   0.001
 3085SOL    HW110154   5.393   4.102   0.073
 3085SOL    HW210155   5.532   4.139   7.015
 3086SOL     OW10156   5.398   1.390   1.204
 3086SOL    HW110157   5.467   1.438   1.257
 3086SOL    HW210158   5.400   1.293   1.227
 3087SOL     OW10159   1.583   5.715   4.107
 3087SOL    HW110160   1.626   5.777   4.173
 3087SOL    HW210161   1.653   5.680   4.045
 3088SOL     OW10162   2.171   4.891   4.974
 3088SOL    HW110163   2.131   4.800   4.982
 3088SOL    HW210164   2.130   4.940   4.897
 3089SOL     OW10165   2.647   2.173   5.453
 3089SOL    HW110166   2.673   2.220   5.537
 3089SOL    HW210167   2.688   2.221   5.375
 3090SOL     OW10168   2.296   1.660   1.567
 3090SOL    HW110169   2.275   1.599   1.643
 3090SOL    HW210170   2.359   1.731   1.598
 3091SOL     OW10171   1.818   0.817   1.296
 3091SOL    HW110172   1.769   0.730   1.297
 3091SOL    HW210173   1.754   0.891   1.313
 3092SOL     OW10174   5.740   1.464   0.324
 3092SOL    HW110175   5.811   1.396   0.336
 3092SOL    HW210176   5.663   1.424   0.273
 3093SOL     OW10177   5.665   6.224   6.608
 3093SOL    HW110178   5.609   6.141   6.613
 3093SOL    HW210179   5.740   6.218   6.673
 3094SOL     OW10180   2.315   0.194   4.321
 3094SOL    HW110181   2.373   0.257   4.270
 3094SOL    HW210182   2.277   0.241   4.401
 3095SOL     OW10183   2.139   4.853   5.443
 3095SOL    HW110184   2.101   4.852   5.535
 3095SOL    HW210185   2.225   4.803   5.442
 3096SOL     OW10186   0.815   5.270   5.455
 3096SOL    HW110187   0.772   5.359   5.444
 3096SOL    HW210188   0.798   5.236   5.548
 3097SOL     OW10189   5.729   2.570   6.890
 3097SOL    HW110190   5.777   2.527   6.814
 3097SOL    HW210191   5.695   2.660   6.862
 3098SOL     OW10192   2.003   2.101   0.759
 3098SOL    HW110193   1.910   2.128   0.784
 3098SOL    HW210194   2.015   2.003   0.776
 3099SOL     OW10195   0.677   6.938   3.949
 3099SOL    HW110196   0.744   6.961   3.879
 3099SOL    HW210197   0.710   6.972   4.038
 3100SOL     OW10198   6.947   6.946   3.507
 3100SOL    HW110199   6.993   6.887   3.573
 3100SOL    HW210200   6.980   0.020   3.519
 3101SOL     OW10201   6.032   6.020   0.189
 3101SOL    HW110202   6.034   6.120   0.181
 3101SOL    HW210203   5.972   5.995   0.265
 3102SOL     OW10204   6.455   5.579   2.318
 3102SOL    HW110205   6.357   5.564   2.328
 3102SOL    HW210206   6.499   5.573   2.408
 3103SOL     OW10207   4.226   0.953   1.992
 3103SOL    HW110208   4.180   1.008   1.922
 3103SOL    HW210209   4.311   0.917   1.955
 3104SOL     OW10210   5.134   0.801   5.444
 3104SOL    HW110211   5.113   0.873   5.379
 3104SOL    HW210212   5.202   0.738   5.406
 3105SOL     OW10213   5.755   4.043   1.284
 3105SOL    HW110214   5.728   3.992   1.366
 3105SOL    HW210215   5.733   4.140   1.297
 3106SOL     OW10216   5.034   0.277   3.785
 3106SOL    HW110217   5.060   0.226   3.703
 3106SOL    HW210218   5.105   0.346   3.805
 3107SOL     OW10219   4.218   1.442   5.258
 3107SOL    HW110220   4.264   1.366   5.211
 3107SOL    HW210221   4.274   1.473   5.334
 3108SOL     OW10222   1.676   6.103   4.354
 3108SOL    HW110223   1.729   6.183   4.380
 3108SOL    HW210224   1.704   6.073   4.263
 3109SOL     OW10225   5.431   6.284   4.112
 3109SOL    HW110226   5.336   6.274   4.142
 3109SOL    HW210227   5.491   6.294   4.192
 3110SOL     OW10228   1.069   3.406   2.990
 3110SOL    HW110229   1.125   3.489   2.992
 3110SOL    HW210230   1.127   3.326   3.004
 3111SOL     OW10231   0.190   4.843   3.388
 3111SOL    HW110232   0.092   4.835   3.408
 3111SOL    HW210233   0.233   4.753   3.396
 3112SOL     OW10234   3.957   3.017   6.989
 3112SOL    HW110235   3.985   3.085   6.921
 3112SOL    HW210236   3.864   2.986   6.969
 3113SOL     OW10237   2.588   4.638   3.758
 3113SOL    HW110238   2.628   4.670   3.672
 3113SOL    HW210239   2.652   4.657   3.833
 3114SOL     OW10240   3.889   2.121   0.740
 3114SOL    HW110241   3.974   2.113   0.791
 3114SOL    HW210242   3.837   2.200   0.774
 3115SOL     OW10243   4.203   4.737   6.408
 3115SOL    HW110244   4.161   4.714   6.321
 3115SOL    HW210245   4.303   4.740   6.398
 3116SOL     OW10246   6.853   2.549   0.330
 3116SOL    HW110247   6.943   2.567   0.371
 3116SOL    HW210248   6.783   2.551   0.402
 3117SOL     OW10249   4.951   3.690   5.240
 3117SOL    HW110250   4.891   3.651   5.170
 3117SOL    HW210251   5.043   3.652   5.228
 3118SOL     OW10252   0.392   5.915   2.232
 3118SOL    HW110253   0.390   5.949   2.326
 3118SOL    HW210254   0.447   5.832   2.228
 3119SOL     OW10255   2.390   2.899   6.654
 3119SOL    HW110256   2.478   2.851   6.659
 3119SOL    HW210257   2.347   2.899   6.744
 3120SOL     OW10258   3.222   0.338   6.167
 3120SOL    HW110259   3.254   0.396   6.091
 3120SOL    HW210260   3.144   0.284   6.137
 3121SOL     OW10261   0.066   1.110   3.880
 3121SOL    HW110262   0.005   1.167   3.935
 3121SOL    HW210263   0.013   1.040   3.832
 3122SOL     OW10264   4.061   5.478   6.316
 3122SOL    HW110265   3.993   5.429   6.262
 3122SOL    HW210266   4.109   5.413   6.376
 3123SOL     OW10267   1.849   1.803   3.146
 3123SOL    HW110268   1.894   1.719   3.116
 3123SOL    HW210269   1.750   1.790   3.148
 3124SOL     OW10270   4.850   6.652   4.814
 3124SOL    HW110271   4.898   6.720   4.868
 3124SOL    HW210272   4.903   6.630   4.732
 3125SOL     OW10273   0.858   2.760   5.108
 3125SOL    HW110274   0.801   2.685   5.074
 3125SOL    HW210275   0.837   2.844   5.058
 3126SOL     OW10276   5.854   3.878   5.516
 3126SOL    HW110277   5.890   3.795   5.557
 3126SOL    HW210278   5.857   3.870   5.416
 3127SOL     OW10279   1.375   2.664   5.614
 3127SOL    HW110280   1.295   2.604   5.626
 3127SOL    HW210281   1.456   2.608   5.598
 3128SOL     OW10282   2.936   0.697   6.827
 3128SOL    HW110283   2.939   0.795   6.805
 3128SOL    HW210284   3.029   0.664   6.842
 3129SOL     OW10285   6.400   3.436   6.944
 3129SOL    HW110286   6.344   3.475   6.871
 3129SOL    HW210287   6.496   3.438   6.917
 3130SOL     OW10288   2.049   4.505   1.755
 3130SOL    HW110289   1.980   4.526   1.824
 3130SOL    HW210290   2.137   4.489   1.799
 3131SOL     OW10291   0.471   3.009   2.260
 3131SOL    HW110292   0.559   2.981   2.222
 3131SOL    HW210293   0.399   2.999   2.191
 3132SOL     OW10294   4.197   5.624   6.676
 3132SOL    HW110295   4.098   5.633   6.664
 3132SOL    HW210296   4.243   5.653   6.592
 3133SOL     OW10297   3.162   1.455   3.296
 3133SOL    HW110298   3.098   1.446   3.221
 3133SOL    HW210299   3.115   1.439   3.383
 3134SOL     OW10300   4.803   3.987   1.486
 3134SOL    HW110301   4.774   3.901   1.529
 3134SOL    HW210302   4.898   3.980   1.458
 3135SOL     OW10303   4.593   0.659   5.399
 3135SOL    HW110304   4.553   0.590   5.460
 3135SOL    HW210305   4.676   0.621   5.357
 3136SOL     OW10306   5.153   1.105   2.279
 3136SOL    HW110307   5.222   1.175   2.298
 3136SOL    HW210308   5.062   1.144   2.291
 3137SOL     OW10309   6.370   0.653   2.118
 3137SOL    HW110310   6.446   0.591   2.136
 3137SOL    HW210311   6.298   0.603   2.069
 3138SOL     OW10312   6.337   4.700   3.254
 3138SOL    HW110313   6.285   4.750   3.323
 3138SOL    HW210314   6.392   4.765   3.201
 3139SOL     OW10315   4.857   5.738   0.640
 3139SOL    HW110316   4.816   5.829   0.648
 3139SOL    HW210317   4.872   5.716   0.544
 3140SOL     OW10318   6.626   6.955   0.496
 3140SOL    HW110319   6.656   6.867   0.461
 3140SOL    HW210320   6.556   6.993   0.436
 3141SOL     OW10321   0.648   6.964   6.680
 3141SOL    HW110322   0.598   6.904   6.742
 3141SOL    HW210323   0.745   6.936   6.679
 3142SOL     OW10324   3.277   0.054   2.713
 3142SOL    HW110325   3.256   0.052   2.615
 3142SOL    HW210326   3.271   0.148   2.746
 3143SOL     OW10327   6.497   2.000   0.348
 3143SOL    HW110328   6.514   2.075   0.413
 3143SOL    HW210329   6.562   2.006   0.273
 3144SOL     OW10330   3.434   3.918   1.482
 3144SOL    HW110331   3.475   3.887   1.396
 3144SOL    HW210332   3.505   3.957   1.541
 3145SOL     OW10333   2.278   6.016   1.800
 3145SOL    HW110334   2.193   6.070   1.798
 3145SOL    HW210335   2.288   5.967   1.714
 3146SOL     OW10336   1.484   1.163   4.507
 3146SOL    HW110337   1.553   1.207   4.449
 3146SOL    HW210338   1.438   1.232   4.562
 3147SOL     OW10339   3.162   5.822   1.054
 3147SOL    HW110340   3.094   5.841   1.124
 3147SOL    HW210341   3.144   5.877   0.973
 3148SOL     OW10342   6.054   6.723   3.808
 3148SOL    HW110343   5.995   6.694   3.884
 3148SOL    HW210344   6.141   6.757   3.845
 3149SOL     OW10345   3.005   0.401   5.352
 3149SOL    HW110346   3.061   0.456   5.414
 3149SOL    HW210347   2.924   0.453   5.325
 3150SOL     OW10348   6.051   5.427   4.597
 3150SOL    HW110349   6.098   5.482   4.528
 3150SOL    HW210350   6.068   5.330   4.578
 3151SOL     OW10351   6.792   0.685   5.269
 3151SOL    HW110352   6.720   0.617   5.261
 3151SOL    HW210353   6.774   0.760   5.205
 3152SOL     OW10354   0.958   5.287   1.079
 3152SOL    HW110355   1.046   5.250   1.110
 3152SOL    HW210356   0.947   5.380   1.114
 3153SOL     OW10357   6.272   5.191   0.430
 3153SOL    HW110358   6.202   5.127   0.398
 3153SOL    HW210359   6.360   5.165   0.390
 3154SOL     OW10360   0.050   1.731   6.998
 3154SOL    HW110361   0.095   1.787   0.047
 3154SOL    HW210362   0.070   1.635   7.015
 3155SOL     OW10363   6.413   4.084   0.393
 3155SOL    HW110364   6.499   4.119   0.431
 3155SOL    HW210365   6.401   3.989   0.420
 3156SOL     OW10366   3.558   2.850   3.085
 3156SOL    HW110367   3.614   2.840   3.003
 3156SOL    HW210368   3.471   2.893   3.062
 3157SOL     OW10369   2.789   2.073   5.122
 3157SOL    HW110370   2.811   2.060   5.218
 3157SOL    HW210371   2.715   2.011   5.095
 3158SOL     OW10372   3.464   1.688   3.623
 3158SOL    HW110373   3.438   1.619   3.690
 3158SOL    HW210374   3.516   1.761   3.669
 3159SOL     OW10375   6.377   0.871   0.335
 3159SOL    HW110376   6.353   0.948   0.394
 3159SOL    HW210377   6.307   0.861   0.264
 3160SOL     OW10378   0.559   6.090   5.563
 3160SOL    HW110379   0.463   6.070   5.543
 3160SOL    HW210380   0.598   6.017   5.618
 3161SOL     OW10381   2.477   2.527   2.798
 3161SOL    HW110382   2.380   2.548   2.791
 3161SOL    HW210383   2.496   2.483   2.885
 3162SOL     OW10384   1.427   6.192   1.750
 3162SOL    HW110385   1.385   6.272   1.794
 3162SOL    HW210386   1.376   6.110   1.777
 3163SOL     OW10387   4.668   3.118   6.420
 3163SOL    HW110388   4.713   3.081   6.501
 3163SOL    HW210389   4.734   3.125   6.345
 3164SOL     OW10390   4.085   5.236   1.356
 3164SOL    HW110391   4.132   5.279   1.279
 3164SOL    HW210392   4.006   5.292   1.382
 3165SOL     OW10393   1.177   6.465   1.144
 3165SOL    HW110394   1.162   6.455   1.242
 3165SOL    HW210395   1.207   6.558   1.124
 3166SOL     OW10396   4.176   1.942   4.539
 3166SOL    HW110397   4.137   1.979   4.624
 3166SOL    HW210398   4.243   1.871   4.562
 3167SOL     OW10399   6.839   4.458   0.804
 3167SOL    HW110400   6.781   4.451   0.885
 3167SOL    HW210401   6.923   4.405   0.818
 3168SOL     OW10402   5.304   2.667   6.880
 3168SOL    HW110403   5.373   2.598   6.900
 3168SOL    HW210404   5.227   2.657   6.943
 3169SOL     OW10405   1.927   3.733   4.207
 3169SOL    HW110406   2.006   3.709   4.264
 3169SOL    HW210407   1.863   3.788   4.261
 3170SOL     OW10408   4.699   6.106   1.223
 3170SOL    HW110409   4.663   6.152   1.141
 3170SOL    HW210410   4.708   6.172   1.297
 3171SOL     OW10411   0.246   0.722   2.074
 3171SOL    HW110412   0.259   0.639   2.129
 3171SOL    HW210413   0.169   0.774   2.112
 3172SOL     OW10414   0.027   5.347   0.444
 3172SOL    HW110415   0.033   5.425   0.382
 3172SOL    HW210416   0.082   5.365   0.526
 3173SOL     OW10417   2.748   1.979   0.486
 3173SOL    HW110418   2.728   1.885   0.461
 3173SOL    HW210419   2.817   1.980   0.559
 3174SOL     OW10420   3.002   2.285   0.696
 3174SOL    HW110421   2.981   2.343   0.774
 3174SOL    HW210422   2.918   2.267   0.645
 3175SOL     OW10423   6.242   1.289   1.553
 3175SOL    HW110424   6.273   1.365   1.610
 3175SOL    HW210425   6.287   1.205   1.582
 3176SOL     OW10426   1.559   4.123   5.763
 3176SOL    HW110427   1.484   4.173   5.720
 3176SOL    HW210428   1.567   4.032   5.721
 3177SOL     OW10429   4.991   3.796   3.954
 3177SOL    HW110430   5.003   3.729   4.027
 3177SOL    HW210431   5.050   3.773   3.877
 3178SOL     OW10432   6.397   2.387   0.683
 3178SOL    HW110433   6.311   2.399   0.733
 3178SOL    HW210434   6.379   2.388   0.584
 3179SOL     OW10435   1.129   3.268   1.800
 3179SOL    HW110436   1.212   3.318   1.775
 3179SOL    HW210437   1.058   3.286   1.732
 3180SOL     OW10438   4.830   1.004   6.810
 3180SOL    HW110439   4.738   0.964   6.816
 3180SOL    HW210440   4.883   0.955   6.740
 3181SOL     OW10441   6.958   2.079   3.731
 3181SOL    HW110442   0.028   2.092   3.774
 3181SOL    HW210443   6.963   2.104   3.635
 3182SOL     OW10444   3.190   0.079   6.298
 3182SOL    HW110445   3.117   0.147   6.307
 3182SOL    HW210446   3.163   0.008   6.234
 3183SOL     OW10447   4.267   3.958   1.740
 3183SOL    HW110448   4.277   3.961   1.641
 3183SOL    HW210449   4.317   4.034   1.781
 3184SOL     OW10450   0.997   4.022   2.785
 3184SOL    HW110451   0.941   3.978   2.715
 3184SOL    HW210452   0.959   4.112   2.806
 3185SOL     OW10453   5.466   5.706   7.014
 3185SOL    HW110454   5.442   5.772   0.065
 3185SOL    HW210455   5.452   5.747   6.924
 3186SOL     OW10456   3.307   2.158   1.567
 3186SOL    HW110457   3.297   2.257   1.560
 3186SOL    HW210458   3.362   2.136   1.648
 3187SOL     OW10459   4.607   4.591   0.791
 3187SOL    HW110460   4.614   4.691   0.785
 3187SOL    HW210461   4.511   4.565   0.796
 3188SOL     OW10462   2.126   0.523   4.212
 3188SOL    HW110463   2.120   0.429   4.178
 3188SOL    HW210464   2.221   0.546   4.234
 3189SOL     OW10465   1.201   1.467   1.437
 3189SOL    HW110466   1.299   1.472   1.457
 3189SOL    HW210467   1.182   1.382   1.389
 3190SOL     OW10468   0.361   6.051   0.287
 3190SOL    HW110469   0.367   5.967   0.233
 3190SOL    HW210470   0.329   6.030   0.379
 3191SOL     OW10471   5.149   5.496   0.589
 3191SOL    HW110472   5.085   5.526   0.659
 3191SOL    HW210473   5.196   5.413   0.619
 3192SOL     OW10474   6.966   2.244   1.294
 3192SOL    HW110475   6.925   2.156   1.317
 3192SOL    HW210476   6.997   2.289   1.378
 3193SOL     OW10477   3.728   1.296   6.884
 3193SOL    HW110478   3.632   1.322   6.895
 3193SOL    HW210479   3.743   1.259   6.792
 3194SOL     OW10480   1.878   2.317   6.257
 3194SOL    HW110481   1.789   2.286   6.292
 3194SOL    HW210482   1.882   2.417   6.260
 3195SOL     OW10483   2.971   1.498   3.054
 3195SOL    HW110484   2.996   1.595   3.057
 3195SOL    HW210485   2.904   1.483   2.981
 3196SOL     OW10486   0.608   1.081   6.561
 3196SOL    HW110487   0.606   1.045   6.468
 3196SOL    HW210488   0.517   1.115   6.585
 3197SOL     OW10489   2.592   6.770   3.261
 3197SOL    HW110490   2.619   6.778   3.357
 3197SOL    HW210491   2.566   6.675   3.241
 3198SOL     OW10492   5.747   3.165   4.800
 3198SOL    HW110493   5.799   3.221   4.736
 3198SOL    HW210494   5.652   3.160   4.770
 3199SOL     OW10495   5.124   3.724   2.476
 3199SOL    HW110496   5.108   3.822   2.468
 3199SOL    HW210497   5.139   3.685   2.385
 3200SOL     OW10498   5.968   2.987   1.861
 3200SOL    HW110499   5.933   2.926   1.790
 3200SOL    HW210500   5.998   3.073   1.820
 3201SOL     OW10501   5.732   4.739   4.176
 3201SOL    HW110502   5.648   4.772   4.133
 3201SOL    HW210503   5.711   4.662   4.236
 3202SOL     OW10504   0.091   4.694   1.912
 3202SOL    HW110505   0.162   4.762   1.928
 3202SOL    HW210506   0.006   4.722   1.958
 3203SOL     OW10507   6.488   2.313   0.217
 3203SOL    HW110508   6.578   2.336   0.181
 3203SOL    HW210509   6.434   2.268   0.146
 3204SOL     OW10510   4.711   6.280   2.505
 3204SOL    HW110511   4.721   6.184   2.534
 3204SOL    HW210512   4.660   6.330   2.575
 3205SOL     OW10513   6.542   3.038   6.109
 3205SOL    HW110514   6.543   2.999   6.017
 3205SOL    HW210515   6.484   3.120   6.109
 3206SOL     OW10516   1.240   5.791   6.540
 3206SOL    HW110517   1.175   5.722   6.508
 3206SOL    HW210518   1.333   5.754   6.534
 3207SOL     OW10519   0.958   0.336   5.812
 3207SOL    HW110520   0.939   0.239   5.803
 3207SOL    HW210521   0.960   0.378   5.721
 3208SOL     OW10522   4.835   5.777   5.728
 3208SOL    HW110523   4.738   5.752   5.726
 3208SOL    HW210524   4.891   5.695   5.736
 3209SOL     OW10525   4.430   6.457   3.314
 3209SOL    HW110526   4.379   6.387   3.264
 3209SOL    HW210527   4.366   6.527   3.348
 3210SOL     OW10528   0.995   4.550   1.708
 3210SOL    HW110529   0.897   4.534   1.695
 3210SOL    HW210530   1.032   4.599   1.630
 3211SOL     OW10531   1.602   3.983   0.915
 3211SOL    HW110532   1.541   3.990   0.993
 3211SOL    HW210533   1.676   4.050   0.924
 3212SOL     OW10534   3.324   0.807   1.315
 3212SOL    HW110535   3.370   0.865   1.247
 3212SOL    HW210536   3.245   0.763   1.273
 3213SOL     OW10537   0.752   5.596   1.500
 3213SOL    HW110538   0.711   5.596   1.409
 3213SOL    HW210539   0.726   5.513   1.548
 3214SOL     OW10540   4.802   5.248   0.698
 3214SOL    HW110541   4.775   5.316   0.629
 3214SOL    HW210542   4.780   5.157   0.664
 3215SOL     OW10543   6.931   3.040   0.571
 3215SOL    HW110544   6.888   2.953   0.596
 3215SOL    HW210545   6.862   3.113   0.575
 3216SOL     OW10546   5.898   5.022   0.661
 3216SOL    HW110547   5.943   4.997   0.747
 3216SOL    HW210548   5.812   4.972   0.652
 3217SOL     OW10549   0.142   5.611   2.279
 3217SOL    HW110550   0.117   5.708   2.279
 3217SOL    HW210551   0.131   5.575   2.187
 3218SOL     OW10552   4.474   1.768   3.519
 3218SOL    HW110553   4.382   1.806   3.530
 3218SOL    HW210554   4.521   1.819   3.446
 3219SOL     OW10555   0.212   1.999   3.806
 3219SOL    HW110556   0.168   1.973   3.892
 3219SOL    HW210557   0.310   1.982   3.813
 3220SOL     OW10558   6.642   5.499   6.435
 3220SOL    HW110559   6.567   5.434   6.425
 3220SOL    HW210560   6.627   5.578   6.375
 3221SOL     OW10561   3.772   0.741   1.600
 3221SOL    HW110562   3.852   0.734   1.659
 3221SOL    HW210563   3.793   0.800   1.522
 3222SOL     OW10564   3.671   1.701   2.042
 3222SOL    HW110565   3.731   1.709   2.122
 3222SOL    HW210566   3.602   1.774   2.046
 3223SOL     OW10567   1.946   6.190   6.124
 3223SOL    HW110568   1.982   6.100   6.148
 3223SOL    HW210569   1.875   6.216   6.189
 3224SOL     OW10570   4.394   3.825   6.328
 3224SOL    HW110571   4.315   3.771   6.356
 3224SOL    HW210572   4.390   3.915   6.372
 3225SOL     OW10573   4.864   2.773   6.668
 3225SOL    HW110574   4.883   2.825   6.584
 3225SOL    HW210575   4.786   2.713   6.653
 3226SOL     OW10576   1.904   1.386   3.646
 3226SOL    HW110577   1.927   1.481   3.667
 3226SOL    HW210578   1.823   1.384   3.587
 3227SOL     OW10579   3.515   2.551   0.219
 3227SOL    HW110580   3.595   2.596   0.178
 3227SOL    HW210581   3.493   2.469   0.166
 3228SOL     OW10582   6.284   4.095   2.784
 3228SOL    HW110583   6.329   4.177   2.820
 3228SOL    HW210584   6.337   4.014   2.811
 3229SOL     OW10585   4.179   7.020   5.341
 3229SOL    HW110586   4.225   0.031   5.424
 3229SOL    HW210587   4.211   6.928   5.317
 3230SOL     OW10588   2.033   3.377   5.184
 3230SOL    HW110589   2.115   3.423   5.219
 3230SOL    HW210590   1.957   3.441   5.183
 3231SOL     OW10591   2.391   1.065   1.283
 3231SOL    HW110592   2.396   0.977   1.330
 3231SOL    HW210593   2.354   1.134   1.345
 3232SOL     OW10594   5.087   5.467   5.352
 3232SOL    HW110595   5.117   5.526   5.277
 3232SOL    HW210596   5.000   5.425   5.329
 3233SOL     OW10597   1.061   3.120   1.278
 3233SOL    HW110598   0.965   3.119   1.308
 3233SOL    HW210599   1.082   3.210   1.240
 3234SOL     OW10600   6.963   2.001   0.179
 3234SOL    HW110601   6.975   1.905   0.205
 3234SOL    HW210602   0.032   2.044   0.166
 3235SOL     OW10603   5.733   0.983   1.769
 3235SOL    HW110604   5.806   1.024   1.823
 3235SOL    HW210605   5.699   0.901   1.816
 3236SOL     OW10606   1.574   2.774   0.746
 3236SOL    HW110607   1.556   2.725   0.832
 3236SOL    HW210608   1.573   2.873   0.763
 3237SOL     OW10609   5.205   1.487   4.454
 3237SOL    HW110610   5.211   1.587   4.447
 3237SOL    HW210611   5.281   1.452   4.508
 3238SOL     OW10612   0.144   5.083   0.643
 3238SOL    HW110613   0.182   4.991   0.640
 3238SOL    HW210614   0.209   5.147   0.602
 3239SOL     OW10615   6.396   1.736   1.765
 3239SOL    HW110616   6.485   1.768   1.796
 3239SOL    HW210617   6.329   1.810   1.771
 3240SOL     OW10618   0.312   0.112   6.752
 3240SOL    HW110619   0.333   0.205   6.783
 3240SOL    HW210620   0.334   0.104   6.655
 3241SOL     OW10621   4.292   2.216   5.648
 3241SOL    HW110622   4.204   2.175   5.626
 3241SOL    HW210623   4.292   2.312   5.622
 3242SOL     OW10624   3.394   4.262   0.093
 3242SOL    HW110625   3.386   4.268   0.192
 3242SOL    HW210626   3.309   4.223   0.056
 3243SOL     OW10627   4.394   4.686   0.586
 3243SOL    HW110628   4.301   4.673   0.620
 3243SOL    HW210629   4.413   4.618   0.515
 3244SOL     OW10630   5.111   5.318   0.342
 3244SOL    HW110631   5.140   5.392   0.402
 3244SOL    HW210632   5.054   5.355   0.269
 3245SOL     OW10633   4.985   3.102   5.111
 3245SOL    HW110634   4.955   3.197   5.106
 3245SOL    HW210635   4.922   3.049   5.168
 3246SOL     OW10636   5.773   0.595   2.644
 3246SOL    HW110637   5.725   0.511   2.669
 3246SOL    HW210638   5.829   0.625   2.721
 3247SOL     OW10639   5.903   4.882   2.454
 3247SOL    HW110640   5.947   4.883   2.544
 3247SOL    HW210641   5.824   4.944   2.455
 3248SOL     OW10642   6.808   3.439   1.014
 3248SOL    HW110643   6.793   3.347   0.978
 3248SOL    HW210644   6.721   3.487   1.022
 3249SOL     OW10645   4.036   3.194   4.533
 3249SOL    HW110646   4.013   3.287   4.561
 3249SOL    HW210647   4.064   3.194   4.437
 3250SOL     OW10648   6.010   6.445   2.074
 3250SOL    HW110649   5.936   6.513   2.073
 3250SOL    HW210650   5.972   6.355   2.056
 3251SOL     OW10651   2.958   1.143   3.386
 3251SOL    HW110652   2.914   1.182   3.467
 3251SOL    HW210653   2.926   1.191   3.304
 3252SOL     OW10654   2.266   2.038   2.710
 3252SOL    HW110655   2.285   1.988   2.625
 3252SOL    HW210656   2.326   2.003   2.783
 3253SOL     OW10657   5.226   3.717   2.207
 3253SOL    HW110658   5.154   3.743   2.142
 3253SOL    HW210659   5.304   3.779   2.197
 3254SOL     OW10660   5.325   5.530   5.007
 3254SOL    HW110661   5.407   5.491   5.049
 3254SOL    HW210662   5.349   5.614   4.958
 3255SOL     OW10663   5.433   5.479   0.778
 3255SOL    HW110664   5.438   5.439   0.686
 3255SOL    HW210665   5.437   5.579   0.771
 3256SOL     OW10666   3.077   1.031   0.078
 3256SOL    HW110667   3.143   1.093   0.120
 3256SOL    HW210668   3.069   0.948   0.132
 3257SOL     OW10669   1.462   1.141   2.013
 3257SOL    HW110670   1.556   1.177   2.017
 3257SOL    HW210671   1.436   1.107   2.103
 3258SOL     OW10672   4.238   4.619   1.838
 3258SOL    HW110673   4.316   4.623   1.900
 3258SOL    HW210674   4.240   4.532   1.789
 3259SOL     OW10675   4.624   5.510   3.729
 3259SOL    HW110676   4.529   5.486   3.748
 3259SOL    HW210677   4.671   5.433   3.687
 3260SOL     OW10678   2.200   1.795   0.898
 3260SOL    HW110679   2.111   1.774   0.858
 3260SOL    HW210680   2.257   1.842   0.831
 3261SOL     OW10681   5.528   6.770   0.797
 3261SOL    HW110682   5.561   6.800   0.707
 3261SOL    HW210683   5.505   6.851   0.852
 3262SOL     OW10684   3.436   2.044   2.882
 3262SOL    HW110685   3.387   2.103   2.818
 3262SOL    HW210686   3.534   2.043   2.858
 3263SOL     OW10687   2.397   0.735   3.702
 3263SOL    HW110688   2.306   0.698   3.687
 3263SOL    HW210689   2.440   0.755   3.614
 3264SOL     OW10690   1.820   4.444   1.066
 3264SOL    HW110691   1.879   4.407   1.138
 3264SOL    HW210692   1.797   4.372   1.001
 3265SOL     OW10693   5.326   0.571   6.524
 3265SOL    HW110694   5.257   0.557   6.596
 3265SOL    HW210695   5.320   0.664   6.490
 3266SOL     OW10696   1.918   3.323   0.831
 3266SOL    HW110697   1.956   3.268   0.757
 3266SOL    HW210698   1.927   3.420   0.809
 3267SOL     OW10699   3.633   0.424   0.522
 3267SOL    HW110700   3.541   0.438   0.485
 3267SOL    HW210701   3.648   0.326   0.538
 3268SOL     OW10702   1.003   3.788   0.761
 3268SOL    HW110703   0.972   3.766   0.668
 3268SOL    HW210704   1.097   3.756   0.773
 3269SOL     OW10705   4.439   5.572   2.268
 3269SOL    HW110706   4.430   5.586   2.367
 3269SOL    HW210707   4.526   5.528   2.248
 3270SOL     OW10708   0.641   4.102   5.831
 3270SOL    HW110709   0.604   4.194   5.821
 3270SOL    HW210710   0.668   4.067   5.742
 3271SOL     OW10711   5.874   3.639   2.725
 3271SOL    HW110712   5.961   3.664   2.770
 3271SOL    HW210713   5.868   3.540   2.717
 3272SOL     OW10714   3.572   4.409   6.246
 3272SOL    HW110715   3.584   4.310   6.237
 3272SOL    HW210716   3.642   4.455   6.192
 3273SOL     OW10717   0.569   6.277   1.062
 3273SOL    HW110718   0.501   6.279   0.988
 3273SOL    HW210719   0.612   6.367   1.069
 3274SOL     OW10720   4.960   1.084   1.080
 3274SOL    HW110721   4.889   1.056   1.145
 3274SOL    HW210722   4.917   1.129   1.001
 3275SOL     OW10723   6.775   1.463   6.629
 3275SOL    HW110724   6.785   1.368   6.659
 3275SOL    HW210725   6.728   1.516   6.699
 3276SOL     OW10726   2.149   5.977   0.100
 3276SOL    HW110727   2.125   6.054   0.041
 3276SOL    HW210728   2.073   5.958   0.163
 3277SOL     OW10729   4.228   6.776   0.175
 3277SOL    HW110730   4.318   6.812   0.199
 3277SOL    HW210731   4.232   6.730   0.086
 3278SOL     OW10732   1.184   0.825   6.125
 3278SOL    HW110733   1.129   0.795   6.203
 3278SOL    HW210734   1.262   0.878   6.157
 3279SOL     OW10735   5.601   0.514   6.912
 3279SOL    HW110736   5.643   0.506   6.821
 3279SOL    HW210737   5.626   0.602   6.952
 3280SOL     OW10738   3.695   5.493   4.464
 3280SOL    HW110739   3.675   5.545   4.547
 3280SOL    HW210740   3.610   5.458   4.425
 3281SOL     OW10741   1.767   6.053   1.914
 3281SOL    HW110742   1.715   6.124   1.962
 3281SOL    HW210743   1.841   6.020   1.973
 3282SOL     OW10744   0.537   4.343   5.802
 3282SOL    HW110745   0.591   4.415   5.846
 3282SOL    HW210746   0.551   4.346   5.703
 3283SOL     OW10747   4.411   1.111   0.897
 3283SOL    HW110748   4.328   1.149   0.856
 3283SOL    HW210749   4.418   1.014   0.876
 3284SOL     OW10750   6.895   5.399   0.098
 3284SOL    HW110751   6.860   5.451   0.020
 3284SOL    HW210752   6.995   5.399   0.097
 3285SOL     OW10753   5.171   3.110   3.543
 3285SOL    HW110754   5.227   3.132   3.463
 3285SOL    HW210755   5.092   3.171   3.546
 3286SOL     OW10756   3.867   3.092   2.195
 3286SOL    HW110757   3.849   3.005   2.241
 3286SOL    HW210758   3.783   3.124   2.152
 3287SOL     OW10759   1.014   0.285   6.953
 3287SOL    HW110760   0.934   0.263   7.008
 3287SOL    HW210761   0.988   0.288   6.856
 3288SOL     OW10762   0.613   5.267   6.497
 3288SOL    HW110763   0.654   5.351   6.532
 3288SOL    HW210764   0.523   5.287   6.460
 3289SOL     OW10765   2.587   6.897   5.769
 3289SOL    HW110766   2.555   6.808   5.737
 3289SOL    HW210767   2.642   6.885   5.852
 3290SOL     OW10768   0.572   0.105   2.275
 3290SOL    HW110769   0.540   0.196   2.298
 3290SOL    HW210770   0.601   0.102   2.180
 3291SOL     OW10771   2.178   0.059   1.300
 3291SOL    HW110772   2.241   0.124   1.341
 3291SOL    HW210773   2.103   0.108   1.256
 3292SOL     OW10774   0.508   0.720   1.192
 3292SOL    HW110775   0.514   0.819   1.179
 3292SOL    HW210776   0.600   0.682   1.201
 3293SOL     OW10777   0.744   3.694   2.803
 3293SOL    HW110778   0.748   3.762   2.730
 3293SOL    HW210779   0.805   3.618   2.782
 3294SOL     OW10780   6.363   1.554   6.172
 3294SOL    HW110781   6.370   1.603   6.086
 3294SOL    HW210782   6.266   1.541   6.195
 3295SOL     OW10783   1.662   2.956   1.823
 3295SOL    HW110784   1.693   2.861   1.825
 3295SOL    HW210785   1.655   2.987   1.728
 3296SOL     OW10786   1.713   6.728   2.058
 3296SOL    HW110787   1.628   6.708   2.107
 3296SOL    HW210788   1.726   6.827   2.053
 3297SOL     OW10789   3.393   0.700   4.580
 3297SOL    HW110790   3.311   0.752   4.557
 3297SOL    HW210791   3.382   0.659   4.671
 3298SOL     OW10792   5.498   1.521   4.906
 3298SOL    HW110793   5.520   1.538   5.002
 3298SOL    HW210794   5.564   1.569   4.847
 3299SOL     OW10795   2.670   5.421   3.661
 3299SOL    HW110796   2.685   5.447   3.756
 3299SOL    HW210797   2.756   5.425   3.611
 3300SOL     OW10798   0.288   0.777   5.375
 3300SOL    HW110799   0.286   0.863   5.426
 3300SOL    HW210800   0.196   0.756   5.341
 3301SOL     OW10801   2.144   3.375   3.662
 3301SOL    HW110802   2.131   3.433   3.742
 3301SOL    HW210803   2.184   3.287   3.690
 3302SOL     OW10804   0.034   4.797   4.857
 3302SOL    HW110805   0.116   4.773   4.909
 3302SOL    HW210806   6.982   4.827   4.919
 3303SOL     OW10807   3.197   3.766   1.285
 3303SOL    HW110808   3.248   3.713   1.353
 3303SOL    HW210809   3.246   3.762   1.198
 3304SOL     OW10810   0.779   6.027   4.102
 3304SOL    HW110811   0.747   5.992   4.190
 3304SOL    HW210812   0.701   6.052   4.045
 3305SOL     OW10813   1.998   1.618   2.967
 3305SOL    HW110814   1.907   1.584   2.943
 3305SOL    HW210815   2.033   1.675   2.893
 3306SOL     OW10816   2.156   5.255   4.769
 3306SOL    HW110817   2.062   5.236   4.798
 3306SOL    HW210818   2.220   5.215   4.834
 3307SOL     OW10819   0.321   5.816   0.097
 3307SOL    HW110820   0.419   5.807   0.083
 3307SOL    HW210821   0.276   5.732   0.066
 3308SOL     OW10822   3.253   6.340   0.048
 3308SOL    HW110823   3.341   6.295   0.034
 3308SOL    HW210824   3.192   6.280   0.100
 3309SOL     OW10825   6.826   6.073   2.372
 3309SOL    HW110826   6.902   6.127   2.334
 3309SOL    HW210827   6.813   6.098   2.468
 3310SOL     OW10828   0.154   3.325   5.858
 3310SOL    HW110829   0.218   3.310   5.934
 3310SOL    HW210830   0.192   3.287   5.774
 3311SOL     OW10831   2.407   4.220   1.900
 3311SOL    HW110832   2.368   4.129   1.885
 3311SOL    HW210833   2.491   4.229   1.846
 3312SOL     OW10834   3.821   4.761   6.001
 3312SOL    HW110835   3.891   4.818   5.958
 3312SOL    HW210836   3.796   4.686   5.939
 3313SOL     OW10837   0.297   5.106   3.465
 3313SOL    HW110838   0.291   5.022   3.410
 3313SOL    HW210839   0.335   5.084   3.555
 3314SOL     OW10840   2.637   1.700   3.464
 3314SOL    HW110841   2.623   1.631   3.393
 3314SOL    HW210842   2.678   1.782   3.424
 3315SOL     OW10843   6.474   3.153   4.986
 3315SOL    HW110844   6.557   3.179   5.034
 3315SOL    HW210845   6.411   3.230   4.983
 3316SOL     OW10846   5.190   1.833   6.092
 3316SOL    HW110847   5.242   1.915   6.068
 3316SOL    HW210848   5.093   1.855   6.097
 3317SOL     OW10849   4.293   3.090   1.737
 3317SOL    HW110850   4.310   3.166   1.674
 3317SOL    HW210851   4.380   3.055   1.772
 3318SOL     OW10852   2.723   0.653   0.557
 3318SOL    HW110853   2.719   0.642   0.457
 3318SOL    HW210854   2.808   0.699   0.582
 3319SOL     OW10855   6.425   0.891   3.975
 3319SOL    HW110856   6.417   0.884   3.875
 3319SOL    HW210857   6.480   0.815   4.009
 3320SOL     OW10858   5.431   0.431   4.704
 3320SOL    HW110859   5.396   0.344   4.669
 3320SOL    HW210860   5.531   0.427   4.705
 3321SOL     OW10861   4.393   1.924   0.515
 3321SOL    HW110862   4.438   1.971   0.591
 3321SOL    HW210863   4.369   1.831   0.544
 3322SOL     OW10864   6.009   3.599   0.528
 3322SOL    HW110865   5.941   3.611   0.600
 3322SOL    HW210866   5.963   3.586   0.440
 3323SOL     OW10867   3.108   2.830   0.249
 3323SOL    HW110868   3.043   2.885   0.196
 3323SOL    HW210869   3.180   2.796   0.188
 3324SOL     OW10870   2.697   4.637   6.679
 3324SOL    HW110871   2.658   4.616   6.769
 3324SOL    HW210872   2.716   4.553   6.630
 3325SOL     OW10873   1.819   2.833   6.798
 3325SOL    HW110874   1.730   2.855   6.758
 3325SOL    HW210875   1.854   2.913   6.847
 3326SOL     OW10876   4.663   2.406   2.310
 3326SOL    HW110877   4.610   2.328   2.345
 3326SOL    HW210878   4.628   2.432   2.220
 3327SOL     OW10879   2.411   5.956   2.008
 3327SOL    HW110880   2.360   5.995   1.931
 3327SOL    HW210881   2.504   5.934   1.979
 3328SOL     OW10882   4.257   1.380   0.927
 3328SOL    HW110883   4.301   1.425   1.005
 3328SOL    HW210884   4.293   1.419   0.842
 3329SOL     OW10885   4.979   6.861   5.011
 3329SOL    HW110886   4.991   6.906   4.923
 3329SOL    HW210887   4.934   6.924   5.075
 3330SOL     OW10888   6.263   4.840   1.464
 3330SOL    HW110889   6.242   4.937   1.466
 3330SOL    HW210890   6.362   4.826   1.458
 3331SOL     OW10891   1.536   3.595   0.877
 3331SOL    HW110892   1.541   3.678   0.822
 3331SOL    HW210893   1.473   3.609   0.954
 3332SOL     OW10894   6.522   5.101   0.375
 3332SOL    HW110895   6.537   5.127   0.471
 3332SOL    HW210896   6.592   5.145   0.318
 3333SOL     OW10897   3.494   3.924   6.453
 3333SOL    HW110898   3.395   3.914   6.443
 3333SOL    HW210899   3.523   3.881   6.538
 3334SOL     OW10900   2.398   4.206   1.175
 3334SOL    HW110901   2.327   4.193   1.244
 3334SOL    HW210902   2.357   4.240   1.091
 3335SOL     OW10903   5.222   6.860   5.506
 3335SOL    HW110904   5.200   6.954   5.480
 3335SOL    HW210905   5.296   6.861   5.573
 3336SOL     OW10906   1.825   6.586   4.273
 3336SOL    HW110907   1.794   6.491   4.278
 3336SOL    HW210908   1.920   6.588   4.243
 3337SOL     OW10909   3.028   3.832   1.675
 3337SOL    HW110910   2.959   3.790   1.616
 3337SOL    HW210911   2.985   3.899   1.735
 3338SOL     OW10912   5.905   3.126   2.318
 3338SOL    HW110913   5.806   3.137   2.330
 3338SOL    HW210914   5.925   3.116   2.221
 3339SOL     OW10915   0.720   0.193   6.406
 3339SOL    HW110916   0.684   0.233   6.491
 3339SOL    HW210917   0.687   0.099   6.397
 3340SOL     OW10918   3.687   1.744   3.463
 3340SOL    HW110919   3.695   1.686   3.382
 3340SOL    HW210920   3.607   1.717   3.516
 3341SOL     OW10921   0.634   4.891   3.474
 3341SOL    HW110922   0.553   4.863   3.524
 3341SOL    HW210923   0.716   4.856   3.520
 3342SOL     OW10924   1.548   6.165   3.797
 3342SOL    HW110925   1.538   6.126   3.706
 3342SOL    HW210926   1.477   6.128   3.857
 3343SOL     OW10927   4.990   3.555   6.937
 3343SOL    HW110928   5.027   3.510   6.856
 3343SOL    HW210929   4.932   3.632   6.909
 3344SOL     OW10930   5.824   3.499   3.491
 3344SOL    HW110931   5.763   3.511   3.569
 3344SOL    HW210932   5.919   3.494   3.523
 3345SOL     OW10933   1.761   2.655   5.723
 3345SOL    HW110934   1.727   2.700   5.806
 3345SOL    HW210935   1.744   2.715   5.644
 3346SOL     OW10936   1.169   1.254   6.802
 3346SOL    HW110937   1.218   1.213   6.725
 3346SOL    HW210938   1.101   1.319   6.766
 3347SOL     OW10939   0.763   3.186   5.341
 3347SOL    HW110940   0.737   3.283   5.337
 3347SOL    HW210941   0.838   3.175   5.405
 3348SOL     OW10942   3.641   3.936   4.660
 3348SOL    HW110943   3.705   3.985   4.601
 3348SOL    HW210944   3.691   3.888   4.732
 3349SOL     OW10945   1.743   5.076   3.182
 3349SOL    HW110946   1.772   5.109   3.092
 3349SOL    HW210947   1.674   5.004   3.171
 3350SOL     OW10948   0.072   2.374   5.724
 3350SOL    HW110949   0.041   2.401   5.633
 3350SOL    HW210950   0.113   2.453   5.770
 3351SOL     OW10951   4.778   0.475   2.597
 3351SOL    HW110952   4.678   0.475   2.591
 3351SOL    HW210953   4.813   0.386   2.569
 3352SOL     OW10954   6.573   2.907   0.192
 3352SOL    HW110955   6.518   2.981   0.155
 3352SOL    HW210956   6.664   2.909   0.150
 3353SOL     OW10957   3.045   5.804   1.831
 3353SOL    HW110958   3.026   5.738   1.758
 3353SOL    HW210959   3.124   5.859   1.806
 3354SOL     OW10960   4.936   2.575   5.428
 3354SOL    HW110961   4.883   2.643   5.379
 3354SOL    HW210962   4.909   2.573   5.524
 3355SOL     OW10963   2.461   1.906   5.911
 3355SOL    HW110964   2.503   1.930   5.824
 3355SOL    HW210965   2.389   1.838   5.895
 3356SOL     OW10966   0.587   5.402   5.711
 3356SOL    HW110967   0.542   5.319   5.678
 3356SOL    HW210968   0.518   5.470   5.737
 3357SOL     OW10969   2.205   3.770   1.973
 3357SOL    HW110970   2.223   3.793   1.877
 3357SOL    HW210971   2.227   3.674   1.989
 3358SOL     OW10972   4.725   1.701   1.102
 3358SOL    HW110973   4.755   1.796   1.103
 3358SOL    HW210974   4.670   1.683   1.184
 3359SOL     OW10975   0.445   6.851   2.618
 3359SOL    HW110976   0.353   6.866   2.655
 3359SOL    HW210977   0.442   6.855   2.519
 3360SOL     OW10978   1.422   1.750   6.911
 3360SOL    HW110979   1.414   1.721   6.816
 3360SOL    HW210980   1.334   1.738   6.957
 3361SOL     OW10981   0.252   5.048   4.687
 3361SOL    HW110982   0.326   4.999   4.732
 3361SOL    HW210983   0.235   5.134   4.736
 3362SOL     OW10984   3.501   1.738   2.735
 3362SOL    HW110985   3.492   1.823   2.684
 3362SOL    HW210986   3.429   1.733   2.805
 3363SOL     OW10987   6.864   0.665   2.083
 3363SOL    HW110988   6.772   0.633   2.106
 3363SOL    HW210989   6.893   0.733   2.151
 3364SOL     OW10990   1.280   4.741   3.965
 3364SOL    HW110991   1.289   4.836   3.995
 3364SOL    HW210992   1.371   4.702   3.948
 3365SOL     OW10993   0.045   2.111   4.949
 3365SOL    HW110994   0.125   2.172   4.952
 3365SOL    HW210995   7.007   2.129   5.029
 3366SOL     OW10996   5.601   5.551   4.751
 3366SOL    HW110997   5.583   5.637   4.702
 3366SOL    HW210998   5.698   5.545   4.773
 3367SOL     OW10999   3.881   2.981   2.536
 3367SOL    HW111000   3.867   3.079   2.550
 3367SOL    HW211001   3.922   2.941   2.618
 3368SOL     OW11002   0.546   5.613   6.404
 3368SOL    HW111003   0.572   5.577   6.494
 3368SOL    HW211004   0.493   5.544   6.354
 3369SOL     OW11005   3.626   1.976   0.548
 3369SOL    HW111006   3.687   2.053   0.567
 3369SOL    HW211007   3.569   1.958   0.628
 3370SOL     OW11008   0.172   5.924   0.479
 3370SOL    HW111009   0.120   5.884   0.554
 3370SOL    HW211010   0.109   5.951   0.406
 3371SOL     OW11011   2.306   2.456   1.763
 3371SOL    HW111012   2.326   2.549   1.731
 3371SOL    HW211013   2.384   2.422   1.815
 3372SOL     OW11014   6.708   2.212   1.030
 3372SOL    HW111015   6.764   2.146   1.080
 3372SOL    HW211016   6.628   2.166   0.991
 3373SOL     OW11017   0.578   1.516   3.925
 3373SOL    HW111018   0.554   1.594   3.866
 3373SOL    HW211019   0.537   1.433   3.888
 3374SOL     OW11020   1.372   6.297   4.662
 3374SOL    HW111021   1.327   6.245   4.590
 3374SOL    HW211022   1.311   6.369   4.695
 3375SOL     OW11023   0.403   4.382   6.765
 3375SOL    HW111024   0.474   4.381   6.835
 3375SOL    HW211025   0.339   4.456   6.784
 3376SOL     OW11026   4.118   3.722   4.586
 3376SOL    HW111027   4.204   3.726   4.636
 3376SOL    HW211028   4.042   3.747   4.647
 3377SOL     OW11029   6.776   5.926   6.154
 3377SOL    HW111030   6.821   6.004   6.197
 3377SOL    HW211031   6.736   5.955   6.067
 3378SOL     OW11032   0.709   1.242   1.261
 3378SOL    HW111033   0.708   1.143   1.248
 3378SOL    HW211034   0.646   1.285   1.196
 3379SOL     OW11035   0.512   1.065   6.053
 3379SOL    HW111036   0.522   0.967   6.041
 3379SOL    HW211037   0.467   1.104   5.972
 3380SOL     OW11038   5.871   6.469   4.981
 3380SOL    HW111039   5.913   6.378   4.983
 3380SOL    HW211040   5.904   6.519   4.900
 3381SOL     OW11041   0.321   2.654   1.341
 3381SOL    HW111042   0.322   2.740   1.392
 3381SOL    HW211043   0.409   2.608   1.351
 3382SOL     OW11044   0.487   2.753   0.671
 3382SOL    HW111045   0.537   2.667   0.676
 3382SOL    HW211046   0.394   2.736   0.640
 3383SOL     OW11047   4.218   5.839   1.258
 3383SOL    HW111048   4.225   5.932   1.221
 3383SOL    HW211049   4.285   5.827   1.332
 3384SOL     OW11050   2.606   3.126   6.454
 3384SOL    HW111051   2.677   3.059   6.478
 3384SOL    HW211052   2.571   3.169   6.537
 3385SOL     OW11053   6.776   3.446   4.807
 3385SOL    HW111054   6.793   3.513   4.735
 3385SOL    HW211055   6.783   3.354   4.769
 3386SOL     OW11056   5.613   4.478   0.066
 3386SOL    HW111057   5.532   4.453   0.118
 3386SOL    HW211058   5.603   4.448   6.991
 3387SOL     OW11059   2.432   0.623   2.671
 3387SOL    HW111060   2.459   0.567   2.592
 3387SOL    HW211061   2.466   0.716   2.658
 3388SOL     OW11062   5.407   3.095   2.177
 3388SOL    HW111063   5.399   3.140   2.088
 3388SOL    HW211064   5.319   3.099   2.225
 3389SOL     OW11065   5.873   5.428   6.638
 3389SOL    HW111066   5.865   5.363   6.562
 3389SOL    HW211067   5.919   5.384   6.715
 3390SOL     OW11068   6.003   6.901   6.344
 3390SOL    HW111069   6.005   6.878   6.441
 3390SOL    HW211070   5.971   6.821   6.292
 3391SOL     OW11071   4.674   2.640   4.767
 3391SOL    HW111072   4.750   2.575   4.767
 3391SOL    HW211073   4.673   2.689   4.679
 3392SOL     OW11074   2.506   0.561   3.909
 3392SOL    HW111075   2.468   0.636   3.855
 3392SOL    HW211076   2.606   0.564   3.905
 3393SOL     OW11077   0.335   6.181   0.624
 3393SOL    HW111078   0.264   6.242   0.589
 3393SOL    HW211079   0.420   6.196   0.573
 3394SOL     OW11080   5.709   3.138   1.577
 3394SOL    HW111081   5.677   3.087   1.497
 3394SOL    HW211082   5.760   3.076   1.637
 3395SOL     OW11083   5.212   3.067   3.183
 3395SOL    HW111084   5.175   3.064   3.091
 3395SOL    HW211085   5.167   3.139   3.235
 3396SOL     OW11086   5.219   1.824   3.119
 3396SOL    HW111087   5.310   1.864   3.108
 3396SOL    HW211088   5.178   1.811   3.029
 3397SOL     OW11089   2.962   6.168   5.771
 3397SOL    HW111090   2.983   6.180   5.868
 3397SOL    HW211091   3.006   6.085   5.738
 3398SOL     OW11092   1.025   6.600   4.895
 3398SOL    HW111093   1.096   6.639   4.953
 3398SOL    HW211094   0.943   6.584   4.949
 3399SOL     OW11095   5.366   4.132   3.554
 3399SOL    HW111096   5.377   4.169   3.462
 3399SOL    HW211097   5.313   4.196   3.609
 3400SOL     OW11098   4.386   3.289   6.239
 3400SOL    HW111099   4.410   3.342   6.158
 3400SOL    HW211100   4.374   3.193   6.214
 3401SOL     OW11101   0.623   2.979   0.932
 3401SOL    HW111102   0.635   2.910   1.003
 3401SOL    HW211103   0.701   2.974   0.869
 3402SOL     OW11104   4.333   5.611   7.011
 3402SOL    HW111105   4.404   5.546   0.017
 3402SOL    HW211106   4.351   5.699   0.035
 3403SOL     OW11107   3.204   5.417   5.525
 3403SOL    HW111108   3.106   5.422   5.545
 3403SOL    HW211109   3.238   5.508   5.501
 3404SOL     OW11110   4.911   1.275   0.229
 3404SOL    HW111111   4.940   1.370   0.221
 3404SOL    HW211112   4.906   1.234   0.137
 3405SOL     OW11113   6.609   4.320   6.106
 3405SOL    HW111114   6.660   4.355   6.028
 3405SOL    HW211115   6.603   4.220   6.101
 3406SOL     OW11116   0.840   3.612   1.687
 3406SOL    HW111117   0.796   3.558   1.758
 3406SOL    HW211118   0.928   3.570   1.664
 3407SOL     OW11119   1.239   4.534   6.470
 3407SOL    HW111120   1.330   4.575   6.464
 3407SOL    HW211121   1.200   4.526   6.378
 3408SOL     OW11122   4.949   3.550   4.494
 3408SOL    HW111123   4.970   3.638   4.451
 3408SOL    HW211124   4.963   3.557   4.592
 3409SOL     OW11125   3.431   6.277   6.481
 3409SOL    HW111126   3.347   6.307   6.437
 3409SOL    HW211127   3.510   6.309   6.428
 3410SOL     OW11128   6.650   6.948   1.128
 3410SOL    HW111129   6.589   6.932   1.206
 3410SOL    HW211130   6.671   0.026   1.123
 3411SOL     OW11131   0.466   3.420   1.517
 3411SOL    HW111132   0.442   3.328   1.546
 3411SOL    HW211133   0.435   3.435   1.423
 3412SOL     OW11134   4.585   2.626   0.718
 3412SOL    HW111135   4.503   2.573   0.740
 3412SOL    HW211136   4.621   2.669   0.801
 3413SOL     OW11137   5.976   1.513   0.690
 3413SOL    HW111138   5.947   1.503   0.785
 3413SOL    HW211139   5.930   1.592   0.649
 3414SOL     OW11140   3.743   1.809   6.445
 3414SOL    HW111141   3.709   1.821   6.538
 3414SOL    HW211142   3.839   1.838   6.440
 3415SOL     OW11143   1.688   3.600   4.164
 3415SOL    HW111144   1.690   3.526   4.231
 3415SOL    HW211145   1.776   3.648   4.165
 3416SOL     OW11146   6.253   5.979   0.841
 3416SOL    HW111147   6.234   6.013   0.748
 3416SOL    HW211148   6.332   6.026   0.878
 3417SOL     OW11149   0.141   6.739   2.917
 3417SOL    HW111150   0.160   6.766   3.011
 3417SOL    HW211151   0.201   6.790   2.855
 3418SOL     OW11152   3.124   6.254   3.634
 3418SOL    HW111153   3.179   6.336   3.619
 3418SOL    HW211154   3.132   6.193   3.555
 3419SOL     OW11155   3.081   5.899   5.735
 3419SOL    HW111156   3.063   5.851   5.821
 3419SOL    HW211157   3.054   5.841   5.658
 3420SOL     OW11158   6.029   3.446   3.644
 3420SOL    HW111159   6.105   3.501   3.611
 3420SOL    HW211160   6.048   3.418   3.739
 3421SOL     OW11161   4.582   1.829   5.018
 3421SOL    HW111162   4.674   1.798   4.994
 3421SOL    HW211163   4.583   1.927   5.035
 3422SOL     OW11164   2.311   0.294   0.433
 3422SOL    HW111165   2.218   0.289   0.469
 3422SOL    HW211166   2.374   0.319   0.506
 3423SOL     OW11167   0.431   4.468   6.473
 3423SOL    HW111168   0.411   4.467   6.571
 3423SOL    HW211169   0.523   4.432   6.458
 3424SOL     OW11170   2.360   6.429   0.902
 3424SOL    HW111171   2.283   6.490   0.882
 3424SOL    HW211172   2.383   6.377   0.820
 3425SOL     OW11173   4.952   5.149   2.580
 3425SOL    HW111174   5.001   5.082   2.636
 3425SOL    HW211175   4.958   5.122   2.483
 3426SOL     OW11176   4.349   2.826   0.379
 3426SOL    HW111177   4.421   2.757   0.381
 3426SOL    HW211178   4.269   2.790   0.332
 3427SOL     OW11179   0.226   1.331   0.797
 3427SOL    HW111180   0.299   1.393   0.825
 3427SOL    HW211181   0.141   1.356   0.843
 3428SOL     OW11182   2.321   5.893   0.287
 3428SOL    HW111183   2.253   5.928   0.223
 3428SOL    HW211184   2.389   5.963   0.306
 3429SOL     OW11185   0.721   1.426   0.680
 3429SOL    HW111186   0.689   1.331   0.679
 3429SOL    HW211187   0.677   1.477   0.605
 3430SOL     OW11188   1.541   6.438   5.513
 3430SOL    HW111189   1.630   6.482   5.528
 3430SOL    HW211190   1.544   6.344   5.549
 3431SOL     OW11191   1.683   0.118   1.609
 3431SOL    HW111192   1.777   0.093   1.633
 3431SOL    HW211193   1.641   0.044   1.557
 3432SOL     OW11194   1.598   3.107   6.077
 3432SOL    HW111195   1.621   3.195   6.036
 3432SOL    HW211196   1.617   3.034   6.012
 3433SOL     OW11197   1.369   6.920   5.196
 3433SOL    HW111198   1.356   7.016   5.221
 3433SOL    HW211199   1.466   6.901   5.183
 3434SOL     OW11200   4.558   1.021   2.039
 3434SOL    HW111201   4.618   1.075   1.980
 3434SOL    HW211202   4.493   0.970   1.983
 3435SOL     OW11203   1.952   1.267   0.943
 3435SOL    HW111204   1.938   1.340   0.876
 3435SOL    HW211205   1.957   1.308   1.035
 3436SOL     OW11206   3.969   6.467   6.959
 3436SOL    HW111207   3.931   6.419   0.018
 3436SOL    HW211208   3.958   6.566   6.972
 3437SOL     OW11209   2.343   0.226   5.506
 3437SOL    HW111210   2.430   0.259   5.469
 3437SOL    HW211211   2.297   0.168   5.439
 3438SOL     OW11212   1.365   3.347   0.222
 3438SOL    HW111213   1.277   3.360   0.177
 3438SOL    HW211214   1.403   3.258   0.197
 3439SOL     OW11215   2.184   6.041   4.608
 3439SOL    HW111216   2.100   6.039   4.554
 3439SOL    HW211217   2.262   6.056   4.547
 3440SOL     OW11218   3.095   3.178   0.979
 3440SOL    HW111219   3.054   3.128   0.903
 3440SOL    HW211220   3.051   3.153   1.064
 3441SOL     OW11221   6.214   5.234   5.463
 3441SOL    HW111222   6.132   5.225   5.407
 3441SOL    HW211223   6.295   5.225   5.406
 3442SOL     OW11224   2.066   4.739   1.985
 3442SOL    HW111225   2.080   4.731   2.083
 3442SOL    HW211226   2.139   4.793   1.944
 3443SOL     OW11227   3.610   6.261   1.785
 3443SOL    HW111228   3.613   6.230   1.880
 3443SOL    HW211229   3.564   6.193   1.729
 3444SOL     OW11230   5.582   5.613   6.379
 3444SOL    HW111231   5.622   5.615   6.470
 3444SOL    HW211232   5.486   5.640   6.383
 3445SOL     OW11233   5.825   5.369   3.018
 3445SOL    HW111234   5.837   5.288   2.961
 3445SOL    HW211235   5.883   5.443   2.984
 3446SOL     OW11236   6.373   1.466   1.747
 3446SOL    HW111237   6.473   1.457   1.751
 3446SOL    HW211238   6.348   1.560   1.769
 3447SOL     OW11239   5.257   5.227   0.626
 3447SOL    HW111240   5.172   5.179   0.603
 3447SOL    HW211241   5.335   5.174   0.594
 3448SOL     OW11242   3.762   0.879   6.643
 3448SOL    HW111243   3.728   0.807   6.703
 3448SOL    HW211244   3.736   0.860   6.549
 3449SOL     OW11245   5.389   5.824   4.588
 3449SOL    HW111246   5.387   5.862   4.496
 3449SOL    HW211247   5.380   5.724   4.583
 3450SOL     OW11248   6.903   2.619   6.781
 3450SOL    HW111249   6.968   2.614   6.856
 3450SOL    HW211250   6.813   2.645   6.817
 3451SOL     OW11251   2.472   6.263   0.700
 3451SOL    HW111252   2.424   6.177   0.680
 3451SOL    HW211253   2.496   6.309   0.614
 3452SOL     OW11254   5.927   0.970   6.464
 3452SOL    HW111255   5.897   1.056   6.505
 3452SOL    HW211256   5.967   0.912   6.535
 3453SOL     OW11257   6.576   5.841   6.602
 3453SOL    HW111258   6.503   5.780   6.572
 3453SOL    HW211259   6.560   5.932   6.566
 3454SOL     OW11260   0.780   3.099   4.708
 3454SOL    HW111261   0.702   3.162   4.711
 3454SOL    HW211262   0.858   3.145   4.666
 3455SOL     OW11263   2.543   2.240   4.149
 3455SOL    HW111264   2.621   2.301   4.160
 3455SOL    HW211265   2.473   2.284   4.093
 3456SOL     OW11266   5.160   5.161   2.011
 3456SOL    HW111267   5.225   5.223   1.967
 3456SOL    HW211268   5.201   5.123   2.094
 3457SOL     OW11269   2.745   5.458   3.354
 3457SOL    HW111270   2.694   5.541   3.333
 3457SOL    HW211271   2.809   5.476   3.429
 3458SOL     OW11272   4.860   0.861   2.335
 3458SOL    HW111273   4.911   0.860   2.249
 3458SOL    HW211274   4.767   0.895   2.319
 3459SOL     OW11275   5.828   3.356   2.722
 3459SOL    HW111276   5.799   3.303   2.642
 3459SOL    HW211277   5.790   3.315   2.805
 3460SOL     OW11278   2.415   2.636   7.001
 3460SOL    HW111279   2.431   2.560   0.044
 3460SOL    HW211280   2.497   2.694   6.998
 3461SOL     OW11281   5.320   4.307   5.299
 3461SOL    HW111282   5.412   4.300   5.258
 3461SOL    HW211283   5.314   4.392   5.352
 3462SOL     OW11284   0.225   4.219   4.107
 3462SOL    HW111285   0.310   4.214   4.159
 3462SOL    HW211286   0.244   4.259   4.017
 3463SOL     OW11287   1.236   4.184   1.884
 3463SOL    HW111288   1.292   4.261   1.853
 3463SOL    HW211289   1.143   4.195   1.849
 3464SOL     OW11290   6.846   4.442   5.528
 3464SOL    HW111291   6.813   4.529   5.490
 3464SOL    HW211292   6.905   4.460   5.606
 3465SOL     OW11293   1.331   1.865   1.804
 3465SOL    HW111294   1.422   1.868   1.761
 3465SOL    HW211295   1.262   1.892   1.737
 3466SOL     OW11296   6.878   4.662   6.828
 3466SOL    HW111297   6.901   4.581   6.775
 3466SOL    HW211298   6.957   4.723   6.832
 3467SOL     OW11299   2.154   2.606   0.362
 3467SOL    HW111300   2.126   2.613   0.458
 3467SOL    HW211301   2.079   2.635   0.303
 3468SOL     OW11302   4.205   6.385   3.060
 3468SOL    HW111303   4.125   6.329   3.041
 3468SOL    HW211304   4.288   6.336   3.032
 3469SOL     OW11305   5.472   0.184   3.115
 3469SOL    HW111306   5.416   0.153   3.192
 3469SOL    HW211307   5.554   0.230   3.150
 3470SOL     OW11308   6.451   4.204   1.242
 3470SOL    HW111309   6.513   4.126   1.252
 3470SOL    HW211310   6.461   4.243   1.151
 3471SOL     OW11311   4.064   5.199   4.277
 3471SOL    HW111312   4.153   5.225   4.239
 3471SOL    HW211313   4.065   5.210   4.376
 3472SOL     OW11314   2.349   0.961   2.073
 3472SOL    HW111315   2.273   0.944   2.135
 3472SOL    HW211316   2.394   0.875   2.050
 3473SOL     OW11317   0.392   2.116   1.044
 3473SOL    HW111318   0.356   2.197   1.091
 3473SOL    HW211319   0.492   2.120   1.041
 3474SOL     OW11320   1.542   5.314   2.658
 3474SOL    HW111321   1.616   5.249   2.675
 3474SOL    HW211322   1.456   5.265   2.647
 3475SOL     OW11323   0.802   5.359   4.437
 3475SOL    HW111324   0.822   5.442   4.489
 3475SOL    HW211325   0.724   5.311   4.477
 3476SOL     OW11326   3.038   1.893   3.287
 3476SOL    HW111327   3.015   1.988   3.307
 3476SOL    HW211328   3.107   1.890   3.214
 3477SOL     OW11329   3.051   4.863   1.204
 3477SOL    HW111330   3.111   4.930   1.160
 3477SOL    HW211331   2.956   4.881   1.178
 3478SOL     OW11332   2.414   5.840   4.713
 3478SOL    HW111333   2.360   5.810   4.634
 3478SOL    HW211334   2.368   5.917   4.757
 3479SOL     OW11335   1.631   0.923   2.997
 3479SOL    HW111336   1.657   0.882   2.910
 3479SOL    HW211337   1.532   0.934   3.000
 3480SOL     OW11338   0.445   6.481   5.298
 3480SOL    HW111339   0.465   6.570   5.257
 3480SOL    HW211340   0.370   6.438   5.248
 3481SOL     OW11341   4.721   6.840   0.372
 3481SOL    HW111342   4.757   6.925   0.332
 3481SOL    HW211343   4.788   6.804   0.437
 3482SOL     OW11344   5.874   1.801   1.311
 3482SOL    HW111345   5.888   1.706   1.338
 3482SOL    HW211346   5.947   1.858   1.349
 3483SOL     OW11347   4.945   1.414   1.558
 3483SOL    HW111348   4.993   1.445   1.476
 3483SOL    HW211349   4.869   1.476   1.577
 3484SOL     OW11350   2.316   3.689   1.062
 3484SOL    HW111351   2.221   3.693   1.030
 3484SOL    HW211352   2.320   3.718   1.157
 3485SOL     OW11353   1.488   1.074   4.187
 3485SOL    HW111354   1.570   1.119   4.151
 3485SOL    HW211355   1.426   1.052   4.112
 3486SOL     OW11356   3.299   1.440   2.740
 3486SOL    HW111357   3.310   1.523   2.794
 3486SOL    HW211358   3.340   1.454   2.649
 3487SOL     OW11359   5.803   2.454   6.040
 3487SOL    HW111360   5.879   2.496   5.990
 3487SOL    HW211361   5.839   2.391   6.109
 3488SOL     OW11362   6.308   1.993   4.866
 3488SOL    HW111363   6.343   1.945   4.947
 3488SOL    HW211364   6.208   1.987   4.865
 3489SOL     OW11365   3.019   0.123   0.466
 3489SOL    HW111366   3.000   0.025   0.472
 3489SOL    HW211367   3.117   0.138   0.451
 3490SOL     OW11368   4.207   5.120   0.092
 3490SOL    HW111369   4.166   5.181   0.023
 3490SOL    HW211370   4.305   5.113   0.076
 3491SOL     OW11371   5.640   2.859   5.119
 3491SOL    HW111372   5.587   2.924   5.065
 3491SOL    HW211373   5.658   2.777   5.064
 3492SOL     OW11374   0.614   5.705   1.141
 3492SOL    HW111375   0.655   5.676   1.055
 3492SOL    HW211376   0.654   5.791   1.171
 3493SOL     OW11377   5.478   4.296   6.339
 3493SOL    HW111378   5.542   4.345   6.280
 3493SOL    HW211379   5.384   4.321   6.314
 3494SOL     OW11380   3.869   0.829   1.987
 3494SOL    HW111381   3.899   0.757   1.924
 3494SOL    HW211382   3.893   0.918   1.950
 3495SOL     OW11383   4.607   5.423   1.870
 3495SOL    HW111384   4.512   5.446   1.848
 3495SOL    HW211385   4.647   5.372   1.793
 3496SOL     OW11386   6.718   4.111   0.433
 3496SOL    HW111387   6.760   4.021   0.419
 3496SOL    HW211388   6.725   4.164   0.349
 3497SOL     OW11389   3.132   0.749   3.392
 3497SOL    HW111390   3.207   0.813   3.413
 3497SOL    HW211391   3.052   0.801   3.364
 3498SOL     OW11392   2.325   2.219   0.875
 3498SOL    HW111393   2.381   2.141   0.902
 3498SOL    HW211394   2.272   2.196   0.794
 3499SOL     OW11395   4.841   2.966   4.072
 3499SOL    HW111396   4.803   2.894   4.131
 3499SOL    HW211397   4.806   2.954   3.979
 3500SOL     OW11398   1.340   3.570   5.164
 3500SOL    HW111399   1.355   3.657   5.118
 3500SOL    HW211400   1.364   3.494   5.104
 3501SOL     OW11401   1.962   5.253   4.168
 3501SOL    HW111402   1.901   5.317   4.121
 3501SOL    HW211403   1.923   5.229   4.257
 3502SOL     OW11404   6.232   2.695   2.325
 3502SOL    HW111405   6.153   2.749   2.294
 3502SOL    HW211406   6.270   2.735   2.408
 3503SOL     OW11407   6.772   6.183   4.715
 3503SOL    HW111408   6.730   6.148   4.798
 3503SOL    HW211409   6.837   6.256   4.739
 3504SOL     OW11410   2.374   1.981   1.022
 3504SOL    HW111411   2.434   1.939   1.090
 3504SOL    HW211412   2.320   1.910   0.977
 3505SOL     OW11413   5.192   5.019   4.457
 3505SOL    HW111414   5.289   5.009   4.438
 3505SOL    HW211415   5.176   5.015   4.555
 3506SOL     OW11416   5.043   5.681   6.235
 3506SOL    HW111417   5.066   5.772   6.269
 3506SOL    HW211418   5.128   5.630   6.219
 3507SOL     OW11419   2.371   0.773   0.453
 3507SOL    HW111420   2.437   0.739   0.387
 3507SOL    HW211421   2.413   0.846   0.507
 3508SOL     OW11422   3.087   2.157   6.150
 3508SOL    HW111423   3.136   2.206   6.222
 3508SOL    HW211424   2.989   2.170   6.161
 3509SOL     OW11425   5.661   0.127   5.794
 3509SOL    HW111426   5.714   0.163   5.872
 3509SOL    HW211427   5.614   0.044   5.822
 3510SOL     OW11428   1.614   2.086   1.312
 3510SOL    HW111429   1.634   2.136   1.396
 3510SOL    HW211430   1.698   2.044   1.277
 3511SOL     OW11431   2.149   4.725   0.435
 3511SOL    HW111432   2.124   4.689   0.345
 3511SOL    HW211433   2.069   4.766   0.478
 3512SOL     OW11434   0.194   4.451   0.392
 3512SOL    HW111435   0.276   4.444   0.448
 3512SOL    HW211436   0.136   4.526   0.426
 3513SOL     OW11437   6.257   3.613   0.652
 3513SOL    HW111438   6.191   3.620   0.578
 3513SOL    HW211439   6.295   3.521   0.656
 3514SOL     OW11440   0.013   1.579   1.882
 3514SOL    HW111441   7.008   1.509   1.948
 3514SOL    HW211442   0.108   1.606   1.896
 3515SOL     OW11443   4.080   6.808   3.211
 3515SOL    HW111444   4.075   6.908   3.215
 3515SOL    HW211445   4.138   6.781   3.134
 3516SOL     OW11446   4.745   6.768   0.905
 3516SOL    HW111447   4.738   6.688   0.846
 3516SOL    HW211448   4.661   6.778   0.958
 3517SOL     OW11449   0.792   2.244   0.762
 3517SOL    HW111450   0.788   2.249   0.662
 3517SOL    HW211451   0.843   2.322   0.797
 3518SOL     OW11452   5.687   3.716   5.017
 3518SOL    HW111453   5.686   3.815   5.005
 3518SOL    HW211454   5.635   3.673   4.944
 3519SOL     OW11455   1.069   0.744   6.377
 3519SOL    HW111456   1.071   0.794   6.463
 3519SOL    HW211457   1.053   0.647   6.394
 3520SOL     OW11458   2.737   4.820   6.485
 3520SOL    HW111459   2.747   4.774   6.573
 3520SOL    HW211460   2.705   4.914   6.500
 3521SOL     OW11461   5.486   3.510   0.434
 3521SOL    HW111462   5.451   3.419   0.410
 3521SOL    HW211463   5.586   3.506   0.443
 3522SOL     OW11464   5.778   5.219   1.864
 3522SOL    HW111465   5.816   5.146   1.807
 3522SOL    HW211466   5.845   5.294   1.870
 3523SOL     OW11467   2.839   5.299   5.363
 3523SOL    HW111468   2.837   5.365   5.438
 3523SOL    HW211469   2.753   5.249   5.359
 3524SOL     OW11470   3.480   1.128   1.050
 3524SOL    HW111471   3.564   1.178   1.071
 3524SOL    HW211472   3.408   1.192   1.025
 3525SOL     OW11473   0.964   4.209   1.798
 3525SOL    HW111474   0.918   4.169   1.719
 3525SOL    HW211475   0.924   4.299   1.817
 3526SOL     OW11476   2.658   6.777   3.525
 3526SOL    HW111477   2.742   6.739   3.564
 3526SOL    HW211478   2.601   6.813   3.599
 3527SOL     OW11479   6.166   3.865   5.977
 3527SOL    HW111480   6.173   3.901   5.883
 3527SOL    HW211481   6.152   3.767   5.974
 3528SOL     OW11482   1.039   5.252   3.716
 3528SOL    HW111483   1.031   5.183   3.644
 3528SOL    HW211484   1.020   5.210   3.804
 3529SOL     OW11485   5.300   6.561   6.342
 3529SOL    HW111486   5.249   6.621   6.403
 3529SOL    HW211487   5.397   6.563   6.367
 3530SOL     OW11488   1.414   5.040   3.400
 3530SOL    HW111489   1.412   5.086   3.311
 3530SOL    HW211490   1.467   4.956   3.392
 3531SOL     OW11491   4.480   3.740   1.307
 3531SOL    HW111492   4.490   3.660   1.249
 3531SOL    HW211493   4.542   3.733   1.385
 3532SOL     OW11494   2.480   0.525   0.596
 3532SOL    HW111495   2.416   0.595   0.563
 3532SOL    HW211496   2.573   0.554   0.576
 3533SOL     OW11497   1.636   1.900   2.493
 3533SOL    HW111498   1.689   1.904   2.408
 3533SOL    HW211499   1.695   1.922   2.570
 3534SOL     OW11500   5.672   0.991   5.102
 3534SOL    HW111501   5.764   0.956   5.118
 3534SOL    HW211502   5.662   1.080   5.146
 3535SOL     OW11503   0.834   6.219   0.591
 3535SOL    HW111504   0.827   6.120   0.580
 3535SOL    HW211505   0.804   6.244   0.683
 3536SOL     OW11506   2.165   2.212   4.039
 3536SOL    HW111507   2.078   2.247   4.004
 3536SOL    HW211508   2.150   2.122   4.081
 3537SOL     OW11509   2.504   5.489   0.533
 3537SOL    HW111510   2.500   5.514   0.436
 3537SOL    HW211511   2.598   5.464   0.556
 3538SOL     OW11512   1.817   0.167   4.930
 3538SOL    HW111513   1.864   0.232   4.869
 3538SOL    HW211514   1.721   0.192   4.937
 3539SOL     OW11515   5.704   3.429   6.324
 3539SOL    HW111516   5.617   3.396   6.360
 3539SOL    HW211517   5.745   3.492   6.390
 3540SOL     OW11518   1.982   2.278   5.268
 3540SOL    HW111519   1.930   2.362   5.250
 3540SOL    HW211520   2.032   2.251   5.186
 3541SOL     OW11521   2.647   2.415   6.109
 3541SOL    HW111522   2.567   2.390   6.054
 3541SOL    HW211523   2.617   2.450   6.198
 3542SOL     OW11524   0.645   3.652   1.438
 3542SOL    HW111525   0.586   3.572   1.449
 3542SOL    HW211526   0.740   3.623   1.430
 3543SOL     OW11527   0.715   3.043   5.853
 3543SOL    HW111528   0.631   3.071   5.806
 3543SOL    HW211529   0.763   3.124   5.887
 3544SOL     OW11530   2.170   4.983   5.951
 3544SOL    HW111531   2.225   4.900   5.949
 3544SOL    HW211532   2.229   5.063   5.944
 3545SOL     OW11533   3.615   4.937   0.410
 3545SOL    HW111534   3.639   4.908   0.503
 3545SOL    HW211535   3.516   4.942   0.401
 3546SOL     OW11536   6.800   4.519   3.173
 3546SOL    HW111537   6.824   4.588   3.104
 3546SOL    HW211538   6.882   4.495   3.226
 3547SOL     OW11539   5.916   4.150   4.074
 3547SOL    HW111540   5.817   4.147   4.082
 3547SOL    HW211541   5.944   4.104   3.989
 3548SOL     OW11542   5.357   0.293   5.903
 3548SOL    HW111543   5.447   0.336   5.898
 3548SOL    HW211544   5.352   0.236   5.986
 3549SOL     OW11545   0.623   4.265   6.424
 3549SOL    HW111546   0.721   4.263   6.442
 3549SOL    HW211547   0.580   4.184   6.465
 3550SOL     OW11548   5.662   2.679   4.666
 3550SOL    HW111549   5.619   2.656   4.579
 3550SOL    HW211550   5.757   2.709   4.648
 3551SOL     OW11551   3.920   1.799   4.080
 3551SOL    HW111552   3.990   1.810   4.009
 3551SOL    HW211553   3.830   1.796   4.038
 3552SOL     OW11554   5.899   6.859   1.920
 3552SOL    HW111555   5.803   6.873   1.894
 3552SOL    HW211556   5.913   6.895   2.012
 3553SOL     OW11557   3.536   5.712   0.443
 3553SOL    HW111558   3.456   5.660   0.414
 3553SOL    HW211559   3.619   5.664   0.416
 3554SOL     OW11560   4.953   2.319   0.740
 3554SOL    HW111561   4.922   2.278   0.825
 3554SOL    HW211562   4.935   2.256   0.664
 3555SOL     OW11563   0.976   3.619   4.905
 3555SOL    HW111564   0.996   3.674   4.986
 3555SOL    HW211565   0.915   3.544   4.931
 3556SOL     OW11566   3.903   0.324   4.304
 3556SOL    HW111567   3.945   0.410   4.275
 3556SOL    HW211568   3.804   0.330   4.293
 3557SOL     OW11569   1.234   0.202   3.897
 3557SOL    HW111570   1.284   0.187   3.982
 3557SOL    HW211571   1.143   0.163   3.903
 3558SOL     OW11572   1.190   5.610   2.637
 3558SOL    HW111573   1.285   5.596   2.609
 3558SOL    HW211574   1.181   5.597   2.735
 3559SOL     OW11575   0.976   6.219   5.280
 3559SOL    HW111576   0.912   6.267   5.220
 3559SOL    HW211577   0.944   6.126   5.295
 3560SOL     OW11578   2.718   4.957   2.805
 3560SOL    HW111579   2.696   5.043   2.852
 3560SOL    HW211580   2.712   4.881   2.869
 3561SOL     OW11581   5.052   4.193   5.234
 3561SOL    HW111582   5.151   4.200   5.237
 3561SOL    HW211583   5.025   4.098   5.251
 3562SOL     OW11584   3.553   1.107   2.695
 3562SOL    HW111585   3.609   1.078   2.618
 3562SOL    HW211586   3.593   1.190   2.735
 3563SOL     OW11587   6.385   1.931   0.064
 3563SOL    HW111588   6.409   1.848   0.013
 3563SOL    HW211589   6.436   1.932   0.150
 3564SOL     OW11590   1.008   4.626   2.495
 3564SOL    HW111591   1.107   4.622   2.508
 3564SOL    HW211592   0.962   4.615   2.584
 3565SOL     OW11593   2.791   6.376   4.344
 3565SOL    HW111594   2.846   6.459   4.357
 3565SOL    HW211595   2.696   6.401   4.328
 3566SOL     OW11596   6.502   3.052   6.845
 3566SOL    HW111597   6.473   3.131   6.791
 3566SOL    HW211598   6.422   2.996   6.868
 3567SOL     OW11599   0.771   2.108   6.608
 3567SOL    HW111600   0.700   2.173   6.634
 3567SOL    HW211601   0.757   2.079   6.513
 3568SOL     OW11602   5.275   4.263   4.413
 3568SOL    HW111603   5.273   4.208   4.330
 3568SOL    HW211604   5.188   4.311   4.424
 3569SOL     OW11605   2.422   1.981   6.190
 3569SOL    HW111606   2.455   2.070   6.223
 3569SOL    HW211607   2.457   1.965   6.097
 3570SOL     OW11608   4.936   0.409   5.991
 3570SOL    HW111609   4.969   0.354   5.914
 3570SOL    HW211610   5.004   0.478   6.015
 3571SOL     OW11611   1.048   5.361   5.825
 3571SOL    HW111612   1.131   5.364   5.770
 3571SOL    HW211613   0.979   5.421   5.784
 3572SOL     OW11614   6.031   4.204   2.904
 3572SOL    HW111615   5.972   4.123   2.897
 3572SOL    HW211616   6.114   4.190   2.850
 3573SOL     OW11617   0.403   4.841   3.665
 3573SOL    HW111618   0.309   4.808   3.665
 3573SOL    HW211619   0.412   4.919   3.726
 3574SOL     OW11620   6.917   3.757   0.925
 3574SOL    HW111621   6.927   3.670   0.973
 3574SOL    HW211622   7.006   3.800   0.914
 3575SOL     OW11623   4.991   4.939   3.012
 3575SOL    HW111624   4.899   4.978   3.000
 3575SOL    HW211625   5.005   4.867   2.944
 3576SOL     OW11626   0.194   1.671   5.539
 3576SOL    HW111627   0.252   1.646   5.616
 3576SOL    HW211628   0.105   1.703   5.574
 3577SOL     OW11629   1.822   2.609   6.309
 3577SOL    HW111630   1.730   2.634   6.276
 3577SOL    HW211631   1.861   2.687   6.358
 3578SOL     OW11632   2.960   2.506   0.862
 3578SOL    HW111633   2.899   2.567   0.912
 3578SOL    HW211634   3.000   2.555   0.784
 3579SOL     OW11635   6.133   3.005   4.426
 3579SOL    HW111636   6.139   2.914   4.465
 3579SOL    HW211637   6.133   2.999   4.326
 3580SOL     OW11638   5.912   3.256   1.754
 3580SOL    HW111639   5.860   3.243   1.669
 3580SOL    HW211640   5.849   3.263   1.831
 3581SOL     OW11641   0.502   6.197   3.416
 3581SOL    HW111642   0.582   6.242   3.454
 3581SOL    HW211643   0.524   6.158   3.326
 3582SOL     OW11644   0.734   2.482   5.496
 3582SOL    HW111645   0.753   2.405   5.557
 3582SOL    HW211646   0.655   2.533   5.530
 3583SOL     OW11647   1.326   3.601   6.472
 3583SOL    HW111648   1.403   3.664   6.457
 3583SOL    HW211649   1.345   3.514   6.426
 3584SOL     OW11650   6.093   5.230   6.463
 3584SOL    HW111651   6.087   5.234   6.363
 3584SOL    HW211652   6.039   5.153   6.497
 3585SOL     OW11653   4.087   0.061   4.871
 3585SOL    HW111654   4.026   7.018   4.822
 3585SOL    HW211655   4.039   0.148   4.886
 3586SOL     OW11656   0.024   1.635   4.986
 3586SOL    HW111657   7.000   1.706   4.931
 3586SOL    HW211658   7.002   1.547   4.966
 3587SOL     OW11659   3.108   5.849   6.670
 3587SOL    HW111660   3.011   5.872   6.665
 3587SOL    HW211661   3.122   5.777   6.738
 3588SOL     OW11662   1.743   2.363   5.713
 3588SOL    HW111663   1.731   2.295   5.786
 3588SOL    HW211664   1.783   2.446   5.751
 3589SOL     OW11665   3.581   1.464   5.117
 3589SOL    HW111666   3.627   1.387   5.073
 3589SOL    HW211667   3.567   1.538   5.051
 3590SOL     OW11668   0.841   2.743   6.589
 3590SOL    HW111669   0.877   2.657   6.624
 3590SOL    HW211670   0.749   2.729   6.552
 3591SOL     OW11671   5.386   3.550   6.373
 3591SOL    HW111672   5.430   3.574   6.459
 3591SOL    HW211673   5.297   3.510   6.391
 3592SOL     OW11674   6.864   4.793   1.577
 3592SOL    HW111675   6.926   4.718   1.597
 3592SOL    HW211676   6.906   4.880   1.604
 3593SOL     OW11677   0.799   5.735   4.872
 3593SOL    HW111678   0.779   5.803   4.943
 3593SOL    HW211679   0.780   5.644   4.907
 3594SOL     OW11680   4.372   0.413   3.150
 3594SOL    HW111681   4.434   0.334   3.148
 3594SOL    HW211682   4.327   0.417   3.239
 3595SOL     OW11683   3.021   5.997   0.439
 3595SOL    HW111684   2.937   5.943   0.446
 3595SOL    HW211685   3.094   5.939   0.402
 3596SOL     OW11686   6.320   2.987   3.192
 3596SOL    HW111687   6.385   3.026   3.126
 3596SOL    HW211688   6.335   3.029   3.282
 3597SOL     OW11689   1.856   1.796   4.629
 3597SOL    HW111690   1.859   1.815   4.531
 3597SOL    HW211691   1.948   1.802   4.667
 3598SOL     OW11692   0.840   5.499   5.729
 3598SOL    HW111693   0.758   5.442   5.729
 3598SOL    HW211694   0.833   5.567   5.656
 3599SOL     OW11695   0.006   1.663   5.774
 3599SOL    HW111696   6.988   1.573   5.755
 3599SOL    HW211697   0.051   1.661   5.864
 3600SOL     OW11698   0.818   3.644   0.924
 3600SOL    HW111699   0.762   3.574   0.880
 3600SOL    HW211700   0.865   3.698   0.855
 3601SOL     OW11701   5.169   4.625   6.581
 3601SOL    HW111702   5.212   4.715   6.594
 3601SOL    HW211703   5.126   4.622   6.491
 3602SOL     OW11704   1.679   2.161   0.898
 3602SOL    HW111705   1.663   2.184   0.802
 3602SOL    HW211706   1.624   2.220   0.957
 3603SOL     OW11707   3.248   0.481   3.517
 3603SOL    HW111708   3.280   0.396   3.476
 3603SOL    HW211709   3.175   0.519   3.460
 3604SOL     OW11710   6.686   5.115   3.161
 3604SOL    HW111711   6.684   5.104   3.061
 3604SOL    HW211712   6.761   5.060   3.198
 3605SOL     OW11713   6.516   3.789   5.132
 3605SOL    HW111714   6.544   3.857   5.200
 3605SOL    HW211715   6.597   3.753   5.085
 3606SOL     OW11716   6.972   0.014   4.963
 3606SOL    HW111717   0.049   0.026   4.983
 3606SOL    HW211718   6.934   0.101   4.931
 3607SOL     OW11719   5.466   5.593   2.096
 3607SOL    HW111720   5.432   5.671   2.044
 3607SOL    HW211721   5.511   5.529   2.035
 3608SOL     OW11722   5.850   2.060   3.687
 3608SOL    HW111723   5.926   2.075   3.750
 3608SOL    HW211724   5.777   2.125   3.706
 3609SOL     OW11725   1.121   6.954   3.994
 3609SOL    HW111726   1.067   6.993   3.919
 3609SOL    HW211727   1.063   6.946   4.076
 3610SOL     OW11728   1.630   6.871   5.316
 3610SOL    HW111729   1.721   6.877   5.357
 3610SOL    HW211730   1.564   6.844   5.386
 3611SOL     OW11731   4.567   5.676   5.719
 3611SOL    HW111732   4.544   5.729   5.637
 3611SOL    HW211733   4.512   5.707   5.796
 3612SOL     OW11734   6.508   0.135   0.104
 3612SOL    HW111735   6.512   0.042   0.069
 3612SOL    HW211736   6.589   0.186   0.075
 3613SOL     OW11737   4.623   5.141   1.763
 3613SOL    HW111738   4.641   5.167   1.858
 3613SOL    HW211739   4.680   5.062   1.739
 3614SOL     OW11740   3.885   3.220   1.590
 3614SOL    HW111741   3.942   3.279   1.648
 3614SOL    HW211742   3.792   3.219   1.625
 3615SOL     OW11743   4.922   5.474   6.858
 3615SOL    HW111744   4.965   5.439   6.941
 3615SOL    HW211745   4.904   5.572   6.868
 3616SOL     OW11746   0.773   2.496   6.764
 3616SOL    HW111747   0.703   2.477   6.695
 3616SOL    HW211748   0.730   2.538   6.844
 3617SOL     OW11749   4.028   1.697   6.897
 3617SOL    HW111750   4.013   1.672   6.802
 3617SOL    HW211751   3.986   1.786   6.916
 3618SOL     OW11752   2.212   2.549   5.376
 3618SOL    HW111753   2.220   2.541   5.277
 3618SOL    HW211754   2.115   2.557   5.401
 3619SOL     OW11755   5.495   2.903   4.667
 3619SOL    HW111756   5.478   2.933   4.573
 3619SOL    HW211757   5.574   2.841   4.668
 3620SOL     OW11758   6.254   6.356   6.184
 3620SOL    HW111759   6.208   6.280   6.137
 3620SOL    HW211760   6.314   6.320   6.255
 3621SOL     OW11761   3.289   2.864   4.972
 3621SOL    HW111762   3.253   2.928   5.039
 3621SOL    HW211763   3.236   2.779   4.976
 3622SOL     OW11764   1.920   1.586   5.398
 3622SOL    HW111765   1.893   1.490   5.391
 3622SOL    HW211766   1.882   1.637   5.322
 3623SOL     OW11767   6.227   6.059   4.078
 3623SOL    HW111768   6.317   6.027   4.050
 3623SOL    HW211769   6.161   6.042   4.005
 3624SOL     OW11770   1.493   6.641   1.864
 3624SOL    HW111771   1.464   6.556   1.908
 3624SOL    HW211772   1.583   6.627   1.821
 3625SOL     OW11773   6.308   2.867   6.908
 3625SOL    HW111774   6.306   2.791   6.973
 3625SOL    HW211775   6.214   2.898   6.890
 3626SOL     OW11776   1.243   1.977   5.769
 3626SOL    HW111777   1.270   2.073   5.761
 3626SOL    HW211778   1.324   1.920   5.773
 3627SOL     OW11779   3.434   2.891   2.814
 3627SOL    HW111780   3.379   2.848   2.743
 3627SOL    HW211781   3.376   2.917   2.891
 3628SOL     OW11782   1.669   1.153   1.575
 3628SOL    HW111783   1.758   1.124   1.610
 3628SOL    HW211784   1.608   1.171   1.652
 3629SOL     OW11785   0.163   1.112   5.476
 3629SOL    HW111786   0.177   1.116   5.377
 3629SOL    HW211787   0.071   1.080   5.496
 3630SOL     OW11788   5.420   2.809   3.826
 3630SOL    HW111789   5.479   2.878   3.866
 3630SOL    HW211790   5.471   2.754   3.761
 3631SOL     OW11791   1.764   0.847   3.721
 3631SOL    HW111792   1.817   0.826   3.803
 3631SOL    HW211793   1.744   0.762   3.672
 3632SOL     OW11794   5.584   5.746   1.527
 3632SOL    HW111795   5.578   5.816   1.598
 3632SOL    HW211796   5.598   5.790   1.438
 3633SOL     OW11797   4.221   1.968   5.829
 3633SOL    HW111798   4.168   2.051   5.811
 3633SOL    HW211799   4.245   1.925   5.742
 3634SOL     OW11800   1.571   4.181   4.551
 3634SOL    HW111801   1.548   4.089   4.522
 3634SOL    HW211802   1.489   4.226   4.586
 3635SOL     OW11803   3.607   0.312   6.844
 3635SOL    HW111804   3.672   0.250   6.800
 3635SOL    HW211805   3.603   0.292   6.942
 3636SOL     OW11806   0.716   5.650   0.900
 3636SOL    HW111807   0.789   5.596   0.857
 3636SOL    HW211808   0.732   5.747   0.881
 3637SOL     OW11809   0.120   1.765   2.175
 3637SOL    HW111810   0.207   1.799   2.139
 3637SOL    HW211811   0.129   1.667   2.196
 3638SOL     OW11812   0.443   4.502   3.684
 3638SOL    HW111813   0.511   4.450   3.735
 3638SOL    HW211814   0.391   4.560   3.747
 3639SOL     OW11815   3.388   4.519   0.854
 3639SOL    HW111816   3.414   4.466   0.934
 3639SOL    HW211817   3.361   4.611   0.882
 3640SOL     OW11818   4.193   0.839   0.679
 3640SOL    HW111819   4.166   0.800   0.591
 3640SOL    HW211820   4.293   0.838   0.686
 3641SOL     OW11821   5.265   3.908   2.847
 3641SOL    HW111822   5.362   3.893   2.869
 3641SOL    HW211823   5.230   3.829   2.798
 3642SOL     OW11824   5.673   0.747   7.008
 3642SOL    HW111825   5.744   0.815   6.988
 3642SOL    HW211826   5.594   0.793   0.028
 3643SOL     OW11827   2.978   5.740   4.733
 3643SOL    HW111828   2.928   5.656   4.712
 3643SOL    HW211829   2.922   5.819   4.708
 3644SOL     OW11830   6.899   1.262   1.695
 3644SOL    HW111831   6.929   1.329   1.627
 3644SOL    HW211832   6.822   1.210   1.659
 3645SOL     OW11833   0.662   2.312   3.394
 3645SOL    HW111834   0.648   2.402   3.434
 3645SOL    HW211835   0.683   2.322   3.296
 3646SOL     OW11836   0.752   3.904   6.216
 3646SOL    HW111837   0.724   3.938   6.306
 3646SOL    HW211838   0.674   3.908   6.154
 3647SOL     OW11839   2.293   5.390   5.681
 3647SOL    HW111840   2.216   5.455   5.683
 3647SOL    HW211841   2.379   5.439   5.692
 3648SOL     OW11842   3.911   4.929   1.956
 3648SOL    HW111843   3.814   4.908   1.951
 3648SOL    HW211844   3.923   5.022   1.991
 3649SOL     OW11845   5.190   2.963   1.881
 3649SOL    HW111846   5.150   3.044   1.923
 3649SOL    HW211847   5.186   2.887   1.946
 3650SOL     OW11848   6.856   5.569   1.541
 3650SOL    HW111849   6.765   5.602   1.516
 3650SOL    HW211850   6.874   5.483   1.492
 3651SOL     OW11851   0.829   6.526   5.079
 3651SOL    HW111852   0.759   6.576   5.027
 3651SOL    HW211853   0.804   6.429   5.084
 3652SOL     OW11854   5.438   6.369   3.269
 3652SOL    HW111855   5.472   6.277   3.248
 3652SOL    HW211856   5.515   6.430   3.288
 3653SOL     OW11857   0.916   1.303   3.767
 3653SOL    HW111858   0.872   1.305   3.677
 3653SOL    HW211859   0.885   1.382   3.821
 3654SOL     OW11860   3.149   3.844   0.648
 3654SOL    HW111861   3.124   3.750   0.673
 3654SOL    HW211862   3.086   3.908   0.691
 3655SOL     OW11863   2.089   5.733   4.434
 3655SOL    HW111864   2.075   5.637   4.409
 3655SOL    HW211865   2.091   5.742   4.533
 3656SOL     OW11866   0.421   4.332   1.483
 3656SOL    HW111867   0.371   4.293   1.560
 3656SOL    HW211868   0.489   4.397   1.517
 3657SOL     OW11869   5.405   5.596   5.503
 3657SOL    HW111870   5.365   5.509   5.477
 3657SOL    HW211871   5.440   5.590   5.597
 3658SOL     OW11872   1.891   4.989   5.853
 3658SOL    HW111873   1.973   4.981   5.909
 3658SOL    HW211874   1.905   4.938   5.767
 3659SOL     OW11875   1.949   3.789   5.976
 3659SOL    HW111876   1.850   3.781   5.966
 3659SOL    HW211877   1.970   3.853   6.050
 3660SOL     OW11878   5.699   6.564   3.896
 3660SOL    HW111879   5.622   6.623   3.923
 3660SOL    HW211880   5.710   6.566   3.797
 3661SOL     OW11881   5.280   0.610   5.321
 3661SOL    HW111882   5.338   0.531   5.341
 3661SOL    HW211883   5.325   0.668   5.252
 3662SOL     OW11884   3.112   0.907   4.197
 3662SOL    HW111885   3.166   0.965   4.258
 3662SOL    HW211886   3.169   0.834   4.161
 3663SOL     OW11887   1.946   1.754   6.798
 3663SOL    HW111888   1.997   1.701   6.866
 3663SOL    HW211889   1.947   1.850   6.825
 3664SOL     OW11890   4.947   2.617   1.439
 3664SOL    HW111891   4.857   2.576   1.451
 3664SOL    HW211892   4.952   2.704   1.488
 3665SOL     OW11893   1.332   6.697   4.817
 3665SOL    HW111894   1.290   6.625   4.762
 3665SOL    HW211895   1.320   6.677   4.914
 3666SOL     OW11896   0.932   3.533   3.216
 3666SOL    HW111897   0.942   3.492   3.125
 3666SOL    HW211898   1.013   3.512   3.271
 3667SOL     OW11899   0.820   1.444   3.273
 3667SOL    HW111900   0.742   1.403   3.226
 3667SOL    HW211901   0.821   1.542   3.256
 3668SOL     OW11902   1.663   1.011   1.351
 3668SOL    HW111903   1.677   1.086   1.415
 3668SOL    HW211904   1.584   0.956   1.380
 3669SOL     OW11905   4.798   1.233   3.778
 3669SOL    HW111906   4.764   1.265   3.867
 3669SOL    HW211907   4.786   1.306   3.710
 3670SOL     OW11908   2.064   5.050   0.101
 3670SOL    HW111909   2.124   5.047   0.181
 3670SOL    HW211910   2.019   5.139   0.097
 3671SOL     OW11911   0.018   2.067   4.013
 3671SOL    HW111912   6.974   1.992   4.032
 3671SOL    HW211913   6.988   2.143   3.972
 3672SOL     OW11914   5.178   1.772   1.110
 3672SOL    HW111915   5.147   1.837   1.179
 3672SOL    HW211916   5.128   1.686   1.120
 3673SOL     OW11917   3.689   6.065   6.700
 3673SOL    HW111918   3.705   6.103   6.609
 3673SOL    HW211919   3.596   6.030   6.706
 3674SOL     OW11920   1.490   5.290   6.207
 3674SOL    HW111921   1.556   5.279   6.133
 3674SOL    HW211922   1.397   5.276   6.172
 3675SOL     OW11923   2.156   3.034   4.201
 3675SOL    HW111924   2.250   3.022   4.234
 3675SOL    HW211925   2.096   2.970   4.249
 3676SOL     OW11926   5.619   4.768   2.893
 3676SOL    HW111927   5.593   4.857   2.928
 3676SOL    HW211928   5.641   4.707   2.969
 3677SOL     OW11929   2.194   6.388   3.688
 3677SOL    HW111930   2.284   6.430   3.701
 3677SOL    HW211931   2.153   6.369   3.777
 3678SOL     OW11932   0.166   1.873   4.333
 3678SOL    HW111933   0.189   1.777   4.355
 3678SOL    HW211934   0.235   1.910   4.271
 3679SOL     OW11935   0.697   0.740   3.641
 3679SOL    HW111936   0.750   0.677   3.584
 3679SOL    HW211937   0.660   0.691   3.720
 3680SOL     OW11938   5.194   2.971   4.101
 3680SOL    HW111939   5.202   3.048   4.037
 3680SOL    HW211940   5.098   2.953   4.120
 3681SOL     OW11941   0.236   0.816   6.689
 3681SOL    HW111942   0.236   0.858   6.780
 3681SOL    HW211943   0.325   0.832   6.646
 3682SOL     OW11944   5.479   2.237   0.071
 3682SOL    HW111945   5.487   2.211   0.168
 3682SOL    HW211946   5.387   2.272   0.054
 3683SOL     OW11947   0.016   1.229   3.456
 3683SOL    HW111948   7.001   1.173   3.381
 3683SOL    HW211949   0.110   1.202   3.478
 3684SOL     OW11950   1.612   4.463   0.269
 3684SOL    HW111951   1.694   4.472   0.211
 3684SOL    HW211952   1.541   4.416   0.217
 3685SOL     OW11953   1.255   5.935   7.015
 3685SOL    HW111954   1.294   6.026   7.008
 3685SOL    HW211955   1.327   5.866   7.002
 3686SOL     OW11956   5.002   5.930   4.057
 3686SOL    HW111957   4.954   6.013   4.027
 3686SOL    HW211958   4.940   5.852   4.053
 3687SOL     OW11959   3.140   6.149   5.008
 3687SOL    HW111960   3.156   6.056   5.043
 3687SOL    HW211961   3.224   6.203   5.017
 3688SOL     OW11962   0.447   3.734   6.280
 3688SOL    HW111963   0.514   3.685   6.223
 3688SOL    HW211964   0.358   3.732   6.234
 3689SOL     OW11965   2.163   6.932   5.575
 3689SOL    HW111966   2.221   6.973   5.645
 3689SOL    HW211967   2.073   6.976   5.577
 3690SOL     OW11968   4.319   6.033   0.439
 3690SOL    HW111969   4.283   6.075   0.356
 3690SOL    HW211970   4.418   6.043   0.442
 3691SOL     OW11971   2.446   1.814   6.426
 3691SOL    HW111972   2.541   1.791   6.446
 3691SOL    HW211973   2.443   1.883   6.354
 3692SOL     OW11974   6.763   5.688   5.081
 3692SOL    HW111975   6.711   5.687   4.996
 3692SOL    HW211976   6.700   5.693   5.159
 3693SOL     OW11977   2.126   3.681   2.997
 3693SOL    HW111978   2.153   3.587   2.975
 3693SOL    HW211979   2.097   3.728   2.914
 3694SOL     OW11980   1.682   6.410   2.821
 3694SOL    HW111981   1.723   6.471   2.754
 3694SOL    HW211982   1.664   6.321   2.779
 3695SOL     OW11983   6.488   3.014   1.773
 3695SOL    HW111984   6.458   3.061   1.690
 3695SOL    HW211985   6.566   2.955   1.752
 3696SOL     OW11986   3.767   6.511   4.695
 3696SOL    HW111987   3.685   6.531   4.749
 3696SOL    HW211988   3.848   6.537   4.748
 3697SOL     OW11989   0.237   6.346   2.435
 3697SOL    HW111990   0.318   6.335   2.493
 3697SOL    HW211991   0.159   6.374   2.492
 3698SOL     OW11992   3.264   1.068   4.466
 3698SOL    HW111993   3.243   0.973   4.488
 3698SOL    HW211994   3.180   1.122   4.469
 3699SOL     OW11995   1.214   2.366   4.235
 3699SOL    HW111996   1.267   2.302   4.179
 3699SOL    HW211997   1.119   2.367   4.203
 3700SOL     OW11998   0.541   5.286   4.529
 3700SOL    HW111999   0.505   5.266   4.438
 3700SOL    HW212000   0.468   5.320   4.588
 3701SOL     OW12001   1.277   1.018   4.427
 3701SOL    HW112002   1.364   1.066   4.443
 3701SOL    HW212003   1.279   0.975   4.337
 3702SOL     OW12004   5.856   6.636   3.100
 3702SOL    HW112005   5.826   6.701   3.031
 3702SOL    HW212006   5.833   6.543   3.071
 3703SOL     OW12007   5.519   0.815   5.627
 3703SOL    HW112008   5.595   0.812   5.563
 3703SOL    HW212009   5.512   0.727   5.674
 3704SOL     OW12010   3.661   1.677   0.984
 3704SOL    HW112011   3.696   1.653   0.894
 3704SOL    HW212012   3.690   1.769   1.009
 3705SOL     OW12013   4.628   4.627   4.094
 3705SOL    HW112014   4.547   4.672   4.131
 3705SOL    HW212015   4.703   4.635   4.159
 3706SOL     OW12016   1.394   3.706   6.900
 3706SOL    HW112017   1.422   3.750   6.814
 3706SOL    HW212018   1.374   3.777   6.968
 3707SOL     OW12019   5.162   4.577   3.800
 3707SOL    HW112020   5.151   4.490   3.753
 3707SOL    HW212021   5.248   4.578   3.851
 3708SOL     OW12022   6.809   0.594   6.781
 3708SOL    HW112023   6.843   0.501   6.798
 3708SOL    HW212024   6.727   0.610   6.836
 3709SOL     OW12025   3.750   0.598   1.280
 3709SOL    HW112026   3.658   0.594   1.320
 3709SOL    HW212027   3.744   0.626   1.185
 3710SOL     OW12028   6.027   5.508   5.212
 3710SOL    HW112029   6.018   5.575   5.137
 3710SOL    HW212030   6.116   5.520   5.256
 3711SOL     OW12031   0.622   6.731   4.216
 3711SOL    HW112032   0.638   6.827   4.241
 3711SOL    HW212033   0.709   6.687   4.195
 3712SOL     OW12034   0.059   4.915   6.333
 3712SOL    HW112035   0.140   4.859   6.350
 3712SOL    HW212036   0.014   4.883   6.250
 3713SOL     OW12037   0.623   6.594   6.200
 3713SOL    HW112038   0.664   6.503   6.204
 3713SOL    HW212039   0.580   6.607   6.111
 3714SOL     OW12040   5.660   6.107   6.106
 3714SOL    HW112041   5.751   6.067   6.114
 3714SOL    HW212042   5.625   6.094   6.013
 3715SOL     OW12043   0.882   3.774   2.141
 3715SOL    HW112044   0.885   3.816   2.050
 3715SOL    HW212045   0.788   3.752   2.164
 3716SOL     OW12046   6.350   6.853   4.377
 3716SOL    HW112047   6.293   6.897   4.446
 3716SOL    HW212048   6.408   6.784   4.421
 3717SOL     OW12049   6.785   6.770   6.976
 3717SOL    HW112050   6.817   6.780   6.882
 3717SOL    HW212051   6.810   6.852   0.009
 3718SOL     OW12052   0.891   0.922   6.971
 3718SOL    HW112053   0.838   0.924   0.035
 3718SOL    HW212054   0.910   1.016   6.942
 3719SOL     OW12055   5.207   3.781   1.793
 3719SOL    HW112056   5.235   3.872   1.763
 3719SOL    HW212057   5.280   3.715   1.773
 3720SOL     OW12058   6.051   2.849   6.458
 3720SOL    HW112059   6.134   2.901   6.480
 3720SOL    HW212060   6.077   2.756   6.431
 3721SOL     OW12061   6.423   4.462   1.792
 3721SOL    HW112062   6.422   4.413   1.879
 3721SOL    HW212063   6.377   4.550   1.803
 3722SOL     OW12064   6.123   6.097   0.620
 3722SOL    HW112065   6.193   6.109   0.550
 3722SOL    HW212066   6.063   6.177   0.622
 3723SOL     OW12067   5.862   5.500   1.231
 3723SOL    HW112068   5.905   5.413   1.210
 3723SOL    HW212069   5.831   5.500   1.326
 3724SOL     OW12070   2.017   4.316   4.781
 3724SOL    HW112071   1.929   4.276   4.808
 3724SOL    HW212072   2.010   4.415   4.784
 3725SOL     OW12073   6.892   5.717   0.377
 3725SOL    HW112074   6.803   5.684   0.346
 3725SOL    HW212075   6.965   5.664   0.333
 3726SOL     OW12076   5.874   3.195   0.398
 3726SOL    HW112077   5.878   3.103   0.359
 3726SOL    HW212078   5.820   3.195   0.482
 3727SOL     OW12079   6.738   1.185   5.057
 3727SOL    HW112080   6.687   1.190   4.971
 3727SOL    HW212081   6.677   1.208   5.133
 3728SOL     OW12082   1.118   3.610   6.658
 3728SOL    HW112083   1.101   3.663   6.741
 3728SOL    HW212084   1.215   3.616   6.634
 3729SOL     OW12085   1.401   2.189   3.812
 3729SOL    HW112086   1.450   2.275   3.828
 3729SOL    HW212087   1.443   2.140   3.736
 3730SOL     OW12088   2.458   5.578   5.796
 3730SOL    HW112089   2.360   5.593   5.786
 3730SOL    HW212090   2.489   5.616   5.883
 3731SOL     OW12091   0.585   1.601   0.504
 3731SOL    HW112092   0.618   1.694   0.521
 3731SOL    HW212093   0.558   1.591   0.408
 3732SOL     OW12094   2.931   1.513   0.195
 3732SOL    HW112095   2.853   1.485   0.139
 3732SOL    HW212096   3.010   1.455   0.174
 3733SOL     OW12097   1.690   3.316   2.921
 3733SOL    HW112098   1.634   3.361   2.990
 3733SOL    HW212099   1.635   3.301   2.838
 3734SOL     OW12100   4.906   0.347   1.312
 3734SOL    HW112101   4.917   0.445   1.294
 3734SOL    HW212102   4.964   0.321   1.389
 3735SOL     OW12103   2.327   1.631   2.974
 3735SOL    HW112104   2.331   1.536   3.005
 3735SOL    HW212105   2.273   1.685   3.038
 3736SOL     OW12106   6.855   1.775   1.104
 3736SOL    HW112107   6.937   1.827   1.132
 3736SOL    HW212108   6.868   1.741   1.011
 3737SOL     OW12109   5.804   1.382   4.043
 3737SOL    HW112110   5.825   1.377   3.945
 3737SOL    HW212111   5.857   1.455   4.085
 3738SOL     OW12112   0.478   0.463   2.698
 3738SOL    HW112113   0.439   0.374   2.674
 3738SOL    HW212114   0.431   0.498   2.779
 3739SOL     OW12115   2.592   5.038   0.816
 3739SOL    HW112116   2.663   5.081   0.760
 3739SOL    HW212117   2.570   4.948   0.780
 3740SOL     OW12118   6.208   1.461   0.794
 3740SOL    HW112119   6.199   1.416   0.883
 3740SOL    HW212120   6.118   1.485   0.759
 3741SOL     OW12121   5.255   2.964   6.846
 3741SOL    HW112122   5.265   2.865   6.859
 3741SOL    HW212123   5.224   3.006   6.931
 3742SOL     OW12124   2.654   2.181   6.630
 3742SOL    HW112125   2.704   2.168   6.716
 3742SOL    HW212126   2.563   2.216   6.649
 3743SOL     OW12127   5.512   3.822   0.716
 3743SOL    HW112128   5.454   3.843   0.795
 3743SOL    HW212129   5.557   3.905   0.685
 3744SOL     OW12130   1.611   6.174   2.103
 3744SOL    HW112131   1.511   6.182   2.100
 3744SOL    HW212132   1.653   6.262   2.081
 3745SOL     OW12133   4.192   4.908   1.670
 3745SOL    HW112134   4.260   4.915   1.597
 3745SOL    HW212135   4.213   4.974   1.742
 3746SOL     OW12136   5.607   0.646   3.438
 3746SOL    HW112137   5.641   0.665   3.530
 3746SOL    HW212138   5.685   0.632   3.376
 3747SOL     OW12139   2.438   6.203   4.954
 3747SOL    HW112140   2.493   6.178   5.033
 3747SOL    HW212141   2.376   6.128   4.931
 3748SOL     OW12142   5.745   1.250   1.646
 3748SOL    HW112143   5.669   1.274   1.586
 3748SOL    HW212144   5.730   1.158   1.683
 3749SOL     OW12145   1.938   5.385   3.921
 3749SOL    HW112146   2.014   5.395   3.857
 3749SOL    HW212147   1.858   5.350   3.873
 3750SOL     OW12148   0.336   4.899   1.270
 3750SOL    HW112149   0.317   4.932   1.178
 3750SOL    HW212150   0.299   4.807   1.281
 3751SOL     OW12151   6.255   3.482   1.104
 3751SOL    HW112152   6.281   3.566   1.057
 3751SOL    HW212153   6.181   3.501   1.169
 3752SOL     OW12154   6.058   0.220   0.808
 3752SOL    HW112155   6.137   0.219   0.870
 3752SOL    HW212156   5.995   0.147   0.834
 3753SOL     OW12157   6.760   0.248   3.928
 3753SOL    HW112158   6.688   0.187   3.961
 3753SOL    HW212159   6.724   0.342   3.924
 3754SOL     OW12160   3.745   0.702   1.032
 3754SOL    HW112161   3.751   0.666   0.939
 3754SOL    HW212162   3.814   0.774   1.044
 3755SOL     OW12163   4.858   5.558   4.287
 3755SOL    HW112164   4.886   5.507   4.368
 3755SOL    HW212165   4.823   5.647   4.313
 3756SOL     OW12166   2.979   5.329   6.845
 3756SOL    HW112167   2.886   5.363   6.830
 3756SOL    HW212168   2.982   5.276   6.930
 3757SOL     OW12169   5.000   6.201   6.820
 3757SOL    HW112170   5.081   6.163   6.865
 3757SOL    HW212171   4.959   6.131   6.761
 3758SOL     OW12172   2.377   1.119   4.925
 3758SOL    HW112173   2.307   1.163   4.980
 3758SOL    HW212174   2.452   1.184   4.908
 3759SOL     OW12175   4.923   6.399   6.299
 3759SOL    HW112176   4.866   6.327   6.341
 3759SOL    HW212177   5.019   6.374   6.309
 3760SOL     OW12178   2.205   1.148   4.585
 3760SOL    HW112179   2.191   1.201   4.669
 3760SOL    HW212180   2.277   1.080   4.600
 3761SOL     OW12181   1.049   0.874   4.959
 3761SOL    HW112182   1.025   0.905   5.051
 3761SOL    HW212183   1.013   0.939   4.892
 3762SOL     OW12184   1.466   4.362   1.003
 3762SOL    HW112185   1.375   4.401   0.987
 3762SOL    HW212186   1.521   4.373   0.920
 3763SOL     OW12187   6.782   4.140   0.901
 3763SOL    HW112188   6.713   4.149   0.829
 3763SOL    HW212189   6.871   4.127   0.859
 3764SOL     OW12190   1.512   0.124   2.762
 3764SOL    HW112191   1.526   0.071   2.846
 3764SOL    HW212192   1.556   0.213   2.772
 3765SOL     OW12193   5.193   1.359   0.927
 3765SOL    HW112194   5.099   1.356   0.959
 3765SOL    HW212195   5.208   1.288   0.858
 3766SOL     OW12196   1.937   1.404   4.342
 3766SOL    HW112197   2.019   1.404   4.286
 3766SOL    HW212198   1.962   1.415   4.438
 3767SOL     OW12199   2.043   4.660   6.882
 3767SOL    HW112200   2.140   4.655   6.905
 3767SOL    HW212201   1.998   4.726   6.942
 3768SOL     OW12202   1.527   6.559   3.875
 3768SOL    HW112203   1.492   6.516   3.792
 3768SOL    HW212204   1.486   6.650   3.886
 3769SOL     OW12205   6.440   6.407   4.726
 3769SOL    HW112206   6.473   6.322   4.685
 3769SOL    HW212207   6.516   6.453   4.772
 3770SOL     OW12208   1.420   0.976   6.171
 3770SOL    HW112209   1.514   0.952   6.148
 3770SOL    HW212210   1.377   1.023   6.094
 3771SOL     OW12211   5.051   3.087   0.276
 3771SOL    HW112212   4.956   3.055   0.266
 3771SOL    HW212213   5.051   3.180   0.311
 3772SOL     OW12214   0.031   1.827   6.737
 3772SOL    HW112215   0.032   1.742   6.685
 3772SOL    HW212216   0.005   1.808   6.832
 3773SOL     OW12217   5.846   2.849   6.094
 3773SOL    HW112218   5.876   2.916   6.162
 3773SOL    HW212219   5.827   2.895   6.008
 3774SOL     OW12220   6.673   5.887   0.877
 3774SOL    HW112221   6.656   5.805   0.821
 3774SOL    HW212222   6.608   5.890   0.953
 3775SOL     OW12223   4.168   5.183   2.098
 3775SOL    HW112224   4.213   5.143   2.178
 3775SOL    HW212225   4.205   5.275   2.081
 3776SOL     OW12226   4.291   1.989   0.127
 3776SOL    HW112227   4.219   2.054   0.153
 3776SOL    HW212228   4.278   1.961   0.032
 3777SOL     OW12229   3.564   6.156   4.023
 3777SOL    HW112230   3.639   6.094   4.045
 3777SOL    HW212231   3.480   6.124   4.067
 3778SOL     OW12232   3.510   4.888   2.677
 3778SOL    HW112233   3.416   4.912   2.652
 3778SOL    HW212234   3.517   4.880   2.777
 3779SOL     OW12235   1.473   4.054   0.313
 3779SOL    HW112236   1.459   4.095   0.403
 3779SOL    HW212237   1.547   3.987   0.317
 3780SOL     OW12238   6.166   4.596   5.010
 3780SOL    HW112239   6.242   4.544   4.971
 3780SOL    HW212240   6.195   4.691   5.022
 3781SOL     OW12241   0.711   5.926   4.344
 3781SOL    HW112242   0.799   5.889   4.371
 3781SOL    HW212243   0.644   5.852   4.338
 3782SOL     OW12244   2.178   0.423   3.476
 3782SOL    HW112245   2.140   0.331   3.463
 3782SOL    HW212246   2.104   0.489   3.484
 3783SOL     OW12247   5.635   5.533   3.152
 3783SOL    HW112248   5.731   5.516   3.131
 3783SOL    HW212249   5.610   5.483   3.235
 3784SOL     OW12250   4.627   2.701   3.326
 3784SOL    HW112251   4.639   2.658   3.236
 3784SOL    HW212252   4.700   2.672   3.387
 3785SOL     OW12253   1.861   2.795   6.033
 3785SOL    HW112254   1.785   2.830   5.979
 3785SOL    HW212255   1.826   2.752   6.116
 3786SOL     OW12256   2.118   5.636   3.516
 3786SOL    HW112257   2.067   5.561   3.474
 3786SOL    HW212258   2.161   5.691   3.445
 3787SOL     OW12259   5.644   1.638   2.602
 3787SOL    HW112260   5.733   1.594   2.613
 3787SOL    HW212261   5.598   1.643   2.690
 3788SOL     OW12262   0.261   4.792   4.393
 3788SOL    HW112263   0.231   4.779   4.488
 3788SOL    HW212264   0.268   4.890   4.374
 3789SOL     OW12265   6.813   2.869   4.672
 3789SOL    HW112266   6.715   2.883   4.690
 3789SOL    HW212267   6.829   2.867   4.574
 3790SOL     OW12268   1.286   4.471   5.460
 3790SOL    HW112269   1.281   4.569   5.480
 3790SOL    HW212270   1.194   4.434   5.450
 3791SOL     OW12271   5.123   1.309   6.509
 3791SOL    HW112272   5.137   1.405   6.535
 3791SOL    HW212273   5.146   1.297   6.413
 3792SOL     OW12274   0.775   3.011   4.366
 3792SOL    HW112275   0.818   3.069   4.435
 3792SOL    HW212276   0.831   3.010   4.283
 3793SOL     OW12277   5.228   6.693   2.286
 3793SOL    HW112278   5.204   6.624   2.354
 3793SOL    HW212279   5.144   6.726   2.241
 3794SOL     OW12280   2.568   3.095   0.989
 3794SOL    HW112281   2.580   3.153   1.069
 3794SOL    HW212282   2.658   3.072   0.952
 3795SOL     OW12283   4.017   6.187   7.008
 3795SOL    HW112284   4.003   6.280   6.972
 3795SOL    HW212285   3.933   6.134   6.997
 3796SOL     OW12286   3.306   2.143   2.653
 3796SOL    HW112287   3.348   2.123   2.565
 3796SOL    HW212288   3.216   2.183   2.639
 3797SOL     OW12289   6.871   3.409   1.440
 3797SOL    HW112290   6.799   3.466   1.401
 3797SOL    HW212291   6.954   3.464   1.452
 3798SOL     OW12292   2.969   5.372   3.045
 3798SOL    HW112293   3.008   5.357   2.954
 3798SOL    HW212294   2.976   5.288   3.099
 3799SOL     OW12295   6.956   2.566   3.893
 3799SOL    HW112296   7.007   2.499   3.839
 3799SOL    HW212297   6.861   2.534   3.904
 3800SOL     OW12298   5.999   3.804   3.647
 3800SOL    HW112299   5.923   3.809   3.582
 3800SOL    HW212300   6.025   3.708   3.661
 3801SOL     OW12301   5.931   0.279   2.530
 3801SOL    HW112302   5.997   0.284   2.455
 3801SOL    HW212303   5.891   0.187   2.533
 3802SOL     OW12304   1.288   2.314   2.324
 3802SOL    HW112305   1.335   2.229   2.348
 3802SOL    HW212306   1.314   2.387   2.387
 3803SOL     OW12307   3.408   2.732   1.834
 3803SOL    HW112308   3.473   2.742   1.909
 3803SOL    HW212309   3.327   2.788   1.851
 3804SOL     OW12310   4.662   1.702   3.947
 3804SOL    HW112311   4.600   1.668   3.877
 3804SOL    HW212312   4.739   1.638   3.958
 3805SOL     OW12313   2.729   2.696   1.710
 3805SOL    HW112314   2.822   2.668   1.736
 3805SOL    HW212315   2.722   2.796   1.719
 3806SOL     OW12316   3.268   3.639   6.044
 3806SOL    HW112317   3.181   3.684   6.028
 3806SOL    HW212318   3.285   3.633   6.142
 3807SOL     OW12319   1.046   6.197   3.108
 3807SOL    HW112320   1.125   6.167   3.055
 3807SOL    HW212321   1.048   6.153   3.198
 3808SOL     OW12322   5.208   0.984   1.016
 3808SOL    HW112323   5.186   0.924   0.939
 3808SOL    HW212324   5.123   1.016   1.058
 3809SOL     OW12325   5.253   3.131   1.682
 3809SOL    HW112326   5.245   3.065   1.756
 3809SOL    HW212327   5.303   3.090   1.605
 3810SOL     OW12328   4.384   2.392   3.795
 3810SOL    HW112329   4.428   2.302   3.784
 3810SOL    HW212330   4.417   2.454   3.724
 3811SOL     OW12331   0.935   4.580   4.361
 3811SOL    HW112332   0.971   4.496   4.321
 3811SOL    HW212333   0.917   4.566   4.458
 3812SOL     OW12334   5.100   5.984   5.132
 3812SOL    HW112335   5.177   5.920   5.131
 3812SOL    HW212336   5.134   6.077   5.118
 3813SOL     OW12337   4.673   3.855   0.960
 3813SOL    HW112338   4.742   3.856   0.888
 3813SOL    HW212339   4.646   3.760   0.978
 3814SOL     OW12340   0.047   0.130   6.716
 3814SOL    HW112341   0.147   0.124   6.726
 3814SOL    HW212342   0.005   0.046   6.751
 3815SOL     OW12343   4.375   2.448   0.714
 3815SOL    HW112344   4.289   2.398   0.726
 3815SOL    HW212345   4.451   2.384   0.713
 3816SOL     OW12346   1.390   5.447   0.261
 3816SOL    HW112347   1.407   5.436   0.163
 3816SOL    HW212348   1.427   5.535   0.292
 3817SOL     OW12349   4.851   4.018   2.737
 3817SOL    HW112350   4.821   3.984   2.648
 3817SOL    HW212351   4.892   4.108   2.727
 3818SOL     OW12352   6.272   0.970   6.678
 3818SOL    HW112353   6.304   0.945   6.587
 3818SOL    HW212354   6.265   1.070   6.683
 3819SOL     OW12355   5.237   5.007   2.240
 3819SOL    HW112356   5.241   4.908   2.230
 3819SOL    HW212357   5.265   5.032   2.333
 3820SOL     OW12358   4.839   6.773   4.129
 3820SOL    HW112359   4.782   6.831   4.071
 3820SOL    HW212360   4.910   6.828   4.172
 3821SOL     OW12361   2.541   1.371   1.112
 3821SOL    HW112362   2.542   1.467   1.084
 3821SOL    HW212363   2.487   1.318   1.047
 3822SOL     OW12364   2.094   0.317   0.945
 3822SOL    HW112365   2.086   0.354   1.037
 3822SOL    HW212366   2.012   0.264   0.923
 3823SOL     OW12367   3.486   3.220   5.954
 3823SOL    HW112368   3.562   3.228   5.890
 3823SOL    HW212369   3.446   3.310   5.969
 3824SOL     OW12370   6.806   2.207   0.592
 3824SOL    HW112371   6.717   2.240   0.561
 3824SOL    HW212372   6.831   2.252   0.677
 3825SOL     OW12373   0.605   5.963   0.624
 3825SOL    HW112374   0.675   5.965   0.695
 3825SOL    HW212375   0.519   5.931   0.664
 3826SOL     OW12376   0.814   2.838   6.149
 3826SOL    HW112377   0.866   2.766   6.103
 3826SOL    HW212378   0.875   2.911   6.177
 3827SOL     OW12379   1.568   1.830   1.720
 3827SOL    HW112380   1.587   1.775   1.639
 3827SOL    HW212381   1.650   1.879   1.748
 3828SOL     OW12382   3.714   2.907   2.284
 3828SOL    HW112383   3.618   2.910   2.311
 3828SOL    HW212384   3.772   2.925   2.363
 3829SOL     OW12385   1.677   4.624   3.481
 3829SOL    HW112386   1.723   4.656   3.564
 3829SOL    HW212387   1.732   4.551   3.440
 3830SOL     OW12388   0.653   1.299   4.509
 3830SOL    HW112389   0.611   1.209   4.512
 3830SOL    HW212390   0.675   1.329   4.602
 3831SOL     OW12391   4.647   2.494   1.802
 3831SOL    HW112392   4.643   2.593   1.791
 3831SOL    HW212393   4.567   2.463   1.852
 3832SOL     OW12394   5.583   0.839   2.790
 3832SOL    HW112395   5.634   0.894   2.856
 3832SOL    HW212396   5.517   0.897   2.742
 3833SOL     OW12397   0.454   6.273   6.233
 3833SOL    HW112398   0.409   6.324   6.160
 3833SOL    HW212399   0.553   6.285   6.225
 3834SOL     OW12400   4.753   4.336   1.863
 3834SOL    HW112401   4.675   4.326   1.925
 3834SOL    HW212402   4.724   4.315   1.770
 3835SOL     OW12403   3.429   5.451   4.408
 3835SOL    HW112404   3.412   5.414   4.317
 3835SOL    HW212405   3.345   5.490   4.445
 3836SOL     OW12406   1.757   4.206   6.162
 3836SOL    HW112407   1.781   4.160   6.076
 3836SOL    HW212408   1.680   4.268   6.147
 3837SOL     OW12409   4.874   4.976   6.194
 3837SOL    HW112410   4.950   5.029   6.231
 3837SOL    HW212411   4.822   4.935   6.269
 3838SOL     OW12412   0.251   3.926   4.745
 3838SOL    HW112413   0.215   4.005   4.794
 3838SOL    HW212414   0.189   3.902   4.670
 3839SOL     OW12415   4.708   0.796   3.444
 3839SOL    HW112416   4.747   0.707   3.421
 3839SOL    HW212417   4.766   0.869   3.408
 3840SOL     OW12418   2.194   0.704   5.857
 3840SOL    HW112419   2.189   0.733   5.761
 3840SOL    HW212420   2.103   0.681   5.889
 3841SOL     OW12421   0.019   3.225   5.028
 3841SOL    HW112422   0.101   3.210   4.972
 3841SOL    HW212423   0.042   3.214   5.124
 3842SOL     OW12424   1.873   3.129   6.831
 3842SOL    HW112425   1.851   3.122   6.734
 3842SOL    HW212426   1.971   3.147   6.842
 3843SOL     OW12427   6.006   4.310   2.460
 3843SOL    HW112428   6.024   4.387   2.399
 3843SOL    HW212429   5.978   4.344   2.550
 3844SOL     OW12430   0.595   2.343   5.973
 3844SOL    HW112431   0.685   2.371   5.939
 3844SOL    HW212432   0.555   2.277   5.909
 3845SOL     OW12433   4.012   3.464   4.524
 3845SOL    HW112434   4.058   3.552   4.513
 3845SOL    HW212435   3.917   3.479   4.552
 3846SOL     OW12436   0.980   5.542   3.823
 3846SOL    HW112437   1.006   5.457   3.779
 3846SOL    HW212438   0.902   5.582   3.774
 3847SOL     OW12439   6.273   0.975   4.484
 3847SOL    HW112440   6.198   0.912   4.500
 3847SOL    HW212441   6.314   0.957   4.394
 3848SOL     OW12442   3.653   5.865   3.075
 3848SOL    HW112443   3.631   5.802   3.001
 3848SOL    HW212444   3.690   5.814   3.153
 3849SOL     OW12445   1.128   1.433   5.452
 3849SOL    HW112446   1.211   1.377   5.454
 3849SOL    HW212447   1.056   1.385   5.402
 3850SOL     OW12448   2.871   3.191   0.540
 3850SOL    HW112449   2.796   3.146   0.588
 3850SOL    HW212450   2.941   3.123   0.518
 3851SOL     OW12451   1.649   4.618   2.432
 3851SOL    HW112452   1.725   4.555   2.445
 3851SOL    HW212453   1.569   4.584   2.484
 3852SOL     OW12454   4.174   6.896   3.902
 3852SOL    HW112455   4.201   6.826   3.836
 3852SOL    HW212456   4.074   6.897   3.911
 3853SOL     OW12457   0.919   3.978   3.282
 3853SOL    HW112458   1.015   3.950   3.275
 3853SOL    HW212459   0.908   4.069   3.243
 3854SOL     OW12460   1.391   3.254   2.058
 3854SOL    HW112461   1.312   3.289   2.108
 3854SOL    HW212462   1.475   3.295   2.094
 3855SOL     OW12463   5.408   6.045   6.547
 3855SOL    HW112464   5.335   6.111   6.530
 3855SOL    HW212465   5.379   5.981   6.619
 3856SOL     OW12466   6.977   6.655   5.370
 3856SOL    HW112467   6.925   6.676   5.453
 3856SOL    HW212468   6.929   6.690   5.290
 3857SOL     OW12469   0.698   5.772   6.202
 3857SOL    HW112470   0.748   5.852   6.236
 3857SOL    HW212471   0.635   5.740   6.273
 3858SOL     OW12472   1.428   6.595   5.831
 3858SOL    HW112473   1.481   6.641   5.902
 3858SOL    HW212474   1.485   6.526   5.786
 3859SOL     OW12475   6.420   2.120   3.101
 3859SOL    HW112476   6.339   2.169   3.135
 3859SOL    HW212477   6.481   2.184   3.055
 3860SOL     OW12478   2.357   0.362   5.816
 3860SOL    HW112479   2.307   0.375   5.901
 3860SOL    HW212480   2.302   0.309   5.752
 3861SOL     OW12481   4.390   4.552   3.533
 3861SOL    HW112482   4.385   4.467   3.481
 3861SOL    HW212483   4.394   4.531   3.630
 3862SOL     OW12484   1.316   0.266   4.889
 3862SOL    HW112485   1.253   0.325   4.940
 3862SOL    HW212486   1.329   0.301   4.797
 3863SOL     OW12487   4.284   2.898   6.177
 3863SOL    HW112488   4.210   2.963   6.197
 3863SOL    HW212489   4.356   2.943   6.125
 3864SOL     OW12490   2.482   0.563   5.636
 3864SOL    HW112491   2.390   0.594   5.611
 3864SOL    HW212492   2.475   0.496   5.710
 3865SOL     OW12493   3.582   6.640   0.119
 3865SOL    HW112494   3.565   6.585   0.036
 3865SOL    HW212495   3.499   6.642   0.174
 3866SOL     OW12496   3.871   1.112   1.921
 3866SOL    HW112497   3.884   1.208   1.944
 3866SOL    HW212498   3.844   1.105   1.825
 3867SOL     OW12499   1.530   4.313   4.127
 3867SOL    HW112500   1.469   4.391   4.116
 3867SOL    HW212501   1.564   4.310   4.221
 3868SOL     OW12502   3.409   6.966   0.375
 3868SOL    HW112503   3.405   7.009   0.285
 3868SOL    HW212504   3.500   6.929   0.391
 3869SOL     OW12505   6.181   3.189   5.269
 3869SOL    HW112506   6.110   3.206   5.200
 3869SOL    HW212507   6.197   3.091   5.276
 3870SOL     OW12508   4.435   5.518   0.442
 3870SOL    HW112509   4.375   5.521   0.362
 3870SOL    HW212510   4.428   5.428   0.486
 3871SOL     OW12511   3.956   0.274   2.677
 3871SOL    HW112512   3.917   0.333   2.607
 3871SOL    HW212513   3.883   0.217   2.716
 3872SOL     OW12514   3.813   3.242   2.605
 3872SOL    HW112515   3.743   3.174   2.630
 3872SOL    HW212516   3.780   3.297   2.529
 3873SOL     OW12517   6.548   4.021   1.446
 3873SOL    HW112518   6.643   4.048   1.457
 3873SOL    HW212519   6.489   4.095   1.478
 3874SOL     OW12520   3.742   6.056   6.408
 3874SOL    HW112521   3.828   6.078   6.362
 3874SOL    HW212522   3.721   5.959   6.397
 3875SOL     OW12523   1.953   2.368   1.490
 3875SOL    HW112524   1.881   2.301   1.510
 3875SOL    HW212525   1.926   2.457   1.527
 3876SOL     OW12526   5.849   4.976   0.087
 3876SOL    HW112527   5.888   4.893   0.045
 3876SOL    HW212528   5.789   4.950   0.162
 3877SOL     OW12529   6.854   2.920   0.085
 3877SOL    HW112530   6.906   2.962   0.160
 3877SOL    HW212531   6.868   2.972   0.001
 3878SOL     OW12532   2.611   6.436   4.879
 3878SOL    HW112533   2.604   6.520   4.933
 3878SOL    HW212534   2.564   6.361   4.928
 3879SOL     OW12535   5.208   6.596   1.344
 3879SOL    HW112536   5.268   6.670   1.314
 3879SOL    HW212537   5.152   6.565   1.267
 3880SOL     OW12538   6.242   5.058   3.346
 3880SOL    HW112539   6.319   5.104   3.300
 3880SOL    HW212540   6.250   4.959   3.334
 3881SOL     OW12541   0.988   4.493   1.192
 3881SOL    HW112542   1.088   4.504   1.195
 3881SOL    HW212543   0.951   4.550   1.119
 3882SOL     OW12544   0.186   1.912   5.060
 3882SOL    HW112545   0.120   1.987   5.055
 3882SOL    HW212546   0.138   1.825   5.052
 3883SOL     OW12547   4.477   1.544   3.348
 3883SOL    HW112548   4.453   1.457   3.391
 3883SOL    HW212549   4.479   1.616   3.418
 3884SOL     OW12550   1.045   5.605   3.524
 3884SOL    HW112551   1.095   5.576   3.606
 3884SOL    HW212552   0.981   5.677   3.548
 3885SOL     OW12553   6.429   0.629   3.239
 3885SOL    HW112554   6.446   0.550   3.180
 3885SOL    HW212555   6.344   0.674   3.210
 3886SOL     OW12556   6.568   5.721   4.866
 3886SOL    HW112557   6.499   5.680   4.925
 3886SOL    HW212558   6.526   5.792   4.809
 3887SOL     OW12559   6.261   0.935   5.425
 3887SOL    HW112560   6.338   0.913   5.365
 3887SOL    HW212561   6.235   1.031   5.412
 3888SOL     OW12562   0.660   0.858   6.732
 3888SOL    HW112563   0.633   0.942   6.684
 3888SOL    HW212564   0.713   0.883   6.814
 3889SOL     OW12565   6.678   2.763   6.523
 3889SOL    HW112566   6.721   2.690   6.576
 3889SOL    HW212567   6.583   2.774   6.554
 3890SOL     OW12568   5.978   5.703   2.664
 3890SOL    HW112569   5.880   5.718   2.651
 3890SOL    HW212570   6.012   5.763   2.737
 3891SOL     OW12571   5.466   4.827   4.136
 3891SOL    HW112572   5.477   4.907   4.077
 3891SOL    HW212573   5.474   4.744   4.081
 3892SOL     OW12574   0.458   2.386   1.931
 3892SOL    HW112575   0.489   2.324   1.859
 3892SOL    HW212576   0.438   2.334   2.014
 3893SOL     OW12577   2.775   5.411   1.800
 3893SOL    HW112578   2.859   5.386   1.850
 3893SOL    HW212579   2.696   5.374   1.849
 3894SOL     OW12580   2.770   2.056   1.211
 3894SOL    HW112581   2.815   1.969   1.233
 3894SOL    HW212582   2.835   2.115   1.163
 3895SOL     OW12583   1.661   0.120   5.247
 3895SOL    HW112584   1.666   0.023   5.270
 3895SOL    HW212585   1.695   0.135   5.154
 3896SOL     OW12586   0.325   1.966   6.420
 3896SOL    HW112587   0.303   1.875   6.383
 3896SOL    HW212588   0.256   1.992   6.487
 3897SOL     OW12589   3.732   6.800   2.292
 3897SOL    HW112590   3.771   6.714   2.259
 3897SOL    HW212591   3.789   6.838   2.365
 3898SOL     OW12592   3.439   3.575   3.694
 3898SOL    HW112593   3.380   3.610   3.766
 3898SOL    HW212594   3.534   3.599   3.714
 3899SOL     OW12595   5.023   0.487   4.205
 3899SOL    HW112596   5.109   0.505   4.252
 3899SOL    HW212597   5.007   0.558   4.136
 3900SOL     OW12598   4.908   2.756   3.144
 3900SOL    HW112599   4.867   2.802   3.222
 3900SOL    HW212600   4.836   2.715   3.088
 3901SOL     OW12601   2.877   6.606   5.915
 3901SOL    HW112602   2.881   6.616   6.015
 3901SOL    HW212603   2.782   6.588   5.888
 3902SOL     OW12604   6.178   3.701   1.719
 3902SOL    HW112605   6.257   3.669   1.771
 3902SOL    HW212606   6.095   3.655   1.752
 3903SOL     OW12607   4.619   4.016   6.820
 3903SOL    HW112608   4.594   4.113   6.818
 3903SOL    HW212609   4.688   3.998   6.750
 3904SOL     OW12610   2.318   6.939   5.972
 3904SOL    HW112611   2.359   6.982   5.892
 3904SOL    HW212612   2.388   6.888   6.023
 3905SOL     OW12613   5.579   6.820   6.173
 3905SOL    HW112614   5.566   6.724   6.198
 3905SOL    HW212615   5.666   6.830   6.125
 3906SOL     OW12616   1.510   4.976   5.368
 3906SOL    HW112617   1.594   4.978   5.314
 3906SOL    HW212618   1.432   5.003   5.311
 3907SOL     OW12619   6.326   0.550   3.809
 3907SOL    HW112620   6.349   0.643   3.780
 3907SOL    HW212621   6.234   0.549   3.849
 3908SOL     OW12622   1.932   0.944   6.824
 3908SOL    HW112623   1.866   1.016   6.845
 3908SOL    HW212624   1.962   0.901   6.909
 3909SOL     OW12625   0.031   4.605   6.532
 3909SOL    HW112626   6.958   4.599   6.497
 3909SOL    HW212627   0.052   4.701   6.554
 3910SOL     OW12628   3.632   3.797   2.100
 3910SOL    HW112629   3.721   3.840   2.112
 3910SOL    HW212630   3.602   3.808   2.005
 3911SOL     OW12631   5.051   1.527   0.181
 3911SOL    HW112632   5.151   1.525   0.178
 3911SOL    HW212633   5.022   1.562   0.270
 3912SOL     OW12634   3.572   1.297   6.325
 3912SOL    HW112635   3.598   1.283   6.230
 3912SOL    HW212636   3.544   1.210   6.366
 3913SOL     OW12637   2.666   6.725   6.807
 3913SOL    HW112638   2.736   6.680   6.752
 3913SOL    HW212639   2.583   6.669   6.806
 3914SOL     OW12640   5.263   0.872   1.359
 3914SOL    HW112641   5.286   0.848   1.453
 3914SOL    HW212642   5.207   0.799   1.319
 3915SOL     OW12643   4.491   6.482   0.334
 3915SOL    HW112644   4.393   6.492   0.353
 3915SOL    HW212645   4.522   6.558   0.276
 3916SOL     OW12646   2.549   0.037   2.778
 3916SOL    HW112647   2.511   6.965   2.769
 3916SOL    HW212648   2.492   0.092   2.838
 3917SOL     OW12649   1.525   4.170   1.641
 3917SOL    HW112650   1.572   4.085   1.667
 3917SOL    HW212651   1.583   4.222   1.578
 3918SOL     OW12652   4.221   6.075   1.666
 3918SOL    HW112653   4.219   6.132   1.584
 3918SOL    HW212654   4.257   6.127   1.743
 3919SOL     OW12655   3.367   0.245   6.734
 3919SOL    HW112656   3.454   0.281   6.767
 3919SOL    HW212657   3.299   0.249   6.807
 3920SOL     OW12658   3.104   1.408   6.431
 3920SOL    HW112659   3.009   1.394   6.458
 3920SOL    HW212660   3.115   1.501   6.397
 3921SOL     OW12661   6.902   2.229   6.971
 3921SOL    HW112662   6.906   2.137   6.933
 3921SOL    HW212663   6.993   2.271   6.966
 3922SOL     OW12664   4.488   5.141   0.982
 3922SOL    HW112665   4.523   5.210   1.046
 3922SOL    HW212666   4.388   5.143   0.981
 3923SOL     OW12667   5.933   2.053   7.012
 3923SOL    HW112668   5.936   2.135   0.050
 3923SOL    HW212669   6.012   1.995   0.012
 3924SOL     OW12670   0.664   5.165   2.916
 3924SOL    HW112671   0.666   5.202   3.009
 3924SOL    HW212672   0.588   5.101   2.907
 3925SOL     OW12673   4.058   4.350   1.193
 3925SOL    HW112674   4.139   4.295   1.174
 3925SOL    HW212675   4.005   4.307   1.266
 3926SOL     OW12676   0.256   0.072   4.988
 3926SOL    HW112677   0.287   0.088   4.894
 3926SOL    HW212678   0.295   0.142   5.048
 3927SOL     OW12679   0.008   2.697   4.501
 3927SOL    HW112680   6.992   2.616   4.547
 3927SOL    HW212681   6.952   2.752   4.467
 3928SOL     OW12682   3.535   5.708   3.961
 3928SOL    HW112683   3.630   5.705   3.932
 3928SOL    HW212684   3.479   5.747   3.888
 3929SOL     OW12685   6.973   1.643   6.543
 3929SOL    HW112686   6.891   1.586   6.537
 3929SOL    HW212687   0.016   1.619   6.469
 3930SOL     OW12688   1.166   1.836   3.801
 3930SOL    HW112689   1.080   1.829   3.751
 3930SOL    HW212690   1.199   1.931   3.798
 3931SOL     OW12691   1.918   1.646   2.269
 3931SOL    HW112692   1.935   1.591   2.351
 3931SOL    HW212693   1.885   1.587   2.196
 3932SOL     OW12694   1.777   4.597   3.761
 3932SOL    HW112695   1.771   4.520   3.825
 3932SOL    HW212696   1.851   4.582   3.697
 3933SOL     OW12697   1.761   6.690   0.242
 3933SOL    HW112698   1.718   6.633   0.312
 3933SOL    HW212699   1.744   6.786   0.264
 3934SOL     OW12700   6.998   1.243   2.838
 3934SOL    HW112701   0.044   1.315   2.816
 3934SOL    HW212702   6.914   1.284   2.874
 3935SOL     OW12703   1.040   1.152   5.674
 3935SOL    HW112704   1.111   1.211   5.714
 3935SOL    HW212705   0.981   1.207   5.615
 3936SOL     OW12706   6.796   5.954   4.996
 3936SOL    HW112707   6.745   6.026   5.044
 3936SOL    HW212708   6.835   5.892   5.064
 3937SOL     OW12709   6.462   6.364   1.765
 3937SOL    HW112710   6.437   6.357   1.862
 3937SOL    HW212711   6.560   6.382   1.757
 3938SOL     OW12712   6.081   3.885   4.111
 3938SOL    HW112713   6.024   3.890   4.029
 3938SOL    HW212714   6.167   3.935   4.095
 3939SOL     OW12715   2.555   1.541   3.211
 3939SOL    HW112716   2.539   1.523   3.114
 3939SOL    HW212717   2.540   1.457   3.263
 3940SOL     OW12718   3.038   4.737   1.775
 3940SOL    HW112719   3.093   4.745   1.859
 3940SOL    HW212720   2.963   4.673   1.790
 3941SOL     OW12721   5.847   0.483   4.589
 3941SOL    HW112722   5.765   0.488   4.532
 3941SOL    HW212723   5.919   0.434   4.540
 3942SOL     OW12724   0.534   6.317   5.725
 3942SOL    HW112725   0.506   6.400   5.675
 3942SOL    HW212726   0.545   6.242   5.660
 3943SOL     OW12727   0.903   3.525   2.658
 3943SOL    HW112728   0.877   3.531   2.562
 3943SOL    HW212729   0.987   3.577   2.673
 3944SOL     OW12730   6.326   4.001   6.177
 3944SOL    HW112731   6.408   4.021   6.124
 3944SOL    HW212732   6.260   3.953   6.120
 3945SOL     OW12733   0.990   2.679   3.123
 3945SOL    HW112734   1.028   2.770   3.143
 3945SOL    HW212735   1.003   2.658   3.026
 3946SOL     OW12736   7.009   3.995   6.624
 3946SOL    HW112737   6.996   3.930   6.548
 3946SOL    HW212738   0.079   3.982   6.664
 3947SOL     OW12739   5.706   5.275   0.657
 3947SOL    HW112740   5.772   5.246   0.587
 3947SOL    HW212741   5.727   5.230   0.743
 3948SOL     OW12742   1.735   3.990   6.937
 3948SOL    HW112743   1.646   4.004   6.981
 3948SOL    HW212744   1.739   3.899   6.897
 3949SOL     OW12745   6.440   6.803   3.242
 3949SOL    HW112746   6.422   6.705   3.252
 3949SOL    HW212747   6.374   6.855   3.296
 3950SOL     OW12748   3.476   3.792   1.849
 3950SOL    HW112749   3.400   3.735   1.820
 3950SOL    HW212750   3.562   3.753   1.816
 3951SOL     OW12751   0.492   1.097   0.083
 3951SOL    HW112752   0.460   1.168   0.146
 3951SOL    HW212753   0.432   1.095   0.003
 3952SOL     OW12754   6.173   3.605   4.149
 3952SOL    HW112755   6.113   3.683   4.165
 3952SOL    HW212756   6.123   3.521   4.169
 3953SOL     OW12757   3.722   4.202   6.540
 3953SOL    HW112758   3.674   4.171   6.458
 3953SOL    HW212759   3.717   4.302   6.545
 3954SOL     OW12760   5.651   4.990   5.457
 3954SOL    HW112761   5.585   5.053   5.499
 3954SOL    HW212762   5.674   4.917   5.522
 3955SOL     OW12763   4.986   6.468   6.950
 3955SOL    HW112764   4.894   6.487   6.985
 3955SOL    HW212765   4.988   6.375   6.912
 3956SOL     OW12766   0.809   1.922   4.643
 3956SOL    HW112767   0.717   1.961   4.644
 3956SOL    HW212768   0.857   1.947   4.727
 3957SOL     OW12769   3.909   6.437   3.222
 3957SOL    HW112770   3.864   6.521   3.254
 3957SOL    HW212771   3.999   6.430   3.264
 3958SOL     OW12772   6.258   6.511   6.574
 3958SOL    HW112773   6.210   6.581   6.627
 3958SOL    HW212774   6.201   6.483   6.496
 3959SOL     OW12775   3.215   6.407   1.639
 3959SOL    HW112776   3.311   6.429   1.651
 3959SOL    HW212777   3.184   6.438   1.548
 3960SOL     OW12778   6.124   2.428   6.181
 3960SOL    HW112779   6.156   2.436   6.087
 3960SOL    HW212780   6.141   2.513   6.230
 3961SOL     OW12781   5.451   2.111   1.906
 3961SOL    HW112782   5.359   2.074   1.893
 3961SOL    HW212783   5.496   2.120   1.817
 3962SOL     OW12784   1.006   5.860   0.041
 3962SOL    HW112785   1.102   5.871   0.016
 3962SOL    HW212786   0.985   5.917   0.120
 3963SOL     OW12787   5.253   4.655   3.465
 3963SOL    HW112788   5.187   4.717   3.507
 3963SOL    HW212789   5.305   4.608   3.537
 3964SOL     OW12790   4.273   4.777   5.132
 3964SOL    HW112791   4.296   4.694   5.080
 3964SOL    HW212792   4.177   4.772   5.161
 3965SOL     OW12793   3.801   4.519   6.129
 3965SOL    HW112794   3.777   4.592   6.193
 3965SOL    HW212795   3.741   4.523   6.050
 3966SOL     OW12796   6.780   4.935   0.448
 3966SOL    HW112797   6.750   5.007   0.385
 3966SOL    HW212798   6.795   4.850   0.398
 3967SOL     OW12799   1.148   4.919   2.654
 3967SOL    HW112800   1.058   4.958   2.639
 3967SOL    HW212801   1.147   4.864   2.738
 3968SOL     OW12802   6.165   0.936   1.183
 3968SOL    HW112803   6.114   0.869   1.129
 3968SOL    HW212804   6.101   0.987   1.241
 3969SOL     OW12805   0.217   4.078   2.689
 3969SOL    HW112806   0.303   4.128   2.686
 3969SOL    HW212807   0.226   4.000   2.752
 3970SOL     OW12808   4.764   5.293   3.640
 3970SOL    HW112809   4.829   5.269   3.568
 3970SOL    HW212810   4.801   5.267   3.729
 3971SOL     OW12811   2.463   5.325   2.221
 3971SOL    HW112812   2.487   5.327   2.318
 3971SOL    HW212813   2.366   5.302   2.211
 3972SOL     OW12814   1.234   5.690   1.366
 3972SOL    HW112815   1.326   5.690   1.405
 3972SOL    HW212816   1.213   5.599   1.331
 3973SOL     OW12817   2.966   3.353   5.086
 3973SOL    HW112818   3.043   3.415   5.074
 3973SOL    HW212819   2.944   3.344   5.184
 3974SOL     OW12820   1.206   0.384   5.417
 3974SOL    HW112821   1.247   0.321   5.351
 3974SOL    HW212822   1.278   0.420   5.477
 3975SOL     OW12823   6.003   0.118   6.239
 3975SOL    HW112824   6.003   0.193   6.306
 3975SOL    HW212825   6.013   0.031   6.287
 3976SOL     OW12826   1.872   4.959   1.104
 3976SOL    HW112827   1.859   4.876   1.050
 3976SOL    HW212828   1.872   5.039   1.044
 3977SOL     OW12829   3.191   4.784   5.760
 3977SOL    HW112830   3.277   4.735   5.779
 3977SOL    HW212831   3.174   4.783   5.661
 3978SOL     OW12832   5.434   0.302   4.372
 3978SOL    HW112833   5.511   0.243   4.347
 3978SOL    HW212834   5.353   0.246   4.386
 3979SOL     OW12835   2.249   6.392   1.573
 3979SOL    HW112836   2.321   6.456   1.550
 3979SOL    HW212837   2.192   6.376   1.492
 3980SOL     OW12838   0.023   4.454   5.746
 3980SOL    HW112839   0.029   4.398   5.828
 3980SOL    HW212840   0.034   4.550   5.770
 3981SOL     OW12841   1.448   2.107   6.047
 3981SOL    HW112842   1.484   2.053   5.971
 3981SOL    HW212843   1.492   2.078   6.132
 3982SOL     OW12844   3.008   0.624   3.967
 3982SOL    HW112845   3.047   0.611   3.876
 3982SOL    HW212846   3.076   0.665   4.028
 3983SOL     OW12847   3.165   6.161   4.362
 3983SOL    HW112848   3.230   6.230   4.394
 3983SOL    HW212849   3.158   6.088   4.430
 3984SOL     OW12850   2.298   0.550   1.927
 3984SOL    HW112851   2.386   0.597   1.923
 3984SOL    HW212852   2.225   0.616   1.912
 3985SOL     OW12853   2.605   4.081   0.066
 3985SOL    HW112854   2.632   4.152   0.131
 3985SOL    HW212855   2.665   4.002   0.075
 3986SOL     OW12856   0.306   1.742   3.401
 3986SOL    HW112857   0.398   1.749   3.439
 3986SOL    HW212858   0.238   1.757   3.473
 3987SOL     OW12859   1.454   5.134   4.593
 3987SOL    HW112860   1.388   5.101   4.661
 3987SOL    HW212861   1.441   5.232   4.578
 3988SOL     OW12862   3.326   2.354   5.840
 3988SOL    HW112863   3.279   2.359   5.928
 3988SOL    HW212864   3.302   2.270   5.793
 3989SOL     OW12865   5.913   0.820   6.909
 3989SOL    HW112866   5.924   0.811   6.810
 3989SOL    HW212867   5.978   0.760   6.955
 3990SOL     OW12868   6.037   1.532   4.104
 3990SOL    HW112869   6.091   1.459   4.062
 3990SOL    HW212870   6.033   1.611   4.042
 3991SOL     OW12871   6.621   2.275   3.354
 3991SOL    HW112872   6.618   2.360   3.301
 3991SOL    HW212873   6.528   2.244   3.372
 3992SOL     OW12874   4.560   2.118   6.155
 3992SOL    HW112875   4.514   2.158   6.076
 3992SOL    HW212876   4.602   2.031   6.128
 3993SOL     OW12877   1.737   1.957   3.638
 3993SOL    HW112878   1.642   1.958   3.606
 3993SOL    HW212879   1.793   1.904   3.574
 3994SOL     OW12880   1.369   2.651   4.868
 3994SOL    HW112881   1.294   2.596   4.905
 3994SOL    HW212882   1.356   2.747   4.893
 3995SOL     OW12883   2.158   4.089   3.812
 3995SOL    HW112884   2.168   3.990   3.816
 3995SOL    HW212885   2.107   4.114   3.730
 3996SOL     OW12886   1.298   0.769   4.975
 3996SOL    HW112887   1.317   0.725   5.063
 3996SOL    HW212888   1.216   0.825   4.982
 3997SOL     OW12889   4.915   3.593   3.292
 3997SOL    HW112890   4.956   3.537   3.220
 3997SOL    HW212891   4.874   3.675   3.252
 3998SOL     OW12892   5.179   1.733   2.013
 3998SOL    HW112893   5.230   1.709   2.097
 3998SOL    HW212894   5.126   1.654   1.983
 3999SOL     OW12895   5.633   3.941   3.210
 3999SOL    HW112896   5.563   3.888   3.258
 3999SOL    HW212897   5.659   4.019   3.267
 4000SOL     OW12898   3.078   5.642   2.605
 4000SOL    HW112899   3.055   5.689   2.519
 4000SOL    HW212900   3.172   5.662   2.629
 4001SOL     OW12901   2.374   2.742   4.598
 4001SOL    HW112902   2.327   2.777   4.679
 4001SOL    HW212903   2.472   2.735   4.617
 4002SOL     OW12904   3.589   3.829   6.110
 4002SOL    HW112905   3.528   3.848   6.034
 4002SOL    HW212906   3.540   3.778   6.181
 4003SOL     OW12907   2.186   0.440   6.042
 4003SOL    HW112908   2.270   0.492   6.027
 4003SOL    HW212909   2.108   0.496   6.016
 4004SOL     OW12910   6.182   2.998   4.157
 4004SOL    HW112911   6.253   3.038   4.099
 4004SOL    HW212912   6.133   2.927   4.105
 4005SOL     OW12913   5.101   4.800   1.230
 4005SOL    HW112914   5.130   4.725   1.288
 4005SOL    HW212915   5.172   4.870   1.228
 4006SOL     OW12916   4.518   5.057   2.040
 4006SOL    HW112917   4.480   5.022   2.125
 4006SOL    HW212918   4.596   5.117   2.060
 4007SOL     OW12919   0.809   2.689   2.324
 4007SOL    HW112920   0.881   2.639   2.372
 4007SOL    HW212921   0.808   2.662   2.228
 4008SOL     OW12922   3.999   1.528   5.748
 4008SOL    HW112923   4.089   1.502   5.712
 4008SOL    HW212924   3.980   1.623   5.724
 4009SOL     OW12925   4.576   2.677   0.456
 4009SOL    HW112926   4.552   2.612   0.384
 4009SOL    HW212927   4.582   2.629   0.543
 4010SOL     OW12928   2.281   3.431   1.355
 4010SOL    HW112929   2.366   3.480   1.336
 4010SOL    HW212930   2.272   3.353   1.293
 4011SOL     OW12931   1.157   6.697   2.127
 4011SOL    HW112932   1.083   6.711   2.061
 4011SOL    HW212933   1.118   6.679   2.217
 4012SOL     OW12934   4.699   4.879   1.680
 4012SOL    HW112935   4.621   4.843   1.730
 4012SOL    HW212936   4.783   4.855   1.728
 4013SOL     OW12937   3.144   0.664   1.183
 4013SOL    HW112938   3.136   0.588   1.247
 4013SOL    HW212939   3.213   0.642   1.114
 4014SOL     OW12940   3.838   5.607   4.237
 4014SOL    HW112941   3.812   5.586   4.331
 4014SOL    HW212942   3.757   5.609   4.179
 4015SOL     OW12943   3.987   4.795   6.540
 4015SOL    HW112944   4.071   4.783   6.487
 4015SOL    HW212945   3.959   4.891   6.537
 4016SOL     OW12946   1.465   5.125   6.651
 4016SOL    HW112947   1.408   5.044   6.635
 4016SOL    HW212948   1.561   5.099   6.651
 4017SOL     OW12949   0.577   6.208   6.790
 4017SOL    HW112950   0.519   6.211   6.709
 4017SOL    HW212951   0.670   6.236   6.766
 4018SOL     OW12952   5.651   6.226   1.561
 4018SOL    HW112953   5.661   6.289   1.484
 4018SOL    HW212954   5.705   6.259   1.639
 4019SOL     OW12955   6.320   3.921   2.308
 4019SOL    HW112956   6.315   4.007   2.359
 4019SOL    HW212957   6.409   3.879   2.322
 4020SOL     OW12958   6.972   2.496   5.485
 4020SOL    HW112959   6.902   2.427   5.466
 4020SOL    HW212960   6.935   2.587   5.468
 4021SOL     OW12961   2.953   3.711   5.089
 4021SOL    HW112962   2.903   3.796   5.099
 4021SOL    HW212963   3.039   3.716   5.140
 4022SOL     OW12964   4.791   6.894   6.661
 4022SOL    HW112965   4.889   6.906   6.642
 4022SOL    HW212966   4.780   6.818   6.725
 4023SOL     OW12967   6.881   0.872   3.977
 4023SOL    HW112968   6.883   0.914   3.887
 4023SOL    HW212969   6.802   0.812   3.984
 4024SOL     OW12970   2.538   5.094   4.433
 4024SOL    HW112971   2.549   5.184   4.391
 4024SOL    HW212972   2.536   5.024   4.362
 4025SOL     OW12973   0.397   6.302   4.428
 4025SOL    HW112974   0.478   6.245   4.443
 4025SOL    HW212975   0.358   6.282   4.339
 4026SOL     OW12976   6.258   0.132   2.786
 4026SOL    HW112977   6.187   0.203   2.791
 4026SOL    HW212978   6.347   0.175   2.771
 4027SOL     OW12979   2.745   2.703   0.985
 4027SOL    HW112980   2.821   2.718   1.048
 4027SOL    HW212981   2.709   2.791   0.954
 4028SOL     OW12982   2.664   2.109   2.879
 4028SOL    HW112983   2.665   2.190   2.820
 4028SOL    HW212984   2.590   2.048   2.852
 4029SOL     OW12985   3.226   5.042   5.855
 4029SOL    HW112986   3.247   5.096   5.773
 4029SOL    HW212987   3.200   4.949   5.828
 4030SOL     OW12988   1.128   1.746   1.420
 4030SOL    HW112989   1.135   1.647   1.406
 4030SOL    HW212990   1.039   1.778   1.387
 4031SOL     OW12991   5.041   6.281   3.346
 4031SOL    HW112992   5.127   6.309   3.390
 4031SOL    HW212993   5.030   6.182   3.354
 4032SOL     OW12994   6.165   0.499   2.347
 4032SOL    HW112995   6.175   0.490   2.446
 4032SOL    HW212996   6.255   0.517   2.306
 4033SOL     OW12997   2.362   3.781   1.326
 4033SOL    HW112998   2.408   3.704   1.369
 4033SOL    HW212999   2.423   3.860   1.324
 4034SOL     OW13000   6.665   1.289   4.431
 4034SOL    HW113001   6.598   1.217   4.449
 4034SOL    HW213002   6.662   1.356   4.506
 4035SOL     OW13003   6.324   2.664   0.549
 4035SOL    HW113004   6.304   2.652   0.452
 4035SOL    HW213005   6.380   2.746   0.561
 4036SOL     OW13006   4.485   5.670   2.508
 4036SOL    HW113007   4.471   5.709   2.599
 4036SOL    HW213008   4.579   5.639   2.499
 4037SOL     OW13009   2.258   1.497   0.410
 4037SOL    HW113010   2.344   1.480   0.457
 4037SOL    HW213011   2.267   1.473   0.313
 4038SOL     OW13012   4.468   3.758   1.669
 4038SOL    HW113013   4.487   3.856   1.662
 4038SOL    HW213014   4.391   3.735   1.609
 4039SOL     OW13015   4.603   4.005   1.727
 4039SOL    HW113016   4.613   4.047   1.637
 4039SOL    HW213017   4.548   4.064   1.785
 4040SOL     OW13018   3.399   6.906   6.015
 4040SOL    HW113019   3.405   6.987   5.957
 4040SOL    HW213020   3.467   6.911   6.088
 4041SOL     OW13021   1.790   5.026   1.351
 4041SOL    HW113022   1.873   5.030   1.407
 4041SOL    HW213023   1.810   4.979   1.266
 4042SOL     OW13024   6.281   5.723   3.194
 4042SOL    HW113025   6.370   5.678   3.185
 4042SOL    HW213026   6.208   5.655   3.193
 4043SOL     OW13027   5.480   1.327   4.484
 4043SOL    HW113028   5.468   1.353   4.388
 4043SOL    HW213029   5.574   1.346   4.512
 4044SOL     OW13030   4.828   0.230   3.090
 4044SOL    HW113031   4.809   0.258   2.996
 4044SOL    HW213032   4.746   0.190   3.131
 4045SOL     OW13033   2.671   5.558   5.454
 4045SOL    HW113034   2.587   5.512   5.425
 4045SOL    HW213035   2.725   5.582   5.374
 4046SOL     OW13036   1.183   1.667   4.015
 4046SOL    HW113037   1.171   1.723   3.933
 4046SOL    HW213038   1.106   1.681   4.077
 4047SOL     OW13039   1.470   1.620   0.724
 4047SOL    HW113040   1.465   1.718   0.745
 4047SOL    HW213041   1.395   1.573   0.770
 4048SOL     OW13042   5.041   2.087   2.047
 4048SOL    HW113043   5.085   2.124   2.129
 4048SOL    HW213044   4.997   2.161   1.996
 4049SOL     OW13045   6.408   5.373   5.897
 4049SOL    HW113046   6.440   5.281   5.875
 4049SOL    HW213047   6.376   5.418   5.813
 4050SOL     OW13048   1.556   0.005   1.159
 4050SOL    HW113049   1.585   0.098   1.185
 4050SOL    HW213050   1.634   6.976   1.120
 4051SOL     OW13051   4.112   2.347   6.932
 4051SOL    HW113052   4.105   2.329   6.834
 4051SOL    HW213053   4.173   2.424   6.948
 4052SOL     OW13054   6.906   1.249   2.496
 4052SOL    HW113055   6.950   1.338   2.507
 4052SOL    HW213056   6.808   1.258   2.510
 4053SOL     OW13057   3.264   4.933   4.141
 4053SOL    HW113058   3.179   4.884   4.158
 4053SOL    HW213059   3.259   4.982   4.054
 4054SOL     OW13060   6.529   3.654   1.654
 4054SOL    HW113061   6.509   3.692   1.563
 4054SOL    HW213062   6.628   3.651   1.668
 4055SOL     OW13063   3.317   3.226   6.386
 4055SOL    HW113064   3.345   3.187   6.298
 4055SOL    HW213065   3.239   3.174   6.422
 4056SOL     OW13066   3.524   4.010   1.042
 4056SOL    HW113067   3.572   4.064   1.111
 4056SOL    HW213068   3.570   4.021   0.954
 4057SOL     OW13069   5.569   2.444   1.652
 4057SOL    HW113070   5.492   2.506   1.666
 4057SOL    HW213071   5.623   2.475   1.573
 4058SOL     OW13072   1.870   0.483   3.980
 4058SOL    HW113073   1.927   0.565   3.985
 4058SOL    HW213074   1.835   0.462   4.072
 4059SOL     OW13075   1.252   2.495   3.742
 4059SOL    HW113076   1.339   2.545   3.738
 4059SOL    HW213077   1.214   2.487   3.650
 4060SOL     OW13078   4.990   5.910   4.529
 4060SOL    HW113079   5.052   5.913   4.451
 4060SOL    HW213080   4.926   5.834   4.518
 4061SOL     OW13081   2.935   4.977   1.646
 4061SOL    HW113082   2.849   4.973   1.696
 4061SOL    HW213083   2.992   4.898   1.669
 4062SOL     OW13084   2.293   2.279   2.086
 4062SOL    HW113085   2.254   2.216   2.153
 4062SOL    HW213086   2.328   2.360   2.133
 4063SOL     OW13087   6.331   6.197   5.233
 4063SOL    HW113088   6.256   6.184   5.296
 4063SOL    HW213089   6.341   6.295   5.211
 4064SOL     OW13090   1.694   6.738   3.576
 4064SOL    HW113091   1.611   6.786   3.549
 4064SOL    HW213092   1.729   6.776   3.662
 4065SOL     OW13093   0.425   0.230   0.936
 4065SOL    HW113094   0.412   0.328   0.952
 4065SOL    HW213095   0.387   0.206   0.847
 4066SOL     OW13096   5.323   5.881   3.127
 4066SOL    HW113097   5.238   5.828   3.133
 4066SOL    HW213098   5.304   5.968   3.080
 4067SOL     OW13099   6.463   3.019   2.778
 4067SOL    HW113100   6.402   3.088   2.739
 4067SOL    HW213101   6.488   3.046   2.871
 4068SOL     OW13102   3.374   0.618   4.868
 4068SOL    HW113103   3.444   0.556   4.834
 4068SOL    HW213104   3.374   0.617   4.968
 4069SOL     OW13105   3.517   5.013   6.416
 4069SOL    HW113106   3.430   4.976   6.450
 4069SOL    HW213107   3.528   4.989   6.320
 4070SOL     OW13108   0.644   3.287   2.126
 4070SOL    HW113109   0.591   3.354   2.073
 4070SOL    HW213110   0.737   3.284   2.091
 4071SOL     OW13111   1.389   0.892   5.343
 4071SOL    HW113112   1.471   0.926   5.297
 4071SOL    HW213113   1.372   0.947   5.425
 4072SOL     OW13114   0.318   5.967   4.224
 4072SOL    HW113115   0.237   5.908   4.219
 4072SOL    HW213116   0.368   5.948   4.308
 4073SOL     OW13117   2.238   6.111   6.287
 4073SOL    HW113118   2.165   6.050   6.257
 4073SOL    HW213119   2.257   6.094   6.384
 4074SOL     OW13120   6.906   2.890   1.953
 4074SOL    HW113121   7.005   2.875   1.949
 4074SOL    HW213122   6.864   2.819   2.010
 4075SOL     OW13123   4.083   1.789   2.603
 4075SOL    HW113124   4.057   1.706   2.652
 4075SOL    HW213125   4.178   1.783   2.572
 4076SOL     OW13126   3.067   3.206   5.756
 4076SOL    HW113127   3.108   3.133   5.702
 4076SOL    HW213128   3.116   3.292   5.740
 4077SOL     OW13129   3.661   0.544   0.234
 4077SOL    HW113130   3.605   0.624   0.256
 4077SOL    HW213131   3.673   0.487   0.315
 4078SOL     OW13132   6.627   5.449   2.178
 4078SOL    HW113133   6.549   5.502   2.213
 4078SOL    HW213134   6.666   5.496   2.100
 4079SOL     OW13135   1.025   2.086   4.064
 4079SOL    HW113136   1.081   2.047   4.138
 4079SOL    HW213137   0.961   2.152   4.102
 4080SOL     OW13138   2.908   3.539   6.808
 4080SOL    HW113139   2.886   3.547   6.905
 4080SOL    HW213140   2.865   3.613   6.757
 4081SOL     OW13141   2.353   1.921   4.058
 4081SOL    HW113142   2.441   1.962   4.033
 4081SOL    HW213143   2.290   1.927   3.980
 4082SOL     OW13144   1.470   2.657   0.183
 4082SOL    HW113145   1.551   2.607   0.215
 4082SOL    HW213146   1.421   2.601   0.115
 4083SOL     OW13147   6.643   4.612   2.109
 4083SOL    HW113148   6.554   4.569   2.094
 4083SOL    HW213149   6.665   4.610   2.207
 4084SOL     OW13150   4.365   2.333   2.890
 4084SOL    HW113151   4.350   2.366   2.983
 4084SOL    HW213152   4.438   2.265   2.890
 4085SOL     OW13153   2.702   5.846   0.753
 4085SOL    HW113154   2.741   5.794   0.829
 4085SOL    HW213155   2.607   5.820   0.740
 4086SOL     OW13156   0.661   4.876   1.446
 4086SOL    HW113157   0.610   4.791   1.435
 4086SOL    HW213158   0.628   4.944   1.381
 4087SOL     OW13159   1.791   1.511   3.336
 4087SOL    HW113160   1.747   1.447   3.273
 4087SOL    HW213161   1.885   1.529   3.305
 4088SOL     OW13162   6.299   0.809   6.921
 4088SOL    HW113163   6.258   0.863   6.847
 4088SOL    HW213164   6.351   0.869   6.981
 4089SOL     OW13165   5.867   4.789   3.766
 4089SOL    HW113166   5.947   4.771   3.823
 4089SOL    HW213167   5.784   4.759   3.813
 4090SOL     OW13168   1.298   5.043   4.786
 4090SOL    HW113169   1.290   4.975   4.859
 4090SOL    HW213170   1.273   5.133   4.823
 4091SOL     OW13171   0.846   6.265   6.760
 4091SOL    HW113172   0.877   6.359   6.775
 4091SOL    HW213173   0.910   6.202   6.805
 4092SOL     OW13174   5.778   2.723   4.093
 4092SOL    HW113175   5.761   2.724   4.191
 4092SOL    HW213176   5.813   2.632   4.066
 4093SOL     OW13177   5.051   5.875   2.011
 4093SOL    HW113178   5.003   5.868   1.924
 4093SOL    HW213179   5.124   5.943   2.003
 4094SOL     OW13180   1.645   5.098   5.804
 4094SOL    HW113181   1.597   5.033   5.745
 4094SOL    HW213182   1.740   5.069   5.815
 4095SOL     OW13183   0.694   4.026   0.669
 4095SOL    HW113184   0.629   3.971   0.720
 4095SOL    HW213185   0.650   4.110   0.638
 4096SOL     OW13186   4.993   0.828   6.643
 4096SOL    HW113187   5.074   0.885   6.627
 4096SOL    HW213188   4.964   0.787   6.557
 4097SOL     OW13189   4.002   4.980   4.563
 4097SOL    HW113190   4.022   4.944   4.654
 4097SOL    HW213191   4.020   5.078   4.562
 4098SOL     OW13192   0.627   1.950   1.953
 4098SOL    HW113193   0.682   1.921   2.031
 4098SOL    HW213194   0.645   1.890   1.875
 4099SOL     OW13195   3.668   5.492   1.625
 4099SOL    HW113196   3.593   5.485   1.690
 4099SOL    HW213197   3.660   5.577   1.574
 4100SOL     OW13198   6.818   6.519   4.448
 4100SOL    HW113199   6.756   6.506   4.525
 4100SOL    HW213200   6.897   6.458   4.459
 4101SOL     OW13201   6.796   0.906   0.101
 4101SOL    HW113202   6.789   0.967   0.180
 4101SOL    HW213203   6.842   0.954   0.026
 4102SOL     OW13204   0.680   1.173   0.932
 4102SOL    HW113205   0.647   1.177   0.837
 4102SOL    HW213206   0.640   1.249   0.983
 4103SOL     OW13207   0.577   6.918   0.388
 4103SOL    HW113208   0.550   6.882   0.299
 4103SOL    HW213209   0.599   6.843   0.450
 4104SOL     OW13210   6.782   5.294   2.710
 4104SOL    HW113211   6.834   5.352   2.773
 4104SOL    HW213212   6.835   5.211   2.690
 4105SOL     OW13213   5.679   0.138   2.317
 4105SOL    HW113214   5.679   0.237   2.330
 4105SOL    HW213215   5.766   0.101   2.351
 4106SOL     OW13216   6.880   3.110   3.046
 4106SOL    HW113217   6.810   3.053   3.090
 4106SOL    HW213218   6.861   3.115   2.948
 4107SOL     OW13219   1.198   5.115   1.196
 4107SOL    HW113220   1.242   5.110   1.286
 4107SOL    HW213221   1.262   5.150   1.129
 4108SOL     OW13222   6.601   5.467   4.733
 4108SOL    HW113223   6.509   5.441   4.703
 4108SOL    HW213224   6.597   5.554   4.781
 4109SOL     OW13225   6.550   6.736   4.500
 4109SOL    HW113226   6.573   6.740   4.597
 4109SOL    HW213227   6.630   6.763   4.446
 4110SOL     OW13228   4.399   4.015   5.630
 4110SOL    HW113229   4.356   3.929   5.660
 4110SOL    HW213230   4.443   4.059   5.708
 4111SOL     OW13231   5.186   4.334   6.337
 4111SOL    HW113232   5.119   4.271   6.300
 4111SOL    HW213233   5.142   4.421   6.361
 4112SOL     OW13234   4.768   6.217   5.102
 4112SOL    HW113235   4.796   6.197   5.195
 4112SOL    HW213236   4.755   6.315   5.090
 4113SOL     OW13237   5.328   5.788   4.904
 4113SOL    HW113238   5.253   5.846   4.871
 4113SOL    HW213239   5.406   5.795   4.842
 4114SOL     OW13240   4.388   2.450   4.277
 4114SOL    HW113241   4.317   2.380   4.263
 4114SOL    HW213242   4.396   2.469   4.375
 4115SOL     OW13243   2.834   5.151   2.237
 4115SOL    HW113244   2.783   5.190   2.313
 4115SOL    HW213245   2.914   5.102   2.271
 4116SOL     OW13246   3.679   1.721   2.494
 4116SOL    HW113247   3.714   1.712   2.588
 4116SOL    HW213248   3.617   1.800   2.490
 4117SOL     OW13249   1.403   3.731   2.553
 4117SOL    HW113250   1.314   3.775   2.544
 4117SOL    HW213251   1.416   3.665   2.480
 4118SOL     OW13252   4.922   6.195   0.682
 4118SOL    HW113253   4.847   6.130   0.670
 4118SOL    HW213254   5.008   6.146   0.698
 4119SOL     OW13255   3.363   1.695   4.027
 4119SOL    HW113256   3.387   1.792   4.031
 4119SOL    HW213257   3.333   1.665   4.118
 4120SOL     OW13258   4.391   0.540   6.198
 4120SOL    HW113259   4.478   0.492   6.204
 4120SOL    HW213260   4.318   0.481   6.234
 4121SOL     OW13261   6.410   0.186   3.586
 4121SOL    HW113262   6.338   0.256   3.590
 4121SOL    HW213263   6.499   0.229   3.602
 4122SOL     OW13264   1.202   6.237   4.343
 4122SOL    HW113265   1.230   6.269   4.253
 4122SOL    HW213266   1.110   6.270   4.363
 4123SOL     OW13267   4.320   4.607   5.429
 4123SOL    HW113268   4.302   4.689   5.484
 4123SOL    HW213269   4.257   4.534   5.455
 4124SOL     OW13270   6.505   6.497   0.434
 4124SOL    HW113271   6.538   6.479   0.342
 4124SOL    HW213272   6.500   6.411   0.485
 4125SOL     OW13273   4.458   1.699   2.597
 4125SOL    HW113274   4.430   1.724   2.504
 4125SOL    HW213275   4.388   1.642   2.639
 4126SOL     OW13276   1.859   3.626   3.659
 4126SOL    HW113277   1.760   3.632   3.645
 4126SOL    HW213278   1.895   3.548   3.609
 4127SOL     OW13279   5.685   3.686   5.736
 4127SOL    HW113280   5.625   3.609   5.758
 4127SOL    HW213281   5.773   3.674   5.782
 4128SOL     OW13282   1.058   2.951   1.057
 4128SOL    HW113283   1.146   2.966   1.011
 4128SOL    HW213284   1.062   2.989   1.149
 4129SOL     OW13285   3.806   1.128   0.096
 4129SOL    HW113286   3.726   1.073   0.119
 4129SOL    HW213287   3.783   1.193   0.024
 4130SOL     OW13288   6.499   2.867   0.556
 4130SOL    HW113289   6.476   2.950   0.505
 4130SOL    HW213290   6.539   2.892   0.644
 4131SOL     OW13291   0.234   1.528   3.751
 4131SOL    HW113292   0.218   1.435   3.717
 4131SOL    HW213293   0.146   1.570   3.774
 4132SOL     OW13294   4.792   4.051   3.429
 4132SOL    HW113295   4.849   3.992   3.372
 4132SOL    HW213296   4.754   4.125   3.373
 4133SOL     OW13297   3.279   5.944   1.492
 4133SOL    HW113298   3.314   5.878   1.426
 4133SOL    HW213299   3.214   6.006   1.447
 4134SOL     OW13300   2.553   4.042   1.345
 4134SOL    HW113301   2.555   4.104   1.267
 4134SOL    HW213302   2.597   4.086   1.424
 4135SOL     OW13303   0.419   2.214   2.180
 4135SOL    HW113304   0.517   2.195   2.174
 4135SOL    HW213305   0.382   2.174   2.264
 4136SOL     OW13306   1.510   3.002   3.135
 4136SOL    HW113307   1.440   3.006   3.207
 4136SOL    HW213308   1.599   3.026   3.174
 4137SOL     OW13309   1.130   3.565   1.628
 4137SOL    HW113310   1.216   3.519   1.649
 4137SOL    HW213311   1.105   3.547   1.533
 4138SOL     OW13312   4.257   5.980   2.721
 4138SOL    HW113313   4.244   5.881   2.717
 4138SOL    HW213314   4.220   6.016   2.807
 4139SOL     OW13315   2.055   1.808   5.442
 4139SOL    HW113316   2.147   1.817   5.481
 4139SOL    HW213317   2.025   1.713   5.452
 4140SOL     OW13318   3.195   0.527   5.506
 4140SOL    HW113319   3.240   0.589   5.571
 4140SOL    HW213320   3.260   0.456   5.479
 4141SOL     OW13321   5.135   6.797   1.057
 4141SOL    HW113322   5.045   6.830   1.086
 4141SOL    HW213323   5.182   6.868   1.004
 4142SOL     OW13324   6.760   5.052   0.906
 4142SOL    HW113325   6.767   4.984   0.833
 4142SOL    HW213326   6.673   5.041   0.954
 4143SOL     OW13327   5.510   1.671   0.732
 4143SOL    HW113328   5.574   1.595   0.718
 4143SOL    HW213329   5.476   1.670   0.826
 4144SOL     OW13330   5.339   1.583   0.179
 4144SOL    HW113331   5.331   1.535   0.091
 4144SOL    HW213332   5.406   1.536   0.236
 4145SOL     OW13333   0.193   6.418   1.648
 4145SOL    HW113334   0.220   6.503   1.603
 4145SOL    HW213335   0.107   6.386   1.608
 4146SOL     OW13336   6.726   0.481   2.969
 4146SOL    HW113337   6.822   0.504   2.953
 4146SOL    HW213338   6.668   0.550   2.925
 4147SOL     OW13339   5.126   4.777   6.131
 4147SOL    HW113340   5.201   4.712   6.135
 4147SOL    HW213341   5.062   4.760   6.206
 4148SOL     OW13342   1.959   0.384   4.814
 4148SOL    HW113343   1.904   0.419   4.738
 4148SOL    HW213344   1.967   0.454   4.885
 4149SOL     OW13345   0.014   4.401   1.086
 4149SOL    HW113346   0.081   4.327   1.082
 4149SOL    HW213347   0.025   4.460   1.007
 4150SOL     OW13348   1.064   6.865   6.039
 4150SOL    HW113349   1.150   6.905   6.071
 4150SOL    HW213350   1.045   6.782   6.093
 4151SOL     OW13351   3.149   6.637   5.755
 4151SOL    HW113352   3.080   6.567   5.773
 4151SOL    HW213353   3.225   6.597   5.704
 4152SOL     OW13354   4.558   5.755   1.063
 4152SOL    HW113355   4.626   5.719   1.000
 4152SOL    HW213356   4.477   5.696   1.061
 4153SOL     OW13357   5.359   4.959   0.278
 4153SOL    HW113358   5.387   5.006   0.362
 4153SOL    HW213359   5.436   4.956   0.214
 4154SOL     OW13360   7.009   5.180   3.148
 4154SOL    HW113361   6.984   5.090   3.182
 4154SOL    HW213362   0.088   5.188   3.143
 4155SOL     OW13363   6.910   1.539   2.374
 4155SOL    HW113364   6.957   1.582   2.451
 4155SOL    HW213365   6.852   1.607   2.329
 4156SOL     OW13366   5.894   5.833   4.633
 4156SOL    HW113367   5.909   5.821   4.535
 4156SOL    HW213368   5.829   5.907   4.649
 4157SOL     OW13369   5.028   5.423   4.054
 4157SOL    HW113370   5.091   5.346   4.042
 4157SOL    HW213371   5.022   5.446   4.151
 4158SOL     OW13372   6.878   3.178   1.293
 4158SOL    HW113373   6.974   3.158   1.269
 4158SOL    HW213374   6.871   3.272   1.327
 4159SOL     OW13375   2.113   3.253   3.223
 4159SOL    HW113376   2.014   3.249   3.213
 4159SOL    HW213377   2.136   3.319   3.294
 4160SOL     OW13378   5.762   0.898   0.459
 4160SOL    HW113379   5.850   0.882   0.504
 4160SOL    HW213380   5.694   0.834   0.495
 4161SOL     OW13381   0.666   2.149   1.001
 4161SOL    HW113382   0.737   2.188   1.059
 4161SOL    HW213383   0.685   2.170   0.905
 4162SOL     OW13384   6.659   5.635   0.281
 4162SOL    HW113385   6.659   5.680   0.192
 4162SOL    HW213386   6.606   5.550   0.275
 4163SOL     OW13387   4.435   0.166   2.927
 4163SOL    HW113388   4.417   0.140   3.022
 4163SOL    HW213389   4.352   0.154   2.873
 4164SOL     OW13390   1.727   6.760   5.683
 4164SOL    HW113391   1.813   6.764   5.735
 4164SOL    HW213392   1.703   6.851   5.651
 4165SOL     OW13393   4.467   0.237   6.068
 4165SOL    HW113394   4.435   0.263   5.977
 4165SOL    HW213395   4.556   0.281   6.085
 4166SOL     OW13396   5.266   2.531   0.525
 4166SOL    HW113397   5.255   2.464   0.599
 4166SOL    HW213398   5.251   2.486   0.437
 4167SOL     OW13399   1.890   4.261   0.844
 4167SOL    HW113400   1.900   4.165   0.867
 4167SOL    HW213401   1.970   4.292   0.793
 4168SOL     OW13402   7.004   4.486   1.337
 4168SOL    HW113403   6.929   4.549   1.319
 4168SOL    HW213404   0.018   4.449   1.250
 4169SOL     OW13405   6.053   4.582   4.745
 4169SOL    HW113406   6.126   4.536   4.694
 4169SOL    HW213407   6.057   4.555   4.841
 4170SOL     OW13408   4.467   3.616   6.053
 4170SOL    HW113409   4.426   3.623   5.962
 4170SOL    HW213410   4.407   3.660   6.119
 4171SOL     OW13411   5.964   6.034   0.936
 4171SOL    HW113412   5.942   5.946   0.980
 4171SOL    HW213413   6.061   6.035   0.910
 4172SOL     OW13414   1.277   1.485   5.995
 4172SOL    HW113415   1.358   1.542   5.985
 4172SOL    HW213416   1.218   1.524   6.066
 4173SOL     OW13417   5.328   4.434   5.031
 4173SOL    HW113418   5.239   4.389   5.028
 4173SOL    HW213419   5.395   4.379   4.982
 4174SOL     OW13420   4.997   1.515   3.025
 4174SOL    HW113421   5.016   1.600   3.073
 4174SOL    HW213422   5.049   1.441   3.066
 4175SOL     OW13423   2.517   5.399   4.524
 4175SOL    HW113424   2.462   5.360   4.451
 4175SOL    HW213425   2.458   5.448   4.588
 4176SOL     OW13426   3.109   5.696   2.110
 4176SOL    HW113427   3.198   5.733   2.137
 4176SOL    HW213428   3.098   5.705   2.011
 4177SOL     OW13429   5.969   4.990   5.214
 4177SOL    HW113430   6.047   4.976   5.153
 4177SOL    HW213431   5.965   5.086   5.242
 4178SOL     OW13432   4.823   6.639   4.376
 4178SOL    HW113433   4.902   6.654   4.436
 4178SOL    HW213434   4.841   6.680   4.287
 4179SOL     OW13435   5.420   3.384   3.345
 4179SOL    HW113436   5.356   3.459   3.362
 4179SOL    HW213437   5.484   3.410   3.272
 4180SOL     OW13438   5.252   4.614   1.402
 4180SOL    HW113439   5.352   4.611   1.413
 4180SOL    HW213440   5.209   4.564   1.477
 4181SOL     OW13441   2.912   1.252   0.617
 4181SOL    HW113442   2.866   1.173   0.576
 4181SOL    HW213443   2.935   1.232   0.712
 4182SOL     OW13444   1.010   6.958   3.546
 4182SOL    HW113445   0.991   6.931   3.452
 4182SOL    HW213446   1.065   6.888   3.591
 4183SOL     OW13447   3.261   1.225   0.144
 4183SOL    HW113448   3.237   1.321   0.129
 4183SOL    HW213449   3.253   1.204   0.241
 4184SOL     OW13450   4.414   5.736   1.435
 4184SOL    HW113451   4.492   5.786   1.396
 4184SOL    HW213452   4.425   5.730   1.534
 4185SOL     OW13453   0.736   4.786   2.311
 4185SOL    HW113454   0.726   4.884   2.331
 4185SOL    HW213455   0.804   4.747   2.373
 4186SOL     OW13456   2.777   5.195   0.365
 4186SOL    HW113457   2.792   5.190   0.464
 4186SOL    HW213458   2.820   5.116   0.320
 4187SOL     OW13459   3.551   2.972   5.664
 4187SOL    HW113460   3.512   3.005   5.578
 4187SOL    HW213461   3.478   2.961   5.732
 4188SOL     OW13462   4.799   0.039   5.133
 4188SOL    HW113463   4.812   0.014   5.229
 4188SOL    HW213464   4.702   0.054   5.114
 4189SOL     OW13465   2.902   4.976   5.370
 4189SOL    HW113466   2.896   4.942   5.276
 4189SOL    HW213467   2.852   5.063   5.377
 4190SOL     OW13468   0.947   0.716   0.345
 4190SOL    HW113469   0.850   0.737   0.351
 4190SOL    HW213470   0.959   0.619   0.323
 4191SOL     OW13471   4.559   4.381   3.389
 4191SOL    HW113472   4.635   4.370   3.325
 4191SOL    HW213473   4.527   4.475   3.386
 4192SOL     OW13474   0.930   0.700   4.168
 4192SOL    HW113475   0.941   0.668   4.262
 4192SOL    HW213476   0.839   0.675   4.135
 4193SOL     OW13477   0.584   1.161   1.974
 4193SOL    HW113478   0.571   1.168   1.876
 4193SOL    HW213479   0.665   1.213   2.001
 4194SOL     OW13480   5.658   0.498   4.365
 4194SOL    HW113481   5.660   0.531   4.271
 4194SOL    HW213482   5.598   0.418   4.372
 4195SOL     OW13483   3.772   6.687   1.850
 4195SOL    HW113484   3.848   6.748   1.830
 4195SOL    HW213485   3.781   6.652   1.944
 4196SOL     OW13486   5.533   1.964   3.443
 4196SOL    HW113487   5.579   1.936   3.527
 4196SOL    HW213488   5.527   1.886   3.381
 4197SOL     OW13489   5.299   5.553   6.258
 4197SOL    HW113490   5.369   5.509   6.202
 4197SOL    HW213491   5.274   5.493   6.334
 4198SOL     OW13492   5.618   2.060   6.947
 4198SOL    HW113493   5.567   2.124   7.005
 4198SOL    HW213494   5.714   2.058   6.978
 4199SOL     OW13495   2.055   2.584   5.717
 4199SOL    HW113496   2.138   2.630   5.748
 4199SOL    HW213497   1.975   2.638   5.744
 4200SOL     OW13498   3.885   6.734   5.965
 4200SOL    HW113499   3.804   6.715   5.909
 4200SOL    HW213500   3.869   6.701   6.058
 4201SOL     OW13501   5.841   6.543   3.510
 4201SOL    HW113502   5.901   6.504   3.581
 4201SOL    HW213503   5.796   6.624   3.547
 4202SOL     OW13504   4.105   5.641   5.846
 4202SOL    HW113505   4.142   5.711   5.786
 4202SOL    HW213506   4.135   5.551   5.814
 4203SOL     OW13507   4.377   5.323   0.221
 4203SOL    HW113508   4.415   5.259   0.287
 4203SOL    HW213509   4.369   5.279   0.132
 4204SOL     OW13510   3.660   3.934   2.711
 4204SOL    HW113511   3.642   3.871   2.786
 4204SOL    HW213512   3.638   4.027   2.739
 4205SOL     OW13513   3.828   5.610   3.932
 4205SOL    HW113514   3.881   5.617   3.848
 4205SOL    HW213515   3.888   5.618   4.011
 4206SOL     OW13516   6.998   0.019   5.918
 4206SOL    HW113517   6.993   0.023   5.818
 4206SOL    HW213518   6.908   0.040   5.957
 4207SOL     OW13519   1.516   1.695   0.459
 4207SOL    HW113520   1.614   1.710   0.455
 4207SOL    HW213521   1.490   1.665   0.551
 4208SOL     OW13522   0.360   2.923   5.885
 4208SOL    HW113523   0.335   2.838   5.932
 4208SOL    HW213524   0.360   2.908   5.786
 4209SOL     OW13525   0.366   0.296   4.743
 4209SOL    HW113526   0.289   0.246   4.703
 4209SOL    HW213527   0.433   0.231   4.780
 4210SOL     OW13528   2.945   3.267   2.240
 4210SOL    HW113529   2.984   3.344   2.189
 4210SOL    HW213530   2.849   3.255   2.214
 4211SOL     OW13531   4.235   5.822   5.667
 4211SOL    HW113532   4.215   5.898   5.729
 4211SOL    HW213533   4.287   5.855   5.588
 4212SOL     OW13534   5.862   1.804   2.784
 4212SOL    HW113535   5.802   1.795   2.705
 4212SOL    HW213536   5.930   1.875   2.767
 4213SOL     OW13537   1.943   1.303   1.661
 4213SOL    HW113538   1.965   1.276   1.567
 4213SOL    HW213539   1.898   1.393   1.660
 4214SOL     OW13540   1.568   4.578   5.275
 4214SOL    HW113541   1.540   4.522   5.353
 4214SOL    HW213542   1.660   4.551   5.247
 4215SOL     OW13543   6.391   5.994   5.055
 4215SOL    HW113544   6.380   6.050   5.137
 4215SOL    HW213545   6.319   5.925   5.052
 4216SOL     OW13546   1.061   1.593   3.097
 4216SOL    HW113547   1.124   1.670   3.088
 4216SOL    HW213548   1.006   1.604   3.180
 4217SOL     OW13549   0.930   0.436   2.080
 4217SOL    HW113550   0.886   0.493   2.012
 4217SOL    HW213551   0.872   0.429   2.161
 4218SOL     OW13552   4.440   0.869   1.831
 4218SOL    HW113553   4.475   0.921   1.754
 4218SOL    HW213554   4.505   0.796   1.855
 4219SOL     OW13555   3.369   5.533   4.086
 4219SOL    HW113556   3.411   5.605   4.031
 4219SOL    HW213557   3.422   5.449   4.077
 4220SOL     OW13558   5.246   3.069   3.801
 4220SOL    HW113559   5.268   2.977   3.834
 4220SOL    HW213560   5.223   3.066   3.704
 4221SOL     OW13561   6.355   5.313   6.448
 4221SOL    HW113562   6.317   5.405   6.435
 4221SOL    HW213563   6.282   5.246   6.439
 4222SOL     OW13564   6.123   1.897   3.005
 4222SOL    HW113565   6.072   1.978   2.978
 4222SOL    HW213566   6.079   1.855   3.085
 4223SOL     OW13567   3.743   3.490   6.208
 4223SOL    HW113568   3.727   3.505   6.110
 4223SOL    HW213569   3.680   3.547   6.261
 4224SOL     OW13570   5.163   3.459   3.937
 4224SOL    HW113571   5.075   3.412   3.947
 4224SOL    HW213572   5.238   3.394   3.951
 4225SOL     OW13573   4.082   0.786   6.218
 4225SOL    HW113574   4.064   0.826   6.128
 4225SOL    HW213575   4.180   0.791   6.238
 4226SOL     OW13576   0.972   0.242   2.643
 4226SOL    HW113577   1.034   0.294   2.584
 4226SOL    HW213578   0.910   0.188   2.586
 4227SOL     OW13579   3.704   4.553   1.113
 4227SOL    HW113580   3.744   4.483   1.055
 4227SOL    HW213581   3.733   4.644   1.080
 4228SOL     OW13582   0.968   3.933   5.089
 4228SOL    HW113583   0.936   3.867   5.158
 4228SOL    HW213584   1.066   3.949   5.102
 4229SOL     OW13585   5.310   5.367   5.844
 4229SOL    HW113586   5.212   5.356   5.828
 4229SOL    HW213587   5.344   5.442   5.787
 4230SOL     OW13588   1.172   6.862   2.993
 4230SOL    HW113589   1.264   6.825   3.006
 4230SOL    HW213590   1.174   6.961   3.002
 4231SOL     OW13591   6.084   6.256   5.058
 4231SOL    HW113592   6.141   6.317   5.003
 4231SOL    HW213593   6.138   6.216   5.131
 4232SOL     OW13594   6.737   4.702   2.713
 4232SOL    HW113595   6.769   4.621   2.664
 4232SOL    HW213596   6.814   4.761   2.736
 4233SOL     OW13597   6.980   0.321   6.465
 4233SOL    HW113598   7.014   0.285   6.552
 4233SOL    HW213599   6.901   0.380   6.481
 4234SOL     OW13600   2.450   6.658   5.704
 4234SOL    HW113601   2.387   6.581   5.720
 4234SOL    HW213602   2.429   6.699   5.616
 4235SOL     OW13603   5.729   3.582   6.039
 4235SOL    HW113604   5.799   3.621   5.979
 4235SOL    HW213605   5.769   3.560   6.128
 4236SOL     OW13606   6.988   3.666   2.638
 4236SOL    HW113607   6.900   3.705   2.610
 4236SOL    HW213608   7.018   3.708   2.724
 4237SOL     OW13609   5.876   5.389   2.616
 4237SOL    HW113610   5.845   5.484   2.617
 4237SOL    HW213611   5.973   5.386   2.639
 4238SOL     OW13612   3.080   5.065   2.794
 4238SOL    HW113613   3.132   5.150   2.788
 4238SOL    HW213614   3.025   5.053   2.711
 4239SOL     OW13615   5.583   1.948   3.112
 4239SOL    HW113616   5.570   2.002   3.029
 4239SOL    HW213617   5.566   2.005   3.192
 4240SOL     OW13618   2.424   0.084   0.222
 4240SOL    HW113619   2.366   0.164   0.231
 4240SOL    HW213620   2.412   0.044   0.131
 4241SOL     OW13621   6.211   0.638   0.457
 4241SOL    HW113622   6.300   0.651   0.413
 4241SOL    HW213623   6.216   0.669   0.552
 4242SOL     OW13624   2.204   0.803   3.325
 4242SOL    HW113625   2.148   0.845   3.254
 4242SOL    HW213626   2.164   0.820   3.415
 4243SOL     OW13627   6.532   3.097   3.026
 4243SOL    HW113628   6.582   3.066   3.107
 4243SOL    HW213629   6.536   3.197   3.021
 4244SOL     OW13630   4.934   4.317   1.614
 4244SOL    HW113631   4.907   4.240   1.672
 4244SOL    HW213632   4.900   4.402   1.653
 4245SOL     OW13633   6.553   0.915   5.892
 4245SOL    HW113634   6.474   0.857   5.910
 4245SOL    HW213635   6.540   0.965   5.806
 4246SOL     OW13636   6.467   3.281   2.527
 4246SOL    HW113637   6.515   3.368   2.525
 4246SOL    HW213638   6.392   3.285   2.594
 4247SOL     OW13639   2.413   4.907   3.713
 4247SOL    HW113640   2.463   4.968   3.651
 4247SOL    HW213641   2.432   4.812   3.689
 4248SOL     OW13642   1.871   1.544   3.964
 4248SOL    HW113643   1.933   1.547   3.885
 4248SOL    HW213644   1.777   1.540   3.932
 4249SOL     OW13645   5.905   1.901   4.195
 4249SOL    HW113646   5.838   1.870   4.262
 4249SOL    HW213647   5.996   1.868   4.220
 4250SOL     OW13648   6.809   5.806   3.872
 4250SOL    HW113649   6.748   5.829   3.796
 4250SOL    HW213650   6.815   5.884   3.934
 4251SOL     OW13651   5.840   3.682   1.388
 4251SOL    HW113652   5.884   3.764   1.424
 4251SOL    HW213653   5.786   3.639   1.461
 4252SOL     OW13654   6.592   6.848   6.598
 4252SOL    HW113655   6.642   6.889   6.523
 4252SOL    HW213656   6.576   6.751   6.579
 4253SOL     OW13657   3.221   6.537   0.659
 4253SOL    HW113658   3.236   6.617   0.600
 4253SOL    HW213659   3.247   6.454   0.609
 4254SOL     OW13660   1.485   3.439   2.397
 4254SOL    HW113661   1.572   3.406   2.434
 4254SOL    HW213662   1.489   3.440   2.297
 4255SOL     OW13663   6.967   4.361   3.899
 4255SOL    HW113664   6.973   4.358   3.999
 4255SOL    HW213665   0.037   4.375   3.860
 4256SOL     OW13666   1.810   6.354   1.269
 4256SOL    HW113667   1.833   6.291   1.343
 4256SOL    HW213668   1.717   6.390   1.283
 4257SOL     OW13669   3.252   0.714   4.104
 4257SOL    HW113670   3.255   0.632   4.161
 4257SOL    HW213671   3.338   0.722   4.053
 4258SOL     OW13672   3.578   5.986   1.124
 4258SOL    HW113673   3.671   5.990   1.160
 4258SOL    HW213674   3.516   5.954   1.195
 4259SOL     OW13675   1.965   0.626   0.878
 4259SOL    HW113676   1.878   0.676   0.875
 4259SOL    HW213677   1.950   0.532   0.849
 4260SOL     OW13678   5.631   0.766   1.888
 4260SOL    HW113679   5.626   0.684   1.831
 4260SOL    HW213680   5.631   0.741   1.984
 4261SOL     OW13681   1.857   0.635   2.231
 4261SOL    HW113682   1.873   0.734   2.232
 4261SOL    HW213683   1.797   0.612   2.154
 4262SOL     OW13684   0.778   3.862   6.750
 4262SOL    HW113685   0.834   3.791   6.793
 4262SOL    HW213686   0.697   3.879   6.807
 4263SOL     OW13687   2.789   1.100   2.998
 4263SOL    HW113688   2.860   1.140   2.940
 4263SOL    HW213689   2.791   1.145   3.088
 4264SOL     OW13690   6.384   1.882   4.101
 4264SOL    HW113691   6.430   1.829   4.173
 4264SOL    HW213692   6.328   1.820   4.046
 4265SOL     OW13693   4.321   1.040   0.202
 4265SOL    HW113694   4.275   0.952   0.194
 4265SOL    HW213695   4.255   1.110   0.230
 4266SOL     OW13696   1.677   6.260   6.772
 4266SOL    HW113697   1.578   6.241   6.769
 4266SOL    HW213698   1.692   6.355   6.799
 4267SOL     OW13699   2.137   3.768   3.463
 4267SOL    HW113700   2.173   3.858   3.439
 4267SOL    HW213701   2.144   3.753   3.562
 4268SOL     OW13702   1.246   5.651   6.836
 4268SOL    HW113703   1.213   5.703   6.756
 4268SOL    HW213704   1.330   5.693   6.871
 4269SOL     OW13705   2.776   0.361   2.409
 4269SOL    HW113706   2.725   0.303   2.472
 4269SOL    HW213707   2.787   0.452   2.450
 4270SOL     OW13708   4.098   3.684   3.173
 4270SOL    HW113709   4.071   3.764   3.120
 4270SOL    HW213710   4.075   3.601   3.123
 4271SOL     OW13711   6.511   1.151   0.009
 4271SOL    HW113712   6.503   1.078   0.076
 4271SOL    HW213713   6.423   1.167   6.986
 4272SOL     OW13714   6.614   2.139   4.503
 4272SOL    HW113715   6.553   2.126   4.425
 4272SOL    HW213716   6.704   2.167   4.470
 4273SOL     OW13717   3.896   6.916   5.364
 4273SOL    HW113718   3.844   6.943   5.445
 4273SOL    HW213719   3.983   6.966   5.361
 4274SOL     OW13720   1.230   0.519   1.696
 4274SOL    HW113721   1.205   0.430   1.732
 4274SOL    HW213722   1.149   0.565   1.659
 4275SOL     OW13723   5.816   2.124   4.611
 4275SOL    HW113724   5.801   2.156   4.705
 4275SOL    HW213725   5.902   2.162   4.576
 4276SOL     OW13726   2.330   5.414   3.928
 4276SOL    HW113727   2.346   5.317   3.908
 4276SOL    HW213728   2.280   5.456   3.853
 4277SOL     OW13729   5.958   4.780   3.072
 4277SOL    HW113730   5.896   4.793   3.149
 4277SOL    HW213731   5.970   4.683   3.055
 4278SOL     OW13732   0.222   6.749   5.020
 4278SOL    HW113733   0.247   6.765   5.116
 4278SOL    HW213734   0.232   6.834   4.969
 4279SOL     OW13735   3.520   1.143   3.645
 4279SOL    HW113736   3.577   1.063   3.662
 4279SOL    HW213737   3.430   1.129   3.687
 4280SOL     OW13738   5.355   0.247   6.408
 4280SOL    HW113739   5.381   0.332   6.453
 4280SOL    HW213740   5.351   0.173   6.475
 4281SOL     OW13741   6.513   4.478   3.249
 4281SOL    HW113742   6.469   4.567   3.239
 4281SOL    HW213743   6.610   4.485   3.225
 4282SOL     OW13744   3.450   4.518   0.241
 4282SOL    HW113745   3.493   4.429   0.224
 4282SOL    HW213746   3.501   4.567   0.311
 4283SOL     OW13747   1.501   0.410   3.446
 4283SOL    HW113748   1.425   0.475   3.449
 4283SOL    HW213749   1.534   0.402   3.353
 4284SOL     OW13750   3.648   4.182   1.208
 4284SOL    HW113751   3.710   4.217   1.278
 4284SOL    HW213752   3.556   4.217   1.224
 4285SOL     OW13753   1.646   0.353   5.677
 4285SOL    HW113754   1.596   0.305   5.750
 4285SOL    HW213755   1.741   0.367   5.705
 4286SOL     OW13756   5.119   6.256   5.731
 4286SOL    HW113757   5.135   6.281   5.636
 4286SOL    HW213758   5.033   6.296   5.762
 4287SOL     OW13759   5.561   0.645   5.989
 4287SOL    HW113760   5.488   0.713   5.998
 4287SOL    HW213761   5.582   0.607   6.079
 4288SOL     OW13762   0.967   5.775   3.066
 4288SOL    HW113763   0.956   5.745   2.972
 4288SOL    HW213764   0.896   5.841   3.089
 4289SOL     OW13765   6.418   3.262   6.069
 4289SOL    HW113766   6.456   3.337   6.122
 4289SOL    HW213767   6.465   3.257   5.981
 4290SOL     OW13768   1.782   6.634   3.996
 4290SOL    HW113769   1.782   6.631   4.096
 4290SOL    HW213770   1.701   6.585   3.962
 4291SOL     OW13771   4.922   3.730   0.280
 4291SOL    HW113772   4.938   3.820   0.241
 4291SOL    HW213773   4.880   3.740   0.370
 4292SOL     OW13774   5.317   3.292   0.431
 4292SOL    HW113775   5.221   3.283   0.408
 4292SOL    HW213776   5.348   3.209   0.478
 4293SOL     OW13777   2.964   3.179   0.128
 4293SOL    HW113778   3.047   3.235   0.120
 4293SOL    HW213779   2.907   3.214   0.202
 4294SOL     OW13780   2.268   1.992   6.540
 4294SOL    HW113781   2.210   2.020   6.463
 4294SOL    HW213782   2.342   1.934   6.507
 4295SOL     OW13783   3.421   5.887   5.065
 4295SOL    HW113784   3.322   5.891   5.052
 4295SOL    HW213785   3.442   5.843   5.152
 4296SOL     OW13786   3.250   6.751   0.518
 4296SOL    HW113787   3.158   6.785   0.538
 4296SOL    HW213788   3.303   6.824   0.475
 4297SOL     OW13789   5.139   0.091   1.142
 4297SOL    HW113790   5.150   0.032   1.222
 4297SOL    HW213791   5.042   0.104   1.123
 4298SOL     OW13792   4.353   5.245   0.486
 4298SOL    HW113793   4.343   5.164   0.544
 4298SOL    HW213794   4.273   5.304   0.497
 4299SOL     OW13795   1.172   3.103   6.533
 4299SOL    HW113796   1.164   3.198   6.563
 4299SOL    HW213797   1.263   3.068   6.555
 4300SOL     OW13798   3.193   6.837   0.182
 4300SOL    HW113799   3.227   6.761   0.127
 4300SOL    HW213800   3.256   6.854   0.257
 4301SOL     OW13801   4.298   0.652   1.677
 4301SOL    HW113802   4.354   0.726   1.642
 4301SOL    HW213803   4.310   0.645   1.776
 4302SOL     OW13804   1.039   0.134   6.166
 4302SOL    HW113805   0.994   0.216   6.129
 4302SOL    HW213806   0.974   0.058   6.164
 4303SOL     OW13807   0.130   5.153   3.821
 4303SOL    HW113808   0.122   5.239   3.871
 4303SOL    HW213809   0.094   5.166   3.728
 4304SOL     OW13810   2.936   3.410   2.518
 4304SOL    HW113811   3.021   3.407   2.465
 4304SOL    HW213812   2.928   3.326   2.571
 4305SOL     OW13813   0.571   6.934   6.046
 4305SOL    HW113814   0.559   6.985   5.961
 4305SOL    HW213815   0.579   6.837   6.027
 4306SOL     OW13816   4.687   4.883   4.713
 4306SOL    HW113817   4.763   4.941   4.684
 4306SOL    HW213818   4.602   4.917   4.673
 4307SOL     OW13819   5.733   3.907   5.929
 4307SOL    HW113820   5.639   3.876   5.941
 4307SOL    HW213821   5.796   3.830   5.944
 4308SOL     OW13822   5.910   4.646   1.153
 4308SOL    HW113823   5.923   4.679   1.247
 4308SOL    HW213824   5.989   4.669   1.098
 4309SOL     OW13825   0.969   1.061   0.223
 4309SOL    HW113826   1.048   1.001   0.207
 4309SOL    HW213827   0.958   1.122   0.144
 4310SOL     OW13828   1.749   2.557   2.009
 4310SOL    HW113829   1.734   2.528   2.103
 4310SOL    HW213830   1.837   2.602   2.002
 4311SOL     OW13831   1.713   6.203   2.610
 4311SOL    HW113832   1.762   6.201   2.522
 4311SOL    HW213833   1.739   6.124   2.665
 4312SOL     OW13834   1.750   5.759   1.968
 4312SOL    HW113835   1.844   5.780   1.943
 4312SOL    HW213836   1.718   5.827   2.035
 4313SOL     OW13837   4.735   1.505   0.884
 4313SOL    HW113838   4.760   1.579   0.821
 4313SOL    HW213839   4.708   1.544   0.972
 4314SOL     OW13840   5.890   1.507   4.378
 4314SOL    HW113841   5.887   1.505   4.278
 4314SOL    HW213842   5.985   1.497   4.409
 4315SOL     OW13843   2.633   6.751   2.963
 4315SOL    HW113844   2.726   6.772   2.935
 4315SOL    HW213845   2.601   6.819   3.029
 4316SOL     OW13846   5.159   1.109   1.846
 4316SOL    HW113847   5.244   1.062   1.819
 4316SOL    HW213848   5.179   1.175   1.918
 4317SOL     OW13849   5.547   2.347   4.874
 4317SOL    HW113850   5.612   2.423   4.879
 4317SOL    HW213851   5.535   2.307   4.965
 4318SOL     OW13852   6.964   2.390   4.843
 4318SOL    HW113853   6.969   2.312   4.780
 4318SOL    HW213854   7.014   2.369   4.927
 4319SOL     OW13855   1.978   1.472   0.504
 4319SOL    HW113856   2.004   1.470   0.600
 4319SOL    HW213857   1.882   1.446   0.494
 4320SOL     OW13858   4.538   4.900   0.834
 4320SOL    HW113859   4.503   4.982   0.880
 4320SOL    HW213860   4.462   4.844   0.803
 4321SOL     OW13861   0.499   5.494   5.222
 4321SOL    HW113862   0.590   5.494   5.262
 4321SOL    HW213863   0.447   5.415   5.255
 4322SOL     OW13864   6.057   2.959   6.877
 4322SOL    HW113865   6.003   3.016   6.815
 4322SOL    HW213866   6.047   2.993   6.971
 4323SOL     OW13867   4.544   3.910   0.403
 4323SOL    HW113868   4.460   3.857   0.410
 4323SOL    HW213869   4.535   3.976   0.328
 4324SOL     OW13870   6.147   4.388   6.673
 4324SOL    HW113871   6.201   4.304   6.673
 4324SOL    HW213872   6.122   4.410   6.767
 4325SOL     OW13873   2.555   1.328   1.405
 4325SOL    HW113874   2.634   1.275   1.438
 4325SOL    HW213875   2.549   1.319   1.306
 4326SOL     OW13876   4.506   4.682   3.281
 4326SOL    HW113877   4.523   4.764   3.336
 4326SOL    HW213878   4.548   4.693   3.191
 4327SOL     OW13879   5.677   5.970   2.135
 4327SOL    HW113880   5.716   5.890   2.090
 4327SOL    HW213881   5.620   6.021   2.070
 4328SOL     OW13882   4.576   4.068   5.881
 4328SOL    HW113883   4.584   4.017   5.967
 4328SOL    HW213884   4.515   4.146   5.894
 4329SOL     OW13885   4.693   2.428   5.317
 4329SOL    HW113886   4.626   2.497   5.290
 4329SOL    HW213887   4.777   2.473   5.349
 4330SOL     OW13888   1.889   5.822   4.873
 4330SOL    HW113889   1.824   5.755   4.836
 4330SOL    HW213890   1.877   5.909   4.826
 4331SOL     OW13891   6.065   1.416   1.939
 4331SOL    HW113892   6.163   1.407   1.923
 4331SOL    HW213893   6.050   1.455   2.030
 4332SOL     OW13894   4.787   2.938   2.392
 4332SOL    HW113895   4.849   2.888   2.454
 4332SOL    HW213896   4.712   2.878   2.364
 4333SOL     OW13897   4.328   1.211   5.593
 4333SOL    HW113898   4.361   1.154   5.517
 4333SOL    HW213899   4.354   1.168   5.680
 4334SOL     OW13900   1.632   1.953   2.968
 4334SOL    HW113901   1.691   1.902   2.906
 4334SOL    HW213902   1.539   1.915   2.965
 4335SOL     OW13903   2.996   3.900   2.243
 4335SOL    HW113904   2.956   3.851   2.320
 4335SOL    HW213905   2.936   3.975   2.216
 4336SOL     OW13906   3.243   6.704   5.994
 4336SOL    HW113907   3.202   6.687   5.904
 4336SOL    HW213908   3.305   6.782   5.989
 4337SOL     OW13909   1.231   4.435   0.486
 4337SOL    HW113910   1.201   4.500   0.556
 4337SOL    HW213911   1.263   4.351   0.530
 4338SOL     OW13912   6.224   0.047   6.074
 4338SOL    HW113913   6.142   0.054   6.131
 4338SOL    HW213914   6.301   0.018   6.131
 4339SOL     OW13915   4.516   3.261   5.871
 4339SOL    HW113916   4.468   3.195   5.813
 4339SOL    HW213917   4.614   3.240   5.871
 4340SOL     OW13918   6.331   3.301   0.923
 4340SOL    HW113919   6.272   3.220   0.933
 4340SOL    HW213920   6.311   3.365   0.998
 4341SOL     OW13921   1.103   5.440   1.628
 4341SOL    HW113922   1.174   5.379   1.663
 4341SOL    HW213923   1.057   5.397   1.550
 4342SOL     OW13924   5.062   3.866   3.401
 4342SOL    HW113925   4.975   3.831   3.365
 4342SOL    HW213926   5.128   3.874   3.326
 4343SOL     OW13927   2.960   6.304   5.383
 4343SOL    HW113928   2.925   6.212   5.401
 4343SOL    HW213929   2.980   6.314   5.285
 4344SOL     OW13930   0.509   3.989   1.928
 4344SOL    HW113931   0.543   4.020   1.839
 4344SOL    HW213932   0.445   4.056   1.965
 4345SOL     OW13933   3.406   4.566   5.783
 4345SOL    HW113934   3.373   4.509   5.858
 4345SOL    HW213935   3.400   4.515   5.697
 4346SOL     OW13936   1.851   3.945   2.662
 4346SOL    HW113937   1.803   3.875   2.716
 4346SOL    HW213938   1.867   3.910   2.569
 4347SOL     OW13939   5.946   0.079   2.117
 4347SOL    HW113940   6.033   0.029   2.123
 4347SOL    HW213941   5.872   0.020   2.149
 4348SOL     OW13942   0.273   5.568   3.497
 4348SOL    HW113943   0.323   5.651   3.473
 4348SOL    HW213944   0.328   5.513   3.559
 4349SOL     OW13945   5.433   2.129   2.513
 4349SOL    HW113946   5.391   2.146   2.424
 4349SOL    HW213947   5.385   2.054   2.559
 4350SOL     OW13948   3.411   1.977   4.053
 4350SOL    HW113949   3.428   2.017   4.143
 4350SOL    HW213950   3.358   2.041   3.997
 4351SOL     OW13951   1.401   6.153   1.093
 4351SOL    HW113952   1.429   6.244   1.061
 4351SOL    HW213953   1.302   6.152   1.106
 4352SOL     OW13954   6.071   3.767   2.316
 4352SOL    HW113955   6.154   3.822   2.306
 4352SOL    HW213956   6.093   3.671   2.305
 4353SOL     OW13957   4.078   2.810   6.655
 4353SOL    HW113958   4.103   2.800   6.559
 4353SOL    HW213959   4.000   2.872   6.663
 4354SOL     OW13960   1.946   0.601   5.945
 4354SOL    HW113961   1.887   0.674   5.978
 4354SOL    HW213962   1.895   0.515   5.942
 4355SOL     OW13963   2.502   0.876   2.712
 4355SOL    HW113964   2.450   0.944   2.660
 4355SOL    HW213965   2.511   0.907   2.807
 4356SOL     OW13966   5.212   3.611   0.030
 4356SOL    HW113967   5.117   3.606   0.000
 4356SOL    HW213968   5.216   3.616   0.130
 4357SOL     OW13969   6.480   0.923   1.372
 4357SOL    HW113970   6.494   0.934   1.274
 4357SOL    HW213971   6.568   0.908   1.417
 4358SOL     OW13972   0.012   0.617   0.712
 4358SOL    HW113973   0.079   0.580   0.777
 4358SOL    HW213974   0.009   0.716   0.721
 4359SOL     OW13975   1.340   1.111   5.934
 4359SOL    HW113976   1.292   1.174   5.874
 4359SOL    HW213977   1.430   1.148   5.958
 4360SOL     OW13978   0.699   3.504   3.474
 4360SOL    HW113979   0.794   3.535   3.464
 4360SOL    HW213980   0.671   3.512   3.569
 4361SOL     OW13981   2.046   3.589   1.339
 4361SOL    HW113982   2.120   3.523   1.354
 4361SOL    HW213983   2.085   3.679   1.322
 4362SOL     OW13984   6.599   5.170   3.499
 4362SOL    HW113985   6.528   5.236   3.474
 4362SOL    HW213986   6.689   5.207   3.474
 4363SOL     OW13987   5.077   2.215   1.111
 4363SOL    HW113988   4.993   2.182   1.068
 4363SOL    HW213989   5.096   2.160   1.193
 4364SOL     OW13990   3.246   4.027   4.031
 4364SOL    HW113991   3.186   4.060   4.104
 4364SOL    HW213992   3.305   3.954   4.067
 4365SOL     OW13993   2.719   0.800   1.690
 4365SOL    HW113994   2.813   0.815   1.719
 4365SOL    HW213995   2.711   0.813   1.591
 4366SOL     OW13996   6.368   6.974   6.686
 4366SOL    HW113997   6.353   0.014   6.608
 4366SOL    HW213998   6.461   6.937   6.682
 4367SOL     OW13999   2.441   4.425   4.044
 4367SOL    HW114000   2.416   4.387   3.954
 4367SOL    HW214001   2.364   4.414   4.107
 4368SOL     OW14002   3.934   5.864   1.030
 4368SOL    HW114003   3.880   5.920   1.092
 4368SOL    HW214004   3.988   5.923   0.969
 4369SOL     OW14005   4.575   5.314   3.067
 4369SOL    HW114006   4.619   5.401   3.086
 4369SOL    HW214007   4.493   5.305   3.123
 4370SOL     OW14008   3.643   4.780   1.595
 4370SOL    HW114009   3.565   4.790   1.533
 4370SOL    HW214010   3.618   4.721   1.671
 4371SOL     OW14011   1.408   2.052   2.382
 4371SOL    HW114012   1.434   2.035   2.287
 4371SOL    HW214013   1.468   2.000   2.442
 4372SOL     OW14014   2.139   2.470   3.793
 4372SOL    HW114015   2.049   2.426   3.796
 4372SOL    HW214016   2.208   2.404   3.822
 4373SOL     OW14017   5.312   1.443   6.970
 4373SOL    HW114018   5.402   1.406   6.948
 4373SOL    HW214019   5.295   1.525   6.917
 4374SOL     OW14020   1.064   1.545   1.018
 4374SOL    HW114021   1.067   1.645   1.011
 4374SOL    HW214022   1.121   1.515   1.093
 4375SOL     OW14023   4.037   6.512   3.637
 4375SOL    HW114024   3.956   6.552   3.679
 4375SOL    HW214025   4.051   6.551   3.546
 4376SOL     OW14026   6.040   6.929   2.895
 4376SOL    HW114027   6.095   6.944   2.977
 4376SOL    HW214028   6.094   6.952   2.814
 4377SOL     OW14029   5.886   5.398   6.965
 4377SOL    HW114030   5.795   5.436   6.951
 4377SOL    HW214031   5.953   5.453   6.915
 4378SOL     OW14032   2.154   2.882   2.692
 4378SOL    HW114033   2.167   2.970   2.737
 4378SOL    HW214034   2.061   2.875   2.657
 4379SOL     OW14035   2.230   2.236   2.520
 4379SOL    HW114036   2.230   2.336   2.528
 4379SOL    HW214037   2.251   2.196   2.609
 4380SOL     OW14038   1.080   6.606   3.082
 4380SOL    HW114039   1.032   6.594   3.169
 4380SOL    HW214040   1.074   6.702   3.054
 4381SOL     OW14041   2.147   3.845   5.527
 4381SOL    HW114042   2.179   3.802   5.611
 4381SOL    HW214043   2.219   3.903   5.489
 4382SOL     OW14044   5.916   3.572   6.471
 4382SOL    HW114045   6.009   3.604   6.491
 4382SOL    HW214046   5.853   3.649   6.477
 4383SOL     OW14047   0.460   2.145   5.815
 4383SOL    HW114048   0.464   2.180   5.722
 4383SOL    HW214049   0.482   2.047   5.815
 4384SOL     OW14050   5.926   1.497   6.030
 4384SOL    HW114051   5.847   1.538   6.075
 4384SOL    HW214052   5.909   1.400   6.014
 4385SOL     OW14053   6.218   2.811   5.233
 4385SOL    HW114054   6.157   2.871   5.284
 4385SOL    HW214055   6.265   2.749   5.296
 4386SOL     OW14056   2.302   3.577   0.087
 4386SOL    HW114057   2.328   3.512   0.159
 4386SOL    HW214058   2.236   3.535   0.026
 4387SOL     OW14059   6.608   1.236   1.921
 4387SOL    HW114060   6.566   1.311   1.971
 4387SOL    HW214061   6.660   1.178   1.984
 4388SOL     OW14062   5.355   1.744   6.342
 4388SOL    HW114063   5.302   1.669   6.303
 4388SOL    HW214064   5.294   1.812   6.381
 4389SOL     OW14065   0.322   3.901   0.760
 4389SOL    HW114066   0.410   3.883   0.803
 4389SOL    HW214067   0.326   3.988   0.711
 4390SOL     OW14068   3.693   1.045   1.442
 4390SOL    HW114069   3.596   1.021   1.443
 4390SOL    HW214070   3.746   0.966   1.412
 4391SOL     OW14071   1.516   5.473   7.006
 4391SOL    HW114072   1.479   5.414   6.935
 4391SOL    HW214073   1.589   5.426   0.034
 4392SOL     OW14074   6.810   3.316   6.301
 4392SOL    HW114075   6.807   3.285   6.396
 4392SOL    HW214076   6.799   3.237   6.241
 4393SOL     OW14077   5.998   0.952   2.522
 4393SOL    HW114078   5.921   0.895   2.495
 4393SOL    HW214079   6.057   0.970   2.443
 4394SOL     OW14080   5.730   5.711   2.515
 4394SOL    HW114081   5.788   5.765   2.455
 4394SOL    HW214082   5.663   5.661   2.461
 4395SOL     OW14083   3.441   0.114   1.560
 4395SOL    HW114084   3.536   0.082   1.559
 4395SOL    HW214085   3.409   0.121   1.655
 4396SOL     OW14086   1.951   2.530   4.206
 4396SOL    HW114087   1.893   2.569   4.134
 4396SOL    HW214088   1.927   2.434   4.219
 4397SOL     OW14089   0.329   0.930   4.696
 4397SOL    HW114090   0.272   0.871   4.639
 4397SOL    HW214091   0.421   0.936   4.657
 4398SOL     OW14092   0.795   4.888   5.492
 4398SOL    HW114093   0.746   4.973   5.472
 4398SOL    HW214094   0.768   4.818   5.426
 4399SOL     OW14095   1.977   0.954   1.467
 4399SOL    HW114096   1.946   0.898   1.390
 4399SOL    HW214097   1.988   1.049   1.438
 4400SOL     OW14098   3.613   6.655   5.899
 4400SOL    HW114099   3.617   6.605   5.813
 4400SOL    HW214100   3.518   6.679   5.920
 4401SOL     OW14101   5.054   6.465   6.610
 4401SOL    HW114102   4.972   6.505   6.568
 4401SOL    HW214103   5.037   6.447   6.707
 4402SOL     OW14104   3.050   6.960   1.118
 4402SOL    HW114105   2.956   6.944   1.148
 4402SOL    HW214106   3.068   0.038   1.115
 4403SOL     OW14107   0.706   0.260   3.629
 4403SOL    HW114108   0.691   0.232   3.534
 4403SOL    HW214109   0.795   0.304   3.637
 4404SOL     OW14110   0.357   4.393   5.997
 4404SOL    HW114111   0.404   4.354   6.076
 4404SOL    HW214112   0.414   4.381   5.916
 4405SOL     OW14113   1.571   4.621   1.818
 4405SOL    HW114114   1.599   4.661   1.731
 4405SOL    HW214115   1.652   4.586   1.866
 4406SOL     OW14116   0.011   4.115   0.790
 4406SOL    HW114117   0.068   4.198   0.787
 4406SOL    HW214118   0.049   4.051   0.857
 4407SOL     OW14119   6.638   5.170   0.617
 4407SOL    HW114120   6.635   5.268   0.599
 4407SOL    HW214121   6.733   5.141   0.628
 4408SOL     OW14122   2.994   0.861   1.733
 4408SOL    HW114123   3.004   0.933   1.664
 4408SOL    HW214124   3.066   0.871   1.802
 4409SOL     OW14125   5.021   0.252   2.823
 4409SOL    HW114126   5.035   0.209   2.913
 4409SOL    HW214127   4.958   0.329   2.833
 4410SOL     OW14128   1.129   5.212   6.674
 4410SOL    HW114129   1.159   5.256   6.759
 4410SOL    HW214130   1.116   5.282   6.604
 4411SOL     OW14131   3.585   4.134   3.900
 4411SOL    HW114132   3.513   4.085   3.852
 4411SOL    HW214133   3.653   4.166   3.835
 4412SOL     OW14134   4.142   6.502   5.148
 4412SOL    HW114135   4.224   6.464   5.190
 4412SOL    HW214136   4.062   6.448   5.177
 4413SOL     OW14137   6.367   5.407   4.608
 4413SOL    HW114138   6.318   5.445   4.530
 4413SOL    HW214139   6.368   5.307   4.602
 4414SOL     OW14140   3.896   4.285   1.414
 4414SOL    HW114141   3.846   4.367   1.385
 4414SOL    HW214142   3.927   4.296   1.508
 4415SOL     OW14143   4.283   3.487   0.136
 4415SOL    HW114144   4.342   3.408   0.149
 4415SOL    HW214145   4.272   3.505   0.039
 4416SOL     OW14146   2.335   0.811   4.150
 4416SOL    HW114147   2.235   0.818   4.155
 4416SOL    HW214148   2.365   0.843   4.060
 4417SOL     OW14149   5.852   4.339   3.251
 4417SOL    HW114150   5.756   4.341   3.281
 4417SOL    HW214151   5.907   4.287   3.317
 4418SOL     OW14152   5.942   1.795   1.978
 4418SOL    HW114153   5.906   1.879   1.938
 4418SOL    HW214154   6.036   1.811   2.009
 4419SOL     OW14155   5.850   6.188   6.834
 4419SOL    HW114156   5.779   6.196   6.904
 4419SOL    HW214157   5.921   6.125   6.865
 4420SOL     OW14158   5.303   1.775   1.450
 4420SOL    HW114159   5.389   1.792   1.403
 4420SOL    HW214160   5.320   1.724   1.534
 4421SOL     OW14161   1.766   0.518   5.193
 4421SOL    HW114162   1.730   0.445   5.251
 4421SOL    HW214163   1.721   0.517   5.104
 4422SOL     OW14164   3.220   3.959   6.319
 4422SOL    HW114165   3.140   3.904   6.342
 4422SOL    HW214166   3.207   4.002   6.229
 4423SOL     OW14167   1.330   3.082   5.849
 4423SOL    HW114168   1.322   2.986   5.823
 4423SOL    HW214169   1.399   3.127   5.792
 4424SOL     OW14170   5.702   0.878   4.374
 4424SOL    HW114171   5.633   0.810   4.399
 4424SOL    HW214172   5.743   0.853   4.286
 4425SOL     OW14173   3.333   4.951   0.377
 4425SOL    HW114174   3.273   5.031   0.379
 4425SOL    HW214175   3.314   4.893   0.456
 4426SOL     OW14176   0.060   0.681   4.731
 4426SOL    HW114177   0.105   0.725   4.653
 4426SOL    HW214178   0.040   0.586   4.708
 4427SOL     OW14179   0.717   6.230   2.443
 4427SOL    HW114180   0.657   6.170   2.497
 4427SOL    HW214181   0.679   6.240   2.351
 4428SOL     OW14182   3.255   0.104   2.403
 4428SOL    HW114183   3.342   0.078   2.362
 4428SOL    HW214184   3.260   0.198   2.436
 4429SOL     OW14185   2.892   0.086   2.757
 4429SOL    HW114186   2.794   0.108   2.756
 4429SOL    HW214187   2.915   0.031   2.677
 4430SOL     OW14188   5.161   3.801   4.898
 4430SOL    HW114189   5.195   3.894   4.884
 4430SOL    HW214190   5.066   3.795   4.867
 4431SOL     OW14191   1.812   1.167   2.318
 4431SOL    HW114192   1.904   1.194   2.346
 4431SOL    HW214193   1.747   1.240   2.339
 4432SOL     OW14194   3.433   3.226   5.128
 4432SOL    HW114195   3.367   3.196   5.059
 4432SOL    HW214196   3.512   3.165   5.126
 4433SOL     OW14197   4.489   1.090   4.902
 4433SOL    HW114198   4.562   1.134   4.953
 4433SOL    HW214199   4.407   1.148   4.903
 4434SOL     OW14200   4.865   2.042   3.975
 4434SOL    HW114201   4.951   2.024   4.023
 4434SOL    HW214202   4.805   2.098   4.033
 4435SOL     OW14203   4.630   3.407   1.382
 4435SOL    HW114204   4.531   3.412   1.373
 4435SOL    HW214205   4.655   3.321   1.428
 4436SOL     OW14206   4.789   1.022   1.300
 4436SOL    HW114207   4.694   0.996   1.315
 4436SOL    HW214208   4.849   0.963   1.354
 4437SOL     OW14209   5.835   1.779   3.061
 4437SOL    HW114210   5.758   1.833   3.095
 4437SOL    HW214211   5.827   1.767   2.963
 4438SOL     OW14212   5.826   6.805   0.161
 4438SOL    HW114213   5.823   6.889   0.107
 4438SOL    HW214214   5.853   6.729   0.102
 4439SOL     OW14215   0.207   5.365   1.780
 4439SOL    HW114216   0.123   5.321   1.812
 4439SOL    HW214217   0.284   5.305   1.796
 4440SOL     OW14218   2.294   5.256   0.489
 4440SOL    HW114219   2.375   5.312   0.504
 4440SOL    HW214220   2.268   5.210   0.574
 4441SOL     OW14221   6.949   1.653   2.849
 4441SOL    HW114222   6.969   1.744   2.885
 4441SOL    HW214223   6.851   1.633   2.859
 4442SOL     OW14224   2.656   5.718   4.260
 4442SOL    HW114225   2.605   5.674   4.185
 4442SOL    HW214226   2.724   5.781   4.222
 4443SOL     OW14227   0.033   3.300   0.576
 4443SOL    HW114228   0.042   3.219   0.519
 4443SOL    HW214229   6.976   3.289   0.638
 4444SOL     OW14230   3.025   4.489   5.819
 4444SOL    HW114231   3.016   4.588   5.833
 4444SOL    HW214232   2.986   4.465   5.730
 4445SOL     OW14233   0.612   0.315   1.315
 4445SOL    HW114234   0.612   0.318   1.415
 4445SOL    HW214235   0.636   0.405   1.279
 4446SOL     OW14236   5.805   1.290   2.223
 4446SOL    HW114237   5.735   1.323   2.287
 4446SOL    HW214238   5.890   1.339   2.239
 4447SOL     OW14239   5.469   3.625   6.104
 4447SOL    HW114240   5.559   3.604   6.066
 4447SOL    HW214241   5.468   3.604   6.202
 4448SOL     OW14242   2.776   3.873   1.227
 4448SOL    HW114243   2.783   3.825   1.139
 4448SOL    HW214244   2.685   3.913   1.236
 4449SOL     OW14245   5.139   0.498   6.312
 4449SOL    HW114246   5.149   0.523   6.215
 4449SOL    HW214247   5.230   0.494   6.354
 4450SOL     OW14248   3.571   3.027   4.403
 4450SOL    HW114249   3.638   3.098   4.421
 4450SOL    HW214250   3.574   2.959   4.477
 4451SOL     OW14251   5.986   4.587   3.503
 4451SOL    HW114252   5.911   4.633   3.551
 4451SOL    HW214253   6.023   4.515   3.561
 4452SOL     OW14254   5.546   6.656   4.629
 4452SOL    HW114255   5.620   6.707   4.585
 4452SOL    HW214256   5.585   6.587   4.690
 4453SOL     OW14257   0.339   2.580   1.780
 4453SOL    HW114258   0.243   2.556   1.766
 4453SOL    HW214259   0.385   2.506   1.830
 4454SOL     OW14260   1.406   2.244   6.929
 4454SOL    HW114261   1.465   2.296   6.991
 4454SOL    HW214262   1.374   2.161   6.975
 4455SOL     OW14263   4.243   6.067   6.165
 4455SOL    HW114264   4.265   6.089   6.070
 4455SOL    HW214265   4.327   6.065   6.219
 4456SOL     OW14266   3.642   6.151   2.143
 4456SOL    HW114267   3.640   6.105   2.054
 4456SOL    HW214268   3.732   6.136   2.186
 4457SOL     OW14269   4.576   1.831   1.584
 4457SOL    HW114270   4.487   1.871   1.608
 4457SOL    HW214271   4.641   1.904   1.562
 4458SOL     OW14272   1.498   2.505   6.527
 4458SOL    HW114273   1.400   2.484   6.534
 4458SOL    HW214274   1.534   2.466   6.442
 4459SOL     OW14275   4.220   0.690   5.242
 4459SOL    HW114276   4.307   0.739   5.237
 4459SOL    HW214277   4.205   0.658   5.335
 4460SOL     OW14278   3.139   2.739   5.958
 4460SOL    HW114279   3.060   2.773   5.907
 4460SOL    HW214280   3.132   2.768   6.054
 4461SOL     OW14281   0.997   0.720   1.549
 4461SOL    HW114282   0.922   0.662   1.583
 4461SOL    HW214283   1.039   0.768   1.626
 4462SOL     OW14284   5.875   4.661   1.897
 4462SOL    HW114285   5.953   4.600   1.910
 4462SOL    HW214286   5.807   4.643   1.968
 4463SOL     OW14287   5.635   1.945   6.409
 4463SOL    HW114288   5.558   1.887   6.382
 4463SOL    HW214289   5.718   1.890   6.413
 4464SOL     OW14290   6.406   5.054   0.723
 4464SOL    HW114291   6.421   4.992   0.800
 4464SOL    HW214292   6.493   5.071   0.676
 4465SOL     OW14293   2.806   5.705   1.352
 4465SOL    HW114294   2.756   5.779   1.396
 4465SOL    HW214295   2.800   5.622   1.408
 4466SOL     OW14296   1.553   2.053   3.326
 4466SOL    HW114297   1.639   2.013   3.294
 4466SOL    HW214298   1.530   2.017   3.416
 4467SOL     OW14299   1.806   0.020   2.775
 4467SOL    HW114300   1.735   6.988   2.726
 4467SOL    HW214301   1.855   6.978   2.836
 4468SOL     OW14302   2.008   2.430   0.670
 4468SOL    HW114303   2.061   2.359   0.717
 4468SOL    HW214304   1.936   2.388   0.616
 4469SOL     OW14305   4.210   0.968   1.648
 4469SOL    HW114306   4.197   1.067   1.656
 4469SOL    HW214307   4.256   0.933   1.730
 4470SOL     OW14308   6.076   2.493   2.448
 4470SOL    HW114309   6.018   2.554   2.502
 4470SOL    HW214310   6.131   2.548   2.385
 4471SOL     OW14311   0.680   1.836   6.692
 4471SOL    HW114312   0.709   1.922   6.650
 4471SOL    HW214313   0.608   1.854   6.760
 4472SOL     OW14314   1.424   3.238   3.596
 4472SOL    HW114315   1.388   3.245   3.688
 4472SOL    HW214316   1.520   3.209   3.599
 4473SOL     OW14317   6.367   2.912   4.631
 4473SOL    HW114318   6.321   2.858   4.702
 4473SOL    HW214319   6.316   2.997   4.616
 4474SOL     OW14320   3.009   0.716   2.056
 4474SOL    HW114321   3.047   0.797   2.011
 4474SOL    HW214322   3.078   0.677   2.118
 4475SOL     OW14323   1.611   4.049   2.665
 4475SOL    HW114324   1.554   3.972   2.694
 4475SOL    HW214325   1.703   4.016   2.645
 4476SOL     OW14326   3.497   0.128   3.898
 4476SOL    HW114327   3.552   0.144   3.816
 4476SOL    HW214328   3.426   0.198   3.904
 4477SOL     OW14329   1.919   6.580   5.301
 4477SOL    HW114330   2.001   6.526   5.283
 4477SOL    HW214331   1.848   6.558   5.234
 4478SOL     OW14332   3.702   0.427   2.941
 4478SOL    HW114333   3.670   0.485   2.866
 4478SOL    HW214334   3.797   0.400   2.924
 4479SOL     OW14335   0.893   1.076   1.787
 4479SOL    HW114336   0.834   1.023   1.725
 4479SOL    HW214337   0.932   1.154   1.738
 4480SOL     OW14338   1.882   3.858   5.511
 4480SOL    HW114339   1.977   3.886   5.518
 4480SOL    HW214340   1.877   3.759   5.498
 4481SOL     OW14341   2.669   6.386   5.219
 4481SOL    HW114342   2.601   6.314   5.231
 4481SOL    HW214343   2.623   6.475   5.222
 4482SOL     OW14344   1.297   3.739   4.572
 4482SOL    HW114345   1.229   3.783   4.513
 4482SOL    HW214346   1.361   3.687   4.515
 4483SOL     OW14347   5.711   2.863   2.277
 4483SOL    HW114348   5.768   2.782   2.265
 4483SOL    HW214349   5.722   2.924   2.199
 4484SOL     OW14350   2.971   3.065   6.233
 4484SOL    HW114351   3.024   3.136   6.187
 4484SOL    HW214352   3.015   2.976   6.218
 4485SOL     OW14353   5.414   1.687   5.338
 4485SOL    HW114354   5.385   1.626   5.412
 4485SOL    HW214355   5.411   1.782   5.371
 4486SOL     OW14356   5.497   4.576   5.223
 4486SOL    HW114357   5.431   4.509   5.190
 4486SOL    HW214358   5.574   4.581   5.159
 4487SOL     OW14359   1.957   3.066   6.025
 4487SOL    HW114360   1.929   2.971   6.042
 4487SOL    HW214361   2.055   3.070   6.005
 4488SOL     OW14362   6.842   3.221   6.555
 4488SOL    HW114363   6.780   3.149   6.587
 4488SOL    HW214364   6.937   3.194   6.570
 4489SOL     OW14365   5.642   5.830   3.852
 4489SOL    HW114366   5.706   5.759   3.882
 4489SOL    HW214367   5.667   5.861   3.761
 4490SOL     OW14368   6.389   2.708   3.175
 4490SOL    HW114369   6.355   2.663   3.092
 4490SOL    HW214370   6.366   2.805   3.172
 4491SOL     OW14371   6.656   2.508   4.863
 4491SOL    HW114372   6.750   2.496   4.896
 4491SOL    HW214373   6.626   2.426   4.816
 4492SOL     OW14374   5.670   3.794   1.675
 4492SOL    HW114375   5.705   3.708   1.639
 4492SOL    HW214376   5.741   3.864   1.670
 4493SOL     OW14377   4.302   5.289   4.940
 4493SOL    HW114378   4.253   5.208   4.973
 4493SOL    HW214379   4.279   5.367   4.998
 4494SOL     OW14380   6.774   1.129   6.303
 4494SOL    HW114381   6.698   1.089   6.252
 4494SOL    HW214382   6.860   1.097   6.266
 4495SOL     OW14383   3.867   6.505   4.431
 4495SOL    HW114384   3.799   6.528   4.501
 4495SOL    HW214385   3.958   6.527   4.465
 4496SOL     OW14386   5.703   5.803   1.278
 4496SOL    HW114387   5.784   5.746   1.294
 4496SOL    HW214388   5.730   5.899   1.272
 4497SOL     OW14389   4.839   1.238   6.960
 4497SOL    HW114390   4.752   1.287   6.959
 4497SOL    HW214391   4.830   1.153   6.908
 4498SOL     OW14392   0.196   3.819   0.345
 4498SOL    HW114393   0.194   3.726   0.310
 4498SOL    HW214394   0.116   3.835   0.403
 4499SOL     OW14395   6.582   3.462   5.003
 4499SOL    HW114396   6.642   3.407   5.061
 4499SOL    HW214397   6.628   3.483   4.917
 4500SOL     OW14398   3.236   3.386   3.996
 4500SOL    HW114399   3.320   3.338   4.018
 4500SOL    HW214400   3.237   3.477   4.038
 4501SOL     OW14401   0.331   3.362   3.792
 4501SOL    HW114402   0.312   3.425   3.868
 4501SOL    HW214403   0.406   3.301   3.817
 4502SOL     OW14404   0.922   2.987   6.643
 4502SOL    HW114405   1.007   3.009   6.594
 4502SOL    HW214406   0.897   2.892   6.625
 4503SOL     OW14407   3.514   6.956   1.886
 4503SOL    HW114408   3.535   6.946   1.788
 4503SOL    HW214409   3.494   0.032   1.905
 4504SOL     OW14410   6.479   0.482   4.846
 4504SOL    HW114411   6.417   0.528   4.782
 4504SOL    HW214412   6.539   0.551   4.888
 4505SOL     OW14413   5.530   4.947   2.223
 4505SOL    HW114414   5.561   4.855   2.201
 4505SOL    HW214415   5.437   4.960   2.187
 4506SOL     OW14416   4.277   2.261   3.284
 4506SOL    HW114417   4.329   2.329   3.232
 4506SOL    HW214418   4.180   2.275   3.269
 4507SOL     OW14419   5.109   4.514   2.226
 4507SOL    HW114420   5.192   4.471   2.262
 4507SOL    HW214421   5.084   4.471   2.140
 4508SOL     OW14422   0.674   4.677   6.788
 4508SOL    HW114423   0.723   4.611   6.730
 4508SOL    HW214424   0.728   4.760   6.797
 4509SOL     OW14425   4.194   2.187   2.709
 4509SOL    HW114426   4.100   2.165   2.738
 4509SOL    HW214427   4.223   2.271   2.754
 4510SOL     OW14428   4.107   1.193   4.160
 4510SOL    HW114429   4.121   1.237   4.249
 4510SOL    HW214430   4.195   1.174   4.118
 4511SOL     OW14431   6.522   3.185   0.082
 4511SOL    HW114432   6.522   3.131   7.018
 4511SOL    HW214433   6.610   3.173   0.129
 4512SOL     OW14434   3.282   0.999   5.700
 4512SOL    HW114435   3.362   1.059   5.703
 4512SOL    HW214436   3.210   1.042   5.645
 4513SOL     OW14437   5.905   5.224   0.484
 4513SOL    HW114438   5.930   5.136   0.524
 4513SOL    HW214439   5.945   5.231   0.392
 4514SOL     OW14440   4.337   1.096   6.574
 4514SOL    HW114441   4.339   1.089   6.674
 4514SOL    HW214442   4.417   1.149   6.543
 4515SOL     OW14443   6.939   1.399   5.744
 4515SOL    HW114444   6.969   1.379   5.650
 4515SOL    HW214445   6.869   1.333   5.771
 4516SOL     OW14446   1.964   0.359   0.037
 4516SOL    HW114447   1.937   0.454   0.050
 4516SOL    HW214448   2.062   0.349   0.052
 4517SOL     OW14449   4.087   0.580   6.854
 4517SOL    HW114450   4.101   0.560   6.951
 4517SOL    HW214451   4.070   0.678   6.842
 4518SOL     OW14452   6.971   0.574   2.805
 4518SOL    HW114453   0.012   0.622   2.867
 4518SOL    HW214454   6.902   0.638   2.769
 4519SOL     OW14455   6.320   1.010   1.623
 4519SOL    HW114456   6.382   0.981   1.550
 4519SOL    HW214457   6.373   1.034   1.705
 4520SOL     OW14458   4.417   6.461   4.564
 4520SOL    HW114459   4.457   6.395   4.627
 4520SOL    HW214460   4.389   6.543   4.614
 4521SOL     OW14461   6.132   1.776   4.320
 4521SOL    HW114462   6.053   1.780   4.380
 4521SOL    HW214463   6.151   1.680   4.297
 4522SOL     OW14464   6.269   6.365   3.327
 4522SOL    HW114465   6.189   6.398   3.279
 4522SOL    HW214466   6.243   6.331   3.417
 4523SOL     OW14467   0.812   4.069   0.104
 4523SOL    HW114468   0.741   4.003   0.082
 4523SOL    HW214469   0.895   4.048   0.051
 4524SOL     OW14470   6.008   2.437   3.514
 4524SOL    HW114471   6.034   2.344   3.539
 4524SOL    HW214472   5.938   2.434   3.442
 4525SOL     OW14473   5.038   0.959   5.231
 4525SOL    HW114474   5.055   0.907   5.147
 4525SOL    HW214475   4.945   0.940   5.263
 4526SOL     OW14476   6.465   0.879   1.096
 4526SOL    HW114477   6.378   0.860   1.143
 4526SOL    HW214478   6.454   0.861   0.999
 4527SOL     OW14479   5.071   1.150   3.502
 4527SOL    HW114480   5.020   1.184   3.582
 4527SOL    HW214481   5.147   1.212   3.482
 4528SOL     OW14482   5.231   0.076   0.312
 4528SOL    HW114483   5.215   7.004   0.274
 4528SOL    HW214484   5.329   0.094   0.316
 4529SOL     OW14485   3.400   0.849   5.362
 4529SOL    HW114486   3.462   0.770   5.354
 4529SOL    HW214487   3.430   0.907   5.438
 4530SOL     OW14488   1.968   4.583   5.884
 4530SOL    HW114489   1.932   4.506   5.832
 4530SOL    HW214490   2.064   4.596   5.862
 4531SOL     OW14491   0.264   3.216   4.845
 4531SOL    HW114492   0.307   3.256   4.926
 4531SOL    HW214493   0.304   3.126   4.828
 4532SOL     OW14494   6.146   1.990   3.388
 4532SOL    HW114495   6.189   2.063   3.335
 4532SOL    HW214496   6.193   1.981   3.476
 4533SOL     OW14497   0.948   1.253   1.558
 4533SOL    HW114498   0.875   1.318   1.579
 4533SOL    HW214499   0.940   1.224   1.463
 4534SOL     OW14500   4.910   3.971   4.162
 4534SOL    HW114501   4.889   3.903   4.233
 4534SOL    HW214502   4.932   3.924   4.077
 4535SOL     OW14503   4.296   0.937   2.251
 4535SOL    HW114504   4.219   0.895   2.299
 4535SOL    HW214505   4.275   0.941   2.153
 4536SOL     OW14506   3.892   1.481   4.027
 4536SOL    HW114507   3.848   1.501   3.939
 4536SOL    HW214508   3.991   1.489   4.017
 4537SOL     OW14509   4.413   3.125   6.831
 4537SOL    HW114510   4.331   3.137   6.886
 4537SOL    HW214511   4.389   3.088   6.741
 4538SOL     OW14512   1.991   0.336   3.811
 4538SOL    HW114513   1.940   0.406   3.861
 4538SOL    HW214514   2.082   0.370   3.790
 4539SOL     OW14515   2.774   0.561   4.910
 4539SOL    HW114516   2.822   0.528   4.828
 4539SOL    HW214517   2.706   0.629   4.883
 4540SOL     OW14518   3.174   2.532   5.633
 4540SOL    HW114519   3.205   2.490   5.718
 4540SOL    HW214520   3.182   2.466   5.558
 4541SOL     OW14521   5.847   2.054   0.543
 4541SOL    HW114522   5.765   2.029   0.595
 4541SOL    HW214523   5.892   2.132   0.587
 4542SOL     OW14524   6.628   1.322   2.531
 4542SOL    HW114525   6.600   1.249   2.593
 4542SOL    HW214526   6.589   1.409   2.562
 4543SOL     OW14527   4.585   1.683   1.325
 4543SOL    HW114528   4.520   1.608   1.340
 4543SOL    HW214529   4.610   1.724   1.413
 4544SOL     OW14530   3.003   6.268   6.011
 4544SOL    HW114531   2.904   6.276   6.019
 4544SOL    HW214532   3.046   6.351   6.048
 4545SOL     OW14533   5.160   4.106   4.652
 4545SOL    HW114534   5.231   4.077   4.717
 4545SOL    HW214535   5.194   4.185   4.600
 4546SOL     OW14536   1.220   0.847   5.845
 4546SOL    HW114537   1.203   0.766   5.900
 4546SOL    HW214538   1.255   0.920   5.903
 4547SOL     OW14539   5.586   2.467   2.880
 4547SOL    HW114540   5.604   2.535   2.809
 4547SOL    HW214541   5.523   2.398   2.846
 4548SOL     OW14542   0.919   3.756   3.995
 4548SOL    HW114543   0.947   3.783   4.087
 4548SOL    HW214544   0.966   3.814   3.928
 4549SOL     OW14545   6.891   4.345   1.547
 4549SOL    HW114546   6.961   4.410   1.516
 4549SOL    HW214547   6.826   4.392   1.607
 4550SOL     OW14548   0.781   5.271   2.706
 4550SOL    HW114549   0.756   5.227   2.793
 4550SOL    HW214550   0.827   5.204   2.647
 4551SOL     OW14551   0.513   2.097   5.337
 4551SOL    HW114552   0.542   2.133   5.425
 4551SOL    HW214553   0.591   2.053   5.291
 4552SOL     OW14554   6.585   3.553   0.899
 4552SOL    HW114555   6.625   3.604   0.822
 4552SOL    HW214556   6.564   3.460   0.870
 4553SOL     OW14557   3.246   4.389   6.855
 4553SOL    HW114558   3.252   4.480   6.897
 4553SOL    HW214559   3.249   4.319   6.926
 4554SOL     OW14560   5.698   0.348   1.503
 4554SOL    HW114561   5.714   0.259   1.460
 4554SOL    HW214562   5.750   0.418   1.454
 4555SOL     OW14563   2.773   2.097   5.828
 4555SOL    HW114564   2.741   2.177   5.778
 4555SOL    HW214565   2.776   2.018   5.767
 4556SOL     OW14566   4.889   3.383   3.994
 4556SOL    HW114567   4.810   3.440   3.972
 4556SOL    HW214568   4.867   3.325   4.073
 4557SOL     OW14569   4.531   6.018   5.714
 4557SOL    HW114570   4.489   5.956   5.649
 4557SOL    HW214571   4.614   6.058   5.674
 4558SOL     OW14572   0.937   4.737   4.976
 4558SOL    HW114573   0.975   4.703   5.063
 4558SOL    HW214574   0.856   4.684   4.952
 4559SOL     OW14575   0.155   4.205   1.489
 4559SOL    HW114576   0.162   4.288   1.434
 4559SOL    HW214577   0.105   4.225   1.573
 4560SOL     OW14578   5.067   4.110   1.841
 4560SOL    HW114579   5.113   4.068   1.919
 4560SOL    HW214580   5.036   4.202   1.866
 4561SOL     OW14581   1.787   1.877   2.279
 4561SOL    HW114582   1.848   1.798   2.273
 4561SOL    HW214583   1.840   1.962   2.272
 4562SOL     OW14584   2.512   6.141   5.420
 4562SOL    HW114585   2.513   6.070   5.350
 4562SOL    HW214586   2.600   6.144   5.466
 4563SOL     OW14587   0.171   2.975   1.159
 4563SOL    HW114588   0.149   3.012   1.069
 4563SOL    HW214589   0.218   2.887   1.149
 4564SOL     OW14590   6.499   6.018   1.077
 4564SOL    HW114591   6.411   6.006   1.122
 4564SOL    HW214592   6.565   6.055   1.142
 4565SOL     OW14593   0.883   1.302   5.498
 4565SOL    HW114594   0.929   1.273   5.414
 4565SOL    HW214595   0.807   1.362   5.475
 4566SOL     OW14596   6.615   2.596   0.571
 4566SOL    HW114597   6.562   2.540   0.635
 4566SOL    HW214598   6.592   2.692   0.584
 4567SOL     OW14599   6.299   0.309   0.081
 4567SOL    HW114600   6.329   0.387   0.136
 4567SOL    HW214601   6.360   0.231   0.099
 4568SOL     OW14602   2.175   4.254   5.962
 4568SOL    HW114603   2.109   4.329   5.973
 4568SOL    HW214604   2.127   4.167   5.968
 4569SOL     OW14605   1.777   1.994   2.731
 4569SOL    HW114606   1.702   2.060   2.742
 4569SOL    HW214607   1.864   2.043   2.728
 4570SOL     OW14608   0.687   6.746   3.668
 4570SOL    HW114609   0.708   6.718   3.575
 4570SOL    HW214610   0.709   6.843   3.679
 4571SOL     OW14611   4.216   4.314   6.313
 4571SOL    HW114612   4.287   4.356   6.256
 4571SOL    HW214613   4.128   4.321   6.265
 4572SOL     OW14614   1.438   6.940   6.848
 4572SOL    HW114615   1.431   6.861   6.787
 4572SOL    HW214616   1.464   0.001   6.795
 4573SOL     OW14617   6.325   0.164   0.546
 4573SOL    HW114618   6.270   0.244   0.567
 4573SOL    HW214619   6.410   0.167   0.598
 4574SOL     OW14620   6.053   3.904   0.687
 4574SOL    HW114621   6.002   3.885   0.603
 4574SOL    HW214622   6.130   3.964   0.667
 4575SOL     OW14623   6.040   1.033   6.232
 4575SOL    HW114624   6.082   1.123   6.243
 4575SOL    HW214625   5.988   1.010   6.314
 4576SOL     OW14626   2.437   6.481   6.171
 4576SOL    HW114627   2.375   6.500   6.248
 4576SOL    HW214628   2.450   6.382   6.163
 4577SOL     OW14629   1.367   2.312   4.699
 4577SOL    HW114630   1.337   2.227   4.657
 4577SOL    HW214631   1.360   2.386   4.632
 4578SOL     OW14632   0.575   3.220   4.993
 4578SOL    HW114633   0.501   3.241   5.058
 4578SOL    HW214634   0.630   3.144   5.028
 4579SOL     OW14635   4.297   0.796   2.864
 4579SOL    HW114636   4.294   0.756   2.773
 4579SOL    HW214637   4.334   0.730   2.929
 4580SOL     OW14638   5.230   4.509   0.510
 4580SOL    HW114639   5.205   4.581   0.444
 4580SOL    HW214640   5.148   4.470   0.550
 4581SOL     OW14641   2.519   4.542   2.449
 4581SOL    HW114642   2.464   4.602   2.506
 4581SOL    HW214643   2.606   4.523   2.495
 4582SOL     OW14644   5.614   6.745   4.960
 4582SOL    HW114645   5.601   6.653   4.922
 4582SOL    HW214646   5.530   6.774   5.006
 4583SOL     OW14647   2.820   2.186   6.079
 4583SOL    HW114648   2.808   2.193   5.980
 4583SOL    HW214649   2.765   2.256   6.125
 4584SOL     OW14650   0.362   4.943   5.884
 4584SOL    HW114651   0.360   4.933   5.984
 4584SOL    HW214652   0.398   4.860   5.843
 4585SOL     OW14653   2.653   6.250   3.085
 4585SOL    HW114654   2.730   6.198   3.048
 4585SOL    HW214655   2.607   6.196   3.155
 4586SOL     OW14656   3.296   5.605   0.892
 4586SOL    HW114657   3.270   5.690   0.938
 4586SOL    HW214658   3.330   5.625   0.800
 4587SOL     OW14659   3.459   3.828   2.473
 4587SOL    HW114660   3.418   3.774   2.400
 4587SOL    HW214661   3.389   3.883   2.518
 4588SOL     OW14662   3.505   3.468   5.270
 4588SOL    HW114663   3.488   3.391   5.209
 4588SOL    HW214664   3.421   3.490   5.320
 4589SOL     OW14665   6.140   1.221   2.634
 4589SOL    HW114666   6.044   1.239   2.614
 4589SOL    HW214667   6.160   1.245   2.728
 4590SOL     OW14668   5.484   6.077   1.359
 4590SOL    HW114669   5.520   6.100   1.269
 4590SOL    HW214670   5.530   6.133   1.428
 4591SOL     OW14671   0.643   6.153   4.442
 4591SOL    HW114672   0.662   6.153   4.540
 4591SOL    HW214673   0.660   6.061   4.405
 4592SOL     OW14674   2.843   1.863   1.779
 4592SOL    HW114675   2.865   1.787   1.841
 4592SOL    HW214676   2.890   1.945   1.810
 4593SOL     OW14677   4.787   5.168   3.173
 4593SOL    HW114678   4.861   5.230   3.201
 4593SOL    HW214679   4.725   5.216   3.111
 4594SOL     OW14680   2.791   1.419   2.850
 4594SOL    HW114681   2.792   1.466   2.762
 4594SOL    HW214682   2.712   1.358   2.854
 4595SOL     OW14683   4.100   3.099   6.460
 4595SOL    HW114684   4.098   3.079   6.362
 4595SOL    HW214685   4.009   3.084   6.498
 4596SOL     OW14686   5.983   6.819   2.497
 4596SOL    HW114687   6.054   6.816   2.568
 4596SOL    HW214688   6.016   6.771   2.415
 4597SOL     OW14689   4.156   5.245   6.188
 4597SOL    HW114690   4.070   5.294   6.172
 4597SOL    HW214691   4.228   5.311   6.211
 4598SOL     OW14692   2.394   6.241   6.566
 4598SOL    HW114693   2.391   6.311   6.637
 4598SOL    HW214694   2.484   6.242   6.523
 4599SOL     OW14695   0.811   4.965   1.128
 4599SOL    HW114696   0.874   4.910   1.184
 4599SOL    HW214697   0.766   5.032   1.187
 4600SOL     OW14698   1.082   5.246   5.414
 4600SOL    HW114699   0.986   5.266   5.435
 4600SOL    HW214700   1.095   5.243   5.315
 4601SOL     OW14701   2.219   0.609   5.565
 4601SOL    HW114702   2.168   0.546   5.507
 4601SOL    HW214703   2.175   0.699   5.563
 4602SOL     OW14704   1.791   6.177   1.480
 4602SOL    HW114705   1.747   6.117   1.547
 4602SOL    HW214706   1.867   6.225   1.524
 4603SOL     OW14707   3.007   6.522   0.829
 4603SOL    HW114708   3.071   6.533   0.752
 4603SOL    HW214709   2.965   6.610   0.850
 4604SOL     OW14710   4.416   0.638   0.534
 4604SOL    HW114711   4.391   0.561   0.593
 4604SOL    HW214712   4.513   0.658   0.547
 4605SOL     OW14713   2.745   0.495   3.205
 4605SOL    HW114714   2.844   0.483   3.205
 4605SOL    HW214715   2.723   0.591   3.226
 4606SOL     OW14716   0.902   6.371   2.066
 4606SOL    HW114717   0.942   6.328   1.984
 4606SOL    HW214718   0.976   6.407   2.123
 4607SOL     OW14719   1.981   2.457   1.208
 4607SOL    HW114720   2.078   2.447   1.229
 4607SOL    HW214721   1.927   2.416   1.282
 4608SOL     OW14722   0.416   6.304   3.864
 4608SOL    HW114723   0.480   6.315   3.789
 4608SOL    HW214724   0.394   6.394   3.903
 4609SOL     OW14725   4.681   5.359   6.892
 4609SOL    HW114726   4.749   5.423   6.856
 4609SOL    HW214727   4.628   5.405   6.963
 4610SOL     OW14728   5.159   3.211   0.937
 4610SOL    HW114729   5.163   3.112   0.925
 4610SOL    HW214730   5.152   3.255   0.848
 4611SOL     OW14731   0.583   5.653   5.952
 4611SOL    HW114732   0.554   5.563   5.918
 4611SOL    HW214733   0.643   5.640   6.031
 4612SOL     OW14734   1.733   5.393   0.116
 4612SOL    HW114735   1.829   5.367   0.101
 4612SOL    HW214736   1.730   5.466   0.185
 4613SOL     OW14737   2.713   6.258   1.914
 4613SOL    HW114738   2.664   6.217   1.837
 4613SOL    HW214739   2.733   6.353   1.893
 4614SOL     OW14740   6.821   3.175   4.672
 4614SOL    HW114741   6.755   3.102   4.688
 4614SOL    HW214742   6.913   3.136   4.670
 4615SOL     OW14743   2.165   6.997   0.289
 4615SOL    HW114744   2.227   0.018   0.222
 4615SOL    HW214745   2.072   6.997   0.252
 4616SOL     OW14746   6.587   0.481   5.292
 4616SOL    HW114747   6.495   0.454   5.264
 4616SOL    HW214748   6.652   0.457   5.220
 4617SOL     OW14749   0.689   2.587   2.555
 4617SOL    HW114750   0.700   2.617   2.460
 4617SOL    HW214751   0.700   2.665   2.616
 4618SOL     OW14752   2.192   2.965   4.810
 4618SOL    HW114753   2.234   2.957   4.900
 4618SOL    HW214754   2.128   3.041   4.810
 4619SOL     OW14755   3.501   6.627   3.500
 4619SOL    HW114756   3.578   6.584   3.548
 4619SOL    HW214757   3.509   6.608   3.402
 4620SOL     OW14758   2.275   4.417   0.276
 4620SOL    HW114759   2.246   4.343   0.215
 4620SOL    HW214760   2.211   4.494   0.268
 4621SOL     OW14761   5.499   1.110   2.204
 4621SOL    HW114762   5.443   1.189   2.228
 4621SOL    HW214763   5.571   1.138   2.140
 4622SOL     OW14764   2.599   4.709   0.414
 4622SOL    HW114765   2.670   4.758   0.364
 4622SOL    HW214766   2.636   4.674   0.500
 4623SOL     OW14767   5.412   6.598   0.280
 4623SOL    HW114768   5.443   6.642   0.196
 4623SOL    HW214769   5.316   6.571   0.271
 4624SOL     OW14770   4.229   6.845   3.511
 4624SOL    HW114771   4.269   6.858   3.602
 4624SOL    HW214772   4.141   6.891   3.506
 4625SOL     OW14773   2.287   4.294   0.884
 4625SOL    HW114774   2.238   4.308   0.970
 4625SOL    HW214775   2.325   4.382   0.853
 4626SOL     OW14776   4.849   4.511   2.367
 4626SOL    HW114777   4.765   4.489   2.317
 4626SOL    HW214778   4.928   4.503   2.305
 4627SOL     OW14779   2.493   4.489   4.358
 4627SOL    HW114780   2.403   4.496   4.315
 4627SOL    HW214781   2.534   4.400   4.336
 4628SOL     OW14782   6.264   4.403   3.815
 4628SOL    HW114783   6.329   4.356   3.875
 4628SOL    HW214784   6.194   4.448   3.871
 4629SOL     OW14785   2.222   5.308   5.300
 4629SOL    HW114786   2.147   5.372   5.284
 4629SOL    HW214787   2.195   5.216   5.271
 4630SOL     OW14788   3.261   5.278   2.732
 4630SOL    HW114789   3.337   5.255   2.793
 4630SOL    HW214790   3.199   5.342   2.777
 4631SOL     OW14791   1.976   6.293   2.728
 4631SOL    HW114792   1.884   6.254   2.718
 4631SOL    HW214793   2.034   6.260   2.654
 4632SOL     OW14794   3.555   4.920   2.396
 4632SOL    HW114795   3.526   4.887   2.486
 4632SOL    HW214796   3.552   5.020   2.395
 4633SOL     OW14797   5.219   0.243   4.689
 4633SOL    HW114798   5.272   0.181   4.631
 4633SOL    HW214799   5.215   0.206   4.782
 4634SOL     OW14800   3.009   5.184   5.770
 4634SOL    HW114801   2.972   5.105   5.720
 4634SOL    HW214802   3.086   5.154   5.826
 4635SOL     OW14803   5.064   3.886   1.449
 4635SOL    HW114804   5.014   3.834   1.518
 4635SOL    HW214805   5.074   3.831   1.366
 4636SOL     OW14806   1.935   4.404   6.807
 4636SOL    HW114807   1.962   4.497   6.833
 4636SOL    HW214808   1.839   4.403   6.781
 4637SOL     OW14809   1.058   6.738   0.750
 4637SOL    HW114810   1.055   6.764   0.653
 4637SOL    HW214811   0.983   6.675   0.770
 4638SOL     OW14812   4.829   4.008   6.642
 4638SOL    HW114813   4.926   4.028   6.624
 4638SOL    HW214814   4.784   3.985   6.556
 4639SOL     OW14815   2.799   4.366   5.958
 4639SOL    HW114816   2.755   4.424   6.027
 4639SOL    HW214817   2.866   4.420   5.908
 4640SOL     OW14818   5.060   4.003   3.636
 4640SOL    HW114819   5.107   3.971   3.554
 4640SOL    HW214820   5.030   3.925   3.691
 4641SOL     OW14821   2.468   6.889   4.989
 4641SOL    HW114822   2.369   6.880   4.997
 4641SOL    HW214823   2.497   6.977   5.026
 4642SOL     OW14824   0.795   5.491   4.192
 4642SOL    HW114825   0.871   5.549   4.162
 4642SOL    HW214826   0.812   5.459   4.285
 4643SOL     OW14827   6.256   2.752   0.828
 4643SOL    HW114828   6.292   2.700   0.906
 4643SOL    HW214829   6.234   2.689   0.753
 4644SOL     OW14830   6.630   5.105   5.075
 4644SOL    HW114831   6.531   5.113   5.086
 4644SOL    HW214832   6.671   5.197   5.077
 4645SOL     OW14833   0.834   0.816   4.518
 4645SOL    HW114834   0.901   0.847   4.450
 4645SOL    HW214835   0.880   0.803   4.606
 4646SOL     OW14836   1.852   5.920   3.976
 4646SOL    HW114837   1.815   5.831   4.004
 4646SOL    HW214838   1.857   5.925   3.877
 4647SOL     OW14839   1.447   0.660   3.149
 4647SOL    HW114840   1.512   0.584   3.155
 4647SOL    HW214841   1.450   0.698   3.057
 4648SOL     OW14842   3.880   0.902   2.542
 4648SOL    HW114843   3.823   0.929   2.464
 4648SOL    HW214844   3.976   0.915   2.518
 4649SOL     OW14845   5.519   0.001   0.051
 4649SOL    HW114846   5.612   6.995   0.023
 4649SOL    HW214847   5.525   0.063   0.129
 4650SOL     OW14848   4.564   5.218   2.782
 4650SOL    HW114849   4.537   5.199   2.876
 4650SOL    HW214850   4.511   5.295   2.747
 4651SOL     OW14851   6.843   2.793   0.631
 4651SOL    HW114852   6.835   2.744   0.717
 4651SOL    HW214853   6.877   2.731   0.560
 4652SOL     OW14854   6.609   6.823   4.029
 4652SOL    HW114855   6.628   6.726   4.046
 4652SOL    HW214856   6.658   6.853   3.948
 4653SOL     OW14857   5.470   4.772   0.960
 4653SOL    HW114858   5.400   4.705   0.936
 4653SOL    HW214859   5.503   4.818   0.877
 4654SOL     OW14860   1.059   0.076   0.475
 4654SOL    HW114861   1.072   0.076   0.376
 4654SOL    HW214862   1.022   0.164   0.504
 4655SOL     OW14863   4.757   4.105   1.187
 4655SOL    HW114864   4.828   4.042   1.155
 4655SOL    HW214865   4.685   4.053   1.234
 4656SOL     OW14866   1.181   0.764   2.521
 4656SOL    HW114867   1.234   0.679   2.519
 4656SOL    HW214868   1.234   0.835   2.568
 4657SOL     OW14869   4.963   6.337   1.682
 4657SOL    HW114870   5.037   6.376   1.628
 4657SOL    HW214871   4.930   6.253   1.639
 4658SOL     OW14872   3.673   1.303   2.826
 4658SOL    HW114873   3.670   1.267   2.919
 4658SOL    HW214874   3.644   1.399   2.826
 4659SOL     OW14875   3.155   4.951   5.000
 4659SOL    HW114876   3.138   5.041   5.041
 4659SOL    HW214877   3.109   4.881   5.054
 4660SOL     OW14878   1.125   4.202   6.045
 4660SOL    HW114879   1.071   4.117   6.049
 4660SOL    HW214880   1.111   4.247   5.957
 4661SOL     OW14881   2.925   4.420   5.558
 4661SOL    HW114882   2.881   4.333   5.535
 4661SOL    HW214883   2.898   4.490   5.491
 4662SOL     OW14884   3.151   0.192   5.598
 4662SOL    HW114885   3.112   0.200   5.690
 4662SOL    HW214886   3.084   0.149   5.537
 4663SOL     OW14887   0.240   2.311   2.500
 4663SOL    HW114888   0.329   2.347   2.474
 4663SOL    HW214889   0.171   2.383   2.489
 4664SOL     OW14890   1.565   1.384   0.668
 4664SOL    HW114891   1.539   1.478   0.690
 4664SOL    HW214892   1.623   1.384   0.587
 4665SOL     OW14893   3.430   6.863   6.701
 4665SOL    HW114894   3.365   6.929   6.665
 4665SOL    HW214895   3.382   6.778   6.724
 4666SOL     OW14896   1.366   2.487   0.559
 4666SOL    HW114897   1.371   2.472   0.461
 4666SOL    HW214898   1.374   2.585   0.579
 4667SOL     OW14899   6.272   3.469   2.313
 4667SOL    HW114900   6.240   3.379   2.283
 4667SOL    HW214901   6.339   3.457   2.387
 4668SOL     OW14902   4.280   2.026   2.484
 4668SOL    HW114903   4.197   2.048   2.433
 4668SOL    HW214904   4.266   2.044   2.581
 4669SOL     OW14905   5.033   5.973   6.312
 4669SOL    HW114906   5.051   6.030   6.231
 4669SOL    HW214907   4.938   5.944   6.311
 4670SOL     OW14908   2.862   2.333   5.391
 4670SOL    HW114909   2.951   2.307   5.427
 4670SOL    HW214910   2.864   2.430   5.367
 4671SOL     OW14911   6.427   2.726   1.218
 4671SOL    HW114912   6.374   2.659   1.268
 4671SOL    HW214913   6.422   2.706   1.120
 4672SOL     OW14914   2.561   4.541   5.930
 4672SOL    HW114915   2.608   4.598   5.997
 4672SOL    HW214916   2.610   4.545   5.843
 4673SOL     OW14917   5.325   0.161   1.833
 4673SOL    HW114918   5.264   0.240   1.832
 4673SOL    HW214919   5.361   0.147   1.925
 4674SOL     OW14920   5.337   0.142   6.152
 4674SOL    HW114921   5.408   0.080   6.184
 4674SOL    HW214922   5.301   0.194   6.229
 4675SOL     OW14923   1.768   1.474   6.019
 4675SOL    HW114924   1.832   1.433   6.084
 4675SOL    HW214925   1.816   1.543   5.964
 4676SOL     OW14926   0.076   6.514   3.814
 4676SOL    HW114927   0.170   6.494   3.842
 4676SOL    HW214928   0.018   6.520   3.895
 4677SOL     OW14929   2.318   1.515   6.571
 4677SOL    HW114930   2.275   1.603   6.589
 4677SOL    HW214931   2.322   1.500   6.472
 4678SOL     OW14932   1.940   4.510   3.185
 4678SOL    HW114933   1.867   4.481   3.123
 4678SOL    HW214934   1.916   4.598   3.226
 4679SOL     OW14935   4.093   0.771   0.420
 4679SOL    HW114936   4.077   0.673   0.405
 4679SOL    HW214937   4.166   0.802   0.360
 4680SOL     OW14938   3.103   1.591   0.574
 4680SOL    HW114939   3.148   1.504   0.596
 4680SOL    HW214940   3.017   1.573   0.528
 4681SOL     OW14941   5.363   5.223   6.804
 4681SOL    HW114942   5.440   5.170   6.770
 4681SOL    HW214943   5.307   5.167   6.865
 4682SOL     OW14944   4.519   4.353   5.587
 4682SOL    HW114945   4.617   4.366   5.572
 4682SOL    HW214946   4.485   4.283   5.524
 4683SOL     OW14947   4.253   5.035   2.462
 4683SOL    HW114948   4.193   4.994   2.530
 4683SOL    HW214949   4.240   5.134   2.461
 4684SOL     OW14950   5.987   0.747   5.048
 4684SOL    HW114951   6.016   0.812   5.119
 4684SOL    HW214952   5.997   0.790   4.958
 4685SOL     OW14953   0.883   6.088   5.557
 4685SOL    HW114954   0.945   6.122   5.627
 4685SOL    HW214955   0.791   6.079   5.595
 4686SOL     OW14956   3.771   5.291   0.391
 4686SOL    HW114957   3.857   5.267   0.434
 4686SOL    HW214958   3.749   5.225   0.320
 4687SOL     OW14959   6.382   3.940   4.759
 4687SOL    HW114960   6.358   3.927   4.856
 4687SOL    HW214961   6.349   3.862   4.706
 4688SOL     OW14962   5.830   4.371   4.493
 4688SOL    HW114963   5.770   4.410   4.423
 4688SOL    HW214964   5.843   4.274   4.475
 4689SOL     OW14965   5.188   1.004   0.175
 4689SOL    HW114966   5.144   1.087   0.141
 4689SOL    HW214967   5.179   0.931   0.106
 4690SOL     OW14968   1.109   0.516   6.757
 4690SOL    HW114969   1.134   0.444   6.822
 4690SOL    HW214970   1.073   0.595   6.808
 4691SOL     OW14971   2.513   5.282   1.895
 4691SOL    HW114972   2.419   5.314   1.907
 4691SOL    HW214973   2.553   5.263   1.985
 4692SOL     OW14974   5.784   5.797   1.940
 4692SOL    HW114975   5.772   5.716   1.882
 4692SOL    HW214976   5.828   5.870   1.888
 4693SOL     OW14977   1.035   1.803   3.445
 4693SOL    HW114978   1.084   1.890   3.446
 4693SOL    HW214979   0.987   1.791   3.532
 4694SOL     OW14980   1.706   0.746   6.971
 4694SOL    HW114981   1.713   0.830   0.005
 4694SOL    HW214982   1.614   0.708   6.979
 4695SOL     OW14983   1.521   3.223   1.818
 4695SOL    HW114984   1.575   3.140   1.832
 4695SOL    HW214985   1.466   3.240   1.900
 4696SOL     OW14986   0.404   4.337   0.222
 4696SOL    HW114987   0.340   4.394   0.274
 4696SOL    HW214988   0.391   4.241   0.247
 4697SOL     OW14989   1.800   2.860   0.440
 4697SOL    HW114990   1.855   2.831   0.518
 4697SOL    HW214991   1.730   2.925   0.471
 4698SOL     OW14992   4.538   5.034   2.557
 4698SOL    HW114993   4.444   5.038   2.524
 4698SOL    HW214994   4.549   5.093   2.636
 4699SOL     OW14995   1.678   6.714   2.411
 4699SOL    HW114996   1.632   6.641   2.463
 4699SOL    HW214997   1.741   6.674   2.345
 4700SOL     OW14998   6.946   1.095   3.201
 4700SOL    HW114999   6.951   1.194   3.189
 4700SOL    HW215000   6.969   1.050   3.115
 4701SOL     OW15001   2.422   2.664   0.370
 4701SOL    HW115002   2.434   2.642   0.467
 4701SOL    HW215003   2.325   2.662   0.347
 4702SOL     OW15004   4.528   5.105   0.042
 4702SOL    HW115005   4.512   5.134   6.968
 4702SOL    HW215006   4.620   5.135   0.071
 4703SOL     OW15007   0.649   1.754   1.746
 4703SOL    HW115008   0.556   1.728   1.717
 4703SOL    HW215009   0.702   1.780   1.666
 4704SOL     OW15010   0.630   6.338   0.222
 4704SOL    HW115011   0.550   6.313   0.276
 4704SOL    HW215012   0.647   6.267   0.154
 4705SOL     OW15013   3.388   3.126   2.241
 4705SOL    HW115014   3.332   3.048   2.214
 4705SOL    HW215015   3.446   3.098   2.319
 4706SOL     OW15016   3.068   0.355   0.180
 4706SOL    HW115017   3.140   0.323   0.118
 4706SOL    HW215018   3.006   0.280   0.200
 4707SOL     OW15019   1.781   6.863   1.133
 4707SOL    HW115020   1.835   6.946   1.148
 4707SOL    HW215021   1.818   6.812   1.055
 4708SOL     OW15022   1.113   1.543   6.201
 4708SOL    HW115023   1.117   1.585   6.292
 4708SOL    HW215024   1.106   1.444   6.211
 4709SOL     OW15025   4.692   5.440   5.682
 4709SOL    HW115026   4.646   5.529   5.673
 4709SOL    HW215027   4.777   5.442   5.629
 4710SOL     OW15028   4.879   0.108   5.704
 4710SOL    HW115029   4.962   0.162   5.722
 4710SOL    HW215030   4.886   0.020   5.751
 4711SOL     OW15031   5.977   1.318   1.480
 4711SOL    HW115032   6.073   1.315   1.509
 4711SOL    HW215033   5.919   1.283   1.553
 4712SOL     OW15034   2.728   4.266   0.266
 4712SOL    HW115035   2.796   4.240   0.334
 4712SOL    HW215036   2.766   4.334   0.204
 4713SOL     OW15037   3.625   4.227   0.732
 4713SOL    HW115038   3.671   4.257   0.816
 4713SOL    HW215039   3.605   4.129   0.738
 4714SOL     OW15040   0.627   1.994   6.389
 4714SOL    HW115041   0.527   1.988   6.387
 4714SOL    HW215042   0.667   1.908   6.357
 4715SOL     OW15043   5.616   2.614   2.658
 4715SOL    HW115044   5.540   2.588   2.599
 4715SOL    HW215045   5.623   2.714   2.664
 4716SOL     OW15046   4.577   5.907   6.484
 4716SOL    HW115047   4.502   5.840   6.485
 4716SOL    HW215048   4.657   5.868   6.530
 4717SOL     OW15049   6.991   0.119   3.924
 4717SOL    HW115050   6.900   0.159   3.913
 4717SOL    HW215051   0.036   0.169   3.867
 4718SOL     OW15052   5.433   2.625   1.810
 4718SOL    HW115053   5.506   2.690   1.833
 4718SOL    HW215054   5.359   2.674   1.763
 4719SOL     OW15055   4.618   3.293   1.703
 4719SOL    HW115056   4.625   3.201   1.740
 4719SOL    HW215057   4.523   3.313   1.679
 4720SOL     OW15058   2.117   5.619   6.134
 4720SOL    HW115059   2.204   5.666   6.147
 4720SOL    HW215060   2.133   5.521   6.123
 4721SOL     OW15061   6.477   2.371   2.259
 4721SOL    HW115062   6.390   2.326   2.281
 4721SOL    HW215063   6.503   2.431   2.335
 4722SOL     OW15064   0.872   5.744   6.500
 4722SOL    HW115065   0.850   5.829   6.548
 4722SOL    HW215066   0.803   5.726   6.429
 4723SOL     OW15067   2.407   3.721   5.962
 4723SOL    HW115068   2.489   3.676   6.000
 4723SOL    HW215069   2.384   3.800   6.018
 4724SOL     OW15070   5.965   6.670   2.780
 4724SOL    HW115071   5.985   6.755   2.827
 4724SOL    HW215072   5.951   6.688   2.683
 4725SOL     OW15073   6.168   5.157   1.730
 4725SOL    HW115074   6.202   5.203   1.812
 4725SOL    HW215075   6.088   5.206   1.695
 4726SOL     OW15076   1.318   2.218   5.703
 4726SOL    HW115077   1.292   2.299   5.757
 4726SOL    HW215078   1.386   2.244   5.635
 4727SOL     OW15079   1.059   5.926   0.979
 4727SOL    HW115080   1.118   5.847   0.995
 4727SOL    HW215081   1.106   5.991   0.919
 4728SOL     OW15082   6.008   1.120   1.876
 4728SOL    HW115083   6.030   1.214   1.903
 4728SOL    HW215084   6.078   1.058   1.911
 4729SOL     OW15085   3.457   1.941   0.773
 4729SOL    HW115086   3.453   1.841   0.764
 4729SOL    HW215087   3.506   1.965   0.857
 4730SOL     OW15088   3.351   6.497   5.625
 4730SOL    HW115089   3.439   6.454   5.644
 4730SOL    HW215090   3.289   6.431   5.584
 4731SOL     OW15091   4.133   0.287   6.852
 4731SOL    HW115092   4.077   0.246   6.923
 4731SOL    HW215093   4.111   0.384   6.843
 4732SOL     OW15094   1.343   3.480   5.992
 4732SOL    HW115095   1.403   3.470   6.071
 4732SOL    HW215096   1.397   3.494   5.910
 4733SOL     OW15097   1.193   3.833   3.843
 4733SOL    HW115098   1.236   3.921   3.861
 4733SOL    HW215099   1.251   3.759   3.877
 4734SOL     OW15100   3.789   2.639   0.180
 4734SOL    HW115101   3.829   2.594   0.100
 4734SOL    HW215102   3.777   2.572   0.253
 4735SOL     OW15103   6.221   5.748   3.802
 4735SOL    HW115104   6.157   5.825   3.801
 4735SOL    HW215105   6.213   5.699   3.889
 4736SOL     OW15106   6.915   1.795   5.245
 4736SOL    HW115107   6.893   1.776   5.340
 4736SOL    HW215108   6.977   1.725   5.210
 4737SOL     OW15109   2.676   4.740   1.803
 4737SOL    HW115110   2.686   4.734   1.703
 4737SOL    HW215111   2.750   4.688   1.847
 4738SOL     OW15112   0.327   6.226   2.890
 4738SOL    HW115113   0.390   6.278   2.833
 4738SOL    HW215114   0.355   6.130   2.892
 4739SOL     OW15115   3.804   0.756   3.440
 4739SOL    HW115116   3.831   0.715   3.527
 4739SOL    HW215117   3.829   0.853   3.441
 4740SOL     OW15118   0.745   1.417   1.459
 4740SOL    HW115119   0.704   1.346   1.402
 4740SOL    HW215120   0.673   1.474   1.498
 4741SOL     OW15121   4.636   3.385   0.740
 4741SOL    HW115122   4.572   3.420   0.672
 4741SOL    HW215123   4.713   3.447   0.749
 4742SOL     OW15124   3.313   0.041   6.555
 4742SOL    HW115125   3.337   0.106   6.627
 4742SOL    HW215126   3.279   0.091   6.475
 4743SOL     OW15127   1.589   3.407   3.952
 4743SOL    HW115128   1.623   3.470   4.021
 4743SOL    HW215129   1.644   3.323   3.953
 4744SOL     OW15130   1.802   4.056   0.414
 4744SOL    HW115131   1.743   4.003   0.353
 4744SOL    HW215132   1.761   4.145   0.432
 4745SOL     OW15133   3.041   4.442   6.689
 4745SOL    HW115134   3.092   4.413   6.769
 4745SOL    HW215135   3.076   4.530   6.657
 4746SOL     OW15136   5.048   5.697   2.623
 4746SOL    HW115137   4.992   5.625   2.663
 4746SOL    HW215138   5.091   5.750   2.696
 4747SOL     OW15139   1.715   3.632   6.857
 4747SOL    HW115140   1.637   3.633   6.919
 4747SOL    HW215141   1.698   3.565   6.784
 4748SOL     OW15142   1.862   5.108   0.787
 4748SOL    HW115143   1.870   5.187   0.847
 4748SOL    HW215144   1.766   5.084   0.776
 4749SOL     OW15145   2.134   6.499   5.743
 4749SOL    HW115146   2.149   6.454   5.831
 4749SOL    HW215147   2.197   6.462   5.675
 4750SOL     OW15148   0.488   4.152   3.950
 4750SOL    HW115149   0.444   4.145   3.860
 4750SOL    HW215150   0.489   4.248   3.979
 4751SOL     OW15151   4.131   1.635   1.995
 4751SOL    HW115152   4.048   1.656   1.944
 4751SOL    HW215153   4.107   1.601   2.086
 4752SOL     OW15154   4.339   0.798   6.258
 4752SOL    HW115155   4.358   0.702   6.235
 4752SOL    HW215156   4.374   0.818   6.349
 4753SOL     OW15157   5.420   0.304   4.082
 4753SOL    HW115158   5.410   0.353   4.169
 4753SOL    HW215159   5.330   0.282   4.045
 4754SOL     OW15160   5.782   6.372   4.522
 4754SOL    HW115161   5.846   6.330   4.458
 4754SOL    HW215162   5.693   6.381   4.479
 4755SOL     OW15163   2.466   0.262   0.680
 4755SOL    HW115164   2.545   0.206   0.703
 4755SOL    HW215165   2.494   0.358   0.673
 4756SOL     OW15166   5.487   2.963   0.296
 4756SOL    HW115167   5.531   2.973   0.385
 4756SOL    HW215168   5.435   2.878   0.293
 4757SOL     OW15169   2.530   1.623   1.040
 4757SOL    HW115170   2.581   1.697   0.997
 4757SOL    HW215171   2.446   1.660   1.080
 4758SOL     OW15172   2.032   6.370   3.945
 4758SOL    HW115173   1.937   6.367   3.912
 4758SOL    HW215174   2.036   6.422   4.030
 4759SOL     OW15175   6.395   4.464   5.405
 4759SOL    HW115176   6.298   4.438   5.401
 4759SOL    HW215177   6.416   4.500   5.496
 4760SOL     OW15178   2.223   2.213   0.622
 4760SOL    HW115179   2.145   2.159   0.653
 4760SOL    HW215180   2.230   2.210   0.522
 4761SOL     OW15181   1.002   5.646   0.292
 4761SOL    HW115182   0.914   5.670   0.334
 4761SOL    HW215183   1.011   5.694   0.205
 4762SOL     OW15184   0.634   6.301   2.188
 4762SOL    HW115185   0.595   6.213   2.163
 4762SOL    HW215186   0.685   6.339   2.111
 4763SOL     OW15187   5.856   6.884   3.232
 4763SOL    HW115188   5.885   6.788   3.227
 4763SOL    HW215189   5.772   6.896   3.179
 4764SOL     OW15190   4.888   3.815   4.376
 4764SOL    HW115191   4.975   3.861   4.394
 4764SOL    HW215192   4.826   3.831   4.453
 4765SOL     OW15193   4.913   1.136   4.134
 4765SOL    HW115194   4.992   1.175   4.182
 4765SOL    HW215195   4.867   1.208   4.083
 4766SOL     OW15196   5.318   6.067   4.705
 4766SOL    HW115197   5.347   5.977   4.674
 4766SOL    HW215198   5.230   6.060   4.752
 4767SOL     OW15199   3.307   5.659   5.400
 4767SOL    HW115200   3.395   5.672   5.354
 4767SOL    HW215201   3.309   5.704   5.489
 4768SOL     OW15202   4.790   2.287   6.121
 4768SOL    HW115203   4.872   2.246   6.160
 4768SOL    HW215204   4.709   2.243   6.161
 4769SOL     OW15205   4.772   4.335   6.970
 4769SOL    HW115206   4.774   4.240   7.003
 4769SOL    HW215207   4.791   4.397   0.026
 4770SOL     OW15208   0.482   0.965   4.323
 4770SOL    HW115209   0.464   0.883   4.269
 4770SOL    HW215210   0.558   1.016   4.281
 4771SOL     OW15211   2.759   6.121   5.546
 4771SOL    HW115212   2.807   6.131   5.633
 4771SOL    HW215213   2.790   6.039   5.499
 4772SOL     OW15214   3.873   4.850   1.180
 4772SOL    HW115215   3.938   4.906   1.230
 4772SOL    HW215216   3.903   4.755   1.182
 4773SOL     OW15217   6.813   5.296   3.400
 4773SOL    HW115218   6.835   5.352   3.480
 4773SOL    HW215219   6.897   5.276   3.349
 4774SOL     OW15220   1.292   3.384   1.273
 4774SOL    HW115221   1.329   3.338   1.192
 4774SOL    HW215222   1.349   3.362   1.353
 4775SOL     OW15223   5.248   6.731   2.658
 4775SOL    HW115224   5.275   6.635   2.653
 4775SOL    HW215225   5.179   6.743   2.729
 4776SOL     OW15226   1.339   6.572   5.383
 4776SOL    HW115227   1.263   6.521   5.344
 4776SOL    HW215228   1.403   6.510   5.428
 4777SOL     OW15229   2.324   5.248   1.195
 4777SOL    HW115230   2.392   5.230   1.124
 4777SOL    HW215231   2.249   5.303   1.157
 4778SOL     OW15232   6.163   2.685   3.734
 4778SOL    HW115233   6.205   2.763   3.779
 4778SOL    HW215234   6.124   2.713   3.647
 4779SOL     OW15235   6.193   5.520   2.357
 4779SOL    HW115236   6.161   5.613   2.374
 4779SOL    HW215237   6.132   5.475   2.292
 4780SOL     OW15238   6.077   1.261   0.023
 4780SOL    HW115239   6.002   1.195   0.022
 4780SOL    HW215240   6.101   1.284   0.117
 4781SOL     OW15241   2.434   5.684   2.440
 4781SOL    HW115242   2.455   5.648   2.531
 4781SOL    HW215243   2.410   5.781   2.447
 4782SOL     OW15244   5.692   5.535   0.257
 4782SOL    HW115245   5.725   5.441   0.269
 4782SOL    HW215246   5.604   5.545   0.303
 4783SOL     OW15247   5.009   3.982   0.150
 4783SOL    HW115248   4.917   4.016   0.128
 4783SOL    HW215249   5.065   3.983   0.067
 4784SOL     OW15250   6.488   3.907   6.924
 4784SOL    HW115251   6.560   3.876   6.862
 4784SOL    HW215252   6.400   3.874   6.891
 4785SOL     OW15253   1.448   6.567   2.902
 4785SOL    HW115254   1.520   6.515   2.856
 4785SOL    HW215255   1.403   6.627   2.835
 4786SOL     OW15256   2.287   1.104   0.316
 4786SOL    HW115257   2.218   1.164   0.356
 4786SOL    HW215258   2.252   1.063   0.232
 4787SOL     OW15259   4.036   1.546   2.243
 4787SOL    HW115260   3.983   1.470   2.282
 4787SOL    HW215261   4.126   1.549   2.287
 4788SOL     OW15262   6.903   6.156   6.279
 4788SOL    HW115263   6.890   6.174   6.181
 4788SOL    HW215264   6.998   6.173   6.304
 4789SOL     OW15265   4.474   1.954   1.266
 4789SOL    HW115266   4.500   1.866   1.307
 4789SOL    HW215267   4.441   2.015   1.337
 4790SOL     OW15268   6.201   2.232   5.204
 4790SOL    HW115269   6.213   2.286   5.121
 4790SOL    HW215270   6.123   2.269   5.256
 4791SOL     OW15271   0.083   2.590   1.500
 4791SOL    HW115272   0.031   2.675   1.494
 4791SOL    HW215273   0.166   2.598   1.446
 4792SOL     OW15274   2.097   4.586   3.557
 4792SOL    HW115275   2.030   4.512   3.546
 4792SOL    HW215276   2.189   4.547   3.562
 4793SOL     OW15277   1.986   2.877   5.122
 4793SOL    HW115278   1.969   2.956   5.063
 4793SOL    HW215279   2.077   2.884   5.163
 4794SOL     OW15280   4.495   0.327   4.559
 4794SOL    HW115281   4.488   0.235   4.520
 4794SOL    HW215282   4.504   0.394   4.485
 4795SOL     OW15283   6.177   2.097   4.126
 4795SOL    HW115284   6.251   2.043   4.085
 4795SOL    HW215285   6.179   2.087   4.225
 4796SOL     OW15286   4.858   1.743   5.010
 4796SOL    HW115287   4.887   1.733   5.105
 4796SOL    HW215288   4.913   1.683   4.952
 4797SOL     OW15289   1.225   6.197   5.399
 4797SOL    HW115290   1.128   6.201   5.376
 4797SOL    HW215291   1.279   6.190   5.315
 4798SOL     OW15292   0.590   3.547   5.080
 4798SOL    HW115293   0.548   3.635   5.063
 4798SOL    HW215294   0.536   3.475   5.037
 4799SOL     OW15295   4.840   1.585   0.406
 4799SOL    HW115296   4.836   1.684   0.412
 4799SOL    HW215297   4.769   1.545   0.463
 4800SOL     OW15298   2.888   2.656   6.408
 4800SOL    HW115299   2.833   2.587   6.456
 4800SOL    HW215300   2.852   2.670   6.316
 4801SOL     OW15301   2.930   2.324   6.692
 4801SOL    HW115302   2.885   2.265   6.760
 4801SOL    HW215303   2.996   2.383   6.737
 4802SOL     OW15304   1.277   7.010   1.842
 4802SOL    HW115305   1.208   6.958   1.893
 4802SOL    HW215306   1.250   7.016   1.746
 4803SOL     OW15307   0.004   5.104   0.305
 4803SOL    HW115308   6.925   5.113   0.293
 4803SOL    HW215309   0.035   5.171   0.372
 4804SOL     OW15310   6.139   6.113   1.426
 4804SOL    HW115311   6.041   6.122   1.411
 4804SOL    HW215312   6.170   6.180   1.493
 4805SOL     OW15313   6.237   2.219   2.357
 4805SOL    HW115314   6.178   2.158   2.409
 4805SOL    HW215315   6.182   2.290   2.313
 4806SOL     OW15316   1.087   4.595   2.850
 4806SOL    HW115317   1.059   4.514   2.901
 4806SOL    HW215318   1.006   4.643   2.817
 4807SOL     OW15319   0.961   4.649   0.437
 4807SOL    HW115320   0.876   4.656   0.490
 4807SOL    HW215321   0.977   4.734   0.389
 4808SOL     OW15322   5.115   4.702   0.129
 4808SOL    HW115323   5.123   4.603   0.142
 4808SOL    HW215324   5.134   4.749   0.216
 4809SOL     OW15325   3.568   4.614   0.483
 4809SOL    HW115326   3.525   4.699   0.513
 4809SOL    HW215327   3.527   4.537   0.532
 4810SOL     OW15328   1.691   5.099   2.728
 4810SOL    HW115329   1.767   5.059   2.676
 4810SOL    HW215330   1.720   5.112   2.823
 4811SOL     OW15331   2.632   4.119   1.660
 4811SOL    HW115332   2.722   4.148   1.626
 4811SOL    HW215333   2.631   4.020   1.670
 4812SOL     OW15334   6.957   5.435   2.131
 4812SOL    HW115335   6.981   5.344   2.097
 4812SOL    HW215336   6.891   5.426   2.205
 4813SOL     OW15337   6.192   2.134   6.672
 4813SOL    HW115338   6.180   2.182   6.585
 4813SOL    HW215339   6.284   2.149   6.706
 4814SOL     OW15340   0.215   3.257   1.225
 4814SOL    HW115341   0.228   3.160   1.202
 4814SOL    HW215342   0.246   3.273   1.318
 4815SOL     OW15343   5.373   3.679   2.622
 4815SOL    HW115344   5.282   3.675   2.580
 4815SOL    HW215345   5.425   3.755   2.584
 4816SOL     OW15346   2.328   4.818   1.101
 4816SOL    HW115347   2.337   4.881   1.179
 4816SOL    HW215348   2.255   4.753   1.118
 4817SOL     OW15349   1.407   1.452   6.442
 4817SOL    HW115350   1.439   1.535   6.397
 4817SOL    HW215351   1.390   1.381   6.374
 4818SOL     OW15352   0.770   6.407   4.395
 4818SOL    HW115353   0.730   6.319   4.419
 4818SOL    HW215354   0.775   6.464   4.477
 4819SOL     OW15355   1.572   2.075   0.390
 4819SOL    HW115356   1.506   2.001   0.376
 4819SOL    HW215357   1.654   2.057   0.336
 4820SOL     OW15358   6.277   2.501   2.643
 4820SOL    HW115359   6.222   2.455   2.574
 4820SOL    HW215360   6.221   2.520   2.723
 4821SOL     OW15361   0.756   6.566   2.265
 4821SOL    HW115362   0.734   6.469   2.268
 4821SOL    HW215363   0.676   6.620   2.294
 4822SOL     OW15364   2.109   3.622   4.692
 4822SOL    HW115365   2.075   3.537   4.732
 4822SOL    HW215366   2.101   3.695   4.760
 4823SOL     OW15367   1.887   0.670   4.280
 4823SOL    HW115368   1.952   0.595   4.288
 4823SOL    HW215369   1.799   0.643   4.321
 4824SOL     OW15370   5.146   1.730   4.701
 4824SOL    HW115371   5.179   1.643   4.738
 4824SOL    HW215372   5.053   1.719   4.667
 4825SOL     OW15373   1.677   2.823   3.935
 4825SOL    HW115374   1.703   2.909   3.978
 4825SOL    HW215375   1.661   2.754   4.005
 4826SOL     OW15376   6.242   1.342   6.669
 4826SOL    HW115377   6.147   1.367   6.650
 4826SOL    HW215378   6.302   1.416   6.641
 4827SOL     OW15379   6.265   1.769   0.854
 4827SOL    HW115380   6.189   1.830   0.875
 4827SOL    HW215381   6.261   1.742   0.758
 4828SOL     OW15382   5.519   3.089   0.626
 4828SOL    HW115383   5.425   3.055   0.624
 4828SOL    HW215384   5.583   3.012   0.623
 4829SOL     OW15385   4.056   6.785   6.433
 4829SOL    HW115386   4.150   6.792   6.467
 4829SOL    HW215387   3.993   6.780   6.510
 4830SOL     OW15388   4.235   6.676   3.744
 4830SOL    HW115389   4.155   6.625   3.714
 4830SOL    HW215390   4.317   6.620   3.736
 4831SOL     OW15391   7.008   4.567   6.189
 4831SOL    HW115392   6.944   4.587   6.263
 4831SOL    HW215393   0.082   4.578   6.222
 4832SOL     OW15394   3.512   3.341   4.494
 4832SOL    HW115395   3.451   3.307   4.423
 4832SOL    HW215396   3.603   3.302   4.480
 4833SOL     OW15397   4.646   2.329   3.042
 4833SOL    HW115398   4.666   2.288   2.952
 4833SOL    HW215399   4.717   2.303   3.107
 4834SOL     OW15400   3.929   6.425   0.996
 4834SOL    HW115401   3.887   6.516   0.994
 4834SOL    HW215402   3.858   6.357   1.016
 4835SOL     OW15403   6.210   1.660   6.689
 4835SOL    HW115404   6.165   1.612   6.763
 4835SOL    HW215405   6.309   1.644   6.694
 4836SOL     OW15406   5.518   3.033   4.399
 4836SOL    HW115407   5.544   3.116   4.350
 4836SOL    HW215408   5.486   2.964   4.334
 4837SOL     OW15409   6.430   3.802   2.689
 4837SOL    HW115410   6.394   3.713   2.720
 4837SOL    HW215411   6.470   3.850   2.767
 4838SOL     OW15412   1.045   4.924   0.225
 4838SOL    HW115413   1.043   5.023   0.232
 4838SOL    HW215414   0.974   4.893   0.161
 4839SOL     OW15415   1.815   3.520   6.582
 4839SOL    HW115416   1.884   3.449   6.595
 4839SOL    HW215417   1.852   3.593   6.525
 4840SOL     OW15418   0.016   4.703   5.912
 4840SOL    HW115419   0.043   4.797   5.890
 4840SOL    HW215420   0.004   4.694   6.010
 4841SOL     OW15421   2.627   5.666   1.721
 4841SOL    HW115422   2.688   5.597   1.759
 4841SOL    HW215423   2.644   5.675   1.623
 4842SOL     OW15424   3.440   5.205   2.952
 4842SOL    HW115425   3.469   5.113   2.928
 4842SOL    HW215426   3.487   5.234   3.035
 4843SOL     OW15427   6.857   2.923   1.131
 4843SOL    HW115428   6.760   2.905   1.111
 4843SOL    HW215429   6.867   3.020   1.156
 4844SOL     OW15430   0.939   3.058   6.310
 4844SOL    HW115431   0.955   3.156   6.300
 4844SOL    HW215432   1.025   3.012   6.330
 4845SOL     OW15433   5.291   5.377   6.455
 4845SOL    HW115434   5.283   5.278   6.466
 4845SOL    HW215435   5.341   5.415   6.533
 4846SOL     OW15436   0.133   3.113   3.884
 4846SOL    HW115437   0.108   3.106   3.787
 4846SOL    HW215438   0.081   3.046   3.937
 4847SOL     OW15439   2.695   0.892   6.577
 4847SOL    HW115440   2.716   0.799   6.607
 4847SOL    HW215441   2.640   0.889   6.493
 4848SOL     OW15442   1.438   0.805   4.233
 4848SOL    HW115443   1.451   0.904   4.222
 4848SOL    HW215444   1.452   0.760   4.145
 4849SOL     OW15445   1.177   5.369   6.920
 4849SOL    HW115446   1.129   5.346   7.005
 4849SOL    HW215447   1.183   5.469   6.912
 4850SOL     OW15448   3.551   1.476   1.936
 4850SOL    HW115449   3.570   1.411   2.009
 4850SOL    HW215450   3.559   1.569   1.971
 4851SOL     OW15451   4.255   6.962   5.623
 4851SOL    HW115452   4.352   6.966   5.647
 4851SOL    HW215453   4.239   6.883   5.564
 4852SOL     OW15454   1.396   5.746   5.231
 4852SOL    HW115455   1.323   5.788   5.177
 4852SOL    HW215456   1.381   5.647   5.236
 4853SOL     OW15457   3.379   0.945   3.350
 4853SOL    HW115458   3.447   0.929   3.278
 4853SOL    HW215459   3.335   1.034   3.335
 4854SOL     OW15460   4.252   6.782   1.324
 4854SOL    HW115461   4.213   6.784   1.232
 4854SOL    HW215462   4.352   6.787   1.317
 4855SOL     OW15463   6.059   2.775   3.989
 4855SOL    HW115464   6.061   2.709   3.914
 4855SOL    HW215465   5.964   2.787   4.020
 4856SOL     OW15466   1.260   3.215   3.032
 4856SOL    HW115467   1.309   3.230   3.118
 4856SOL    HW215468   1.274   3.120   3.003
 4857SOL     OW15469   3.124   1.877   4.745
 4857SOL    HW115470   3.135   1.865   4.844
 4857SOL    HW215471   3.115   1.974   4.724
 4858SOL     OW15472   0.675   0.232   4.391
 4858SOL    HW115473   0.709   0.272   4.477
 4858SOL    HW215474   0.601   0.168   4.411
 4859SOL     OW15475   0.996   6.899   4.263
 4859SOL    HW115476   1.095   6.893   4.267
 4859SOL    HW215477   0.960   6.817   4.219
 4860SOL     OW15478   4.250   4.374   1.719
 4860SOL    HW115479   4.307   4.306   1.765
 4860SOL    HW215480   4.277   4.382   1.623
 4861SOL     OW15481   6.112   5.378   6.787
 4861SOL    HW115482   6.131   5.282   6.805
 4861SOL    HW215483   6.152   5.404   6.698
 4862SOL     OW15484   2.309   4.555   5.056
 4862SOL    HW115485   2.286   4.458   5.044
 4862SOL    HW215486   2.401   4.563   5.094
 4863SOL     OW15487   5.360   3.974   0.901
 4863SOL    HW115488   5.401   4.065   0.901
 4863SOL    HW215489   5.329   3.951   0.993
 4864SOL     OW15490   4.416   1.366   2.554
 4864SOL    HW115491   4.352   1.402   2.621
 4864SOL    HW215492   4.500   1.337   2.600
 4865SOL     OW15493   2.190   6.684   4.285
 4865SOL    HW115494   2.231   6.755   4.228
 4865SOL    HW215495   2.251   6.664   4.362
 4866SOL     OW15496   6.377   4.207   1.585
 4866SOL    HW115497   6.381   4.306   1.576
 4866SOL    HW215498   6.304   4.171   1.528
 4867SOL     OW15499   4.030   5.599   2.112
 4867SOL    HW115500   3.966   5.577   2.039
 4867SOL    HW215501   4.105   5.532   2.113
 4868SOL     OW15502   6.571   5.109   2.354
 4868SOL    HW115503   6.540   5.046   2.426
 4868SOL    HW215504   6.514   5.191   2.355
 4869SOL     OW15505   0.986   1.083   1.307
 4869SOL    HW115506   1.022   1.116   1.220
 4869SOL    HW215507   0.901   1.032   1.291
 4870SOL     OW15508   6.995   5.945   1.776
 4870SOL    HW115509   0.011   6.028   1.732
 4870SOL    HW215510   0.051   5.892   1.814
 4871SOL     OW15511   0.900   0.744   4.778
 4871SOL    HW115512   0.960   0.770   4.854
 4871SOL    HW215513   0.813   0.711   4.814
 4872SOL     OW15514   6.624   6.135   3.911
 4872SOL    HW115515   6.615   6.215   3.970
 4872SOL    HW215516   6.609   6.161   3.816
 4873SOL     OW15517   6.569   5.007   3.706
 4873SOL    HW115518   6.562   4.916   3.666
 4873SOL    HW215519   6.573   5.075   3.634
 4874SOL     OW15520   6.088   2.878   3.097
 4874SOL    HW115521   6.085   2.904   3.000
 4874SOL    HW215522   6.172   2.913   3.138
 4875SOL     OW15523   5.883   2.719   1.405
 4875SOL    HW115524   5.922   2.743   1.316
 4875SOL    HW215525   5.914   2.628   1.432
 4876SOL     OW15526   5.537   1.598   4.397
 4876SOL    HW115527   5.589   1.527   4.445
 4876SOL    HW215528   5.516   1.568   4.304
 4877SOL     OW15529   1.196   1.973   6.452
 4877SOL    HW115530   1.152   2.025   6.525
 4877SOL    HW215531   1.282   2.017   6.426
 4878SOL     OW15532   6.536   0.386   3.157
 4878SOL    HW115533   6.608   0.418   3.095
 4878SOL    HW215534   6.569   0.309   3.211
 4879SOL     OW15535   4.366   5.250   3.260
 4879SOL    HW115536   4.388   5.323   3.324
 4879SOL    HW215537   4.367   5.162   3.308
 4880SOL     OW15538   5.374   3.368   0.169
 4880SOL    HW115539   5.362   3.467   0.169
 4880SOL    HW215540   5.372   3.334   0.263
 4881SOL     OW15541   1.626   1.069   6.464
 4881SOL    HW115542   1.646   0.999   6.395
 4881SOL    HW215543   1.677   1.049   6.547
 4882SOL     OW15544   4.615   1.601   4.784
 4882SOL    HW115545   4.558   1.677   4.754
 4882SOL    HW215546   4.567   1.547   4.853
 4883SOL     OW15547   5.494   4.147   1.755
 4883SOL    HW115548   5.479   4.069   1.815
 4883SOL    HW215549   5.420   4.152   1.687
 4884SOL     OW15550   3.149   0.242   1.434
 4884SOL    HW115551   3.141   0.185   1.516
 4884SOL    HW215552   3.244   0.270   1.423
 4885SOL     OW15553   1.193   5.476   2.971
 4885SOL    HW115554   1.175   5.490   3.068
 4885SOL    HW215555   1.287   5.503   2.950
 4886SOL     OW15556   0.401   5.861   1.057
 4886SOL    HW115557   0.309   5.828   1.035
 4886SOL    HW215558   0.461   5.782   1.069
 4887SOL     OW15559   0.667   0.623   2.981
 4887SOL    HW115560   0.577   0.639   3.022
 4887SOL    HW215561   0.701   0.709   2.942
 4888SOL     OW15562   2.116   6.587   4.682
 4888SOL    HW115563   2.208   6.595   4.718
 4888SOL    HW215564   2.103   6.496   4.641
 4889SOL     OW15565   6.401   1.159   6.329
 4889SOL    HW115566   6.312   1.205   6.330
 4889SOL    HW215567   6.468   1.215   6.378
 4890SOL     OW15568   1.059   2.119   6.650
 4890SOL    HW115569   0.968   2.143   6.618
 4890SOL    HW215570   1.054   2.091   6.746
 4891SOL     OW15571   1.701   4.747   6.993
 4891SOL    HW115572   1.699   4.648   7.005
 4891SOL    HW215573   1.623   4.775   6.936
 4892SOL     OW15574   3.585   6.407   2.043
 4892SOL    HW115575   3.500   6.413   1.990
 4892SOL    HW215576   3.586   6.321   2.094
 4893SOL     OW15577   6.975   3.995   1.747
 4893SOL    HW115578   0.037   3.939   1.746
 4893SOL    HW215579   6.953   4.025   1.654
 4894SOL     OW15580   2.161   1.729   2.757
 4894SOL    HW115581   2.213   1.758   2.676
 4894SOL    HW215582   2.221   1.679   2.819
 4895SOL     OW15583   0.623   5.162   3.475
 4895SOL    HW115584   0.632   5.064   3.492
 4895SOL    HW215585   0.687   5.212   3.533
 4896SOL     OW15586   1.717   5.497   2.041
 4896SOL    HW115587   1.625   5.473   2.073
 4896SOL    HW215588   1.718   5.592   2.011
 4897SOL     OW15589   2.822   4.220   6.372
 4897SOL    HW115590   2.837   4.255   6.465
 4897SOL    HW215591   2.731   4.247   6.341
 4898SOL     OW15592   3.377   1.090   4.065
 4898SOL    HW115593   3.468   1.071   4.029
 4898SOL    HW215594   3.308   1.058   3.999
 4899SOL     OW15595   6.413   5.348   3.000
 4899SOL    HW115596   6.314   5.334   2.995
 4899SOL    HW215597   6.455   5.319   2.914
 4900SOL     OW15598   2.109   5.726   4.713
 4900SOL    HW115599   2.035   5.760   4.771
 4900SOL    HW215600   2.161   5.657   4.763
 4901SOL     OW15601   3.174   6.458   6.134
 4901SOL    HW115602   3.204   6.541   6.086
 4901SOL    HW215603   3.247   6.391   6.133
 4902SOL     OW15604   2.861   1.772   4.703
 4902SOL    HW115605   2.860   1.740   4.608
 4902SOL    HW215606   2.954   1.796   4.729
 4903SOL     OW15607   3.371   6.012   6.571
 4903SOL    HW115608   3.273   5.993   6.571
 4903SOL    HW215609   3.387   6.108   6.546
 4904SOL     OW15610   1.706   0.424   4.223
 4904SOL    HW115611   1.763   0.363   4.277
 4904SOL    HW215612   1.695   0.511   4.271
 4905SOL     OW15613   3.618   0.525   2.463
 4905SOL    HW115614   3.560   0.489   2.390
 4905SOL    HW215615   3.579   0.611   2.498
 4906SOL     OW15616   4.704   2.195   5.779
 4906SOL    HW115617   4.789   2.146   5.761
 4906SOL    HW215618   4.722   2.270   5.843
 4907SOL     OW15619   4.306   5.655   1.090
 4907SOL    HW115620   4.276   5.732   1.146
 4907SOL    HW215621   4.282   5.671   0.995
 4908SOL     OW15622   5.162   4.938   6.653
 4908SOL    HW115623   5.102   5.011   6.620
 4908SOL    HW215624   5.142   4.919   6.749
 4909SOL     OW15625   6.663   0.399   4.239
 4909SOL    HW115626   6.564   0.394   4.226
 4909SOL    HW215627   6.692   0.325   4.300
 4910SOL     OW15628   5.028   6.625   4.596
 4910SOL    HW115629   5.120   6.661   4.613
 4910SOL    HW215630   5.033   6.527   4.581
 4911SOL     OW15631   0.998   3.500   4.063
 4911SOL    HW115632   0.965   3.579   4.012
 4911SOL    HW215633   1.087   3.522   4.105
 4912SOL     OW15634   5.596   1.423   0.079
 4912SOL    HW115635   5.657   1.480   0.024
 4912SOL    HW215636   5.618   1.327   0.063
 4913SOL     OW15637   3.811   3.300   4.879
 4913SOL    HW115638   3.800   3.301   4.978
 4913SOL    HW215639   3.845   3.211   4.849
 4914SOL     OW15640   3.597   6.888   5.308
 4914SOL    HW115641   3.697   6.881   5.302
 4914SOL    HW215642   3.555   6.819   5.250
 4915SOL     OW15643   4.323   0.526   4.742
 4915SOL    HW115644   4.325   0.442   4.796
 4915SOL    HW215645   4.393   0.521   4.670
 4916SOL     OW15646   1.451   0.696   3.803
 4916SOL    HW115647   1.366   0.649   3.825
 4916SOL    HW215648   1.519   0.678   3.875
 4917SOL     OW15649   2.052   5.004   1.489
 4917SOL    HW115650   2.016   4.950   1.565
 4917SOL    HW215651   2.122   4.952   1.441
 4918SOL     OW15652   3.907   6.027   2.222
 4918SOL    HW115653   3.988   6.038   2.165
 4918SOL    HW215654   3.903   5.934   2.259
 4919SOL     OW15655   3.001   1.925   6.755
 4919SOL    HW115656   3.062   1.994   6.794
 4919SOL    HW215657   3.039   1.834   6.770
 4920SOL     OW15658   5.543   0.741   4.800
 4920SOL    HW115659   5.558   0.840   4.799
 4920SOL    HW215660   5.589   0.701   4.879
 4921SOL     OW15661   1.663   4.301   0.492
 4921SOL    HW115662   1.648   4.372   0.423
 4921SOL    HW215663   1.666   4.342   0.583
 4922SOL     OW15664   2.056   2.774   4.642
 4922SOL    HW115665   2.101   2.850   4.687
 4922SOL    HW215666   2.078   2.689   4.690
 4923SOL     OW15667   3.892   1.886   1.115
 4923SOL    HW115668   3.881   1.918   1.021
 4923SOL    HW215669   3.980   1.839   1.123
 4924SOL     OW15670   2.298   1.808   5.556
 4924SOL    HW115671   2.236   1.798   5.634
 4924SOL    HW215672   2.381   1.855   5.585
 4925SOL     OW15673   5.776   6.602   1.987
 4925SOL    HW115674   5.699   6.639   2.040
 4925SOL    HW215675   5.810   6.673   1.925
 4926SOL     OW15676   5.360   1.884   0.365
 4926SOL    HW115677   5.401   1.879   0.274
 4926SOL    HW215678   5.326   1.976   0.382
 4927SOL     OW15679   3.979   3.563   4.219
 4927SOL    HW115680   4.024   3.487   4.267
 4927SOL    HW215681   4.019   3.650   4.249
 4928SOL     OW15682   1.289   0.329   6.605
 4928SOL    HW115683   1.236   0.359   6.526
 4928SOL    HW215684   1.232   0.273   6.664
 4929SOL     OW15685   0.839   4.966   4.432
 4929SOL    HW115686   0.864   4.955   4.528
 4929SOL    HW215687   0.912   5.013   4.383
 4930SOL     OW15688   4.436   0.656   3.066
 4930SOL    HW115689   4.408   0.561   3.083
 4930SOL    HW215690   4.445   0.704   3.153
 4931SOL     OW15691   0.090   0.252   0.728
 4931SOL    HW115692   0.004   0.200   0.730
 4931SOL    HW215693   0.105   0.294   0.818
 4932SOL     OW15694   2.560   3.561   1.718
 4932SOL    HW115695   2.652   3.530   1.742
 4932SOL    HW215696   2.493   3.516   1.777
 4933SOL     OW15697   1.900   0.255   3.523
 4933SOL    HW115698   1.809   0.224   3.551
 4933SOL    HW215699   1.937   0.316   3.592
 4934SOL     OW15700   2.495   5.340   2.923
 4934SOL    HW115701   2.430   5.264   2.927
 4934SOL    HW215702   2.586   5.307   2.947
 4935SOL     OW15703   1.374   1.246   6.268
 4935SOL    HW115704   1.396   1.149   6.279
 4935SOL    HW215705   1.276   1.256   6.253
 4936SOL     OW15706   2.379   5.045   1.718
 4936SOL    HW115707   2.427   5.123   1.676
 4936SOL    HW215708   2.438   4.965   1.717
 4937SOL     OW15709   6.823   2.579   6.138
 4937SOL    HW115710   6.750   2.644   6.117
 4937SOL    HW215711   6.864   2.545   6.053
 4938SOL     OW15712   2.452   6.210   6.158
 4938SOL    HW115713   2.506   6.134   6.122
 4938SOL    HW215714   2.373   6.173   6.209
 4939SOL     OW15715   6.502   2.098   4.262
 4939SOL    HW115716   6.488   2.148   4.177
 4939SOL    HW215717   6.562   2.019   4.245
 4940SOL     OW15718   0.870   1.091   5.059
 4940SOL    HW115719   0.826   1.070   5.147
 4940SOL    HW215720   0.800   1.097   4.988
 4941SOL     OW15721   4.901   2.791   5.195
 4941SOL    HW115722   4.842   2.769   5.117
 4941SOL    HW215723   4.997   2.782   5.167
 4942SOL     OW15724   5.671   3.337   5.944
 4942SOL    HW115725   5.636   3.348   5.851
 4942SOL    HW215726   5.702   3.426   5.978
 4943SOL     OW15727   4.934   3.579   5.968
 4943SOL    HW115728   4.852   3.564   6.023
 4943SOL    HW215729   4.956   3.496   5.918
 4944SOL     OW15730   2.552   4.377   1.649
 4944SOL    HW115731   2.598   4.288   1.645
 4944SOL    HW215732   2.604   4.444   1.597
 4945SOL     OW15733   1.306   0.158   4.228
 4945SOL    HW115734   1.209   0.151   4.202
 4945SOL    HW215735   1.314   0.145   4.327
 4946SOL     OW15736   1.506   5.138   6.987
 4946SOL    HW115737   1.499   5.047   6.945
 4946SOL    HW215738   1.434   5.197   6.950
 4947SOL     OW15739   2.125   0.690   0.662
 4947SOL    HW115740   2.046   0.651   0.614
 4947SOL    HW215741   2.112   0.679   0.761
 4948SOL     OW15742   1.540   3.077   2.678
 4948SOL    HW115743   1.557   3.058   2.581
 4948SOL    HW215744   1.534   3.176   2.692
 4949SOL     OW15745   5.959   4.891   5.686
 4949SOL    HW115746   6.030   4.893   5.615
 4949SOL    HW215747   5.935   4.797   5.708
 4950SOL     OW15748   1.901   5.176   4.471
 4950SOL    HW115749   1.984   5.123   4.452
 4950SOL    HW215750   1.821   5.116   4.462
 4951SOL     OW15751   5.791   0.883   4.630
 4951SOL    HW115752   5.770   0.874   4.533
 4951SOL    HW215753   5.711   0.856   4.684
 4952SOL     OW15754   0.512   0.770   6.054
 4952SOL    HW115755   0.442   0.747   6.122
 4952SOL    HW215756   0.527   0.692   5.994
 4953SOL     OW15757   1.639   6.911   3.198
 4953SOL    HW115758   1.731   6.873   3.210
 4953SOL    HW215759   1.614   6.963   3.280
 4954SOL     OW15760   3.759   3.200   0.181
 4954SOL    HW115761   3.835   3.241   0.131
 4954SOL    HW215762   3.730   3.261   0.255
 4955SOL     OW15763   3.314   6.629   6.806
 4955SOL    HW115764   3.230   6.619   6.859
 4955SOL    HW215765   3.388   6.579   6.851
 4956SOL     OW15766   2.229   6.605   4.990
 4956SOL    HW115767   2.317   6.582   4.948
 4956SOL    HW215768   2.209   6.540   5.063
 4957SOL     OW15769   5.227   2.436   2.121
 4957SOL    HW115770   5.247   2.404   2.029
 4957SOL    HW215771   5.129   2.458   2.127
 4958SOL     OW15772   0.455   5.127   5.696
 4958SOL    HW115773   0.391   5.127   5.618
 4958SOL    HW215774   0.430   5.054   5.760
 4959SOL     OW15775   6.136   1.834   0.186
 4959SOL    HW115776   6.189   1.903   0.138
 4959SOL    HW215777   6.198   1.762   0.220
 4960SOL     OW15778   3.536   4.911   3.528
 4960SOL    HW115779   3.577   4.890   3.439
 4960SOL    HW215780   3.442   4.878   3.530
 4961SOL     OW15781   4.273   0.909   5.982
 4961SOL    HW115782   4.297   0.863   6.067
 4961SOL    HW215783   4.283   1.008   5.993
 4962SOL     OW15784   5.657   2.430   0.090
 4962SOL    HW115785   5.581   2.371   0.063
 4962SOL    HW215786   5.692   2.478   0.009
 4963SOL     OW15787   6.826   6.030   0.666
 4963SOL    HW115788   6.759   6.012   0.738
 4963SOL    HW215789   6.881   5.948   0.650
 4964SOL     OW15790   2.746   0.825   3.919
 4964SOL    HW115791   2.784   0.733   3.919
 4964SOL    HW215792   2.761   0.867   3.829
 4965SOL     OW15793   0.377   1.298   2.109
 4965SOL    HW115794   0.393   1.343   2.197
 4965SOL    HW215795   0.459   1.249   2.081
 4966SOL     OW15796   2.539   6.624   5.351
 4966SOL    HW115797   2.477   6.693   5.386
 4966SOL    HW215798   2.614   6.609   5.417
 4967SOL     OW15799   4.244   4.947   5.375
 4967SOL    HW115800   4.236   4.877   5.303
 4967SOL    HW215801   4.282   5.031   5.336
 4968SOL     OW15802   6.685   2.087   4.024
 4968SOL    HW115803   6.728   1.997   4.033
 4968SOL    HW215804   6.644   2.095   3.933
 4969SOL     OW15805   2.800   5.597   3.028
 4969SOL    HW115806   2.843   5.508   3.040
 4969SOL    HW215807   2.702   5.590   3.046
 4970SOL     OW15808   2.417   2.655   2.419
 4970SOL    HW115809   2.388   2.614   2.333
 4970SOL    HW215810   2.501   2.611   2.451
 4971SOL     OW15811   5.926   5.672   3.396
 4971SOL    HW115812   5.858   5.746   3.399
 4971SOL    HW215813   5.948   5.644   3.490
 4972SOL     OW15814   1.234   3.998   0.942
 4972SOL    HW115815   1.211   4.096   0.935
 4972SOL    HW215816   1.239   3.959   0.850
 4973SOL     OW15817   1.632   6.481   2.535
 4973SOL    HW115818   1.713   6.463   2.481
 4973SOL    HW215819   1.565   6.408   2.521
 4974SOL     OW15820   6.296   4.412   0.856
 4974SOL    HW115821   6.306   4.467   0.939
 4974SOL    HW215822   6.200   4.390   0.842
 4975SOL     OW15823   6.198   3.941   5.379
 4975SOL    HW115824   6.190   4.033   5.418
 4975SOL    HW215825   6.110   3.913   5.341
 4976SOL     OW15826   1.958   1.115   3.670
 4976SOL    HW115827   1.953   1.215   3.666
 4976SOL    HW215828   1.877   1.076   3.626
 4977SOL     OW15829   3.977   4.714   0.142
 4977SOL    HW115830   4.059   4.763   0.115
 4977SOL    HW215831   3.897   4.772   0.127
 4978SOL     OW15832   6.887   4.079   4.769
 4978SOL    HW115833   6.933   4.090   4.858
 4978SOL    HW215834   6.790   4.062   4.784
 4979SOL     OW15835   6.873   6.965   6.765
 4979SOL    HW115836   6.797   0.010   6.759
 4979SOL    HW215837   6.909   6.948   6.674
 4980SOL     OW15838   5.513   6.123   3.196
 4980SOL    HW115839   5.503   6.035   3.242
 4980SOL    HW215840   5.466   6.119   3.107
 4981SOL     OW15841   4.845   5.455   0.246
 4981SOL    HW115842   4.898   5.459   0.162
 4981SOL    HW215843   4.821   5.547   0.275
 4982SOL     OW15844   2.866   1.076   5.612
 4982SOL    HW115845   2.790   1.141   5.619
 4982SOL    HW215846   2.947   1.123   5.578
 4983SOL     OW15847   6.089   3.621   4.767
 4983SOL    HW115848   6.014   3.687   4.758
 4983SOL    HW215849   6.067   3.556   4.840
 4984SOL     OW15850   5.387   4.146   3.266
 4984SOL    HW115851   5.396   4.050   3.291
 4984SOL    HW215852   5.372   4.153   3.167
 4985SOL     OW15853   6.154   6.946   3.191
 4985SOL    HW115854   6.056   6.934   3.206
 4985SOL    HW215855   6.201   6.951   3.280
 4986SOL     OW15856   0.040   4.252   1.772
 4986SOL    HW115857   0.005   4.159   1.775
 4986SOL    HW215858   6.985   4.317   1.783
 4987SOL     OW15859   1.295   0.852   2.283
 4987SOL    HW115860   1.239   0.844   2.366
 4987SOL    HW215861   1.251   0.802   2.208
 4988SOL     OW15862   5.517   0.691   2.485
 4988SOL    HW115863   5.431   0.711   2.533
 4988SOL    HW215864   5.583   0.652   2.549
 4989SOL     OW15865   5.142   0.342   1.470
 4989SOL    HW115866   5.216   0.320   1.407
 4989SOL    HW215867   5.171   0.417   1.530
 4990SOL     OW15868   2.335   2.307   5.702
 4990SOL    HW115869   2.309   2.261   5.787
 4990SOL    HW215870   2.277   2.275   5.627
 4991SOL     OW15871   6.052   5.051   4.093
 4991SOL    HW115872   6.093   5.111   4.162
 4991SOL    HW215873   6.116   5.040   4.017
 4992SOL     OW15874   4.851   1.021   3.350
 4992SOL    HW115875   4.896   1.033   3.262
 4992SOL    HW215876   4.917   1.035   3.424
 4993SOL     OW15877   2.376   5.799   4.147
 4993SOL    HW115878   2.416   5.711   4.123
 4993SOL    HW215879   2.285   5.807   4.107
 4994SOL     OW15880   1.578   1.037   3.782
 4994SOL    HW115881   1.635   0.978   3.725
 4994SOL    HW215882   1.572   1.000   3.874
 4995SOL     OW15883   0.099   1.988   5.594
 4995SOL    HW115884   0.147   1.902   5.614
 4995SOL    HW215885   0.155   2.044   5.534
 4996SOL     OW15886   0.802   1.699   2.941
 4996SOL    HW115887   0.845   1.695   2.851
 4996SOL    HW215888   0.873   1.696   3.012
 4997SOL     OW15889   5.394   2.967   2.903
 4997SOL    HW115890   5.396   2.869   2.920
 4997SOL    HW215891   5.415   3.016   2.989
 4998SOL     OW15892   2.188   4.281   5.010
 4998SOL    HW115893   2.226   4.189   5.018
 4998SOL    HW215894   2.121   4.283   4.935
 4999SOL     OW15895   6.525   3.781   0.154
 4999SOL    HW115896   6.473   3.696   0.156
 4999SOL    HW215897   6.496   3.837   0.076
 5000SOL     OW15898   3.042   6.967   3.275
 5000SOL    HW115899   3.036   0.028   3.217
 5000SOL    HW215900   3.054   6.886   3.218
 5001SOL     OW15901   0.132   3.886   0.929
 5001SOL    HW115902   0.176   3.902   1.017
 5001SOL    HW215903   0.201   3.884   0.857
 5002SOL     OW15904   0.491   3.545   3.195
 5002SOL    HW115905   0.517   3.480   3.124
 5002SOL    HW215906   0.574   3.586   3.234
 5003SOL     OW15907   2.602   6.275   2.589
 5003SOL    HW115908   2.580   6.225   2.505
 5003SOL    HW215909   2.519   6.319   2.624
 5004SOL     OW15910   3.259   5.458   6.295
 5004SOL    HW115911   3.201   5.539   6.294
 5004SOL    HW215912   3.346   5.480   6.338
 5005SOL     OW15913   3.312   2.884   0.693
 5005SOL    HW115914   3.364   2.815   0.744
 5005SOL    HW215915   3.280   2.845   0.607
 5006SOL     OW15916   5.259   0.492   0.501
 5006SOL    HW115917   5.176   0.536   0.534
 5006SOL    HW215918   5.321   0.477   0.578
 5007SOL     OW15919   1.379   6.838   0.532
 5007SOL    HW115920   1.347   6.902   0.602
 5007SOL    HW215921   1.396   6.887   0.447
 5008SOL     OW15922   6.354   6.857   2.328
 5008SOL    HW115923   6.344   6.793   2.403
 5008SOL    HW215924   6.431   6.918   2.345
 5009SOL     OW15925   0.871   6.970   0.961
 5009SOL    HW115926   0.943   6.901   0.973
 5009SOL    HW215927   0.791   6.945   1.015
 5010SOL     OW15928   3.969   3.875   2.462
 5010SOL    HW115929   3.992   3.805   2.530
 5010SOL    HW215930   4.034   3.870   2.386
 5011SOL     OW15931   1.940   3.848   1.902
 5011SOL    HW115932   2.027   3.828   1.947
 5011SOL    HW215933   1.942   3.813   1.808
 5012SOL     OW15934   6.100   4.256   5.815
 5012SOL    HW115935   6.001   4.241   5.813
 5012SOL    HW215936   6.130   4.277   5.908
 5013SOL     OW15937   5.077   1.662   6.379
 5013SOL    HW115938   5.090   1.626   6.472
 5013SOL    HW215939   5.033   1.592   6.323
 5014SOL     OW15940   5.635   4.223   0.393
 5014SOL    HW115941   5.544   4.249   0.361
 5014SOL    HW215942   5.701   4.293   0.367
 5015SOL     OW15943   4.917   1.860   4.404
 5015SOL    HW115944   4.933   1.798   4.480
 5015SOL    HW215945   4.834   1.832   4.355
 5016SOL     OW15946   2.039   2.247   0.059
 5016SOL    HW115947   1.996   2.322   0.009
 5016SOL    HW215948   1.973   2.172   0.068
 5017SOL     OW15949   1.982   2.583   0.069
 5017SOL    HW115950   1.996   2.602   6.992
 5017SOL    HW215951   1.960   2.668   0.117
 5018SOL     OW15952   0.169   4.275   2.209
 5018SOL    HW115953   0.163   4.373   2.190
 5018SOL    HW215954   0.094   4.248   2.269
 5019SOL     OW15955   1.421   4.861   6.519
 5019SOL    HW115956   1.494   4.798   6.543
 5019SOL    HW215957   1.433   4.891   6.424
 5020SOL     OW15958   5.088   0.217   6.325
 5020SOL    HW115959   5.112   0.203   6.421
 5020SOL    HW215960   5.111   0.310   6.298
 5021SOL     OW15961   0.876   1.386   6.046
 5021SOL    HW115962   0.879   1.371   6.144
 5021SOL    HW215963   0.919   1.474   6.024
 5022SOL     OW15964   0.750   1.601   6.598
 5022SOL    HW115965   0.668   1.547   6.577
 5022SOL    HW215966   0.722   1.693   6.626
 5023SOL     OW15967   6.664   2.817   1.310
 5023SOL    HW115968   6.650   2.916   1.313
 5023SOL    HW215969   6.578   2.771   1.289
 5024SOL     OW15970   5.558   5.412   1.890
 5024SOL    HW115971   5.626   5.485   1.891
 5024SOL    HW215972   5.605   5.323   1.887
 5025SOL     OW15973   3.205   1.762   2.038
 5025SOL    HW115974   3.191   1.757   2.137
 5025SOL    HW215975   3.132   1.711   1.992
 5026SOL     OW15976   6.336   5.820   5.806
 5026SOL    HW115977   6.321   5.857   5.714
 5026SOL    HW215978   6.418   5.763   5.806
 5027SOL     OW15979   0.299   6.404   2.158
 5027SOL    HW115980   0.322   6.458   2.239
 5027SOL    HW215981   0.363   6.328   2.149
 5028SOL     OW15982   0.323   1.798   2.861
 5028SOL    HW115983   0.321   1.738   2.782
 5028SOL    HW215984   0.386   1.874   2.844
 5029SOL     OW15985   6.711   2.788   2.785
 5029SOL    HW115986   6.611   2.798   2.789
 5029SOL    HW215987   6.735   2.724   2.713
 5030SOL     OW15988   0.184   6.946   0.174
 5030SOL    HW115989   0.162   6.957   0.077
 5030SOL    HW215990   0.203   6.849   0.193
 5031SOL     OW15991   6.046   0.062   5.007
 5031SOL    HW115992   6.043   0.113   5.093
 5031SOL    HW215993   5.962   0.011   4.996
 5032SOL     OW15994   1.765   2.586   1.073
 5032SOL    HW115995   1.856   2.549   1.092
 5032SOL    HW215996   1.769   2.686   1.071
 5033SOL     OW15997   2.648   6.201   5.804
 5033SOL    HW115998   2.725   6.247   5.761
 5033SOL    HW215999   2.563   6.230   5.759
 5034SOL     OW16000   4.847   0.469   2.850
 5034SOL    HW116001   4.827   0.487   2.754
 5034SOL    HW216002   4.799   0.536   2.907
 5035SOL     OW16003   0.659   4.258   0.466
 5035SOL    HW116004   0.711   4.173   0.460
 5035SOL    HW216005   0.661   4.305   0.377
 5036SOL     OW16006   0.471   4.884   0.341
 5036SOL    HW116007   0.491   4.864   0.437
 5036SOL    HW216008   0.372   4.881   0.327
 5037SOL     OW16009   5.181   2.793   3.149
 5037SOL    HW116010   5.082   2.784   3.162
 5037SOL    HW216011   5.210   2.884   3.178
 5038SOL     OW16012   2.030   3.997   6.147
 5038SOL    HW116013   1.972   4.074   6.175
 5038SOL    HW216014   2.120   4.006   6.189
 5039SOL     OW16015   3.069   4.390   5.280
 5039SOL    HW116016   2.992   4.439   5.239
 5039SOL    HW216017   3.087   4.306   5.228
 5040SOL     OW16018   2.419   5.216   6.149
 5040SOL    HW116019   2.380   5.201   6.240
 5040SOL    HW216020   2.488   5.146   6.131
 5041SOL     OW16021   1.645   1.370   1.812
 5041SOL    HW116022   1.739   1.399   1.798
 5041SOL    HW216023   1.592   1.447   1.849
 5042SOL     OW16024   6.436   3.123   0.446
 5042SOL    HW116025   6.341   3.112   0.476
 5042SOL    HW216026   6.443   3.200   0.383
 5043SOL     OW16027   3.441   0.221   6.065
 5043SOL    HW116028   3.537   0.208   6.091
 5043SOL    HW216029   3.390   0.257   6.143
 5044SOL     OW16030   0.703   6.715   0.508
 5044SOL    HW116031   0.777   6.715   0.440
 5044SOL    HW216032   0.735   6.762   0.590
 5045SOL     OW16033   5.573   1.609   6.411
 5045SOL    HW116034   5.588   1.640   6.504
 5045SOL    HW216035   5.482   1.637   6.380
 5046SOL     OW16036   3.314   4.162   2.854
 5046SOL    HW116037   3.225   4.130   2.821
 5046SOL    HW216038   3.308   4.179   2.953
 5047SOL     OW16039   6.635   3.494   2.492
 5047SOL    HW116040   6.669   3.517   2.583
 5047SOL    HW216041   6.707   3.447   2.441
 5048SOL     OW16042   0.385   1.467   2.333
 5048SOL    HW116043   0.445   1.451   2.412
 5048SOL    HW216044   0.407   1.556   2.293
 5049SOL     OW16045   6.090   1.841   5.464
 5049SOL    HW116046   6.025   1.910   5.433
 5049SOL    HW216047   6.183   1.872   5.445
 5050SOL     OW16048   1.552   0.650   1.092
 5050SOL    HW116049   1.517   0.709   1.165
 5050SOL    HW216050   1.626   0.698   1.043
 5051SOL     OW16051   4.664   4.767   1.026
 5051SOL    HW116052   4.629   4.831   0.957
 5051SOL    HW216053   4.594   4.698   1.046
 5052SOL     OW16054   2.194   6.861   6.381
 5052SOL    HW116055   2.122   6.870   6.450
 5052SOL    HW216056   2.266   6.927   6.400
 5053SOL     OW16057   2.087   3.818   2.744
 5053SOL    HW116058   2.005   3.871   2.725
 5053SOL    HW216059   2.078   3.726   2.704
 5054SOL     OW16060   3.414   6.268   4.959
 5054SOL    HW116061   3.409   6.204   4.882
 5054SOL    HW216062   3.377   6.357   4.931
 5055SOL     OW16063   1.424   0.720   5.654
 5055SOL    HW116064   1.361   0.775   5.708
 5055SOL    HW216065   1.440   0.765   5.566
 5056SOL     OW16066   6.654   4.572   0.659
 5056SOL    HW116067   6.719   4.528   0.720
 5056SOL    HW216068   6.580   4.508   0.637
 5057SOL     OW16069   6.661   6.131   5.213
 5057SOL    HW116070   6.576   6.109   5.259
 5057SOL    HW216071   6.642   6.159   5.118
 5058SOL     OW16072   2.758   3.090   5.268
 5058SOL    HW116073   2.672   3.059   5.227
 5058SOL    HW216074   2.740   3.122   5.362
 5059SOL     OW16075   5.749   1.706   3.439
 5059SOL    HW116076   5.686   1.664   3.503
 5059SOL    HW216077   5.806   1.773   3.487
 5060SOL     OW16078   1.048   1.618   5.031
 5060SOL    HW116079   1.146   1.605   5.049
 5060SOL    HW216080   1.001   1.531   5.044
 5061SOL     OW16081   3.787   3.406   2.928
 5061SOL    HW116082   3.882   3.412   2.957
 5061SOL    HW216083   3.773   3.324   2.874
 5062SOL     OW16084   5.307   1.044   3.274
 5062SOL    HW116085   5.213   1.031   3.307
 5062SOL    HW216086   5.310   1.029   3.175
 5063SOL     OW16087   1.212   6.994   2.384
 5063SOL    HW116088   1.236   0.050   2.444
 5063SOL    HW216089   1.247   7.012   2.291
 5064SOL     OW16090   4.848   3.971   1.922
 5064SOL    HW116091   4.781   3.960   1.849
 5064SOL    HW216092   4.926   4.023   1.888
 5065SOL     OW16093   1.583   1.910   3.904
 5065SOL    HW116094   1.575   1.859   3.819
 5065SOL    HW216095   1.531   1.864   3.976
 5066SOL     OW16096   4.006   4.603   1.119
 5066SOL    HW116097   4.033   4.512   1.152
 5066SOL    HW216098   3.979   4.597   1.023
 5067SOL     OW16099   3.655   0.978   2.403
 5067SOL    HW116100   3.675   1.075   2.413
 5067SOL    HW216101   3.623   0.959   2.310
 5068SOL     OW16102   2.718   5.033   6.784
 5068SOL    HW116103   2.702   5.122   6.740
 5068SOL    HW216104   2.810   5.001   6.761
 5069SOL     OW16105   2.192   3.156   5.596
 5069SOL    HW116106   2.138   3.241   5.595
 5069SOL    HW216107   2.139   3.083   5.553
 5070SOL     OW16108   4.599   4.368   3.960
 5070SOL    HW116109   4.607   4.463   3.989
 5070SOL    HW216110   4.627   4.308   4.035
 5071SOL     OW16111   4.156   1.058   3.360
 5071SOL    HW116112   4.112   1.139   3.320
 5071SOL    HW216113   4.144   0.980   3.299
 5072SOL     OW16114   1.167   0.914   1.420
 5072SOL    HW116115   1.112   0.987   1.380
 5072SOL    HW216116   1.112   0.861   1.484
 5073SOL     OW16117   1.049   4.829   1.224
 5073SOL    HW116118   1.069   4.773   1.305
 5073SOL    HW216119   1.106   4.911   1.224
 5074SOL     OW16120   3.428   2.471   0.956
 5074SOL    HW116121   3.371   2.390   0.944
 5074SOL    HW216122   3.438   2.491   1.053
 5075SOL     OW16123   1.036   2.462   6.364
 5075SOL    HW116124   0.936   2.472   6.369
 5075SOL    HW216125   1.063   2.451   6.269
 5076SOL     OW16126   5.134   0.511   0.869
 5076SOL    HW116127   5.098   0.419   0.855
 5076SOL    HW216128   5.213   0.507   0.930
 5077SOL     OW16129   2.375   4.263   5.515
 5077SOL    HW116130   2.412   4.356   5.519
 5077SOL    HW216131   2.367   4.235   5.419
 5078SOL     OW16132   0.269   1.196   4.155
 5078SOL    HW116133   0.351   1.240   4.192
 5078SOL    HW216134   0.282   1.096   4.157
 5079SOL     OW16135   1.959   3.160   5.013
 5079SOL    HW116136   2.005   3.228   5.070
 5079SOL    HW216137   1.881   3.202   4.967
 5080SOL     OW16138   6.137   6.550   6.335
 5080SOL    HW116139   6.047   6.587   6.314
 5080SOL    HW216140   6.172   6.498   6.257
 5081SOL     OW16141   3.648   3.067   5.258
 5081SOL    HW116142   3.719   3.055   5.328
 5081SOL    HW216143   3.645   2.986   5.199
 5082SOL     OW16144   5.194   5.536   1.734
 5082SOL    HW116145   5.166   5.625   1.769
 5082SOL    HW216146   5.277   5.546   1.680
 5083SOL     OW16147   2.699   0.410   2.936
 5083SOL    HW116148   2.611   0.445   2.903
 5083SOL    HW216149   2.698   0.407   3.036
 5084SOL     OW16150   0.444   4.179   4.320
 5084SOL    HW116151   0.535   4.164   4.283
 5084SOL    HW216152   0.435   4.131   4.407
 5085SOL     OW16153   6.085   2.566   6.414
 5085SOL    HW116154   6.120   2.523   6.498
 5085SOL    HW216155   5.998   2.524   6.390
 5086SOL     OW16156   0.895   5.375   3.478
 5086SOL    HW116157   0.952   5.456   3.489
 5086SOL    HW216158   0.935   5.315   3.409
 5087SOL     OW16159   1.664   5.454   3.078
 5087SOL    HW116160   1.681   5.552   3.069
 5087SOL    HW216161   1.645   5.432   3.174
 5088SOL     OW16162   6.079   0.024   4.007
 5088SOL    HW116163   6.125   6.957   3.987
 5088SOL    HW216164   6.097   0.088   3.932
 5089SOL     OW16165   5.528   3.795   3.797
 5089SOL    HW116166   5.607   3.833   3.749
 5089SOL    HW216167   5.557   3.716   3.852
 5090SOL     OW16168   2.135   3.778   2.227
 5090SOL    HW116169   2.184   3.834   2.295
 5090SOL    HW216170   2.181   3.786   2.139
 5091SOL     OW16171   0.139   1.442   1.678
 5091SOL    HW116172   0.168   1.365   1.736
 5091SOL    HW216173   0.103   1.515   1.736
 5092SOL     OW16174   3.565   3.858   3.017
 5092SOL    HW116175   3.603   3.950   3.022
 5092SOL    HW216176   3.595   3.805   3.097
 5093SOL     OW16177   2.849   1.479   0.462
 5093SOL    HW116178   2.889   1.477   0.370
 5093SOL    HW216179   2.865   1.391   0.507
 5094SOL     OW16180   2.582   5.677   6.032
 5094SOL    HW116181   2.678   5.679   6.004
 5094SOL    HW216182   2.573   5.624   6.116
 5095SOL     OW16183   6.335   2.112   3.841
 5095SOL    HW116184   6.339   2.207   3.872
 5095SOL    HW216185   6.427   2.074   3.836
 5096SOL     OW16186   3.964   5.309   0.047
 5096SOL    HW116187   4.011   5.384   0.001
 5096SOL    HW216188   3.868   5.308   0.019
 5097SOL     OW16189   1.376   6.899   6.442
 5097SOL    HW116190   1.303   6.967   6.435
 5097SOL    HW216191   1.460   6.936   6.402
 5098SOL     OW16192   2.623   0.372   1.957
 5098SOL    HW116193   2.714   0.356   1.918
 5098SOL    HW216194   2.556   0.315   1.909
 5099SOL     OW16195   1.076   0.108   0.201
 5099SOL    HW116196   1.025   0.176   0.148
 5099SOL    HW216197   1.152   0.072   0.145
 5100SOL     OW16198   3.224   5.604   4.988
 5100SOL    HW116199   3.192   5.515   4.956
 5100SOL    HW216200   3.323   5.602   4.998
 5101SOL     OW16201   4.943   0.020   0.312
 5101SOL    HW116202   5.043   0.017   0.316
 5101SOL    HW216203   4.914   0.113   0.289
 5102SOL     OW16204   5.835   6.572   4.288
 5102SOL    HW116205   5.821   6.663   4.249
 5102SOL    HW216206   5.815   6.574   4.386
 5103SOL     OW16207   0.333   0.367   3.859
 5103SOL    HW116208   0.257   0.305   3.839
 5103SOL    HW216209   0.403   0.358   3.788
 5104SOL     OW16210   1.811   6.306   2.334
 5104SOL    HW116211   1.821   6.403   2.313
 5104SOL    HW216212   1.805   6.253   2.249
 5105SOL     OW16213   2.717   2.863   0.701
 5105SOL    HW116214   2.628   2.818   0.707
 5105SOL    HW216215   2.709   2.957   0.734
 5106SOL     OW16216   4.204   2.124   0.474
 5106SOL    HW116217   4.265   2.199   0.448
 5106SOL    HW216218   4.253   2.038   0.471
 5107SOL     OW16219   3.455   1.545   0.714
 5107SOL    HW116220   3.431   1.618   0.650
 5107SOL    HW216221   3.555   1.541   0.722
 5108SOL     OW16222   3.764   3.858   5.086
 5108SOL    HW116223   3.671   3.822   5.084
 5108SOL    HW216224   3.779   3.917   5.007
 5109SOL     OW16225   1.097   1.807   0.399
 5109SOL    HW116226   1.036   1.757   0.460
 5109SOL    HW216227   1.087   1.772   0.305
 5110SOL     OW16228   0.829   0.578   6.136
 5110SOL    HW116229   0.790   0.592   6.226
 5110SOL    HW216230   0.821   0.662   6.082
 5111SOL     OW16231   1.663   0.555   4.890
 5111SOL    HW116232   1.744   0.581   4.837
 5111SOL    HW216233   1.584   0.606   4.858
 5112SOL     OW16234   2.048   1.257   3.210
 5112SOL    HW116235   1.975   1.216   3.265
 5112SOL    HW216236   2.135   1.213   3.232
 5113SOL     OW16237   1.910   0.110   1.155
 5113SOL    HW116238   1.852   0.169   1.212
 5113SOL    HW216239   1.910   0.145   1.061
 5114SOL     OW16240   3.510   1.007   6.491
 5114SOL    HW116241   3.488   1.038   6.584
 5114SOL    HW216242   3.426   1.008   6.435
 5115SOL     OW16243   1.785   4.943   4.096
 5115SOL    HW116244   1.858   4.999   4.058
 5115SOL    HW216245   1.818   4.894   4.177
 5116SOL     OW16246   0.215   6.917   5.961
 5116SOL    HW116247   0.140   6.981   5.977
 5116SOL    HW216248   0.274   6.953   5.888
 5117SOL     OW16249   2.218   4.238   4.389
 5117SOL    HW116250   2.253   4.239   4.483
 5117SOL    HW216251   2.227   4.145   4.352
 5118SOL     OW16252   5.114   0.140   6.881
 5118SOL    HW116253   5.119   0.142   6.781
 5118SOL    HW216254   5.169   0.064   6.916
 5119SOL     OW16255   5.179   0.873   2.093
 5119SOL    HW116256   5.185   0.945   2.161
 5119SOL    HW216257   5.096   0.886   2.038
 5120SOL     OW16258   3.716   0.470   3.974
 5120SOL    HW116259   3.766   0.556   3.981
 5120SOL    HW216260   3.692   0.438   4.066
 5121SOL     OW16261   2.604   2.151   6.262
 5121SOL    HW116262   2.688   2.119   6.305
 5121SOL    HW216263   2.571   2.232   6.311
 5122SOL     OW16264   3.570   6.772   3.055
 5122SOL    HW116265   3.479   6.813   3.069
 5122SOL    HW216266   3.577   6.739   2.961
 5123SOL     OW16267   4.325   2.152   4.760
 5123SOL    HW116268   4.361   2.155   4.667
 5123SOL    HW216269   4.228   2.179   4.759
 5124SOL     OW16270   2.466   5.471   4.927
 5124SOL    HW116271   2.544   5.534   4.920
 5124SOL    HW216272   2.491   5.383   4.887
 5125SOL     OW16273   5.878   3.489   4.363
 5125SOL    HW116274   5.936   3.441   4.297
 5125SOL    HW216275   5.902   3.586   4.366
 5126SOL     OW16276   6.223   4.894   5.054
 5126SOL    HW116277   6.246   4.934   4.965
 5126SOL    HW216278   6.306   4.880   5.108
 5127SOL     OW16279   0.988   4.033   6.918
 5127SOL    HW116280   1.027   4.125   6.905
 5127SOL    HW216281   0.925   4.013   6.844
 5128SOL     OW16282   6.819   0.528   6.521
 5128SOL    HW116283   6.871   0.590   6.463
 5128SOL    HW216284   6.815   0.563   6.614
 5129SOL     OW16285   5.830   0.016   2.522
 5129SOL    HW116286   5.863   6.942   2.514
 5129SOL    HW216287   5.795   0.031   2.614
 5130SOL     OW16288   0.687   5.914   3.776
 5130SOL    HW116289   0.761   5.853   3.748
 5130SOL    HW216290   0.724   5.986   3.835
 5131SOL     OW16291   2.677   5.060   3.832
 5131SOL    HW116292   2.641   5.131   3.892
 5131SOL    HW216293   2.636   5.068   3.742
 5132SOL     OW16294   3.197   2.302   6.365
 5132SOL    HW116295   3.172   2.396   6.338
 5132SOL    HW216296   3.294   2.288   6.349
 5133SOL     OW16297   1.403   5.334   6.807
 5133SOL    HW116298   1.312   5.340   6.847
 5133SOL    HW216299   1.400   5.272   6.728
 5134SOL     OW16300   6.831   2.215   2.337
 5134SOL    HW116301   6.804   2.281   2.408
 5134SOL    HW216302   6.911   2.163   2.368
 5135SOL     OW16303   5.745   3.595   3.902
 5135SOL    HW116304   5.700   3.617   3.988
 5135SOL    HW216305   5.838   3.562   3.921
 5136SOL     OW16306   5.240   0.394   6.945
 5136SOL    HW116307   5.322   0.388   7.002
 5136SOL    HW216308   5.194   0.306   6.944
 5137SOL     OW16309   5.403   4.095   5.613
 5137SOL    HW116310   5.337   4.119   5.685
 5137SOL    HW216311   5.354   4.050   5.538
 5138SOL     OW16312   4.058   2.820   5.558
 5138SOL    HW116313   3.977   2.822   5.499
 5138SOL    HW216314   4.139   2.840   5.504
 5139SOL     OW16315   1.262   1.603   3.689
 5139SOL    HW116316   1.261   1.532   3.760
 5139SOL    HW216317   1.248   1.692   3.731
 5140SOL     OW16318   3.991   2.494   6.226
 5140SOL    HW116319   3.949   2.581   6.202
 5140SOL    HW216320   4.083   2.490   6.189
 5141SOL     OW16321   6.223   4.049   0.915
 5141SOL    HW116322   6.191   3.965   0.870
 5141SOL    HW216323   6.191   4.051   1.010
 5142SOL     OW16324   5.802   6.880   2.225
 5142SOL    HW116325   5.716   6.895   2.274
 5142SOL    HW216326   5.848   6.799   2.262
 5143SOL     OW16327   6.732   4.619   4.389
 5143SOL    HW116328   6.782   4.651   4.308
 5143SOL    HW216329   6.680   4.536   4.366
 5144SOL     OW16330   0.746   5.108   5.681
 5144SOL    HW116331   0.780   5.041   5.747
 5144SOL    HW216332   0.654   5.136   5.707
 5145SOL     OW16333   3.631   5.727   5.894
 5145SOL    HW116334   3.617   5.640   5.847
 5145SOL    HW216335   3.651   5.798   5.827
 5146SOL     OW16336   3.126   3.852   5.314
 5146SOL    HW116337   3.081   3.819   5.397
 5146SOL    HW216338   3.192   3.784   5.282
 5147SOL     OW16339   6.493   5.554   3.176
 5147SOL    HW116340   6.589   5.528   3.188
 5147SOL    HW216341   6.446   5.482   3.125
 5148SOL     OW16342   6.240   0.371   1.771
 5148SOL    HW116343   6.172   0.364   1.843
 5148SOL    HW216344   6.301   0.292   1.775
 5149SOL     OW16345   6.292   6.125   3.195
 5149SOL    HW116346   6.260   6.214   3.227
 5149SOL    HW216347   6.215   6.060   3.194
 5150SOL     OW16348   2.269   5.835   3.355
 5150SOL    HW116349   2.366   5.821   3.378
 5150SOL    HW216350   2.255   5.818   3.258
 5151SOL     OW16351   6.768   3.420   1.935
 5151SOL    HW116352   6.687   3.436   1.992
 5151SOL    HW216353   6.807   3.331   1.956
 5152SOL     OW16354   1.946   4.817   0.056
 5152SOL    HW116355   1.975   4.912   0.066
 5152SOL    HW216356   1.852   4.815   0.020
 5153SOL     OW16357   1.332   1.435   6.932
 5153SOL    HW116358   1.407   1.444   6.867
 5153SOL    HW216359   1.257   1.384   6.890
 5154SOL     OW16360   1.081   2.602   5.622
 5154SOL    HW116361   1.017   2.661   5.573
 5154SOL    HW216362   1.102   2.521   5.568
 5155SOL     OW16363   4.248   0.373   2.258
 5155SOL    HW116364   4.213   0.306   2.193
 5155SOL    HW216365   4.344   0.391   2.238
 5156SOL     OW16366   5.212   4.030   6.097
 5156SOL    HW116367   5.201   4.035   5.998
 5156SOL    HW216368   5.307   4.013   6.120
 5157SOL     OW16369   3.737   2.072   3.397
 5157SOL    HW116370   3.699   1.981   3.380
 5157SOL    HW216371   3.821   2.083   3.345
 5158SOL     OW16372   3.661   2.060   1.326
 5158SOL    HW116373   3.685   2.086   1.233
 5158SOL    HW216374   3.621   2.138   1.373
 5159SOL     OW16375   6.084   3.737   5.069
 5159SOL    HW116376   6.121   3.809   5.010
 5159SOL    HW216377   6.135   3.652   5.055
 5160SOL     OW16378   0.499   4.542   3.024
 5160SOL    HW116379   0.416   4.593   3.045
 5160SOL    HW216380   0.476   4.456   2.979
 5161SOL     OW16381   1.688   3.761   5.916
 5161SOL    HW116382   1.595   3.786   5.942
 5161SOL    HW216383   1.693   3.749   5.817
 5162SOL     OW16384   0.831   4.949   2.679
 5162SOL    HW116385   0.847   4.982   2.586
 5162SOL    HW216386   0.752   4.995   2.718
 5163SOL     OW16387   3.132   6.562   6.992
 5163SOL    HW116388   3.088   6.598   0.055
 5163SOL    HW216389   3.184   6.480   7.016
 5164SOL     OW16390   4.621   2.114   6.721
 5164SOL    HW116391   4.629   2.027   6.771
 5164SOL    HW216392   4.530   2.121   6.681
 5165SOL     OW16393   6.973   3.813   5.531
 5165SOL    HW116394   0.043   3.838   5.494
 5165SOL    HW216395   6.980   3.801   5.630
 5166SOL     OW16396   0.500   5.670   2.156
 5166SOL    HW116397   0.408   5.635   2.140
 5166SOL    HW216398   0.566   5.595   2.151
 5167SOL     OW16399   6.901   5.414   5.789
 5167SOL    HW116400   6.864   5.460   5.870
 5167SOL    HW216401   6.894   5.475   5.710
 5168SOL     OW16402   4.877   3.397   1.807
 5168SOL    HW116403   4.880   3.405   1.707
 5168SOL    HW216404   4.805   3.334   1.834
 5169SOL     OW16405   4.243   2.256   4.256
 5169SOL    HW116406   4.149   2.227   4.238
 5169SOL    HW216407   4.291   2.185   4.307
 5170SOL     OW16408   0.653   4.397   5.572
 5170SOL    HW116409   0.746   4.369   5.595
 5170SOL    HW216410   0.608   4.326   5.518
 5171SOL     OW16411   0.837   5.209   5.165
 5171SOL    HW116412   0.812   5.113   5.153
 5171SOL    HW216413   0.798   5.244   5.250
 5172SOL     OW16414   1.392   3.084   2.299
 5172SOL    HW116415   1.373   3.099   2.202
 5172SOL    HW216416   1.306   3.064   2.346
 5173SOL     OW16417   5.053   5.166   5.052
 5173SOL    HW116418   5.072   5.248   4.998
 5173SOL    HW216419   5.077   5.085   5.000
 5174SOL     OW16420   2.218   4.652   3.165
 5174SOL    HW116421   2.202   4.702   3.250
 5174SOL    HW216422   2.145   4.584   3.153
 5175SOL     OW16423   2.131   3.593   6.690
 5175SOL    HW116424   2.079   3.525   6.638
 5175SOL    HW216425   2.228   3.568   6.688
 5176SOL     OW16426   5.137   3.523   6.692
 5176SOL    HW116427   5.174   3.609   6.728
 5176SOL    HW216428   5.073   3.542   6.618
 5177SOL     OW16429   5.738   0.517   0.370
 5177SOL    HW116430   5.794   0.541   0.449
 5177SOL    HW216431   5.775   0.561   0.288
 5178SOL     OW16432   1.126   3.232   2.197
 5178SOL    HW116433   1.091   3.308   2.141
 5178SOL    HW216434   1.050   3.186   2.243
 5179SOL     OW16435   4.309   5.230   4.190
 5179SOL    HW116436   4.358   5.229   4.102
 5179SOL    HW216437   4.376   5.235   4.265
 5180SOL     OW16438   2.857   2.052   0.918
 5180SOL    HW116439   2.949   2.088   0.932
 5180SOL    HW216440   2.790   2.121   0.946
 5181SOL     OW16441   5.363   0.977   2.716
 5181SOL    HW116442   5.366   0.973   2.616
 5181SOL    HW216443   5.279   0.932   2.749
 5182SOL     OW16444   3.787   3.958   1.802
 5182SOL    HW116445   3.883   3.930   1.805
 5182SOL    HW216446   3.729   3.879   1.821
 5183SOL     OW16447   3.853   1.730   2.261
 5183SOL    HW116448   3.923   1.660   2.248
 5183SOL    HW216449   3.812   1.721   2.352
 5184SOL     OW16450   0.553   1.582   4.741
 5184SOL    HW116451   0.480   1.641   4.706
 5184SOL    HW216452   0.560   1.594   4.840
 5185SOL     OW16453   5.853   0.659   2.895
 5185SOL    HW116454   5.777   0.724   2.900
 5185SOL    HW216455   5.937   0.704   2.922
 5186SOL     OW16456   6.500   2.649   0.229
 5186SOL    HW116457   6.506   2.640   0.328
 5186SOL    HW216458   6.521   2.743   0.202
 5187SOL     OW16459   1.300   6.309   4.091
 5187SOL    HW116460   1.277   6.327   3.995
 5187SOL    HW216461   1.365   6.378   4.123
 5188SOL     OW16462   0.453   5.673   1.348
 5188SOL    HW116463   0.420   5.760   1.386
 5188SOL    HW216464   0.512   5.690   1.269
 5189SOL     OW16465   3.912   5.315   1.080
 5189SOL    HW116466   3.998   5.275   1.112
 5189SOL    HW216467   3.919   5.415   1.083
 5190SOL     OW16468   0.834   1.694   4.487
 5190SOL    HW116469   0.820   1.779   4.538
 5190SOL    HW216470   0.756   1.634   4.501
 5191SOL     OW16471   4.251   6.930   2.012
 5191SOL    HW116472   4.155   6.902   2.018
 5191SOL    HW216473   4.289   6.899   1.925
 5192SOL     OW16474   2.327   5.610   2.218
 5192SOL    HW116475   2.361   5.617   2.311
 5192SOL    HW216476   2.402   5.585   2.157
 5193SOL     OW16477   4.816   4.640   4.737
 5193SOL    HW116478   4.827   4.604   4.830
 5193SOL    HW216479   4.767   4.727   4.740
 5194SOL     OW16480   4.790   1.902   6.969
 5194SOL    HW116481   4.697   1.878   6.940
 5194SOL    HW216482   4.841   1.819   6.990
 5195SOL     OW16483   7.009   6.219   4.137
 5195SOL    HW116484   7.013   6.215   4.237
 5195SOL    HW216485   0.081   6.230   4.100
 5196SOL     OW16486   3.722   6.231   1.027
 5196SOL    HW116487   3.710   6.153   1.088
 5196SOL    HW216488   3.634   6.261   0.992
 5197SOL     OW16489   2.296   4.927   5.709
 5197SOL    HW116490   2.288   4.828   5.719
 5197SOL    HW216491   2.228   4.972   5.768
 5198SOL     OW16492   4.383   6.939   3.138
 5198SOL    HW116493   4.289   6.962   3.162
 5198SOL    HW216494   4.383   6.854   3.084
 5199SOL     OW16495   1.755   5.515   0.897
 5199SOL    HW116496   1.810   5.592   0.930
 5199SOL    HW216497   1.748   5.520   0.798
 5200SOL     OW16498   1.111   2.943   5.158
 5200SOL    HW116499   1.160   2.951   5.244
 5200SOL    HW216500   1.064   2.854   5.154
 5201SOL     OW16501   0.224   6.962   2.747
 5201SOL    HW116502   0.180   7.019   2.678
 5201SOL    HW216503   0.295   7.015   2.793
 5202SOL     OW16504   5.964   3.308   5.796
 5202SOL    HW116505   6.028   3.271   5.864
 5202SOL    HW216506   5.870   3.288   5.824
 5203SOL     OW16507   2.439   2.014   0.233
 5203SOL    HW116508   2.479   1.935   0.280
 5203SOL    HW216509   2.365   1.983   0.172
 5204SOL     OW16510   4.067   5.527   6.968
 5204SOL    HW116511   4.036   5.546   6.875
 5204SOL    HW216512   4.157   5.570   6.982
 5205SOL     OW16513   0.745   6.205   0.869
 5205SOL    HW116514   0.681   6.241   0.938
 5205SOL    HW216515   0.837   6.238   0.890
 5206SOL     OW16516   0.587   4.788   6.404
 5206SOL    HW116517   0.624   4.710   6.354
 5206SOL    HW216518   0.602   4.872   6.351
 5207SOL     OW16519   0.938   6.092   3.659
 5207SOL    HW116520   1.034   6.117   3.651
 5207SOL    HW216521   0.900   6.133   3.742
 5208SOL     OW16522   4.403   2.586   6.377
 5208SOL    HW116523   4.377   2.670   6.425
 5208SOL    HW216524   4.502   2.584   6.366
 5209SOL     OW16525   5.890   6.444   2.461
 5209SOL    HW116526   5.801   6.461   2.503
 5209SOL    HW216527   5.878   6.434   2.362
 5210SOL     OW16528   4.329   3.045   6.587
 5210SOL    HW116529   4.238   3.039   6.546
 5210SOL    HW216530   4.396   3.010   6.522
 5211SOL     OW16531   3.650   2.654   5.306
 5211SOL    HW116532   3.551   2.648   5.296
 5211SOL    HW216533   3.675   2.636   5.401
 5212SOL     OW16534   0.019   3.100   0.925
 5212SOL    HW116535   6.982   3.159   0.868
 5212SOL    HW216536   6.987   3.018   0.951
 5213SOL     OW16537   4.897   3.899   6.058
 5213SOL    HW116538   4.926   3.837   5.986
 5213SOL    HW216539   4.859   3.846   6.134
 5214SOL     OW16540   5.471   1.518   5.798
 5214SOL    HW116541   5.558   1.566   5.806
 5214SOL    HW216542   5.404   1.560   5.860
 5215SOL     OW16543   7.016   4.919   3.803
 5215SOL    HW116544   6.952   4.895   3.875
 5215SOL    HW216545   0.062   4.986   3.837
 5216SOL     OW16546   4.963   5.036   2.342
 5216SOL    HW116547   4.944   4.939   2.357
 5216SOL    HW216548   5.059   5.047   2.316
 5217SOL     OW16549   4.092   5.216   4.560
 5217SOL    HW116550   4.013   5.265   4.596
 5217SOL    HW216551   4.176   5.263   4.588
 5218SOL     OW16552   0.751   0.893   2.915
 5218SOL    HW116553   0.752   0.945   2.829
 5218SOL    HW216554   0.811   0.937   2.982
 5219SOL     OW16555   4.479   1.481   4.981
 5219SOL    HW116556   4.560   1.488   5.039
 5219SOL    HW216557   4.429   1.397   5.004
 5220SOL     OW16558   0.660   5.785   2.445
 5220SOL    HW116559   0.738   5.804   2.505
 5220SOL    HW216560   0.679   5.822   2.354
 5221SOL     OW16561   5.501   2.510   4.141
 5221SOL    HW116562   5.506   2.570   4.062
 5221SOL    HW216563   5.593   2.476   4.163
 5222SOL     OW16564   3.401   6.310   3.091
 5222SOL    HW116565   3.498   6.290   3.078
 5222SOL    HW216566   3.372   6.273   3.179
 5223SOL     OW16567   6.131   2.518   0.663
 5223SOL    HW116568   6.219   2.554   0.631
 5223SOL    HW216569   6.076   2.491   0.585
 5224SOL     OW16570   6.614   2.640   4.612
 5224SOL    HW116571   6.519   2.609   4.611
 5224SOL    HW216572   6.649   2.638   4.705
 5225SOL     OW16573   0.419   0.688   3.628
 5225SOL    HW116574   0.488   0.628   3.589
 5225SOL    HW216575   0.456   0.781   3.636
 5226SOL     OW16576   6.994   5.931   4.749
 5226SOL    HW116577   6.915   5.900   4.801
 5226SOL    HW216578   7.016   6.025   4.776
 5227SOL     OW16579   0.538   3.276   4.743
 5227SOL    HW116580   0.580   3.272   4.834
 5227SOL    HW216581   0.439   3.265   4.752
 5228SOL     OW16582   6.211   2.256   1.030
 5228SOL    HW116583   6.297   2.222   0.993
 5228SOL    HW216584   6.153   2.178   1.055
 5229SOL     OW16585   1.651   5.903   0.131
 5229SOL    HW116586   1.684   5.991   0.097
 5229SOL    HW216587   1.617   5.914   0.225
 5230SOL     OW16588   0.676   5.553   1.831
 5230SOL    HW116589   0.645   5.648   1.828
 5230SOL    HW216590   0.753   5.546   1.894
 5231SOL     OW16591   4.655   2.763   4.536
 5231SOL    HW116592   4.744   2.738   4.499
 5231SOL    HW216593   4.634   2.857   4.510
 5232SOL     OW16594   2.727   3.151   5.892
 5232SOL    HW116595   2.826   3.160   5.898
 5232SOL    HW216596   2.703   3.084   5.821
 5233SOL     OW16597   4.951   1.215   2.450
 5233SOL    HW116598   4.866   1.178   2.413
 5233SOL    HW216599   4.954   1.199   2.549
 5234SOL     OW16600   3.006   1.149   6.101
 5234SOL    HW116601   3.092   1.181   6.142
 5234SOL    HW216602   3.026   1.077   6.034
 5235SOL     OW16603   1.854   2.323   0.441
 5235SOL    HW116604   1.837   2.371   0.355
 5235SOL    HW216605   1.906   2.239   0.422
 5236SOL     OW16606   4.985   4.759   2.368
 5236SOL    HW116607   4.906   4.704   2.396
 5236SOL    HW216608   5.055   4.700   2.328
 5237SOL     OW16609   2.100   1.029   5.115
 5237SOL    HW116610   2.113   1.033   5.016
 5237SOL    HW216611   2.002   1.029   5.135
 5238SOL     OW16612   0.754   4.305   0.225
 5238SOL    HW116613   0.773   4.221   0.175
 5238SOL    HW216614   0.836   4.334   0.276
 5239SOL     OW16615   3.573   3.064   4.125
 5239SOL    HW116616   3.581   3.032   4.219
 5239SOL    HW216617   3.500   3.014   4.079
 5240SOL     OW16618   3.161   1.554   6.033
 5240SOL    HW116619   3.156   1.645   5.993
 5240SOL    HW216620   3.120   1.555   6.124
 5241SOL     OW16621   0.571   5.147   4.947
 5241SOL    HW116622   0.517   5.219   4.904
 5241SOL    HW216623   0.650   5.125   4.890
 5242SOL     OW16624   0.177   6.207   6.333
 5242SOL    HW116625   0.162   6.278   6.402
 5242SOL    HW216626   0.262   6.225   6.283
 5243SOL     OW16627   0.876   4.966   1.587
 5243SOL    HW116628   0.804   4.936   1.524
 5243SOL    HW216629   0.901   5.060   1.567
 5244SOL     OW16630   3.685   5.285   0.032
 5244SOL    HW116631   3.609   5.315   6.994
 5244SOL    HW216632   3.656   5.208   0.089
 5245SOL     OW16633   4.019   4.617   0.415
 5245SOL    HW116634   4.035   4.656   0.324
 5245SOL    HW216635   3.953   4.542   0.408
 5246SOL     OW16636   6.014   3.791   1.974
 5246SOL    HW116637   6.072   3.871   1.984
 5246SOL    HW216638   6.062   3.710   2.006
 5247SOL     OW16639   1.704   1.085   0.491
 5247SOL    HW116640   1.738   1.067   0.583
 5247SOL    HW216641   1.725   1.007   0.431
 5248SOL     OW16642   5.286   1.194   3.750
 5248SOL    HW116643   5.234   1.277   3.769
 5248SOL    HW216644   5.352   1.179   3.823
 5249SOL     OW16645   0.080   4.722   5.569
 5249SOL    HW116646   0.081   4.765   5.659
 5249SOL    HW216647   7.009   4.733   5.528
 5250SOL     OW16648   1.952   6.672   5.846
 5250SOL    HW116649   2.023   6.619   5.799
 5250SOL    HW216650   1.892   6.610   5.896
 5251SOL     OW16651   0.733   3.758   0.036
 5251SOL    HW116652   0.659   3.775   6.990
 5251SOL    HW216653   0.764   3.663   0.026
 5252SOL     OW16654   1.719   6.268   0.476
 5252SOL    HW116655   1.748   6.178   0.442
 5252SOL    HW216656   1.760   6.283   0.566
 5253SOL     OW16657   5.355   4.535   4.335
 5253SOL    HW116658   5.294   4.614   4.338
 5253SOL    HW216659   5.322   4.465   4.398
 5254SOL     OW16660   4.450   1.251   3.277
 5254SOL    HW116661   4.360   1.290   3.293
 5254SOL    HW216662   4.466   1.242   3.179
 5255SOL     OW16663   5.961   1.068   5.693
 5255SOL    HW116664   5.880   1.029   5.649
 5255SOL    HW216665   5.984   1.014   5.774
 5256SOL     OW16666   4.359   1.069   3.572
 5256SOL    HW116667   4.300   1.054   3.493
 5256SOL    HW216668   4.417   0.989   3.586
 5257SOL     OW16669   5.456   6.584   2.151
 5257SOL    HW116670   5.456   6.506   2.213
 5257SOL    HW216671   5.372   6.637   2.163
 5258SOL     OW16672   6.215   3.988   2.012
 5258SOL    HW116673   6.293   3.970   1.952
 5258SOL    HW216674   6.244   3.984   2.107
 5259SOL     OW16675   5.548   6.183   1.126
 5259SOL    HW116676   5.524   6.162   1.031
 5259SOL    HW216677   5.521   6.276   1.148
 5260SOL     OW16678   5.063   3.715   1.195
 5260SOL    HW116679   5.113   3.736   1.112
 5260SOL    HW216680   5.042   3.617   1.197
 5261SOL     OW16681   1.032   3.669   0.133
 5261SOL    HW116682   1.071   3.582   0.165
 5261SOL    HW216683   0.934   3.659   0.121
 5262SOL     OW16684   2.763   1.151   2.692
 5262SOL    HW116685   2.706   1.122   2.769
 5262SOL    HW216686   2.859   1.146   2.718
 5263SOL     OW16687   2.147   1.849   4.237
 5263SOL    HW116688   2.181   1.778   4.299
 5263SOL    HW216689   2.196   1.844   4.151
 5264SOL     OW16690   5.846   2.265   2.874
 5264SOL    HW116691   5.792   2.289   2.955
 5264SOL    HW216692   5.785   2.242   2.799
 5265SOL     OW16693   6.358   4.103   4.421
 5265SOL    HW116694   6.289   4.073   4.355
 5265SOL    HW216695   6.343   4.199   4.444
 5266SOL     OW16696   2.472   5.931   1.024
 5266SOL    HW116697   2.510   6.013   0.983
 5266SOL    HW216698   2.485   5.853   0.962
 5267SOL     OW16699   4.890   3.886   4.886
 5267SOL    HW116700   4.836   3.806   4.913
 5267SOL    HW216701   4.899   3.948   4.965
 5268SOL     OW16702   6.052   0.041   6.617
 5268SOL    HW116703   6.076   6.998   6.691
 5268SOL    HW216704   6.099   0.014   6.533
 5269SOL     OW16705   1.036   6.536   3.513
 5269SOL    HW116706   1.119   6.485   3.490
 5269SOL    HW216707   1.047   6.631   3.484
 5270SOL     OW16708   5.840   1.506   1.323
 5270SOL    HW116709   5.869   1.434   1.385
 5270SOL    HW216710   5.809   1.466   1.237
 5271SOL     OW16711   5.931   5.590   4.772
 5271SOL    HW116712   5.972   5.525   4.707
 5271SOL    HW216713   5.904   5.673   4.723
 5272SOL     OW16714   2.899   5.182   1.920
 5272SOL    HW116715   2.846   5.108   1.878
 5272SOL    HW216716   2.996   5.164   1.908
 5273SOL     OW16717   0.239   3.023   3.426
 5273SOL    HW116718   0.203   3.057   3.339
 5273SOL    HW216719   0.266   2.927   3.415
 5274SOL     OW16720   6.158   0.193   2.355
 5274SOL    HW116721   6.235   0.229   2.409
 5274SOL    HW216722   6.193   0.153   2.271
 5275SOL     OW16723   3.466   1.987   0.088
 5275SOL    HW116724   3.428   1.943   0.169
 5275SOL    HW216725   3.539   2.050   0.114
 5276SOL     OW16726   1.590   0.465   0.620
 5276SOL    HW116727   1.491   0.461   0.611
 5276SOL    HW216728   1.633   0.422   0.540
 5277SOL     OW16729   1.400   1.527   3.194
 5277SOL    HW116730   1.335   1.558   3.264
 5277SOL    HW216731   1.474   1.476   3.238
 5278SOL     OW16732   5.594   0.355   3.507
 5278SOL    HW116733   5.523   0.298   3.464
 5278SOL    HW216734   5.571   0.452   3.494
 5279SOL     OW16735   1.813   5.171   6.048
 5279SOL    HW116736   1.910   5.179   6.069
 5279SOL    HW216737   1.789   5.074   6.040
 5280SOL     OW16738   2.799   6.268   4.736
 5280SOL    HW116739   2.788   6.217   4.651
 5280SOL    HW216740   2.725   6.335   4.744
 5281SOL     OW16741   0.413   1.700   2.597
 5281SOL    HW116742   0.432   1.603   2.586
 5281SOL    HW216743   0.493   1.753   2.568
 5282SOL     OW16744   2.463   1.931   2.874
 5282SOL    HW116745   2.428   1.941   2.968
 5282SOL    HW216746   2.515   1.846   2.867
 5283SOL     OW16747   4.662   6.316   1.406
 5283SOL    HW116748   4.584   6.373   1.377
 5283SOL    HW216749   4.639   6.272   1.493
 5284SOL     OW16750   5.219   3.565   3.427
 5284SOL    HW116751   5.134   3.587   3.379
 5284SOL    HW216752   5.201   3.560   3.526
 5285SOL     OW16753   2.103   4.761   3.795
 5285SOL    HW116754   2.109   4.737   3.698
 5285SOL    HW216755   2.193   4.757   3.837
 5286SOL     OW16756   1.497   4.048   0.678
 5286SOL    HW116757   1.559   4.101   0.621
 5286SOL    HW216758   1.544   4.019   0.761
 5287SOL     OW16759   2.363   6.549   1.329
 5287SOL    HW116760   2.421   6.598   1.394
 5287SOL    HW216761   2.419   6.486   1.275
 5288SOL     OW16762   4.005   0.377   1.861
 5288SOL    HW116763   4.095   0.349   1.894
 5288SOL    HW216764   3.963   0.439   1.928
 5289SOL     OW16765   1.534   4.758   6.066
 5289SOL    HW116766   1.524   4.731   5.970
 5289SOL    HW216767   1.594   4.693   6.112
 5290SOL     OW16768   1.439   4.725   5.091
 5290SOL    HW116769   1.485   4.675   5.165
 5290SOL    HW216770   1.493   4.805   5.066
 5291SOL     OW16771   2.499   5.819   5.589
 5291SOL    HW116772   2.405   5.854   5.589
 5291SOL    HW216773   2.501   5.730   5.634
 5292SOL     OW16774   0.043   4.012   0.088
 5292SOL    HW116775   0.084   4.011   7.017
 5292SOL    HW216776   6.969   3.978   0.083
 5293SOL     OW16777   1.273   0.577   3.987
 5293SOL    HW116778   1.244   0.666   4.022
 5293SOL    HW216779   1.283   0.513   4.063
 5294SOL     OW16780   4.726   3.415   5.562
 5294SOL    HW116781   4.667   3.495   5.572
 5294SOL    HW216782   4.763   3.390   5.651
 5295SOL     OW16783   5.147   0.391   2.545
 5295SOL    HW116784   5.062   0.397   2.491
 5295SOL    HW216785   5.138   0.318   2.612
 5296SOL     OW16786   2.221   5.066   0.303
 5296SOL    HW116787   2.258   5.130   0.370
 5296SOL    HW216788   2.228   4.973   0.337
 5297SOL     OW16789   3.448   2.246   1.147
 5297SOL    HW116790   3.427   2.340   1.174
 5297SOL    HW216791   3.414   2.182   1.216
 5298SOL     OW16792   0.935   5.595   6.719
 5298SOL    HW116793   0.933   5.645   6.632
 5298SOL    HW216794   0.997   5.517   6.712
 5299SOL     OW16795   2.498   2.586   1.298
 5299SOL    HW116796   2.526   2.559   1.390
 5299SOL    HW216797   2.553   2.538   1.230
 5300SOL     OW16798   0.390   6.264   1.758
 5300SOL    HW116799   0.315   6.306   1.709
 5300SOL    HW216800   0.356   6.186   1.811
 5301SOL     OW16801   4.964   2.903   0.606
 5301SOL    HW116802   5.011   2.828   0.559
 5301SOL    HW216803   4.866   2.900   0.584
 5302SOL     OW16804   6.199   4.606   2.695
 5302SOL    HW116805   6.121   4.545   2.706
 5302SOL    HW216806   6.282   4.559   2.726
 5303SOL     OW16807   6.503   5.764   2.814
 5303SOL    HW116808   6.410   5.797   2.828
 5303SOL    HW216809   6.544   5.743   2.903
 5304SOL     OW16810   6.727   1.254   5.839
 5304SOL    HW116811   6.758   1.273   5.933
 5304SOL    HW216812   6.642   1.303   5.821
 5305SOL     OW16813   1.084   5.716   4.220
 5305SOL    HW116814   1.060   5.799   4.169
 5305SOL    HW216815   1.119   5.647   4.157
 5306SOL     OW16816   0.537   5.521   4.935
 5306SOL    HW116817   0.529   5.620   4.922
 5306SOL    HW216818   0.539   5.499   5.032
 5307SOL     OW16819   4.566   6.962   0.094
 5307SOL    HW116820   4.529   0.009   0.159
 5307SOL    HW216821   4.566   7.002   0.002
 5308SOL     OW16822   1.066   6.014   4.125
 5308SOL    HW116823   0.968   6.026   4.139
 5308SOL    HW216824   1.115   6.046   4.206
 5309SOL     OW16825   3.371   4.032   1.899
 5309SOL    HW116826   3.325   4.039   1.987
 5309SOL    HW216827   3.400   3.938   1.883
 5310SOL     OW16828   5.579   2.529   2.066
 5310SOL    HW116829   5.513   2.524   1.991
 5310SOL    HW216830   5.563   2.612   2.120
 5311SOL     OW16831   0.083   6.007   1.419
 5311SOL    HW116832   0.038   6.026   1.331
 5311SOL    HW216833   0.069   5.912   1.444
 5312SOL     OW16834   0.463   3.710   1.944
 5312SOL    HW116835   0.484   3.807   1.937
 5312SOL    HW216836   0.384   3.689   1.885
 5313SOL     OW16837   1.399   4.042   6.944
 5313SOL    HW116838   1.360   4.041   6.852
 5313SOL    HW216839   1.396   4.135   6.982
 5314SOL     OW16840   3.015   5.653   0.575
 5314SOL    HW116841   3.012   5.669   0.476
 5314SOL    HW216842   3.064   5.728   0.619
 5315SOL     OW16843   3.689   3.647   1.566
 5315SOL    HW116844   3.631   3.567   1.548
 5315SOL    HW216845   3.668   3.719   1.499
 5316SOL     OW16846   6.768   4.835   4.574
 5316SOL    HW116847   6.861   4.870   4.567
 5316SOL    HW216848   6.764   4.744   4.532
 5317SOL     OW16849   0.023   0.435   5.111
 5317SOL    HW116850   0.088   0.446   5.036
 5317SOL    HW216851   0.018   0.519   5.164
 5318SOL     OW16852   0.323   1.592   5.782
 5318SOL    HW116853   0.286   1.508   5.821
 5318SOL    HW216854   0.421   1.581   5.765
 5319SOL     OW16855   4.541   6.573   6.521
 5319SOL    HW116856   4.550   6.643   6.593
 5319SOL    HW216857   4.628   6.524   6.511
 5320SOL     OW16858   5.778   5.171   6.471
 5320SOL    HW116859   5.714   5.228   6.419
 5320SOL    HW216860   5.833   5.117   6.408
 5321SOL     OW16861   0.883   4.310   2.803
 5321SOL    HW116862   0.900   4.381   2.872
 5321SOL    HW216863   0.815   4.344   2.738
 5322SOL     OW16864   3.899   5.903   5.963
 5322SOL    HW116865   3.811   5.904   5.915
 5322SOL    HW216866   3.910   5.814   6.008
 5323SOL     OW16867   4.372   3.054   0.500
 5323SOL    HW116868   4.456   3.069   0.553
 5323SOL    HW216869   4.377   2.966   0.453
 5324SOL     OW16870   3.767   2.518   1.710
 5324SOL    HW116871   3.713   2.446   1.754
 5324SOL    HW216872   3.804   2.580   1.780
 5325SOL     OW16873   5.476   6.819   3.745
 5325SOL    HW116874   5.411   6.743   3.745
 5325SOL    HW216875   5.462   6.875   3.663
 5326SOL     OW16876   0.048   5.472   3.391
 5326SOL    HW116877   7.007   5.548   3.370
 5326SOL    HW216878   0.126   5.505   3.444
 5327SOL     OW16879   6.470   4.857   5.223
 5327SOL    HW116880   6.493   4.919   5.299
 5327SOL    HW216881   6.548   4.799   5.203
 5328SOL     OW16882   4.678   2.815   5.398
 5328SOL    HW116883   4.725   2.800   5.312
 5328SOL    HW216884   4.618   2.895   5.390
 5329SOL     OW16885   0.812   3.511   6.999
 5329SOL    HW116886   0.855   3.503   6.910
 5329SOL    HW216887   0.774   3.422   0.006
 5330SOL     OW16888   3.659   4.243   6.822
 5330SOL    HW116889   3.600   4.163   6.828
 5330SOL    HW216890   3.714   4.239   6.739
 5331SOL     OW16891   5.517   1.032   1.536
 5331SOL    HW116892   5.607   0.992   1.548
 5331SOL    HW216893   5.447   0.970   1.572
 5332SOL     OW16894   6.823   4.685   0.341
 5332SOL    HW116895   6.846   4.597   0.383
 5332SOL    HW216896   6.905   4.724   0.297
 5333SOL     OW16897   0.984   0.854   3.799
 5333SOL    HW116898   0.960   0.919   3.871
 5333SOL    HW216899   0.946   0.885   3.712
 5334SOL     OW16900   3.284   5.362   5.255
 5334SOL    HW116901   3.335   5.438   5.217
 5334SOL    HW216902   3.258   5.382   5.350
 5335SOL     OW16903   0.159   5.062   2.046
 5335SOL    HW116904   0.185   5.054   2.143
 5335SOL    HW216905   0.208   4.993   1.993
 5336SOL     OW16906   2.210   1.789   3.197
 5336SOL    HW116907   2.231   1.773   3.293
 5336SOL    HW216908   2.115   1.820   3.189
 5337SOL     OW16909   4.842   4.566   1.675
 5337SOL    HW116910   4.919   4.623   1.650
 5337SOL    HW216911   4.763   4.624   1.695
 5338SOL     OW16912   5.792   0.853   6.250
 5338SOL    HW116913   5.692   0.853   6.240
 5338SOL    HW216914   5.818   0.910   6.327
 5339SOL     OW16915   5.593   1.251   3.117
 5339SOL    HW116916   5.503   1.242   3.159
 5339SOL    HW216917   5.606   1.346   3.086
 5340SOL     OW16918   6.025   3.986   1.109
 5340SOL    HW116919   5.965   3.932   1.050
 5340SOL    HW216920   5.971   4.033   1.178
 5341SOL     OW16921   3.187   4.980   5.396
 5341SOL    HW116922   3.178   4.890   5.439
 5341SOL    HW216923   3.100   5.005   5.353
 5342SOL     OW16924   5.621   6.448   4.846
 5342SOL    HW116925   5.564   6.367   4.857
 5342SOL    HW216926   5.679   6.460   4.927
 5343SOL     OW16927   4.151   3.583   5.108
 5343SOL    HW116928   4.146   3.527   5.025
 5343SOL    HW216929   4.104   3.669   5.093
 5344SOL     OW16930   0.814   1.775   0.826
 5344SOL    HW116931   0.718   1.801   0.834
 5344SOL    HW216932   0.842   1.727   0.909
 5345SOL     OW16933   5.593   6.673   0.001
 5345SOL    HW116934   5.636   6.599   6.970
 5345SOL    HW216935   5.660   6.715   0.062
 5346SOL     OW16936   2.837   5.933   3.627
 5346SOL    HW116937   2.905   5.908   3.557
 5346SOL    HW216938   2.816   6.030   3.618
 5347SOL     OW16939   0.629   3.531   2.519
 5347SOL    HW116940   0.661   3.444   2.481
 5347SOL    HW216941   0.551   3.563   2.466
 5348SOL     OW16942   6.707   1.087   6.876
 5348SOL    HW116943   6.621   1.118   6.917
 5348SOL    HW216944   6.780   1.150   6.901
 5349SOL     OW16945   2.551   3.553   0.410
 5349SOL    HW116946   2.474   3.490   0.397
 5349SOL    HW216947   2.526   3.643   0.374
 5350SOL     OW16948   2.219   0.052   5.296
 5350SOL    HW116949   2.195   6.979   5.266
 5350SOL    HW216950   2.138   0.110   5.295
 5351SOL     OW16951   0.159   5.523   2.010
 5351SOL    HW116952   0.061   5.510   2.026
 5351SOL    HW216953   0.189   5.459   1.939
 5352SOL     OW16954   2.411   4.864   2.695
 5352SOL    HW116955   2.499   4.847   2.650
 5352SOL    HW216956   2.425   4.922   2.775
 5353SOL     OW16957   4.046   5.903   4.604
 5353SOL    HW116958   4.125   5.868   4.654
 5353SOL    HW216959   3.986   5.952   4.667
 5354SOL     OW16960   1.992   4.549   0.728
 5354SOL    HW116961   1.910   4.541   0.671
 5354SOL    HW216962   2.072   4.525   0.674
 5355SOL     OW16963   6.152   4.738   3.717
 5355SOL    HW116964   6.194   4.677   3.650
 5355SOL    HW216965   6.116   4.819   3.670
 5356SOL     OW16966   6.675   3.501   2.778
 5356SOL    HW116967   6.661   3.408   2.810
 5356SOL    HW216968   6.773   3.519   2.767
 5357SOL     OW16969   3.481   5.214   0.882
 5357SOL    HW116970   3.406   5.252   0.935
 5357SOL    HW216971   3.556   5.280   0.878
 5358SOL     OW16972   4.482   2.017   1.000
 5358SOL    HW116973   4.462   1.972   1.087
 5358SOL    HW216974   4.459   2.114   1.007
 5359SOL     OW16975   2.822   2.144   6.406
 5359SOL    HW116976   2.919   2.140   6.432
 5359SOL    HW216977   2.766   2.150   6.489
 5360SOL     OW16978   4.644   6.001   3.886
 5360SOL    HW116979   4.601   5.917   3.853
 5360SOL    HW216980   4.575   6.073   3.896
 5361SOL     OW16981   2.424   6.980   4.355
 5361SOL    HW116982   2.405   6.888   4.322
 5361SOL    HW216983   2.365   0.025   4.307
 5362SOL     OW16984   6.996   5.831   2.429
 5362SOL    HW116985   6.921   5.898   2.428
 5362SOL    HW216986   6.958   5.740   2.444
 5363SOL     OW16987   6.127   5.702   5.918
 5363SOL    HW116988   6.055   5.689   5.849
 5363SOL    HW216989   6.199   5.761   5.880
 5364SOL     OW16990   5.926   6.962   1.620
 5364SOL    HW116991   5.932   6.906   1.702
 5364SOL    HW216992   5.910   6.904   1.540
 5365SOL     OW16993   3.026   3.059   2.437
 5365SOL    HW116994   2.993   3.110   2.358
 5365SOL    HW216995   2.971   2.977   2.449
 5366SOL     OW16996   6.350   6.274   1.291
 5366SOL    HW116997   6.334   6.175   1.286
 5366SOL    HW216998   6.265   6.322   1.271
 5367SOL     OW16999   0.244   0.256   1.858
 5367SOL    HW117000   0.183   0.318   1.809
 5367SOL    HW217001   0.337   0.263   1.822
 5368SOL     OW17002   6.192   6.902   2.648
 5368SOL    HW117003   6.212   6.995   2.616
 5368SOL    HW217004   6.269   6.867   2.701
 5369SOL     OW17005   2.107   6.877   1.129
 5369SOL    HW117006   2.124   6.819   1.208
 5369SOL    HW217007   2.118   6.973   1.154
 5370SOL     OW17008   4.312   3.673   0.778
 5370SOL    HW117009   4.320   3.606   0.851
 5370SOL    HW217010   4.369   3.645   0.700
 5371SOL     OW17011   0.687   4.725   5.292
 5371SOL    HW117012   0.654   4.665   5.219
 5371SOL    HW217013   0.703   4.816   5.255
 5372SOL     OW17014   0.931   6.411   2.962
 5372SOL    HW117015   0.989   6.484   2.999
 5372SOL    HW217016   0.954   6.325   3.006
 5373SOL     OW17017   3.976   6.573   5.422
 5373SOL    HW117018   3.924   6.620   5.492
 5373SOL    HW217019   3.914   6.523   5.362
 5374SOL     OW17020   2.866   5.114   0.723
 5374SOL    HW117021   2.941   5.048   0.732
 5374SOL    HW217022   2.828   5.133   0.813
 5375SOL     OW17023   0.297   6.021   5.543
 5375SOL    HW117024   0.275   5.973   5.628
 5375SOL    HW217025   0.247   5.980   5.467
 5376SOL     OW17026   1.067   2.717   1.596
 5376SOL    HW117027   1.112   2.754   1.677
 5376SOL    HW217028   1.079   2.617   1.594
 5377SOL     OW17029   0.902   0.194   2.890
 5377SOL    HW117030   0.932   0.210   2.796
 5377SOL    HW217031   0.938   0.107   2.922
 5378SOL     OW17032   6.627   6.917   2.394
 5378SOL    HW117033   6.667   6.835   2.435
 5378SOL    HW217034   6.662   6.998   2.441
 5379SOL     OW17035   1.225   3.562   4.808
 5379SOL    HW117036   1.267   3.617   4.736
 5379SOL    HW217037   1.132   3.594   4.825
 5380SOL     OW17038   3.345   6.841   1.466
 5380SOL    HW117039   3.370   6.905   1.538
 5380SOL    HW217040   3.260   6.795   1.490
 5381SOL     OW17041   6.742   6.047   1.892
 5381SOL    HW117042   6.669   6.033   1.826
 5381SOL    HW217043   6.828   6.065   1.844
 5382SOL     OW17044   3.051   2.150   2.193
 5382SOL    HW117045   2.998   2.221   2.148
 5382SOL    HW217046   3.111   2.105   2.127
 5383SOL     OW17047   1.332   3.191   4.784
 5383SOL    HW117048   1.279   3.175   4.701
 5383SOL    HW217049   1.374   3.105   4.814
 5384SOL     OW17050   5.005   6.425   4.947
 5384SOL    HW117051   5.040   6.334   4.924
 5384SOL    HW217052   4.909   6.431   4.922
 5385SOL     OW17053   4.127   3.306   5.163
 5385SOL    HW117054   4.157   3.393   5.123
 5385SOL    HW217055   4.027   3.298   5.153
 5386SOL     OW17056   5.193   2.104   3.902
 5386SOL    HW117057   5.220   2.149   3.987
 5386SOL    HW217058   5.093   2.104   3.895
 5387SOL     OW17059   2.432   6.341   2.930
 5387SOL    HW117060   2.518   6.310   2.971
 5387SOL    HW217061   2.403   6.426   2.974
 5388SOL     OW17062   1.071   0.583   2.797
 5388SOL    HW117063   0.989   0.621   2.754
 5388SOL    HW217064   1.139   0.563   2.727
 5389SOL     OW17065   3.950   1.206   3.943
 5389SOL    HW117066   3.928   1.302   3.925
 5389SOL    HW217067   4.002   1.200   4.027
 5390SOL     OW17068   6.011   4.041   3.235
 5390SOL    HW117069   6.096   4.074   3.193
 5390SOL    HW217070   5.940   4.036   3.165
 5391SOL     OW17071   2.355   1.832   0.642
 5391SOL    HW117072   2.445   1.873   0.658
 5391SOL    HW217073   2.351   1.743   0.687
 5392SOL     OW17074   5.766   3.641   0.703
 5392SOL    HW117075   5.753   3.566   0.768
 5392SOL    HW217076   5.682   3.694   0.697
 5393SOL     OW17077   4.797   0.674   4.879
 5393SOL    HW117078   4.767   0.617   4.955
 5393SOL    HW217079   4.718   0.695   4.821
 5394SOL     OW17080   1.140   5.552   0.777
 5394SOL    HW117081   1.060   5.496   0.799
 5394SOL    HW217082   1.160   5.612   0.854
 5395SOL     OW17083   5.206   0.650   1.242
 5395SOL    HW117084   5.257   0.642   1.156
 5395SOL    HW217085   5.255   0.600   1.314
 5396SOL     OW17086   5.381   4.659   1.697
 5396SOL    HW117087   5.379   4.759   1.689
 5396SOL    HW217088   5.443   4.622   1.628
 5397SOL     OW17089   0.010   1.860   1.673
 5397SOL    HW117090   0.081   1.926   1.699
 5397SOL    HW217091   6.972   1.841   1.753
 5398SOL     OW17092   3.274   2.170   4.276
 5398SOL    HW117093   3.258   2.198   4.182
 5398SOL    HW217094   3.372   2.167   4.294
 5399SOL     OW17095   2.463   6.787   6.154
 5399SOL    HW117096   2.513   6.840   6.223
 5399SOL    HW217097   2.411   6.714   6.199
 5400SOL     OW17098   3.443   3.621   0.301
 5400SOL    HW117099   3.540   3.641   0.318
 5400SOL    HW217100   3.436   3.552   0.229
 5401SOL     OW17101   5.802   4.129   2.001
 5401SOL    HW117102   5.785   4.032   2.015
 5401SOL    HW217103   5.889   4.141   1.952
 5402SOL     OW17104   3.473   6.391   1.024
 5402SOL    HW117105   3.503   6.423   1.114
 5402SOL    HW217106   3.464   6.469   0.962
 5403SOL     OW17107   5.296   3.414   5.992
 5403SOL    HW117108   5.368   3.481   6.008
 5403SOL    HW217109   5.226   3.422   6.063
 5404SOL     OW17110   0.808   0.624   1.907
 5404SOL    HW117111   0.745   0.672   1.846
 5404SOL    HW217112   0.864   0.692   1.955
 5405SOL     OW17113   5.534   4.645   6.514
 5405SOL    HW117114   5.510   4.620   6.608
 5405SOL    HW217115   5.559   4.742   6.511
 5406SOL     OW17116   2.246   0.775   5.250
 5406SOL    HW117117   2.161   0.723   5.251
 5406SOL    HW217118   2.227   0.871   5.231
 5407SOL     OW17119   3.243   1.929   1.016
 5407SOL    HW117120   3.263   1.885   1.103
 5407SOL    HW217121   3.188   1.867   0.959
 5408SOL     OW17122   4.335   0.723   4.961
 5408SOL    HW117123   4.359   0.675   4.877
 5408SOL    HW217124   4.389   0.687   5.037
 5409SOL     OW17125   6.362   1.813   3.093
 5409SOL    HW117126   6.427   1.884   3.065
 5409SOL    HW217127   6.271   1.835   3.058
 5410SOL     OW17128   1.015   2.100   6.261
 5410SOL    HW117129   1.061   2.093   6.173
 5410SOL    HW217130   1.058   2.035   6.325
 5411SOL     OW17131   5.577   5.310   6.371
 5411SOL    HW117132   5.554   5.262   6.287
 5411SOL    HW217133   5.512   5.384   6.386
 5412SOL     OW17134   2.839   1.421   6.515
 5412SOL    HW117135   2.775   1.343   6.518
 5412SOL    HW217136   2.805   1.489   6.451
 5413SOL     OW17137   0.614   0.335   6.595
 5413SOL    HW117138   0.698   0.380   6.626
 5413SOL    HW217139   0.554   0.319   6.673
 5414SOL     OW17140   6.375   4.734   4.737
 5414SOL    HW117141   6.458   4.790   4.747
 5414SOL    HW217142   6.396   4.639   4.760
 5415SOL     OW17143   2.557   6.779   1.369
 5415SOL    HW117144   2.601   6.700   1.411
 5415SOL    HW217145   2.470   6.798   1.416
 5416SOL     OW17146   2.909   4.858   5.142
 5416SOL    HW117147   2.860   4.784   5.096
 5416SOL    HW217148   2.884   4.945   5.101
 5417SOL     OW17149   4.195   6.783   5.125
 5417SOL    HW117150   4.122   6.808   5.062
 5417SOL    HW217151   4.191   6.685   5.143
 5418SOL     OW17152   5.212   6.242   5.094
 5418SOL    HW117153   5.157   6.234   5.010
 5418SOL    HW217154   5.309   6.247   5.069
 5419SOL     OW17155   3.430   6.124   0.903
 5419SOL    HW117156   3.441   6.223   0.918
 5419SOL    HW217157   3.472   6.074   0.979
 5420SOL     OW17158   1.908   1.820   1.314
 5420SOL    HW117159   1.992   1.809   1.368
 5420SOL    HW217160   1.925   1.881   1.237
 5421SOL     OW17161   3.244   5.093   1.967
 5421SOL    HW117162   3.247   5.145   2.052
 5421SOL    HW217163   3.337   5.078   1.934
 5422SOL     OW17164   0.605   4.460   4.320
 5422SOL    HW117165   0.582   4.404   4.400
 5422SOL    HW217166   0.677   4.525   4.345
 5423SOL     OW17167   5.603   5.078   6.739
 5423SOL    HW117168   5.686   5.100   6.688
 5423SOL    HW217169   5.620   5.000   6.799
 5424SOL     OW17170   5.700   3.859   4.194
 5424SOL    HW117171   5.701   3.954   4.164
 5424SOL    HW217172   5.639   3.806   4.135
 5425SOL     OW17173   5.624   1.843   5.083
 5425SOL    HW117174   5.625   1.867   4.986
 5425SOL    HW217175   5.579   1.755   5.095
 5426SOL     OW17176   5.836   6.074   2.736
 5426SOL    HW117177   5.894   6.047   2.659
 5426SOL    HW217178   5.872   6.159   2.776
 5427SOL     OW17179   5.036   3.327   0.371
 5427SOL    HW117180   4.973   3.336   0.449
 5427SOL    HW217181   5.059   3.418   0.337
 5428SOL     OW17182   5.625   6.941   1.869
 5428SOL    HW117183   5.582   6.989   1.946
 5428SOL    HW217184   5.658   7.007   1.803
 5429SOL     OW17185   1.903   0.455   5.659
 5429SOL    HW117186   1.943   0.509   5.733
 5429SOL    HW217187   1.973   0.432   5.592
 5430SOL     OW17188   1.702   2.887   5.530
 5430SOL    HW117189   1.722   2.861   5.436
 5430SOL    HW217190   1.739   2.978   5.549
 5431SOL     OW17191   2.982   4.240   6.155
 5431SOL    HW117192   2.941   4.236   6.246
 5431SOL    HW217193   2.921   4.291   6.094
 5432SOL     OW17194   3.852   5.148   6.728
 5432SOL    HW117195   3.890   5.124   6.638
 5432SOL    HW217196   3.754   5.167   6.719
 5433SOL     OW17197   0.873   1.035   2.053
 5433SOL    HW117198   0.818   0.954   2.075
 5433SOL    HW217199   0.871   1.051   1.954
 5434SOL     OW17200   4.140   0.743   4.693
 5434SOL    HW117201   4.202   0.821   4.688
 5434SOL    HW217202   4.185   0.667   4.740
 5435SOL     OW17203   6.716   3.211   0.545
 5435SOL    HW117204   6.725   3.259   0.458
 5435SOL    HW217205   6.643   3.143   0.539
 5436SOL     OW17206   5.506   4.681   3.915
 5436SOL    HW117207   5.486   4.584   3.910
 5436SOL    HW217208   5.524   4.717   3.823
 5437SOL     OW17209   3.129   4.875   4.705
 5437SOL    HW117210   3.134   4.915   4.797
 5437SOL    HW217211   3.123   4.776   4.713
 5438SOL     OW17212   5.800   4.190   2.307
 5438SOL    HW117213   5.807   4.189   2.207
 5438SOL    HW217214   5.892   4.198   2.346
 5439SOL     OW17215   0.432   3.122   0.017
 5439SOL    HW117216   0.352   3.109   6.979
 5439SOL    HW217217   0.457   3.219   0.019
 5440SOL     OW17218   6.625   6.546   3.374
 5440SOL    HW117219   6.675   6.630   3.394
 5440SOL    HW217220   6.666   6.470   3.424
 5441SOL     OW17221   4.901   3.410   3.529
 5441SOL    HW117222   4.852   3.466   3.462
 5441SOL    HW217223   4.864   3.317   3.529
 5442SOL     OW17224   3.351   0.547   3.011
 5442SOL    HW117225   3.370   0.472   3.074
 5442SOL    HW217226   3.429   0.610   3.009
 5443SOL     OW17227   3.760   5.981   4.084
 5443SOL    HW117228   3.725   5.919   4.154
 5443SOL    HW217229   3.856   6.003   4.104
 5444SOL     OW17230   0.144   0.611   3.671
 5444SOL    HW117231   0.240   0.637   3.658
 5444SOL    HW217232   0.109   0.654   3.754
 5445SOL     OW17233   5.828   4.218   3.755
 5445SOL    HW117234   5.739   4.176   3.740
 5445SOL    HW217235   5.883   4.211   3.671
 5446SOL     OW17236   5.955   5.550   4.097
 5446SOL    HW117237   6.024   5.621   4.110
 5446SOL    HW217238   5.967   5.479   4.166
 5447SOL     OW17239   1.304   1.294   0.271
 5447SOL    HW117240   1.356   1.261   0.349
 5447SOL    HW217241   1.335   1.386   0.247
 5448SOL     OW17242   4.377   4.763   4.146
 5448SOL    HW117243   4.281   4.778   4.123
 5448SOL    HW217244   4.389   4.763   4.245
 5449SOL     OW17245   2.093   1.770   0.551
 5449SOL    HW117246   2.096   1.672   0.532
 5449SOL    HW217247   2.183   1.810   0.535
 5450SOL     OW17248   3.400   0.303   1.371
 5450SOL    HW117249   3.435   0.244   1.444
 5450SOL    HW217250   3.436   0.396   1.383
 5451SOL     OW17251   1.882   6.185   3.575
 5451SOL    HW117252   1.887   6.278   3.612
 5451SOL    HW217253   1.867   6.189   3.477
 5452SOL     OW17254   2.549   4.473   1.044
 5452SOL    HW117255   2.502   4.493   0.958
 5452SOL    HW217256   2.503   4.522   1.118
 5453SOL     OW17257   5.148   3.999   2.088
 5453SOL    HW117258   5.241   4.026   2.115
 5453SOL    HW217259   5.083   4.035   2.155
 5454SOL     OW17260   5.744   5.580   0.519
 5454SOL    HW117261   5.661   5.525   0.514
 5454SOL    HW217262   5.815   5.538   0.464
 5455SOL     OW17263   0.102   2.369   3.671
 5455SOL    HW117264   0.184   2.365   3.614
 5455SOL    HW217265   0.027   2.323   3.625
 5456SOL     OW17266   3.278   1.639   6.590
 5456SOL    HW117267   3.341   1.616   6.515
 5456SOL    HW217268   3.265   1.559   6.648
 5457SOL     OW17269   6.417   2.188   0.880
 5457SOL    HW117270   6.460   2.253   0.817
 5457SOL    HW217271   6.429   2.095   0.846
 5458SOL     OW17272   6.750   5.245   0.296
 5458SOL    HW117273   6.805   5.281   0.220
 5458SOL    HW217274   6.760   5.304   0.375
 5459SOL     OW17275   2.206   4.645   5.673
 5459SOL    HW117276   2.236   4.576   5.739
 5459SOL    HW217277   2.225   4.612   5.580
 5460SOL     OW17278   3.002   0.392   2.610
 5460SOL    HW117279   2.994   0.300   2.649
 5460SOL    HW217280   2.965   0.459   2.675
 5461SOL     OW17281   0.612   6.753   4.511
 5461SOL    HW117282   0.520   6.716   4.498
 5461SOL    HW217283   0.675   6.710   4.445
 5462SOL     OW17284   5.543   5.901   0.218
 5462SOL    HW117285   5.628   5.928   0.173
 5462SOL    HW217286   5.564   5.851   0.302
 5463SOL     OW17287   0.508   1.875   0.179
 5463SOL    HW117288   0.601   1.893   0.210
 5463SOL    HW217289   0.469   1.800   0.232
 5464SOL     OW17290   6.205   6.453   4.922
 5464SOL    HW117291   6.303   6.441   4.907
 5464SOL    HW217292   6.161   6.478   4.836
 5465SOL     OW17293   5.851   0.800   3.750
 5465SOL    HW117294   5.934   0.762   3.709
 5465SOL    HW217295   5.773   0.740   3.731
 5466SOL     OW17296   5.049   2.733   5.667
 5466SOL    HW117297   5.031   2.771   5.576
 5466SOL    HW217298   5.068   2.635   5.660
 5467SOL     OW17299   6.455   3.671   3.167
 5467SOL    HW117300   6.532   3.721   3.208
 5467SOL    HW217301   6.377   3.733   3.159
 5468SOL     OW17302   6.533   1.892   5.461
 5468SOL    HW117303   6.558   1.946   5.540
 5468SOL    HW217304   6.452   1.932   5.417
 5469SOL     OW17305   3.228   6.271   5.497
 5469SOL    HW117306   3.267   6.304   5.411
 5469SOL    HW217307   3.188   6.181   5.483
 5470SOL     OW17308   3.294   5.520   3.713
 5470SOL    HW117309   3.336   5.487   3.798
 5470SOL    HW217310   3.294   5.620   3.713
 5471SOL     OW17311   6.880   0.795   3.053
 5471SOL    HW117312   6.929   0.727   3.000
 5471SOL    HW217313   6.878   0.882   3.004
 5472SOL     OW17314   2.681   3.798   6.225
 5472SOL    HW117315   2.676   3.700   6.242
 5472SOL    HW217316   2.736   3.841   6.296
 5473SOL     OW17317   2.102   2.948   0.958
 5473SOL    HW117318   2.104   2.971   0.860
 5473SOL    HW217319   2.029   2.999   1.003
 5474SOL     OW17320   1.082   4.247   4.809
 5474SOL    HW117321   1.137   4.168   4.835
 5474SOL    HW217322   1.005   4.257   4.873
 5475SOL     OW17323   1.283   2.072   0.763
 5475SOL    HW117324   1.332   1.987   0.783
 5475SOL    HW217325   1.185   2.054   0.761
 5476SOL     OW17326   2.048   4.654   5.024
 5476SOL    HW117327   2.139   4.621   5.049
 5476SOL    HW217328   1.979   4.609   5.082
 5477SOL     OW17329   2.139   4.205   2.546
 5477SOL    HW117330   2.073   4.157   2.489
 5477SOL    HW217331   2.096   4.285   2.587
 5478SOL     OW17332   4.051   0.059   5.722
 5478SOL    HW117333   4.123   0.026   5.661
 5478SOL    HW217334   4.069   0.029   5.816
 5479SOL     OW17335   5.477   2.214   5.112
 5479SOL    HW117336   5.492   2.198   5.209
 5479SOL    HW217337   5.425   2.138   5.073
 5480SOL     OW17338   5.499   5.549   4.134
 5480SOL    HW117339   5.480   5.646   4.148
 5480SOL    HW217340   5.575   5.538   4.069
 5481SOL     OW17341   4.705   1.535   4.344
 5481SOL    HW117342   4.798   1.501   4.333
 5481SOL    HW217343   4.692   1.616   4.287
 5482SOL     OW17344   3.860   3.460   2.228
 5482SOL    HW117345   3.845   3.463   2.129
 5482SOL    HW217346   3.950   3.421   2.247
 5483SOL     OW17347   0.615   2.137   4.929
 5483SOL    HW117348   0.676   2.116   5.005
 5483SOL    HW217349   0.547   2.064   4.920
 5484SOL     OW17350   4.793   0.375   3.773
 5484SOL    HW117351   4.889   0.350   3.776
 5484SOL    HW217352   4.763   0.380   3.678
 5485SOL     OW17353   3.398   0.046   5.394
 5485SOL    HW117354   3.480   7.014   5.374
 5485SOL    HW217355   3.320   0.006   5.344
 5486SOL     OW17356   1.780   5.356   5.274
 5486SOL    HW117357   1.862   5.409   5.293
 5486SOL    HW217358   1.805   5.261   5.253
 5487SOL     OW17359   4.960   3.277   6.357
 5487SOL    HW117360   5.031   3.209   6.377
 5487SOL    HW217361   4.995   3.341   6.288
 5488SOL     OW17362   5.512   0.793   1.272
 5488SOL    HW117363   5.536   0.714   1.329
 5488SOL    HW217364   5.421   0.825   1.297
 5489SOL     OW17365   1.619   4.743   1.556
 5489SOL    HW117366   1.627   4.835   1.594
 5489SOL    HW217367   1.617   4.749   1.456
 5490SOL     OW17368   3.767   6.835   0.207
 5490SOL    HW117369   3.708   6.766   0.167
 5490SOL    HW217370   3.733   6.862   0.297
 5491SOL     OW17371   1.943   3.592   0.762
 5491SOL    HW117372   1.878   3.668   0.766
 5491SOL    HW217373   1.949   3.558   0.669
 5492SOL     OW17374   0.448   1.932   6.124
 5492SOL    HW117375   0.479   1.933   6.029
 5492SOL    HW217376   0.515   1.885   6.180
 5493SOL     OW17377   3.951   3.984   4.574
 5493SOL    HW117378   3.999   3.945   4.495
 5493SOL    HW217379   3.885   4.053   4.542
 5494SOL     OW17380   6.566   2.512   5.989
 5494SOL    HW117381   6.564   2.502   5.890
 5494SOL    HW217382   6.530   2.429   6.032
 5495SOL     OW17383   3.907   1.875   1.393
 5495SOL    HW117384   3.846   1.927   1.333
 5495SOL    HW217385   3.973   1.825   1.338
 5496SOL     OW17386   2.571   0.310   3.310
 5496SOL    HW117387   2.622   0.230   3.341
 5496SOL    HW217388   2.629   0.365   3.250
 5497SOL     OW17389   0.470   1.913   3.847
 5497SOL    HW117390   0.548   1.961   3.808
 5497SOL    HW217391   0.469   1.928   3.946
 5498SOL     OW17392   6.049   6.476   0.851
 5498SOL    HW117393   6.022   6.561   0.897
 5498SOL    HW217394   6.134   6.491   0.801
 5499SOL     OW17395   0.072   0.832   5.005
 5499SOL    HW117396   0.150   0.894   5.011
 5499SOL    HW217397   0.069   0.792   4.914
 5500SOL     OW17398   1.677   0.556   0.311
 5500SOL    HW117399   1.757   0.568   0.369
 5500SOL    HW217400   1.647   0.645   0.276
 5501SOL     OW17401   3.934   6.451   0.417
 5501SOL    HW117402   3.880   6.437   0.334
 5501SOL    HW217403   3.938   6.366   0.470
 5502SOL     OW17404   5.439   3.775   0.239
 5502SOL    HW117405   5.533   3.749   0.259
 5502SOL    HW217406   5.377   3.727   0.300
 5503SOL     OW17407   0.214   5.687   2.544
 5503SOL    HW117408   0.125   5.678   2.590
 5503SOL    HW217409   0.201   5.672   2.445
 5504SOL     OW17410   4.317   0.926   5.469
 5504SOL    HW117411   4.345   0.865   5.395
 5504SOL    HW217412   4.324   0.878   5.557
 5505SOL     OW17413   1.668   5.279   4.152
 5505SOL    HW117414   1.670   5.183   4.124
 5505SOL    HW217415   1.595   5.327   4.103
 5506SOL     OW17416   1.077   2.387   6.060
 5506SOL    HW117417   0.999   2.380   5.998
 5506SOL    HW217418   1.112   2.295   6.080
 5507SOL     OW17419   2.786   0.561   3.854
 5507SOL    HW117420   2.811   0.474   3.811
 5507SOL    HW217421   2.853   0.584   3.925
 5508SOL     OW17422   0.973   0.373   6.071
 5508SOL    HW117423   0.923   0.448   6.114
 5508SOL    HW217424   0.955   0.374   5.972
 5509SOL     OW17425   0.652   6.585   0.133
 5509SOL    HW117426   0.631   6.504   0.187
 5509SOL    HW217427   0.750   6.603   0.135
 5510SOL     OW17428   5.173   5.440   1.030
 5510SOL    HW117429   5.257   5.485   1.059
 5510SOL    HW217430   5.117   5.503   0.978
 5511SOL     OW17431   2.069   1.258   4.140
 5511SOL    HW117432   2.106   1.351   4.135
 5511SOL    HW217433   2.072   1.217   4.049
 5512SOL     OW17434   5.764   2.169   1.442
 5512SOL    HW117435   5.854   2.149   1.404
 5512SOL    HW217436   5.715   2.230   1.381
 5513SOL     OW17437   4.335   5.287   6.933
 5513SOL    HW117438   4.323   5.387   6.936
 5513SOL    HW217439   4.259   5.246   6.883
 5514SOL     OW17440   3.872   6.848   3.964
 5514SOL    HW117441   3.793   6.910   3.974
 5514SOL    HW217442   3.860   6.769   4.023
 5515SOL     OW17443   0.550   5.059   1.235
 5515SOL    HW117444   0.475   4.993   1.241
 5515SOL    HW217445   0.516   5.143   1.193
 5516SOL     OW17446   2.040   4.040   6.834
 5516SOL    HW117447   2.091   3.974   6.779
 5516SOL    HW217448   1.954   3.998   6.863
 5517SOL     OW17449   1.835   3.381   1.968
 5517SOL    HW117450   1.924   3.349   1.936
 5517SOL    HW217451   1.794   3.441   1.899
 5518SOL     OW17452   6.385   6.187   6.376
 5518SOL    HW117453   6.305   6.132   6.399
 5518SOL    HW217454   6.465   6.155   6.428
 5519SOL     OW17455   5.610   3.234   2.914
 5519SOL    HW117456   5.534   3.181   2.878
 5519SOL    HW217457   5.675   3.173   2.960
 5520SOL     OW17458   5.900   6.038   1.749
 5520SOL    HW117459   5.872   6.035   1.653
 5520SOL    HW217460   5.966   6.112   1.762
 5521SOL     OW17461   5.274   6.954   1.679
 5521SOL    HW117462   5.317   0.013   1.722
 5521SOL    HW217463   5.176   6.957   1.694
 5522SOL     OW17464   0.092   5.568   0.277
 5522SOL    HW117465   0.099   5.621   0.193
 5522SOL    HW217466   0.167   5.593   0.339
 5523SOL     OW17467   3.456   6.947   2.318
 5523SOL    HW117468   3.537   6.958   2.376
 5523SOL    HW217469   3.472   6.872   2.253
 5524SOL     OW17470   5.362   5.345   5.431
 5524SOL    HW117471   5.266   5.351   5.403
 5524SOL    HW217472   5.419   5.336   5.350
 5525SOL     OW17473   0.210   2.222   0.696
 5525SOL    HW117474   0.197   2.320   0.708
 5525SOL    HW217475   0.166   2.173   0.771
 5526SOL     OW17476   4.886   4.880   4.376
 5526SOL    HW117477   4.923   4.937   4.303
 5526SOL    HW217478   4.793   4.909   4.398
 5527SOL     OW17479   5.342   3.857   3.619
 5527SOL    HW117480   5.337   3.956   3.607
 5527SOL    HW217481   5.415   3.835   3.684
 5528SOL     OW17482   0.957   1.438   6.707
 5528SOL    HW117483   1.028   1.444   6.636
 5528SOL    HW217484   0.881   1.497   6.683
 5529SOL     OW17485   2.433   0.455   2.888
 5529SOL    HW117486   2.428   0.521   2.813
 5529SOL    HW217487   2.402   0.498   2.973
 5530SOL     OW17488   6.031   2.513   2.057
 5530SOL    HW117489   6.028   2.419   2.023
 5530SOL    HW217490   6.108   2.561   2.016
 5531SOL     OW17491   3.027   2.989   2.077
 5531SOL    HW117492   2.942   2.958   2.120
 5531SOL    HW217493   3.052   3.079   2.114
 5532SOL     OW17494   0.847   2.620   0.378
 5532SOL    HW117495   0.750   2.640   0.370
 5532SOL    HW217496   0.867   2.532   0.336
 5533SOL     OW17497   3.700   1.520   3.293
 5533SOL    HW117498   3.634   1.472   3.350
 5533SOL    HW217499   3.751   1.453   3.239
 5534SOL     OW17500   0.798   2.044   5.872
 5534SOL    HW117501   0.747   1.958   5.870
 5534SOL    HW217502   0.843   2.053   5.961
 5535SOL     OW17503   0.208   2.640   3.615
 5535SOL    HW117504   0.251   2.550   3.607
 5535SOL    HW217505   0.114   2.635   3.580
 5536SOL     OW17506   2.844   1.669   4.437
 5536SOL    HW117507   2.744   1.663   4.428
 5536SOL    HW217508   2.887   1.644   4.351
 5537SOL     OW17509   2.809   1.139   2.396
 5537SOL    HW117510   2.766   1.058   2.357
 5537SOL    HW217511   2.817   1.127   2.495
 5538SOL     OW17512   2.412   6.338   5.666
 5538SOL    HW117513   2.441   6.281   5.589
 5538SOL    HW217514   2.369   6.280   5.736
 5539SOL     OW17515   1.343   3.241   1.061
 5539SOL    HW117516   1.354   3.144   1.040
 5539SOL    HW217517   1.367   3.296   0.982
 5540SOL     OW17518   5.705   4.113   3.428
 5540SOL    HW117519   5.798   4.139   3.453
 5540SOL    HW217520   5.653   4.195   3.404
 5541SOL     OW17521   6.046   0.356   6.379
 5541SOL    HW117522   6.102   0.374   6.460
 5541SOL    HW217523   5.978   0.428   6.369
 5542SOL     OW17524   5.606   4.306   5.996
 5542SOL    HW117525   5.629   4.399   6.025
 5542SOL    HW217526   5.509   4.301   5.972
 5543SOL     OW17527   3.827   5.048   6.181
 5543SOL    HW117528   3.775   4.974   6.224
 5543SOL    HW217529   3.923   5.022   6.174
 5544SOL     OW17530   5.926   6.209   5.863
 5544SOL    HW117531   6.023   6.201   5.840
 5544SOL    HW217532   5.906   6.151   5.942
 5545SOL     OW17533   3.904   1.689   1.862
 5545SOL    HW117534   3.830   1.637   1.904
 5545SOL    HW217535   3.866   1.760   1.804
 5546SOL     OW17536   1.196   5.560   4.662
 5546SOL    HW117537   1.242   5.645   4.691
 5546SOL    HW217538   1.264   5.498   4.622
 5547SOL     OW17539   2.651   0.288   4.572
 5547SOL    HW117540   2.702   0.237   4.641
 5547SOL    HW217541   2.561   0.247   4.560
 5548SOL     OW17542   5.291   3.720   5.907
 5548SOL    HW117543   5.363   3.780   5.871
 5548SOL    HW217544   5.323   3.679   5.993
 5549SOL     OW17545   4.016   3.605   6.834
 5549SOL    HW117546   4.004   3.642   6.742
 5549SOL    HW217547   4.114   3.590   6.851
 5550SOL     OW17548   2.482   4.481   1.902
 5550SOL    HW117549   2.513   4.421   1.828
 5550SOL    HW217550   2.558   4.540   1.931
 5551SOL     OW17551   2.004   0.135   3.269
 5551SOL    HW117552   1.977   0.181   3.354
 5551SOL    HW217553   1.924   0.126   3.210
 5552SOL     OW17554   0.032   0.406   0.087
 5552SOL    HW117555   0.046   0.351   0.169
 5552SOL    HW217556   0.001   0.497   0.112
 5553SOL     OW17557   5.196   6.056   6.975
 5553SOL    HW117558   5.238   6.012   0.035
 5553SOL    HW217559   5.174   5.987   6.907
 5554SOL     OW17560   4.257   1.808   5.608
 5554SOL    HW117561   4.271   1.825   5.511
 5554SOL    HW217562   4.159   1.808   5.628
 5555SOL     OW17563   2.109   4.501   3.917
 5555SOL    HW117564   2.160   4.422   3.882
 5555SOL    HW217565   2.121   4.578   3.854
 5556SOL     OW17566   6.395   1.719   3.402
 5556SOL    HW117567   6.381   1.764   3.314
 5556SOL    HW217568   6.308   1.683   3.435
 5557SOL     OW17569   3.510   6.720   2.810
 5557SOL    HW117570   3.421   6.674   2.815
 5557SOL    HW217571   3.534   6.735   2.714
 5558SOL     OW17572   4.525   3.354   6.438
 5558SOL    HW117573   4.459   3.350   6.363
 5558SOL    HW217574   4.563   3.263   6.454
 5559SOL     OW17575   2.704   0.890   2.367
 5559SOL    HW117576   2.730   0.832   2.290
 5559SOL    HW217577   2.743   0.852   2.451
 5560SOL     OW17578   1.056   6.840   3.308
 5560SOL    HW117579   1.019   6.874   3.221
 5560SOL    HW217580   1.149   6.874   3.320
 5561SOL     OW17581   1.619   2.633   4.099
 5561SOL    HW117582   1.620   2.550   4.044
 5561SOL    HW217583   1.590   2.610   4.193
 5562SOL     OW17584   3.197   2.240   0.198
 5562SOL    HW117585   3.108   2.195   0.199
 5562SOL    HW217586   3.248   2.216   0.281
 5563SOL     OW17587   4.396   5.402   2.705
 5563SOL    HW117588   4.302   5.381   2.735
 5563SOL    HW217589   4.419   5.496   2.731
 5564SOL     OW17590   4.905   0.911   2.040
 5564SOL    HW117591   4.851   0.839   1.997
 5564SOL    HW217592   4.909   0.991   1.979
 5565SOL     OW17593   4.925   1.446   6.253
 5565SOL    HW117594   4.863   1.524   6.246
 5565SOL    HW217595   4.914   1.388   6.172
 5566SOL     OW17596   2.087   5.709   6.923
 5566SOL    HW117597   1.987   5.713   6.918
 5566SOL    HW217598   2.119   5.771   6.994
 5567SOL     OW17599   0.543   4.176   1.727
 5567SOL    HW117600   0.556   4.204   1.632
 5567SOL    HW217601   0.494   4.248   1.777
 5568SOL     OW17602   4.012   2.175   3.504
 5568SOL    HW117603   4.098   2.192   3.552
 5568SOL    HW217604   4.029   2.174   3.405
 5569SOL     OW17605   2.298   1.421   2.483
 5569SOL    HW117606   2.201   1.445   2.493
 5569SOL    HW217607   2.350   1.460   2.559
 5570SOL     OW17608   5.725   4.505   5.094
 5570SOL    HW117609   5.723   4.449   5.011
 5570SOL    HW217610   5.816   4.542   5.107
 5571SOL     OW17611   0.367   5.896   0.727
 5571SOL    HW117612   0.338   5.976   0.675
 5571SOL    HW217613   0.385   5.922   0.822
 5572SOL     OW17614   1.186   2.526   5.000
 5572SOL    HW117615   1.183   2.585   5.081
 5572SOL    HW217616   1.094   2.519   4.960
 5573SOL     OW17617   1.605   3.375   6.450
 5573SOL    HW117618   1.666   3.303   6.415
 5573SOL    HW217619   1.658   3.438   6.507
 5574SOL     OW17620   6.060   1.777   3.929
 5574SOL    HW117621   6.009   1.856   3.896
 5574SOL    HW217622   6.148   1.772   3.881
 5575SOL     OW17623   6.747   1.369   0.941
 5575SOL    HW117624   6.650   1.348   0.933
 5575SOL    HW217625   6.766   1.410   1.030
 5576SOL     OW17626   1.146   6.042   2.265
 5576SOL    HW117627   1.121   6.005   2.175
 5576SOL    HW217628   1.065   6.047   2.322
 5577SOL     OW17629   2.765   2.562   5.255
 5577SOL    HW117630   2.696   2.611   5.201
 5577SOL    HW217631   2.751   2.582   5.352
 5578SOL     OW17632   4.125   4.676   0.647
 5578SOL    HW117633   4.079   4.669   0.558
 5578SOL    HW217634   4.067   4.634   0.717
 5579SOL     OW17635   7.005   3.798   6.432
 5579SOL    HW117636   0.028   3.850   6.358
 5579SOL    HW217637   0.018   3.703   6.429
 5580SOL     OW17638   4.733   2.813   5.693
 5580SOL    HW117639   4.659   2.802   5.626
 5580SOL    HW217640   4.798   2.881   5.660
 5581SOL     OW17641   2.750   6.512   1.863
 5581SOL    HW117642   2.724   6.605   1.888
 5581SOL    HW217643   2.849   6.502   1.869
 5582SOL     OW17644   3.888   3.270   3.847
 5582SOL    HW117645   3.799   3.303   3.813
 5582SOL    HW217646   3.873   3.191   3.906
 5583SOL     OW17647   4.035   0.450   2.944
 5583SOL    HW117648   4.088   0.461   3.029
 5583SOL    HW217649   4.062   0.520   2.878
 5584SOL     OW17650   5.194   4.219   3.732
 5584SOL    HW117651   5.148   4.134   3.704
 5584SOL    HW217652   5.190   4.228   3.831
 5585SOL     OW17653   4.462   6.209   4.017
 5585SOL    HW117654   4.399   6.140   4.052
 5585SOL    HW217655   4.461   6.289   4.077
 5586SOL     OW17656   0.197   2.260   6.950
 5586SOL    HW117657   0.224   2.340   7.003
 5586SOL    HW217658   0.277   2.219   6.907
 5587SOL     OW17659   4.287   6.109   2.320
 5587SOL    HW117660   4.357   6.180   2.324
 5587SOL    HW217661   4.249   6.105   2.228
 5588SOL     OW17662   1.487   0.043   3.014
 5588SOL    HW117663   1.493   6.968   3.045
 5588SOL    HW217664   1.391   0.066   2.998
 5589SOL     OW17665   5.892   2.318   6.293
 5589SOL    HW117666   5.913   2.242   6.355
 5589SOL    HW217667   5.976   2.368   6.272
 5590SOL     OW17668   6.445   6.131   2.966
 5590SOL    HW117669   6.536   6.168   2.990
 5590SOL    HW217670   6.386   6.134   3.046
 5591SOL     OW17671   6.030   0.818   6.659
 5591SOL    HW117672   6.122   0.855   6.647
 5591SOL    HW217673   6.032   0.718   6.650
 5592SOL     OW17674   0.737   4.202   2.386
 5592SOL    HW117675   0.803   4.197   2.311
 5592SOL    HW217676   0.658   4.144   2.366
 5593SOL     OW17677   6.874   2.563   5.863
 5593SOL    HW117678   6.795   2.530   5.812
 5593SOL    HW217679   6.954   2.506   5.841
 5594SOL     OW17680   2.794   1.002   6.901
 5594SOL    HW117681   2.809   1.099   6.919
 5594SOL    HW217682   2.735   0.964   6.973
 5595SOL     OW17683   6.011   0.158   5.258
 5595SOL    HW117684   5.932   0.155   5.319
 5595SOL    HW217685   6.040   0.253   5.247
 5596SOL     OW17686   5.224   0.133   2.665
 5596SOL    HW117687   5.170   0.163   2.744
 5596SOL    HW217688   5.321   0.132   2.690
 5597SOL     OW17689   6.543   1.518   5.344
 5597SOL    HW117690   6.597   1.514   5.429
 5597SOL    HW217691   6.568   1.600   5.293
 5598SOL     OW17692   6.044   2.352   4.135
 5598SOL    HW117693   6.001   2.282   4.191
 5598SOL    HW217694   6.127   2.316   4.093
 5599SOL     OW17695   0.063   3.126   2.207
 5599SOL    HW117696   0.152   3.082   2.194
 5599SOL    HW217697   0.049   3.194   2.135
 5600SOL     OW17698   2.222   0.321   2.053
 5600SOL    HW117699   2.250   0.389   1.984
 5600SOL    HW217700   2.140   0.353   2.099
 5601SOL     OW17701   3.460   1.537   6.394
 5601SOL    HW117702   3.486   1.443   6.369
 5601SOL    HW217703   3.457   1.593   6.311
 5602SOL     OW17704   0.449   0.348   2.347
 5602SOL    HW117705   0.431   0.310   2.437
 5602SOL    HW217706   0.483   0.442   2.357
 5603SOL     OW17707   5.605   2.282   6.302
 5603SOL    HW117708   5.600   2.249   6.396
 5603SOL    HW217709   5.700   2.279   6.270
 5604SOL     OW17710   0.143   2.183   5.363
 5604SOL    HW117711   0.113   2.182   5.267
 5604SOL    HW217712   0.123   2.273   5.403
 5605SOL     OW17713   1.805   0.175   4.622
 5605SOL    HW117714   1.869   0.139   4.555
 5605SOL    HW217715   1.778   0.103   4.685
 5606SOL     OW17716   5.776   0.782   0.800
 5606SOL    HW117717   5.718   0.798   0.880
 5606SOL    HW217718   5.719   0.774   0.719
 5607SOL     OW17719   5.611   1.653   3.913
 5607SOL    HW117720   5.616   1.738   3.861
 5607SOL    HW217721   5.701   1.610   3.915
 5608SOL     OW17722   6.010   1.583   2.851
 5608SOL    HW117723   6.105   1.584   2.819
 5608SOL    HW217724   5.968   1.673   2.833
 5609SOL     OW17725   4.877   5.961   0.993
 5609SOL    HW117726   4.811   6.023   1.036
 5609SOL    HW217727   4.920   5.905   1.064
 5610SOL     OW17728   5.433   4.245   1.452
 5610SOL    HW117729   5.460   4.296   1.370
 5610SOL    HW217730   5.353   4.288   1.493
 5611SOL     OW17731   0.937   5.114   2.485
 5611SOL    HW117732   0.976   5.083   2.398
 5611SOL    HW217733   0.965   5.209   2.502
 5612SOL     OW17734   4.026   3.519   0.243
 5612SOL    HW117735   4.028   3.608   0.198
 5612SOL    HW217736   4.118   3.478   0.240
 5613SOL     OW17737   5.741   4.832   5.147
 5613SOL    HW117738   5.809   4.885   5.198
 5613SOL    HW217739   5.746   4.736   5.175
 5614SOL     OW17740   5.199   3.515   4.857
 5614SOL    HW117741   5.230   3.440   4.914
 5614SOL    HW217742   5.217   3.602   4.904
 5615SOL     OW17743   6.535   1.653   4.008
 5615SOL    HW117744   6.543   1.746   3.972
 5615SOL    HW217745   6.550   1.655   4.107
 5616SOL     OW17746   1.981   3.073   4.572
 5616SOL    HW117747   1.933   3.117   4.647
 5616SOL    HW217748   1.916   3.020   4.517
 5617SOL     OW17749   1.313   3.992   5.163
 5617SOL    HW117750   1.298   3.946   5.250
 5617SOL    HW217751   1.392   3.951   5.117
 5618SOL     OW17752   6.566   4.752   3.602
 5618SOL    HW117753   6.604   4.796   3.521
 5618SOL    HW217754   6.524   4.664   3.576
 5619SOL     OW17755   3.137   4.002   3.485
 5619SOL    HW117756   3.042   3.978   3.467
 5619SOL    HW217757   3.176   3.938   3.551
 5620SOL     OW17758   4.454   3.562   6.587
 5620SOL    HW117759   4.493   3.544   6.677
 5620SOL    HW217760   4.460   3.479   6.531
 5621SOL     OW17761   1.216   2.907   6.321
 5621SOL    HW117762   1.199   2.958   6.405
 5621SOL    HW217763   1.288   2.953   6.268
 5622SOL     OW17764   5.183   6.611   5.794
 5622SOL    HW117765   5.235   6.600   5.709
 5622SOL    HW217766   5.246   6.623   5.870
 5623SOL     OW17767   4.550   6.186   5.322
 5623SOL    HW117768   4.518   6.133   5.244
 5623SOL    HW217769   4.647   6.169   5.337
 5624SOL     OW17770   0.389   5.045   3.830
 5624SOL    HW117771   0.301   5.094   3.830
 5624SOL    HW217772   0.398   4.995   3.917
 5625SOL     OW17773   6.947   5.790   5.408
 5625SOL    HW117774   6.999   5.873   5.388
 5625SOL    HW217775   6.968   5.720   5.340
 5626SOL     OW17776   2.474   5.315   4.245
 5626SOL    HW117777   2.486   5.404   4.202
 5626SOL    HW217778   2.392   5.271   4.208
 5627SOL     OW17779   6.754   4.861   6.320
 5627SOL    HW117780   6.678   4.928   6.322
 5627SOL    HW217781   6.819   4.888   6.250
 5628SOL     OW17782   2.055   2.182   1.098
 5628SOL    HW117783   2.141   2.189   1.049
 5628SOL    HW217784   2.027   2.273   1.130
 5629SOL     OW17785   5.114   2.932   2.243
 5629SOL    HW117786   5.052   3.010   2.242
 5629SOL    HW217787   5.145   2.912   2.150
 5630SOL     OW17788   1.763   4.191   6.684
 5630SOL    HW117789   1.729   4.121   6.747
 5630SOL    HW217790   1.844   4.235   6.723
 5631SOL     OW17791   5.304   1.112   1.273
 5631SOL    HW117792   5.291   1.019   1.306
 5631SOL    HW217793   5.252   1.126   1.189
 5632SOL     OW17794   3.324   2.029   5.462
 5632SOL    HW117795   3.385   1.953   5.484
 5632SOL    HW217796   3.367   2.088   5.394
 5633SOL     OW17797   6.227   4.586   4.488
 5633SOL    HW117798   6.284   4.640   4.550
 5633SOL    HW217799   6.202   4.642   4.409
 5634SOL     OW17800   2.166   4.598   4.564
 5634SOL    HW117801   2.094   4.662   4.537
 5634SOL    HW217802   2.256   4.637   4.542
 5635SOL     OW17803   1.871   5.984   6.834
 5635SOL    HW117804   1.872   5.885   6.827
 5635SOL    HW217805   1.778   6.018   6.821
 5636SOL     OW17806   6.217   6.926   5.152
 5636SOL    HW117807   6.145   6.980   5.108
 5636SOL    HW217808   6.195   6.828   5.145
 5637SOL     OW17809   3.142   0.167   3.737
 5637SOL    HW117810   3.144   0.118   3.649
 5637SOL    HW217811   3.093   0.111   3.804
 5638SOL     OW17812   6.418   4.280   0.660
 5638SOL    HW117813   6.374   4.315   0.742
 5638SOL    HW217814   6.405   4.345   0.585
 5639SOL     OW17815   2.565   0.378   2.210
 5639SOL    HW117816   2.574   0.346   2.116
 5639SOL    HW217817   2.656   0.389   2.251
 5640SOL     OW17818   3.021   1.091   2.835
 5640SOL    HW117819   3.047   1.030   2.760
 5640SOL    HW217820   3.047   1.185   2.813
 5641SOL     OW17821   0.805   4.895   5.955
 5641SOL    HW117822   0.744   4.970   5.981
 5641SOL    HW217823   0.898   4.930   5.942
 5642SOL     OW17824   0.804   5.447   4.929
 5642SOL    HW117825   0.832   5.383   5.001
 5642SOL    HW217826   0.705   5.457   4.930
 5643SOL     OW17827   3.794   1.148   4.322
 5643SOL    HW117828   3.782   1.105   4.411
 5643SOL    HW217829   3.763   1.085   4.250
 5644SOL     OW17830   3.488   0.440   4.487
 5644SOL    HW117831   3.459   0.370   4.552
 5644SOL    HW217832   3.492   0.529   4.533
 5645SOL     OW17833   5.904   4.866   2.799
 5645SOL    HW117834   5.866   4.801   2.733
 5645SOL    HW217835   5.917   4.820   2.886
 5646SOL     OW17836   0.716   5.579   3.492
 5646SOL    HW117837   0.675   5.614   3.576
 5646SOL    HW217838   0.771   5.499   3.512
 5647SOL     OW17839   6.014   6.830   0.855
 5647SOL    HW117840   6.113   6.844   0.844
 5647SOL    HW217841   5.965   6.909   0.818
 5648SOL     OW17842   1.655   1.202   3.563
 5648SOL    HW117843   1.593   1.137   3.518
 5648SOL    HW217844   1.659   1.181   3.661
 5649SOL     OW17845   6.751   0.126   5.317
 5649SOL    HW117846   6.805   0.209   5.335
 5649SOL    HW217847   6.723   0.125   5.221
 5650SOL     OW17848   1.494   5.017   0.888
 5650SOL    HW117849   1.528   5.089   0.949
 5650SOL    HW217850   1.549   5.016   0.804
 5651SOL     OW17851   0.234   1.249   1.857
 5651SOL    HW117852   0.175   1.172   1.881
 5651SOL    HW217853   0.285   1.278   1.938
 5652SOL     OW17854   6.184   6.985   2.146
 5652SOL    HW117855   6.251   6.932   2.198
 5652SOL    HW217856   6.228   0.004   2.065
 5653SOL     OW17857   0.466   6.183   6.537
 5653SOL    HW117858   0.508   6.146   6.454
 5653SOL    HW217859   0.466   6.283   6.532
 5654SOL     OW17860   6.554   6.638   5.608
 5654SOL    HW117861   6.638   6.608   5.653
 5654SOL    HW217862   6.576   6.686   5.523
 5655SOL     OW17863   1.911   3.821   5.152
 5655SOL    HW117864   1.959   3.746   5.198
 5655SOL    HW217865   1.965   3.905   5.159
 5656SOL     OW17866   0.214   3.485   0.595
 5656SOL    HW117867   0.143   3.415   0.599
 5656SOL    HW217868   0.297   3.447   0.555
 5657SOL     OW17869   5.598   0.969   0.239
 5657SOL    HW117870   5.546   0.895   0.197
 5657SOL    HW217871   5.626   0.943   0.331
 5658SOL     OW17872   3.758   5.150   5.910
 5658SOL    HW117873   3.712   5.109   5.988
 5658SOL    HW217874   3.731   5.102   5.826
 5659SOL     OW17875   4.013   3.575   3.717
 5659SOL    HW117876   4.051   3.518   3.790
 5659SOL    HW217877   4.066   3.563   3.633
 5660SOL     OW17878   5.852   0.199   6.014
 5660SOL    HW117879   5.900   0.140   6.078
 5660SOL    HW217880   5.774   0.242   6.060
 5661SOL     OW17881   1.497   4.769   4.802
 5661SOL    HW117882   1.418   4.788   4.745
 5661SOL    HW217883   1.467   4.748   4.895
 5662SOL     OW17884   3.204   5.512   3.448
 5662SOL    HW117885   3.240   5.517   3.540
 5662SOL    HW217886   3.243   5.584   3.391
 5663SOL     OW17887   2.114   3.237   6.891
 5663SOL    HW117888   2.089   3.314   6.949
 5663SOL    HW217889   2.212   3.221   6.897
 5664SOL     OW17890   6.614   3.996   4.413
 5664SOL    HW117891   6.638   3.944   4.495
 5664SOL    HW217892   6.526   4.042   4.427
 5665SOL     OW17893   1.579   2.245   0.151
 5665SOL    HW117894   1.593   2.183   0.227
 5665SOL    HW217895   1.636   2.326   0.163
 5666SOL     OW17896   5.912   5.699   1.458
 5666SOL    HW117897   5.857   5.627   1.501
 5666SOL    HW217898   5.951   5.758   1.529
 5667SOL     OW17899   0.856   4.879   3.881
 5667SOL    HW117900   0.894   4.931   3.958
 5667SOL    HW217901   0.907   4.794   3.870
 5668SOL     OW17902   5.224   1.823   4.968
 5668SOL    HW117903   5.234   1.736   5.016
 5668SOL    HW217904   5.201   1.807   4.872
 5669SOL     OW17905   0.633   2.985   0.215
 5669SOL    HW117906   0.568   3.018   0.146
 5669SOL    HW217907   0.725   2.986   0.177
 5670SOL     OW17908   6.635   2.828   3.630
 5670SOL    HW117909   6.601   2.922   3.629
 5670SOL    HW217910   6.572   2.768   3.581
 5671SOL     OW17911   0.651   6.153   0.027
 5671SOL    HW117912   0.648   6.160   6.948
 5671SOL    HW217913   0.682   6.062   0.054
 5672SOL     OW17914   4.182   4.928   6.710
 5672SOL    HW117915   4.261   4.874   6.740
 5672SOL    HW217916   4.142   4.884   6.629
 5673SOL     OW17917   0.935   6.689   1.935
 5673SOL    HW117918   0.907   6.651   1.846
 5673SOL    HW217919   0.854   6.702   1.993
 5674SOL     OW17920   0.184   4.909   5.217
 5674SOL    HW117921   0.098   4.944   5.255
 5674SOL    HW217922   0.238   4.868   5.290
 5675SOL     OW17923   3.983   2.128   5.687
 5675SOL    HW117924   3.898   2.176   5.709
 5675SOL    HW217925   3.960   2.040   5.645
 5676SOL     OW17926   2.308   2.900   2.456
 5676SOL    HW117927   2.288   2.906   2.554
 5676SOL    HW217928   2.361   2.818   2.438
 5677SOL     OW17929   6.985   1.183   1.935
 5677SOL    HW117930   6.958   1.229   1.851
 5677SOL    HW217931   6.990   1.250   2.009
 5678SOL     OW17932   3.931   6.608   2.985
 5678SOL    HW117933   3.921   6.570   2.893
 5678SOL    HW217934   3.921   6.535   3.053
 5679SOL     OW17935   1.061   1.153   4.347
 5679SOL    HW117936   1.021   1.066   4.317
 5679SOL    HW217937   1.148   1.135   4.393
 5680SOL     OW17938   1.450   4.842   6.883
 5680SOL    HW117939   1.368   4.851   6.827
 5680SOL    HW217940   1.423   4.827   6.978
 5681SOL     OW17941   0.434   4.412   0.583
 5681SOL    HW117942   0.456   4.489   0.643
 5681SOL    HW217943   0.518   4.377   0.541
 5682SOL     OW17944   2.319   4.467   5.881
 5682SOL    HW117945   2.408   4.471   5.927
 5682SOL    HW217946   2.280   4.375   5.893
 5683SOL     OW17947   3.741   0.694   6.903
 5683SOL    HW117948   3.785   0.770   6.951
 5683SOL    HW217949   3.766   0.607   6.947
 5684SOL     OW17950   3.112   3.411   5.357
 5684SOL    HW117951   3.014   3.429   5.359
 5684SOL    HW217952   3.128   3.313   5.361
 5685SOL     OW17953   1.664   3.035   2.408
 5685SOL    HW117954   1.724   3.100   2.361
 5685SOL    HW217955   1.571   3.045   2.372
 5686SOL     OW17956   2.926   0.980   6.300
 5686SOL    HW117957   2.955   1.043   6.228
 5686SOL    HW217958   2.830   0.996   6.322
 5687SOL     OW17959   0.266   4.524   6.222
 5687SOL    HW117960   0.274   4.485   6.130
 5687SOL    HW217961   0.332   4.480   6.283
 5688SOL     OW17962   0.217   2.385   0.354
 5688SOL    HW117963   0.146   2.352   0.416
 5688SOL    HW217964   0.303   2.395   0.404
 5689SOL     OW17965   4.447   0.836   0.766
 5689SOL    HW117966   4.537   0.855   0.727
 5689SOL    HW217967   4.451   0.750   0.817
 5690SOL     OW17968   2.551   6.202   0.955
 5690SOL    HW117969   2.641   6.180   0.994
 5690SOL    HW217970   2.558   6.201   0.855
 5691SOL     OW17971   3.008   6.881   2.137
 5691SOL    HW117972   2.975   6.790   2.115
 5691SOL    HW217973   3.098   6.875   2.180
 5692SOL     OW17974   6.149   3.101   0.429
 5692SOL    HW117975   6.074   3.166   0.421
 5692SOL    HW217976   6.149   3.062   0.521
 5693SOL     OW17977   5.648   2.233   2.651
 5693SOL    HW117978   5.659   2.333   2.648
 5693SOL    HW217979   5.578   2.205   2.586
 5694SOL     OW17980   0.850   1.913   3.953
 5694SOL    HW117981   0.923   1.968   3.993
 5694SOL    HW217982   0.811   1.854   4.024
 5695SOL     OW17983   1.045   2.605   2.851
 5695SOL    HW117984   0.974   2.538   2.826
 5695SOL    HW217985   1.046   2.679   2.785
 5696SOL     OW17986   1.343   0.977   3.001
 5696SOL    HW117987   1.301   1.056   2.956
 5696SOL    HW217988   1.276   0.933   3.061
 5697SOL     OW17989   5.958   2.305   1.256
 5697SOL    HW117990   6.023   2.234   1.229
 5697SOL    HW217991   5.869   2.286   1.214
 5698SOL     OW17992   0.709   3.711   3.199
 5698SOL    HW117993   0.741   3.802   3.227
 5698SOL    HW217994   0.786   3.648   3.197
 5699SOL     OW17995   6.822   2.656   3.029
 5699SOL    HW117996   6.796   2.723   2.960
 5699SOL    HW217997   6.740   2.619   3.072
 5700SOL     OW17998   0.087   6.615   4.458
 5700SOL    HW117999   0.017   6.615   4.530
 5700SOL    HW218000   0.048   6.653   4.374
 5701SOL     OW18001   1.315   0.887   2.714
 5701SOL    HW118002   1.275   0.857   2.800
 5701SOL    HW218003   1.412   0.866   2.713
 5702SOL     OW18004   2.261   6.196   5.359
 5702SOL    HW118005   2.356   6.193   5.390
 5702SOL    HW218006   2.200   6.187   5.438
 5703SOL     OW18007   6.513   4.550   1.564
 5703SOL    HW118008   6.458   4.516   1.487
 5703SOL    HW218009   6.472   4.519   1.650
 5704SOL     OW18010   4.378   4.903   2.258
 5704SOL    HW118011   4.312   4.847   2.207
 5704SOL    HW218012   4.335   4.936   2.342
 5705SOL     OW18013   4.925   0.623   1.286
 5705SOL    HW118014   5.021   0.636   1.260
 5705SOL    HW218015   4.909   0.666   1.374
 5706SOL     OW18016   6.605   3.492   0.570
 5706SOL    HW118017   6.573   3.564   0.508
 5706SOL    HW218018   6.656   3.423   0.518
 5707SOL     OW18019   6.868   6.627   0.635
 5707SOL    HW118020   6.870   6.689   0.557
 5707SOL    HW218021   6.950   6.570   0.634
 5708SOL     OW18022   5.125   6.112   1.004
 5708SOL    HW118023   5.038   6.068   0.982
 5708SOL    HW218024   5.137   6.114   1.103
 5709SOL     OW18025   1.324   0.142   2.565
 5709SOL    HW118026   1.390   0.144   2.640
 5709SOL    HW218027   1.372   0.152   2.478
 5710SOL     OW18028   2.834   3.211   6.854
 5710SOL    HW118029   2.894   3.162   6.791
 5710SOL    HW218030   2.869   3.200   6.947
 5711SOL     OW18031   4.996   1.265   2.714
 5711SOL    HW118032   5.065   1.231   2.778
 5711SOL    HW218033   4.961   1.353   2.746
 5712SOL     OW18034   0.781   6.213   6.506
 5712SOL    HW118035   0.797   6.227   6.603
 5712SOL    HW218036   0.785   6.115   6.485
 5713SOL     OW18037   2.687   3.073   1.560
 5713SOL    HW118038   2.598   3.031   1.575
 5713SOL    HW218039   2.759   3.005   1.572
 5714SOL     OW18040   0.706   5.470   6.618
 5714SOL    HW118041   0.651   5.430   6.691
 5714SOL    HW218042   0.780   5.524   6.657
 5715SOL     OW18043   0.878   6.520   3.311
 5715SOL    HW118044   0.940   6.511   3.389
 5715SOL    HW218045   0.791   6.475   3.331
 5716SOL     OW18046   1.300   4.082   6.679
 5716SOL    HW118047   1.223   4.026   6.650
 5716SOL    HW218048   1.363   4.094   6.602
 5717SOL     OW18049   1.828   5.765   0.993
 5717SOL    HW118050   1.910   5.821   0.978
 5717SOL    HW218051   1.754   5.824   1.026
 5718SOL     OW18052   0.464   2.550   5.588
 5718SOL    HW118053   0.491   2.647   5.591
 5718SOL    HW218054   0.443   2.519   5.681
 5719SOL     OW18055   3.688   1.571   6.625
 5719SOL    HW118056   3.607   1.517   6.602
 5719SOL    HW218057   3.658   1.655   6.672
 5720SOL     OW18058   1.351   5.040   4.349
 5720SOL    HW118059   1.400   5.067   4.432
 5720SOL    HW218060   1.338   4.941   4.349
 5721SOL     OW18061   0.292   4.426   1.271
 5721SOL    HW118062   0.292   4.359   1.197
 5721SOL    HW218063   0.347   4.391   1.347
 5722SOL     OW18064   6.247   1.056   5.663
 5722SOL    HW118065   6.154   1.092   5.655
 5722SOL    HW218066   6.257   0.975   5.606
 5723SOL     OW18067   4.902   3.305   0.062
 5723SOL    HW118068   4.903   3.305   6.982
 5723SOL    HW218069   4.963   3.233   0.095
 5724SOL     OW18070   4.804   3.031   4.837
 5724SOL    HW118071   4.818   3.097   4.911
 5724SOL    HW218072   4.769   2.945   4.875
 5725SOL     OW18073   5.536   5.102   3.728
 5725SOL    HW118074   5.602   5.106   3.653
 5725SOL    HW218075   5.476   5.181   3.723
 5726SOL     OW18076   0.285   4.707   4.983
 5726SOL    HW118077   0.364   4.767   4.998
 5726SOL    HW218078   0.287   4.632   5.049
 5727SOL     OW18079   6.848   1.856   4.068
 5727SOL    HW118080   6.870   1.762   4.041
 5727SOL    HW218081   6.846   1.862   4.168
 5728SOL     OW18082   4.182   1.246   6.318
 5728SOL    HW118083   4.137   1.164   6.354
 5728SOL    HW218084   4.113   1.307   6.279
 5729SOL     OW18085   1.003   1.314   0.346
 5729SOL    HW118086   1.094   1.355   0.338
 5729SOL    HW218087   1.009   1.215   0.341
 5730SOL     OW18088   4.615   5.426   6.372
 5730SOL    HW118089   4.669   5.408   6.454
 5730SOL    HW218090   4.670   5.478   6.306
 5731SOL     OW18091   0.903   6.705   4.099
 5731SOL    HW118092   0.841   6.672   4.027
 5731SOL    HW218093   0.992   6.660   4.090
 5732SOL     OW18094   6.346   5.177   4.965
 5732SOL    HW118095   6.306   5.267   4.947
 5732SOL    HW218096   6.313   5.112   4.896
 5733SOL     OW18097   3.793   6.978   5.090
 5733SOL    HW118098   3.863   0.022   5.121
 5733SOL    HW218099   3.835   6.889   5.070
 5734SOL     OW18100   0.895   6.702   6.205
 5734SOL    HW118101   0.799   6.677   6.191
 5734SOL    HW218102   0.946   6.621   6.234
 5735SOL     OW18103   3.916   2.133   1.922
 5735SOL    HW118104   3.964   2.211   1.961
 5735SOL    HW218105   3.824   2.128   1.962
 5736SOL     OW18106   5.940   3.907   0.434
 5736SOL    HW118107   5.942   3.993   0.384
 5736SOL    HW218108   5.980   3.834   0.378
 5737SOL     OW18109   4.837   5.713   0.380
 5737SOL    HW118110   4.737   5.714   0.385
 5737SOL    HW218111   4.868   5.785   0.317
 5738SOL     OW18112   3.086   3.206   6.029
 5738SOL    HW118113   3.175   3.164   6.048
 5738SOL    HW218114   3.061   3.187   5.934
 5739SOL     OW18115   1.004   0.011   5.817
 5739SOL    HW118116   1.005   6.977   5.901
 5739SOL    HW218117   1.078   7.000   5.756
 5740SOL     OW18118   4.291   3.523   0.988
 5740SOL    HW118119   4.221   3.485   0.928
 5740SOL    HW218120   4.247   3.564   1.068
 5741SOL     OW18121   6.767   4.361   4.570
 5741SOL    HW118122   6.688   4.354   4.509
 5741SOL    HW218123   6.817   4.274   4.568
 5742SOL     OW18124   4.494   6.772   2.899
 5742SOL    HW118125   4.529   6.726   2.981
 5742SOL    HW218126   4.394   6.773   2.902
 5743SOL     OW18127   2.827   5.650   5.227
 5743SOL    HW118128   2.811   5.730   5.169
 5743SOL    HW218129   2.926   5.636   5.238
 5744SOL     OW18130   4.828   1.909   1.929
 5744SOL    HW118131   4.774   1.854   1.993
 5744SOL    HW218132   4.884   1.974   1.980
 5745SOL     OW18133   2.042   1.105   4.383
 5745SOL    HW118134   2.105   1.120   4.460
 5745SOL    HW218135   2.061   1.172   4.311
 5746SOL     OW18136   5.328   6.599   0.988
 5746SOL    HW118137   5.276   6.682   1.010
 5746SOL    HW218138   5.382   6.615   0.905
 5747SOL     OW18139   0.521   4.558   2.621
 5747SOL    HW118140   0.424   4.534   2.617
 5747SOL    HW218141   0.536   4.620   2.698
 5748SOL     OW18142   1.650   6.201   0.786
 5748SOL    HW118143   1.576   6.269   0.781
 5748SOL    HW218144   1.647   6.155   0.874
 5749SOL     OW18145   1.394   6.085   4.459
 5749SOL    HW118146   1.318   6.128   4.410
 5749SOL    HW218147   1.477   6.090   4.402
 5750SOL     OW18148   6.789   5.989   4.284
 5750SOL    HW118149   6.782   6.000   4.185
 5750SOL    HW218150   6.847   6.060   4.322
 5751SOL     OW18151   2.634   2.455   4.377
 5751SOL    HW118152   2.617   2.517   4.300
 5751SOL    HW218153   2.556   2.459   4.439
 5752SOL     OW18154   6.601   0.310   0.340
 5752SOL    HW118155   6.688   0.329   0.386
 5752SOL    HW218156   6.610   0.229   0.284
 5753SOL     OW18157   3.753   3.226   4.453
 5753SOL    HW118158   3.837   3.205   4.502
 5753SOL    HW218159   3.775   3.276   4.369
 5754SOL     OW18160   6.548   4.838   1.408
 5754SOL    HW118161   6.566   4.740   1.401
 5754SOL    HW218162   6.634   4.888   1.408
 5755SOL     OW18163   2.263   2.924   6.205
 5755SOL    HW118164   2.318   2.980   6.142
 5755SOL    HW218165   2.215   2.854   6.153
 5756SOL     OW18166   5.991   0.206   3.282
 5756SOL    HW118167   6.090   0.209   3.268
 5756SOL    HW218168   5.970   0.159   3.368
 5757SOL     OW18169   6.684   6.930   3.255
 5757SOL    HW118170   6.597   6.887   3.231
 5757SOL    HW218171   6.755   6.860   3.264
 5758SOL     OW18172   2.623   0.984   4.742
 5758SOL    HW118173   2.584   1.072   4.769
 5758SOL    HW218174   2.714   0.998   4.705
 5759SOL     OW18175   5.330   1.669   6.817
 5759SOL    HW118176   5.281   1.755   6.805
 5759SOL    HW218177   5.415   1.671   6.766
 5760SOL     OW18178   0.365   4.146   0.623
 5760SOL    HW118179   0.333   4.128   0.530
 5760SOL    HW218180   0.374   4.245   0.637
 5761SOL     OW18181   5.944   5.695   6.124
 5761SOL    HW118182   5.909   5.603   6.106
 5761SOL    HW218183   6.013   5.718   6.055
 5762SOL     OW18184   4.680   4.994   0.636
 5762SOL    HW118185   4.629   5.016   0.553
 5762SOL    HW218186   4.617   4.960   0.706
 5763SOL     OW18187   0.317   0.025   0.430
 5763SOL    HW118188   0.248   7.018   0.364
 5763SOL    HW218189   0.407   7.011   0.402
 5764SOL     OW18190   5.159   5.086   5.378
 5764SOL    HW118191   5.219   5.076   5.298
 5764SOL    HW218192   5.159   5.000   5.430
 5765SOL     OW18193   5.897   2.934   0.330
 5765SOL    HW118194   5.883   2.862   0.263
 5765SOL    HW218195   5.931   2.894   0.415
 5766SOL     OW18196   2.113   2.203   6.281
 5766SOL    HW118197   2.180   2.276   6.274
 5766SOL    HW218198   2.021   2.241   6.270
 5767SOL     OW18199   1.715   1.507   0.157
 5767SOL    HW118200   1.689   1.572   0.086
 5767SOL    HW218201   1.814   1.510   0.171
 5768SOL     OW18202   0.850   6.108   3.397
 5768SOL    HW118203   0.852   6.012   3.369
 5768SOL    HW218204   0.866   6.114   3.495
 5769SOL     OW18205   2.356   5.816   4.441
 5769SOL    HW118206   2.409   5.782   4.363
 5769SOL    HW218207   2.264   5.776   4.438
 5770SOL     OW18208   6.176   6.570   0.405
 5770SOL    HW118209   6.275   6.565   0.400
 5770SOL    HW218210   6.146   6.664   0.388
 5771SOL     OW18211   1.350   6.930   3.273
 5771SOL    HW118212   1.369   6.861   3.203
 5771SOL    HW218213   1.428   6.991   3.282
 5772SOL     OW18214   6.125   2.133   0.743
 5772SOL    HW118215   6.201   2.180   0.789
 5772SOL    HW218216   6.149   2.119   0.647
 5773SOL     OW18217   4.532   0.875   3.651
 5773SOL    HW118218   4.584   0.910   3.729
 5773SOL    HW218219   4.591   0.819   3.593
 5774SOL     OW18220   2.994   5.852   3.436
 5774SOL    HW118221   2.948   5.831   3.349
 5774SOL    HW218222   3.019   5.767   3.482
 5775SOL     OW18223   1.327   1.476   2.096
 5775SOL    HW118224   1.290   1.387   2.072
 5775SOL    HW218225   1.366   1.519   2.015
 5776SOL     OW18226   0.051   0.258   5.327
 5776SOL    HW118227   0.032   0.317   5.249
 5776SOL    HW218228   0.056   0.163   5.296
 5777SOL     OW18229   6.404   0.132   5.311
 5777SOL    HW118230   6.339   0.107   5.383
 5777SOL    HW218231   6.432   0.228   5.323
 5778SOL     OW18232   1.470   0.792   1.322
 5778SOL    HW118233   1.455   0.714   1.384
 5778SOL    HW218234   1.383   0.839   1.308
 5779SOL     OW18235   5.166   2.122   0.395
 5779SOL    HW118236   5.081   2.168   0.423
 5779SOL    HW218237   5.145   2.051   0.328
 5780SOL     OW18238   6.150   5.322   3.185
 5780SOL    HW118239   6.132   5.249   3.120
 5780SOL    HW218240   6.205   5.286   3.260
 5781SOL     OW18241   0.289   4.413   4.402
 5781SOL    HW118242   0.332   4.323   4.395
 5781SOL    HW218243   0.350   4.483   4.365
 5782SOL     OW18244   0.958   1.266   0.666
 5782SOL    HW118245   1.036   1.320   0.636
 5782SOL    HW218246   0.876   1.297   0.618
 5783SOL     OW18247   1.836   0.803   1.680
 5783SOL    HW118248   1.842   0.851   1.768
 5783SOL    HW218249   1.886   0.854   1.610
 5784SOL     OW18250   0.104   6.041   0.022
 5784SOL    HW118251   0.194   5.998   0.023
 5784SOL    HW218252   0.058   6.025   0.109
 5785SOL     OW18253   1.839   1.928   0.482
 5785SOL    HW118254   1.922   1.872   0.474
 5785SOL    HW218255   1.828   1.983   0.399
 5786SOL     OW18256   0.453   4.584   1.111
 5786SOL    HW118257   0.400   4.621   1.034
 5786SOL    HW218258   0.391   4.552   1.182
 5787SOL     OW18259   3.790   2.026   5.448
 5787SOL    HW118260   3.746   2.108   5.414
 5787SOL    HW218261   3.737   1.989   5.525
 5788SOL     OW18262   3.162   1.493   1.323
 5788SOL    HW118263   3.174   1.552   1.404
 5788SOL    HW218264   3.246   1.441   1.308
 5789SOL     OW18265   2.672   4.201   0.572
 5789SOL    HW118266   2.627   4.120   0.608
 5789SOL    HW218267   2.603   4.269   0.546
 5790SOL     OW18268   0.211   4.705   4.649
 5790SOL    HW118269   0.146   4.727   4.722
 5790SOL    HW218270   0.210   4.606   4.632
 5791SOL     OW18271   3.109   1.768   2.281
 5791SOL    HW118272   3.084   1.854   2.325
 5791SOL    HW218273   3.107   1.694   2.347
 5792SOL     OW18274   5.344   2.549   2.329
 5792SOL    HW118275   5.303   2.492   2.258
 5792SOL    HW218276   5.367   2.639   2.291
 5793SOL     OW18277   6.046   0.597   4.152
 5793SOL    HW118278   5.949   0.601   4.177
 5793SOL    HW218279   6.097   0.550   4.223
 5794SOL     OW18280   2.434   0.625   5.979
 5794SOL    HW118281   2.488   0.703   6.011
 5794SOL    HW218282   2.350   0.657   5.935
 5795SOL     OW18283   0.231   6.692   0.252
 5795SOL    HW118284   0.316   6.718   0.207
 5795SOL    HW218285   0.251   6.636   0.332
 5796SOL     OW18286   4.834   0.906   6.185
 5796SOL    HW118287   4.868   0.830   6.239
 5796SOL    HW218288   4.746   0.882   6.146
 5797SOL     OW18289   4.856   2.357   0.343
 5797SOL    HW118290   4.818   2.420   0.410
 5797SOL    HW218291   4.936   2.399   0.299
 5798SOL     OW18292   6.594   5.429   3.954
 5798SOL    HW118293   6.601   5.331   3.937
 5798SOL    HW218294   6.673   5.476   3.913
 5799SOL     OW18295   0.056   0.570   4.214
 5799SOL    HW118296   0.059   0.508   4.292
 5799SOL    HW218297   0.133   0.551   4.153
 5800SOL     OW18298   6.848   0.009   1.998
 5800SOL    HW118299   6.887   6.957   2.056
 5800SOL    HW218300   6.852   7.000   1.903
 5801SOL     OW18301   1.743   2.392   3.446
 5801SOL    HW118302   1.659   2.365   3.398
 5801SOL    HW218303   1.823   2.360   3.395
 5802SOL     OW18304   6.963   3.381   2.581
 5802SOL    HW118305   0.032   3.337   2.592
 5802SOL    HW218306   6.966   3.473   2.619
 5803SOL     OW18307   2.271   5.885   2.752
 5803SOL    HW118308   2.321   5.950   2.809
 5803SOL    HW218309   2.223   5.933   2.679
 5804SOL     OW18310   0.421   5.062   3.180
 5804SOL    HW118311   0.494   5.131   3.175
 5804SOL    HW218312   0.461   4.971   3.179
 5805SOL     OW18313   1.916   2.739   0.681
 5805SOL    HW118314   1.854   2.662   0.695
 5805SOL    HW218315   2.011   2.708   0.687
 5806SOL     OW18316   6.243   5.507   4.365
 5806SOL    HW118317   6.248   5.583   4.300
 5806SOL    HW218318   6.306   5.435   4.338
 5807SOL     OW18319   0.877   4.394   0.687
 5807SOL    HW118320   0.936   4.399   0.767
 5807SOL    HW218321   0.792   4.347   0.711
 5808SOL     OW18322   6.736   5.648   4.128
 5808SOL    HW118323   6.637   5.633   4.124
 5808SOL    HW218324   6.768   5.680   4.039
 5809SOL     OW18325   6.320   1.592   5.083
 5809SOL    HW118326   6.380   1.583   5.162
 5809SOL    HW218327   6.296   1.501   5.049
 5810SOL     OW18328   4.950   1.172   5.760
 5810SOL    HW118329   4.931   1.077   5.785
 5810SOL    HW218330   4.971   1.176   5.662
 5811SOL     OW18331   3.955   0.822   4.895
 5811SOL    HW118332   3.935   0.919   4.909
 5811SOL    HW218333   4.018   0.811   4.819
 5812SOL     OW18334   5.735   3.277   5.489
 5812SOL    HW118335   5.731   3.200   5.552
 5812SOL    HW218336   5.675   3.259   5.411
 5813SOL     OW18337   2.220   1.416   0.927
 5813SOL    HW118338   2.192   1.326   0.962
 5813SOL    HW218339   2.277   1.462   0.995
 5814SOL     OW18340   6.527   3.471   2.061
 5814SOL    HW118341   6.549   3.548   2.121
 5814SOL    HW218342   6.541   3.385   2.110
 5815SOL     OW18343   4.014   1.895   3.737
 5815SOL    HW118344   3.933   1.849   3.702
 5815SOL    HW218345   3.987   1.981   3.780
 5816SOL     OW18346   4.830   4.450   0.760
 5816SOL    HW118347   4.829   4.377   0.828
 5816SOL    HW218348   4.756   4.515   0.780
 5817SOL     OW18349   6.112   4.504   5.697
 5817SOL    HW118350   6.100   4.436   5.769
 5817SOL    HW218351   6.027   4.513   5.646
 5818SOL     OW18352   6.553   5.120   5.393
 5818SOL    HW118353   6.549   5.053   5.468
 5818SOL    HW218354   6.642   5.166   5.395
 5819SOL     OW18355   3.730   0.089   6.762
 5819SOL    HW118356   3.711   0.015   6.697
 5819SOL    HW218357   3.759   0.050   6.849
 5820SOL     OW18358   4.258   4.801   3.601
 5820SOL    HW118359   4.281   4.708   3.570
 5820SOL    HW218360   4.176   4.797   3.659
 5821SOL     OW18361   6.996   0.915   1.847
 5821SOL    HW118362   6.984   1.009   1.879
 5821SOL    HW218363   0.060   0.908   1.794
 5822SOL     OW18364   1.645   2.594   1.540
 5822SOL    HW118365   1.586   2.551   1.608
 5822SOL    HW218366   1.619   2.563   1.449
 5823SOL     OW18367   2.943   0.560   4.478
 5823SOL    HW118368   2.927   0.658   4.487
 5823SOL    HW218369   3.033   0.544   4.439
 5824SOL     OW18370   0.092   6.051   2.681
 5824SOL    HW118371   0.030   5.994   2.627
 5824SOL    HW218372   0.063   6.146   2.676
 5825SOL     OW18373   0.128   6.865   4.627
 5825SOL    HW118374   0.194   6.914   4.685
 5825SOL    HW218375   0.176   6.825   4.549
 5826SOL     OW18376   6.968   5.179   6.199
 5826SOL    HW118377   7.011   5.164   6.288
 5826SOL    HW218378   6.966   5.277   6.178
 5827SOL     OW18379   1.656   3.790   5.220
 5827SOL    HW118380   1.750   3.798   5.186
 5827SOL    HW218381   1.637   3.866   5.282
 5828SOL     OW18382   5.350   1.715   2.263
 5828SOL    HW118383   5.393   1.630   2.232
 5828SOL    HW218384   5.413   1.791   2.252
 5829SOL     OW18385   1.926   0.284   4.303
 5829SOL    HW118386   1.939   0.204   4.362
 5829SOL    HW218387   1.995   0.283   4.230
 5830SOL     OW18388   5.806   6.833   6.034
 5830SOL    HW118389   5.751   6.792   5.962
 5830SOL    HW218390   5.892   6.866   5.995
 5831SOL     OW18391   1.275   0.296   5.829
 5831SOL    HW118392   1.178   0.315   5.847
 5831SOL    HW218393   1.304   0.342   5.746
 5832SOL     OW18394   3.203   4.911   6.876
 5832SOL    HW118395   3.244   4.942   6.962
 5832SOL    HW218396   3.268   4.851   6.828
 5833SOL     OW18397   4.042   3.821   5.102
 5833SOL    HW118398   3.943   3.837   5.094
 5833SOL    HW218399   4.080   3.886   5.168
 5834SOL     OW18400   0.264   3.070   0.284
 5834SOL    HW118401   0.310   3.087   0.372
 5834SOL    HW218402   0.328   3.026   0.222
 5835SOL     OW18403   5.347   2.586   3.175
 5835SOL    HW118404   5.295   2.510   3.214
 5835SOL    HW218405   5.286   2.665   3.166
 5836SOL     OW18406   3.409   0.181   1.982
 5836SOL    HW118407   3.330   0.231   2.018
 5836SOL    HW218408   3.447   0.231   1.904
 5837SOL     OW18409   3.445   3.771   0.061
 5837SOL    HW118410   3.516   3.785   7.013
 5837SOL    HW218411   3.471   3.696   0.122
 5838SOL     OW18412   2.730   1.791   0.876
 5838SOL    HW118413   2.824   1.756   0.877
 5838SOL    HW218414   2.732   1.891   0.866
 5839SOL     OW18415   0.945   2.232   1.893
 5839SOL    HW118416   0.977   2.243   1.986
 5839SOL    HW218417   0.930   2.323   1.852
 5840SOL     OW18418   1.793   4.879   6.233
 5840SOL    HW118419   1.777   4.912   6.326
 5840SOL    HW218420   1.744   4.793   6.220
 5841SOL     OW18421   4.714   1.116   2.368
 5841SOL    HW118422   4.644   1.096   2.437
 5841SOL    HW218423   4.682   1.191   2.309
 5842SOL     OW18424   4.744   2.832   1.500
 5842SOL    HW118425   4.750   2.877   1.590
 5842SOL    HW218426   4.661   2.863   1.453
 5843SOL     OW18427   1.485   4.219   2.486
 5843SOL    HW118428   1.389   4.238   2.508
 5843SOL    HW218429   1.530   4.177   2.564
 5844SOL     OW18430   1.314   5.913   5.670
 5844SOL    HW118431   1.315   6.000   5.721
 5844SOL    HW218432   1.404   5.898   5.628
 5845SOL     OW18433   0.590   0.585   2.410
 5845SOL    HW118434   0.540   0.671   2.408
 5845SOL    HW218435   0.629   0.571   2.501
 5846SOL     OW18436   6.205   3.859   6.383
 5846SOL    HW118437   6.260   3.786   6.422
 5846SOL    HW218438   6.249   3.895   6.301
 5847SOL     OW18439   2.720   2.232   2.177
 5847SOL    HW118440   2.789   2.254   2.108
 5847SOL    HW218441   2.711   2.132   2.184
 5848SOL     OW18442   1.531   5.707   3.326
 5848SOL    HW118443   1.620   5.724   3.285
 5848SOL    HW218444   1.507   5.610   3.316
 5849SOL     OW18445   1.689   0.338   5.392
 5849SOL    HW118446   1.692   0.335   5.492
 5849SOL    HW218447   1.660   0.248   5.357
 5850SOL     OW18448   6.396   3.418   1.579
 5850SOL    HW118449   6.341   3.460   1.506
 5850SOL    HW218450   6.457   3.486   1.618
 5851SOL     OW18451   5.074   2.875   2.838
 5851SOL    HW118452   5.099   2.825   2.921
 5851SOL    HW218453   5.154   2.926   2.806
 5852SOL     OW18454   5.890   6.361   3.058
 5852SOL    HW118455   5.939   6.298   2.998
 5852SOL    HW218456   5.904   6.333   3.153
 5853SOL     OW18457   3.470   5.526   5.096
 5853SOL    HW118458   3.524   5.461   5.149
 5853SOL    HW218459   3.515   5.615   5.095
 5854SOL     OW18460   4.400   4.829   6.126
 5854SOL    HW118461   4.438   4.737   6.121
 5854SOL    HW218462   4.356   4.842   6.215
 5855SOL     OW18463   1.565   0.922   4.873
 5855SOL    HW118464   1.592   0.896   4.780
 5855SOL    HW218465   1.477   0.881   4.895
 5856SOL     OW18466   2.213   5.969   3.595
 5856SOL    HW118467   2.231   6.061   3.561
 5856SOL    HW218468   2.207   5.905   3.518
 5857SOL     OW18469   6.277   2.414   5.696
 5857SOL    HW118470   6.259   2.463   5.610
 5857SOL    HW218471   6.227   2.328   5.695
 5858SOL     OW18472   2.834   2.309   2.426
 5858SOL    HW118473   2.899   2.275   2.358
 5858SOL    HW218474   2.769   2.370   2.382
 5859SOL     OW18475   6.604   5.709   1.748
 5859SOL    HW118476   6.550   5.688   1.830
 5859SOL    HW218477   6.700   5.686   1.763
 5860SOL     OW18478   0.143   4.216   3.164
 5860SOL    HW118479   0.147   4.232   3.263
 5860SOL    HW218480   0.082   4.138   3.145
 5861SOL     OW18481   5.065   1.655   4.190
 5861SOL    HW118482   5.133   1.676   4.260
 5861SOL    HW218483   5.014   1.738   4.168
 5862SOL     OW18484   5.820   5.606   0.862
 5862SOL    HW118485   5.747   5.544   0.893
 5862SOL    HW218486   5.874   5.635   0.941
 5863SOL     OW18487   3.066   2.098   5.268
 5863SOL    HW118488   3.072   2.188   5.227
 5863SOL    HW218489   3.093   2.029   5.201
 5864SOL     OW18490   3.567   4.167   2.782
 5864SOL    HW118491   3.468   4.174   2.795
 5864SOL    HW218492   3.606   4.259   2.774
 5865SOL     OW18493   6.150   0.038   5.691
 5865SOL    HW118494   6.106   0.120   5.729
 5865SOL    HW218495   6.173   0.053   5.595
 5866SOL     OW18496   3.447   4.401   0.629
 5866SOL    HW118497   3.507   4.324   0.651
 5866SOL    HW218498   3.430   4.454   0.712
 5867SOL     OW18499   2.233   3.222   1.194
 5867SOL    HW118500   2.134   3.224   1.177
 5867SOL    HW218501   2.280   3.280   1.128
 5868SOL     OW18502   1.694   1.602   5.178
 5868SOL    HW118503   1.633   1.637   5.248
 5868SOL    HW218504   1.642   1.577   5.096
 5869SOL     OW18505   2.043   6.584   3.151
 5869SOL    HW118506   2.040   6.680   3.177
 5869SOL    HW218507   1.965   6.562   3.093
 5870SOL     OW18508   4.458   6.820   5.089
 5870SOL    HW118509   4.358   6.812   5.090
 5870SOL    HW218510   4.489   6.835   4.995
 5871SOL     OW18511   3.204   3.301   1.242
 5871SOL    HW118512   3.135   3.365   1.277
 5871SOL    HW218513   3.286   3.352   1.216
 5872SOL     OW18514   4.662   6.309   1.040
 5872SOL    HW118515   4.758   6.313   1.012
 5872SOL    HW218516   4.633   6.399   1.073
 5873SOL     OW18517   3.627   1.265   2.105
 5873SOL    HW118518   3.726   1.266   2.097
 5873SOL    HW218519   3.601   1.272   2.202
 5874SOL     OW18520   2.769   4.645   6.057
 5874SOL    HW118521   2.839   4.690   6.002
 5874SOL    HW218522   2.801   4.637   6.152
 5875SOL     OW18523   3.970   1.472   0.449
 5875SOL    HW118524   3.990   1.533   0.372
 5875SOL    HW218525   3.937   1.384   0.415
 5876SOL     OW18526   3.767   3.152   1.139
 5876SOL    HW118527   3.715   3.218   1.192
 5876SOL    HW218528   3.855   3.192   1.113
 5877SOL     OW18529   0.544   0.078   1.620
 5877SOL    HW118530   0.616   0.053   1.555
 5877SOL    HW218531   0.454   0.063   1.578
 5878SOL     OW18532   6.438   5.321   4.285
 5878SOL    HW118533   6.532   5.335   4.314
 5878SOL    HW218534   6.437   5.292   4.189
 5879SOL     OW18535   1.463   4.099   6.440
 5879SOL    HW118536   1.497   4.190   6.418
 5879SOL    HW218537   1.400   4.068   6.369
 5880SOL     OW18538   4.581   4.622   6.036
 5880SOL    HW118539   4.558   4.645   5.942
 5880SOL    HW218540   4.666   4.668   6.063
 5881SOL     OW18541   1.039   6.775   2.653
 5881SOL    HW118542   0.948   6.782   2.692
 5881SOL    HW218543   1.066   6.863   2.614
 5882SOL     OW18544   6.875   5.548   0.689
 5882SOL    HW118545   6.874   5.524   0.786
 5882SOL    HW218546   6.953   5.504   0.644
 5883SOL     OW18547   0.755   1.319   6.300
 5883SOL    HW118548   0.660   1.290   6.301
 5883SOL    HW218549   0.808   1.264   6.365
 5884SOL     OW18550   3.921   1.352   4.444
 5884SOL    HW118551   3.930   1.438   4.394
 5884SOL    HW218552   3.869   1.287   4.388
 5885SOL     OW18553   0.679   6.971   2.701
 5885SOL    HW118554   0.591   6.943   2.662
 5885SOL    HW218555   0.670   6.982   2.800
 5886SOL     OW18556   6.976   2.213   4.626
 5886SOL    HW118557   6.976   2.307   4.591
 5886SOL    HW218558   6.961   2.150   4.550
 5887SOL     OW18559   2.637   1.991   2.066
 5887SOL    HW118560   2.634   1.896   2.034
 5887SOL    HW218561   2.636   2.053   1.987
 5888SOL     OW18562   3.094   0.601   1.679
 5888SOL    HW118563   3.090   0.538   1.756
 5888SOL    HW218564   3.041   0.683   1.700
 5889SOL     OW18565   1.042   0.317   0.861
 5889SOL    HW118566   0.966   0.262   0.826
 5889SOL    HW218567   1.019   0.414   0.854
 5890SOL     OW18568   2.308   1.195   3.322
 5890SOL    HW118569   2.347   1.106   3.343
 5890SOL    HW218570   2.295   1.247   3.407
 5891SOL     OW18571   3.508   3.232   6.625
 5891SOL    HW118572   3.448   3.215   6.546
 5891SOL    HW218573   3.519   3.148   6.678
 5892SOL     OW18574   0.955   5.681   1.686
 5892SOL    HW118575   1.010   5.599   1.668
 5892SOL    HW218576   0.858   5.659   1.671
 5893SOL     OW18577   2.339   4.338   3.818
 5893SOL    HW118578   2.292   4.255   3.787
 5893SOL    HW218579   2.363   4.394   3.739
 5894SOL     OW18580   6.316   5.414   3.907
 5894SOL    HW118581   6.307   5.338   3.971
 5894SOL    HW218582   6.406   5.457   3.919
 5895SOL     OW18583   5.369   3.987   3.999
 5895SOL    HW118584   5.456   3.972   3.952
 5895SOL    HW218585   5.327   3.899   4.021
 5896SOL     OW18586   3.633   0.819   0.536
 5896SOL    HW118587   3.599   0.803   0.443
 5896SOL    HW218588   3.728   0.850   0.531
 5897SOL     OW18589   4.408   0.456   1.477
 5897SOL    HW118590   4.361   0.533   1.521
 5897SOL    HW218591   4.353   0.374   1.486
 5898SOL     OW18592   2.095   6.799   3.617
 5898SOL    HW118593   2.052   6.727   3.672
 5898SOL    HW218594   2.191   6.774   3.601
 5899SOL     OW18595   5.940   5.834   6.870
 5899SOL    HW118596   6.005   5.883   6.929
 5899SOL    HW218597   5.893   5.763   6.923
 5900SOL     OW18598   6.285   5.019   3.901
 5900SOL    HW118599   6.344   4.942   3.877
 5900SOL    HW218600   6.228   5.043   3.823
 5901SOL     OW18601   2.107   1.256   0.018
 5901SOL    HW118602   2.058   1.169   0.026
 5901SOL    HW218603   2.151   1.261   6.948
 5902SOL     OW18604   6.311   2.031   5.357
 5902SOL    HW118605   6.277   2.096   5.289
 5902SOL    HW218606   6.282   2.060   5.448
 5903SOL     OW18607   4.752   4.674   0.014
 5903SOL    HW118608   4.784   4.646   6.943
 5903SOL    HW218609   4.776   4.603   0.080
 5904SOL     OW18610   1.093   4.353   1.543
 5904SOL    HW118611   1.013   4.293   1.541
 5904SOL    HW218612   1.083   4.419   1.617
 5905SOL     OW18613   6.269   6.624   3.430
 5905SOL    HW118614   6.338   6.568   3.385
 5905SOL    HW218615   6.196   6.645   3.365
 5906SOL     OW18616   3.979   2.134   4.308
 5906SOL    HW118617   3.939   2.149   4.398
 5906SOL    HW218618   3.907   2.120   4.240
 5907SOL     OW18619   1.720   4.585   0.661
 5907SOL    HW118620   1.737   4.630   0.748
 5907SOL    HW218621   1.642   4.628   0.616
 5908SOL     OW18622   0.238   3.114   6.822
 5908SOL    HW118623   0.202   3.129   6.730
 5908SOL    HW218624   0.182   3.164   6.888
 5909SOL     OW18625   6.644   5.323   0.880
 5909SOL    HW118626   6.651   5.223   0.874
 5909SOL    HW218627   6.735   5.362   0.893
 5910SOL     OW18628   0.401   4.519   3.379
 5910SOL    HW118629   0.338   4.482   3.448
 5910SOL    HW218630   0.495   4.508   3.411
 5911SOL     OW18631   0.015   5.667   6.722
 5911SOL    HW118632   0.055   5.583   6.686
 5911SOL    HW218633   6.993   5.718   6.648
 5912SOL     OW18634   5.985   1.343   6.576
 5912SOL    HW118635   5.953   1.315   6.666
 5912SOL    HW218636   5.911   1.389   6.527
 5913SOL     OW18637   5.164   3.063   6.390
 5913SOL    HW118638   5.161   3.120   6.472
 5913SOL    HW218639   5.257   3.030   6.375
 5914SOL     OW18640   1.455   5.082   5.998
 5914SOL    HW118641   1.438   4.984   6.011
 5914SOL    HW218642   1.524   5.094   5.927
 5915SOL     OW18643   4.816   5.403   0.989
 5915SOL    HW118644   4.766   5.478   0.946
 5915SOL    HW218645   4.809   5.321   0.932
 5916SOL     OW18646   5.064   6.930   4.229
 5916SOL    HW118647   5.084   6.925   4.131
 5916SOL    HW218648   4.990   6.996   4.244
 5917SOL     OW18649   2.867   3.565   3.978
 5917SOL    HW118650   2.899   3.497   3.911
 5917SOL    HW218651   2.857   3.522   4.067
 5918SOL     OW18652   1.678   3.486   5.990
 5918SOL    HW118653   1.768   3.446   6.008
 5918SOL    HW218654   1.690   3.575   5.946
 5919SOL     OW18655   3.460   3.211   2.974
 5919SOL    HW118656   3.476   3.296   3.023
 5919SOL    HW218657   3.449   3.230   2.877
 5920SOL     OW18658   4.644   0.136   6.922
 5920SOL    HW118659   4.732   0.160   6.964
 5920SOL    HW218660   4.579   0.210   6.936
 5921SOL     OW18661   3.653   5.399   6.634
 5921SOL    HW118662   3.635   5.332   6.705
 5921SOL    HW218663   3.688   5.353   6.552
 5922SOL     OW18664   5.450   5.232   2.932
 5922SOL    HW118665   5.453   5.306   2.865
 5922SOL    HW218666   5.357   5.225   2.969
 5923SOL     OW18667   6.211   1.476   1.297
 5923SOL    HW118668   6.254   1.430   1.375
 5923SOL    HW218669   6.219   1.417   1.216
 5924SOL     OW18670   6.277   0.450   2.868
 5924SOL    HW118671   6.360   0.396   2.876
 5924SOL    HW218672   6.210   0.419   2.935
 5925SOL     OW18673   4.072   6.756   2.259
 5925SOL    HW118674   4.035   6.783   2.170
 5925SOL    HW218675   4.077   6.837   2.318
 5926SOL     OW18676   4.039   5.558   1.113
 5926SOL    HW118677   4.011   5.650   1.086
 5926SOL    HW218678   4.136   5.559   1.137
 5927SOL     OW18679   1.559   3.937   2.089
 5927SOL    HW118680   1.616   3.868   2.042
 5927SOL    HW218681   1.564   3.922   2.187
 5928SOL     OW18682   4.266   0.327   0.912
 5928SOL    HW118683   4.336   0.338   0.841
 5928SOL    HW218684   4.301   0.362   0.999
 5929SOL     OW18685   0.098   6.930   6.938
 5929SOL    HW118686   0.009   6.976   6.934
 5929SOL    HW218687   0.094   6.844   6.887
 5930SOL     OW18688   0.042   3.344   3.390
 5930SOL    HW118689   0.023   3.285   3.311
 5930SOL    HW218690   0.140   3.368   3.391
 5931SOL     OW18691   0.001   5.620   2.715
 5931SOL    HW118692   0.035   5.703   2.760
 5931SOL    HW218693   0.043   5.540   2.757
 5932SOL     OW18694   3.305   0.200   0.499
 5932SOL    HW118695   3.308   0.183   0.597
 5932SOL    HW218696   3.360   0.132   0.451
 5933SOL     OW18697   6.811   6.118   2.641
 5933SOL    HW118698   6.739   6.171   2.685
 5933SOL    HW218699   6.794   6.021   2.656
 5934SOL     OW18700   3.644   2.884   4.616
 5934SOL    HW118701   3.596   2.823   4.679
 5934SOL    HW218702   3.736   2.901   4.651
 5935SOL     OW18703   5.281   5.077   6.448
 5935SOL    HW118704   5.315   5.039   6.361
 5935SOL    HW218705   5.282   5.007   6.518
 5936SOL     OW18706   3.682   2.783   1.438
 5936SOL    HW118707   3.737   2.860   1.404
 5936SOL    HW218708   3.737   2.699   1.435
 5937SOL     OW18709   6.771   4.497   2.514
 5937SOL    HW118710   6.684   4.528   2.476
 5937SOL    HW218711   6.845   4.515   2.448
 5938SOL     OW18712   0.102   5.845   2.851
 5938SOL    HW118713   0.116   5.926   2.794
 5938SOL    HW218714   0.036   5.866   2.923
 5939SOL     OW18715   2.654   0.037   3.017
 5939SOL    HW118716   2.577   0.101   3.017
 5939SOL    HW218717   2.672   0.006   2.924
 5940SOL     OW18718   5.396   5.533   1.574
 5940SOL    HW118719   5.432   5.618   1.534
 5940SOL    HW218720   5.414   5.457   1.511
 5941SOL     OW18721   5.977   2.854   2.506
 5941SOL    HW118722   5.943   2.831   2.414
 5941SOL    HW218723   6.012   2.947   2.506
 5942SOL     OW18724   5.060   3.970   6.887
 5942SOL    HW118725   5.149   3.993   6.848
 5942SOL    HW218726   5.026   3.886   6.845
 5943SOL     OW18727   3.069   4.694   6.592
 5943SOL    HW118728   3.147   4.729   6.541
 5943SOL    HW218729   3.004   4.768   6.610
 5944SOL     OW18730   6.394   3.007   0.988
 5944SOL    HW118731   6.381   3.041   1.081
 5944SOL    HW218732   6.327   2.935   0.969
 5945SOL     OW18733   6.379   5.132   4.607
 5945SOL    HW118734   6.366   5.063   4.536
 5945SOL    HW218735   6.476   5.137   4.632
 5946SOL     OW18736   3.978   3.604   6.125
 5946SOL    HW118737   3.889   3.569   6.151
 5946SOL    HW218738   4.009   3.671   6.192
 5947SOL     OW18739   3.172   3.514   2.370
 5947SOL    HW118740   3.265   3.501   2.336
 5947SOL    HW218741   3.173   3.577   2.448
 5948SOL     OW18742   4.111   5.248   3.711
 5948SOL    HW118743   4.017   5.214   3.708
 5948SOL    HW218744   4.174   5.175   3.685
 5949SOL     OW18745   5.237   3.448   2.138
 5949SOL    HW118746   5.224   3.547   2.133
 5949SOL    HW218747   5.168   3.409   2.200
 5950SOL     OW18748   4.852   1.418   5.771
 5950SOL    HW118749   4.901   1.334   5.794
 5950SOL    HW218750   4.772   1.396   5.716
 5951SOL     OW18751   1.718   6.128   4.062
 5951SOL    HW118752   1.656   6.150   3.987
 5951SOL    HW218753   1.764   6.041   4.043
 5952SOL     OW18754   5.582   4.603   3.449
 5952SOL    HW118755   5.524   4.613   3.368
 5952SOL    HW218756   5.583   4.688   3.500
 5953SOL     OW18757   6.302   2.795   5.986
 5953SOL    HW118758   6.386   2.773   5.936
 5953SOL    HW218759   6.241   2.715   5.985
 5954SOL     OW18760   6.643   4.297   5.634
 5954SOL    HW118761   6.725   4.341   5.599
 5954SOL    HW218762   6.604   4.352   5.708
 5955SOL     OW18763   4.500   5.658   2.920
 5955SOL    HW118764   4.408   5.622   2.907
 5955SOL    HW218765   4.553   5.596   2.978
 5956SOL     OW18766   4.265   1.640   4.896
 5956SOL    HW118767   4.255   1.736   4.921
 5956SOL    HW218768   4.346   1.602   4.941
 5957SOL     OW18769   4.159   0.603   5.750
 5957SOL    HW118770   4.246   0.576   5.793
 5957SOL    HW218771   4.092   0.625   5.821
 5958SOL     OW18772   5.505   6.514   2.842
 5958SOL    HW118773   5.534   6.442   2.905
 5958SOL    HW218774   5.458   6.587   2.893
 5959SOL     OW18775   4.250   2.824   5.375
 5959SOL    HW118776   4.248   2.922   5.355
 5959SOL    HW218777   4.212   2.774   5.298
 5960SOL     OW18778   3.826   5.577   4.876
 5960SOL    HW118779   3.814   5.477   4.877
 5960SOL    HW218780   3.751   5.619   4.825
 5961SOL     OW18781   4.972   1.537   2.769
 5961SOL    HW118782   4.978   1.633   2.744
 5961SOL    HW218783   4.957   1.529   2.868
 5962SOL     OW18784   5.943   6.425   0.468
 5962SOL    HW118785   5.927   6.383   0.379
 5962SOL    HW218786   6.028   6.478   0.466
 5963SOL     OW18787   4.275   3.766   5.690
 5963SOL    HW118788   4.262   3.698   5.763
 5963SOL    HW218789   4.202   3.834   5.694
 5964SOL     OW18790   0.594   5.766   5.423
 5964SOL    HW118791   0.504   5.723   5.415
 5964SOL    HW218792   0.614   5.817   5.339
 5965SOL     OW18793   1.874   1.908   6.412
 5965SOL    HW118794   1.853   1.814   6.388
 5965SOL    HW218795   1.816   1.970   6.359
 5966SOL     OW18796   2.206   5.893   5.549
 5966SOL    HW118797   2.139   5.846   5.492
 5966SOL    HW218798   2.192   5.992   5.543
 5967SOL     OW18799   3.850   6.761   6.597
 5967SOL    HW118800   3.846   6.674   6.647
 5967SOL    HW218801   3.758   6.796   6.582
 5968SOL     OW18802   5.210   1.941   0.639
 5968SOL    HW118803   5.245   1.874   0.574
 5968SOL    HW218804   5.254   2.029   0.623
 5969SOL     OW18805   6.991   6.872   6.510
 5969SOL    HW118806   0.068   6.848   6.515
 5969SOL    HW218807   6.973   6.920   6.424
 5970SOL     OW18808   0.386   4.219   2.408
 5970SOL    HW118809   0.340   4.252   2.325
 5970SOL    HW218810   0.368   4.121   2.419
 5971SOL     OW18811   0.479   1.433   2.593
 5971SOL    HW118812   0.573   1.423   2.626
 5971SOL    HW218813   0.419   1.371   2.643
 5972SOL     OW18814   6.018   5.315   5.902
 5972SOL    HW118815   6.072   5.329   5.820
 5972SOL    HW218816   5.972   5.400   5.927
 5973SOL     OW18817   1.743   3.701   2.770
 5973SOL    HW118818   1.652   3.740   2.780
 5973SOL    HW218819   1.768   3.650   2.852
 5974SOL     OW18820   6.068   5.759   6.363
 5974SOL    HW118821   6.018   5.743   6.278
 5974SOL    HW218822   6.004   5.775   6.437
 5975SOL     OW18823   4.755   0.081   0.536
 5975SOL    HW118824   4.775   0.179   0.541
 5975SOL    HW218825   4.825   0.036   0.481
 5976SOL     OW18826   3.586   2.438   5.705
 5976SOL    HW118827   3.537   2.398   5.628
 5976SOL    HW218828   3.521   2.466   5.776
 5977SOL     OW18829   1.612   5.413   6.581
 5977SOL    HW118830   1.573   5.333   6.625
 5977SOL    HW218831   1.665   5.385   6.501
 5978SOL     OW18832   4.350   5.457   1.815
 5978SOL    HW118833   4.301   5.382   1.770
 5978SOL    HW218834   4.357   5.534   1.752
 5979SOL     OW18835   5.633   0.999   2.996
 5979SOL    HW118836   5.650   0.932   3.068
 5979SOL    HW218837   5.607   1.087   3.038
 5980SOL     OW18838   3.812   3.800   1.129
 5980SOL    HW118839   3.821   3.842   1.039
 5980SOL    HW218840   3.805   3.871   1.199
 5981SOL     OW18841   5.125   2.300   1.434
 5981SOL    HW118842   5.160   2.380   1.483
 5981SOL    HW218843   5.196   2.231   1.427
 5982SOL     OW18844   6.552   3.034   2.501
 5982SOL    HW118845   6.507   3.122   2.486
 5982SOL    HW218846   6.553   3.014   2.599
 5983SOL     OW18847   1.444   1.349   4.258
 5983SOL    HW118848   1.449   1.249   4.246
 5983SOL    HW218849   1.413   1.391   4.173
 5984SOL     OW18850   6.556   5.767   3.365
 5984SOL    HW118851   6.547   5.693   3.299
 5984SOL    HW218852   6.507   5.743   3.449
 5985SOL     OW18853   6.729   2.783   4.000
 5985SOL    HW118854   6.636   2.815   3.982
 5985SOL    HW218855   6.729   2.684   4.011
 5986SOL     OW18856   3.132   3.694   4.135
 5986SOL    HW118857   3.196   3.700   4.212
 5986SOL    HW218858   3.048   3.649   4.165
 5987SOL     OW18859   5.140   0.241   4.045
 5987SOL    HW118860   5.104   0.190   3.967
 5987SOL    HW218861   5.161   0.178   4.120
 5988SOL     OW18862   4.580   6.928   6.014
 5988SOL    HW118863   4.639   6.858   5.973
 5988SOL    HW218864   4.622   7.018   6.000
 5989SOL     OW18865   1.733   6.125   6.519
 5989SOL    HW118866   1.725   6.170   6.608
 5989SOL    HW218867   1.754   6.193   6.449
 5990SOL     OW18868   3.651   3.939   0.488
 5990SOL    HW118869   3.553   3.919   0.494
 5990SOL    HW218870   3.668   3.998   0.409
 5991SOL     OW18871   3.286   5.220   0.097
 5991SOL    HW118872   3.339   5.273   0.031
 5991SOL    HW218873   3.303   5.254   0.189
 5992SOL     OW18874   3.440   0.413   2.302
 5992SOL    HW118875   3.383   0.426   2.220
 5992SOL    HW218876   3.382   0.382   2.377
 5993SOL     OW18877   3.208   4.992   6.334
 5993SOL    HW118878   3.254   4.904   6.327
 5993SOL    HW218879   3.216   5.040   6.246
 5994SOL     OW18880   5.647   2.893   2.560
 5994SOL    HW118881   5.670   2.900   2.463
 5994SOL    HW218882   5.567   2.950   2.579
 5995SOL     OW18883   4.870   3.627   2.605
 5995SOL    HW118884   4.928   3.693   2.557
 5995SOL    HW218885   4.820   3.572   2.537
 5996SOL     OW18886   1.444   6.453   1.034
 5996SOL    HW118887   1.469   6.462   0.938
 5996SOL    HW218888   1.347   6.432   1.042
 5997SOL     OW18889   0.318   5.931   2.554
 5997SOL    HW118890   0.264   5.996   2.608
 5997SOL    HW218891   0.272   5.843   2.552
 5998SOL     OW18892   5.518   0.932   3.702
 5998SOL    HW118893   5.428   0.955   3.741
 5998SOL    HW218894   5.547   1.005   3.640
 5999SOL     OW18895   1.599   1.370   2.139
 5999SOL    HW118896   1.605   1.342   2.234
 5999SOL    HW218897   1.513   1.421   2.124
 6000SOL     OW18898   3.891   0.071   0.954
 6000SOL    HW118899   3.868   0.169   0.949
 6000SOL    HW218900   3.807   0.019   0.968
 6001SOL     OW18901   0.529   3.868   6.886
 6001SOL    HW118902   0.464   3.857   6.811
 6001SOL    HW218903   0.486   3.918   6.961
 6002SOL     OW18904   5.577   0.760   0.597
 6002SOL    HW118905   5.499   0.822   0.582
 6002SOL    HW218906   5.543   0.673   0.633
 6003SOL     OW18907   5.925   2.301   5.024
 6003SOL    HW118908   5.896   2.216   4.982
 6003SOL    HW218909   5.942   2.287   5.121
 6004SOL     OW18910   6.788   3.823   2.586
 6004SOL    HW118911   6.819   3.865   2.501
 6004SOL    HW218912   6.764   3.895   2.652
 6005SOL     OW18913   4.569   5.845   4.405
 6005SOL    HW118914   4.555   5.897   4.321
 6005SOL    HW218915   4.490   5.786   4.421
 6006SOL     OW18916   2.583   1.335   5.674
 6006SOL    HW118917   2.545   1.245   5.655
 6006SOL    HW218918   2.591   1.387   5.589
 6007SOL     OW18919   5.161   3.991   5.495
 6007SOL    HW118920   5.075   4.033   5.523
 6007SOL    HW218921   5.160   3.973   5.397
 6008SOL     OW18922   2.529   4.489   5.509
 6008SOL    HW118923   2.571   4.539   5.584
 6008SOL    HW218924   2.600   4.445   5.454
 6009SOL     OW18925   2.352   0.643   3.150
 6009SOL    HW118926   2.326   0.700   3.228
 6009SOL    HW218927   2.449   0.620   3.157
 6010SOL     OW18928   1.067   4.795   4.256
 6010SOL    HW118929   1.159   4.789   4.295
 6010SOL    HW218930   1.009   4.723   4.296
 6011SOL     OW18931   4.672   2.589   3.066
 6011SOL    HW118932   4.685   2.655   2.993
 6011SOL    HW218933   4.646   2.501   3.027
 6012SOL     OW18934   5.434   0.786   0.115
 6012SOL    HW118935   5.342   0.815   0.088
 6012SOL    HW218936   5.427   0.711   0.180
 6013SOL     OW18937   4.719   1.813   2.601
 6013SOL    HW118938   4.628   1.773   2.595
 6013SOL    HW218939   4.776   1.780   2.525
 6014SOL     OW18940   4.058   3.245   2.286
 6014SOL    HW118941   3.987   3.198   2.233
 6014SOL    HW218942   4.087   3.187   2.362
 6015SOL     OW18943   6.004   4.004   3.842
 6015SOL    HW118944   5.938   4.076   3.823
 6015SOL    HW218945   6.014   3.946   3.761
 6016SOL     OW18946   6.796   2.102   5.428
 6016SOL    HW118947   6.833   2.065   5.513
 6016SOL    HW218948   6.710   2.057   5.406
 6017SOL     OW18949   6.560   4.127   3.178
 6017SOL    HW118950   6.527   4.128   3.272
 6017SOL    HW218951   6.511   4.196   3.125
 6018SOL     OW18952   3.824   0.473   6.590
 6018SOL    HW118953   3.915   0.513   6.580
 6018SOL    HW218954   3.768   0.531   6.648
 6019SOL     OW18955   6.868   1.429   4.274
 6019SOL    HW118956   6.796   1.376   4.321
 6019SOL    HW218957   6.957   1.388   4.294
 6020SOL     OW18958   1.222   4.575   0.845
 6020SOL    HW118959   1.217   4.615   0.753
 6020SOL    HW218960   1.290   4.624   0.899
 6021SOL     OW18961   5.113   0.163   3.141
 6021SOL    HW118962   5.135   0.140   3.236
 6021SOL    HW218963   5.014   0.166   3.129
 6022SOL     OW18964   5.227   2.551   4.245
 6022SOL    HW118965   5.312   2.516   4.207
 6022SOL    HW218966   5.196   2.491   4.319
 6023SOL     OW18967   5.815   1.037   2.095
 6023SOL    HW118968   5.804   1.129   2.132
 6023SOL    HW218969   5.769   0.971   2.155
 6024SOL     OW18970   1.572   4.895   3.075
 6024SOL    HW118971   1.600   4.835   3.000
 6024SOL    HW218972   1.486   4.940   3.051
 6025SOL     OW18973   4.134   1.554   3.021
 6025SOL    HW118974   4.074   1.596   3.088
 6025SOL    HW218975   4.212   1.613   3.003
 6026SOL     OW18976   0.424   4.257   5.429
 6026SOL    HW118977   0.411   4.192   5.504
 6026SOL    HW218978   0.341   4.262   5.375
 6027SOL     OW18979   0.877   3.219   5.976
 6027SOL    HW118980   0.975   3.205   5.990
 6027SOL    HW218981   0.833   3.233   6.065
 6028SOL     OW18982   6.515   5.425   0.205
 6028SOL    HW118983   6.496   5.437   0.108
 6028SOL    HW218984   6.585   5.354   0.217
 6029SOL     OW18985   2.233   6.348   4.873
 6029SOL    HW118986   2.267   6.378   4.784
 6029SOL    HW218987   2.307   6.303   4.923
 6030SOL     OW18988   3.981   5.458   2.367
 6030SOL    HW118989   3.883   5.470   2.355
 6030SOL    HW218990   4.029   5.495   2.287
 6031SOL     OW18991   2.727   5.482   3.934
 6031SOL    HW118992   2.708   5.397   3.983
 6031SOL    HW218993   2.821   5.480   3.900
 6032SOL     OW18994   2.198   4.532   2.832
 6032SOL    HW118995   2.231   4.614   2.879
 6032SOL    HW218996   2.248   4.452   2.865
 6033SOL     OW18997   2.940   2.140   3.326
 6033SOL    HW118998   2.874   2.184   3.264
 6033SOL    HW218999   2.934   2.181   3.416
 6034SOL     OW19000   1.415   6.034   4.794
 6034SOL    HW119001   1.419   5.941   4.758
 6034SOL    HW219002   1.421   6.100   4.720
 6035SOL     OW19003   0.209   1.140   2.260
 6035SOL    HW119004   0.247   1.204   2.193
 6035SOL    HW219005   0.114   1.163   2.277
 6036SOL     OW19006   5.265   4.980   3.538
 6036SOL    HW119007   5.266   5.000   3.440
 6036SOL    HW219008   5.183   4.927   3.560
 6037SOL     OW19009   3.871   5.787   6.880
 6037SOL    HW119010   3.865   5.778   6.980
 6037SOL    HW219011   3.800   5.730   6.838
 6038SOL     OW19012   1.829   1.918   5.508
 6038SOL    HW119013   1.835   2.018   5.508
 6038SOL    HW219014   1.918   1.880   5.482
 6039SOL     OW19015   3.090   3.644   2.145
 6039SOL    HW119016   3.122   3.592   2.224
 6039SOL    HW219017   3.070   3.738   2.171
 6040SOL     OW19018   1.076   1.783   6.855
 6040SOL    HW119019   1.066   1.878   6.884
 6040SOL    HW219020   1.139   1.778   6.777
 6041SOL     OW19021   3.121   0.744   5.277
 6041SOL    HW119022   3.123   0.673   5.348
 6041SOL    HW219023   3.207   0.794   5.279
 6042SOL     OW19024   4.735   6.012   2.608
 6042SOL    HW119025   4.808   5.976   2.550
 6042SOL    HW219026   4.681   5.937   2.645
 6043SOL     OW19027   0.804   4.441   5.289
 6043SOL    HW119028   0.800   4.539   5.305
 6043SOL    HW219029   0.715   4.409   5.256
 6044SOL     OW19030   1.017   2.390   1.334
 6044SOL    HW119031   1.026   2.318   1.403
 6044SOL    HW219032   1.097   2.450   1.337
 6045SOL     OW19033   5.674   4.571   2.492
 6045SOL    HW119034   5.642   4.488   2.537
 6045SOL    HW219035   5.609   4.597   2.421
 6046SOL     OW19036   3.482   2.475   0.539
 6046SOL    HW119037   3.389   2.461   0.573
 6046SOL    HW219038   3.480   2.485   0.440
 6047SOL     OW19039   4.614   2.122   1.977
 6047SOL    HW119040   4.572   2.204   1.939
 6047SOL    HW219041   4.683   2.087   1.914
 6048SOL     OW19042   4.643   5.328   5.032
 6048SOL    HW119043   4.676   5.235   5.016
 6048SOL    HW219044   4.543   5.330   5.020
 6049SOL     OW19045   4.974   3.022   6.737
 6049SOL    HW119046   5.072   3.001   6.740
 6049SOL    HW219047   4.923   2.939   6.716
 6050SOL     OW19048   3.934   5.690   5.333
 6050SOL    HW119049   3.862   5.705   5.400
 6050SOL    HW219050   4.018   5.660   5.379
 6051SOL     OW19051   2.435   0.344   4.087
 6051SOL    HW119052   2.448   0.399   4.005
 6051SOL    HW219053   2.445   0.402   4.168
 6052SOL     OW19054   6.737   0.664   0.369
 6052SOL    HW119055   6.828   0.648   0.408
 6052SOL    HW219056   6.667   0.643   0.436
 6053SOL     OW19057   4.104   1.613   6.413
 6053SOL    HW119058   4.088   1.545   6.341
 6053SOL    HW219059   4.051   1.589   6.494
 6054SOL     OW19060   2.025   3.445   0.037
 6054SOL    HW119061   1.939   3.395   0.032
 6054SOL    HW219062   2.007   3.543   0.028
 6055SOL     OW19063   4.813   0.676   5.212
 6055SOL    HW119064   4.798   0.766   5.170
 6055SOL    HW219065   4.753   0.609   5.169
 6056SOL     OW19066   4.911   2.710   4.507
 6056SOL    HW119067   4.913   2.809   4.498
 6056SOL    HW219068   4.970   2.682   4.583
 6057SOL     OW19069   5.988   3.070   3.757
 6057SOL    HW119070   5.962   3.133   3.831
 6057SOL    HW219071   5.996   3.121   3.671
 6058SOL     OW19072   5.271   2.788   1.677
 6058SOL    HW119073   5.257   2.811   1.581
 6058SOL    HW219074   5.196   2.825   1.732
 6059SOL     OW19075   5.667   4.635   4.812
 6059SOL    HW119076   5.643   4.730   4.831
 6059SOL    HW219077   5.609   4.601   4.738
 6060SOL     OW19078   3.308   3.956   0.270
 6060SOL    HW119079   3.209   3.959   0.255
 6060SOL    HW219080   3.348   3.880   0.218
 6061SOL     OW19081   4.099   2.363   1.127
 6061SOL    HW119082   4.191   2.325   1.139
 6061SOL    HW219083   4.040   2.332   1.202
 6062SOL     OW19084   2.517   1.014   5.306
 6062SOL    HW119085   2.441   1.079   5.310
 6062SOL    HW219086   2.597   1.053   5.350
 6063SOL     OW19087   4.059   1.998   6.170
 6063SOL    HW119088   4.149   2.030   6.201
 6063SOL    HW219089   4.019   2.066   6.109
 6064SOL     OW19090   2.035   6.385   0.949
 6064SOL    HW119091   1.981   6.301   0.949
 6064SOL    HW219092   2.030   6.427   1.040
 6065SOL     OW19093   6.835   6.956   1.697
 6065SOL    HW119094   6.740   6.935   1.721
 6065SOL    HW219095   6.894   6.879   1.719
 6066SOL     OW19096   4.625   1.197   6.009
 6066SOL    HW119097   4.603   1.102   6.031
 6066SOL    HW219098   4.549   1.256   6.036
 6067SOL     OW19099   5.734   0.809   5.467
 6067SOL    HW119100   5.811   0.759   5.506
 6067SOL    HW219101   5.755   0.906   5.465
 6068SOL     OW19102   5.368   3.656   4.614
 6068SOL    HW119103   5.306   3.733   4.600
 6068SOL    HW219104   5.328   3.573   4.575
 6069SOL     OW19105   6.386   2.554   5.308
 6069SOL    HW119106   6.388   2.510   5.218
 6069SOL    HW219107   6.459   2.623   5.313
 6070SOL     OW19108   3.207   2.436   0.589
 6070SOL    HW119109   3.166   2.441   0.499
 6070SOL    HW219110   3.142   2.395   0.654
 6071SOL     OW19111   5.193   5.519   3.531
 6071SOL    HW119112   5.215   5.492   3.437
 6071SOL    HW219113   5.183   5.437   3.588
 6072SOL     OW19114   0.087   0.483   1.739
 6072SOL    HW119115   0.069   0.485   1.837
 6072SOL    HW219116   0.062   0.572   1.699
 6073SOL     OW19117   6.067   3.382   6.828
 6073SOL    HW119118   6.015   3.328   6.761
 6073SOL    HW219119   6.010   3.399   6.908
 6074SOL     OW19120   1.406   6.543   3.627
 6074SOL    HW119121   1.410   6.643   3.630
 6074SOL    HW219122   1.376   6.514   3.536
 6075SOL     OW19123   6.563   1.368   6.168
 6075SOL    HW119124   6.495   1.441   6.162
 6075SOL    HW219125   6.526   1.285   6.126
 6076SOL     OW19126   3.037   5.485   4.299
 6076SOL    HW119127   2.946   5.446   4.316
 6076SOL    HW219128   3.033   5.585   4.311
 6077SOL     OW19129   5.970   5.702   1.072
 6077SOL    HW119130   5.938   5.639   1.143
 6077SOL    HW219131   6.070   5.709   1.076
 6078SOL     OW19132   4.059   5.190   0.313
 6078SOL    HW119133   4.120   5.162   0.239
 6078SOL    HW219134   3.965   5.193   0.280
 6079SOL     OW19135   4.565   3.885   6.100
 6079SOL    HW119136   4.535   3.812   6.039
 6079SOL    HW219137   4.520   3.876   6.188
 6080SOL     OW19138   0.020   0.526   1.142
 6080SOL    HW119139   0.010   0.440   1.092
 6080SOL    HW219140   0.067   0.509   1.228
 6081SOL     OW19141   6.356   3.659   5.651
 6081SOL    HW119142   6.409   3.701   5.724
 6081SOL    HW219143   6.382   3.700   5.563
 6082SOL     OW19144   2.159   1.909   3.877
 6082SOL    HW119145   2.061   1.893   3.873
 6082SOL    HW219146   2.187   1.968   3.801
 6083SOL     OW19147   6.822   5.042   6.999
 6083SOL    HW119148   6.920   5.061   7.003
 6083SOL    HW219149   6.775   5.114   6.948
 6084SOL     OW19150   0.799   7.012   3.721
 6084SOL    HW119151   0.739   0.067   3.694
 6084SOL    HW219152   0.873   7.001   3.654
 6085SOL     OW19153   0.710   4.632   0.580
 6085SOL    HW119154   0.691   4.711   0.637
 6085SOL    HW219155   0.746   4.558   0.637
 6086SOL     OW19156   4.312   0.241   6.296
 6086SOL    HW119157   4.225   0.271   6.259
 6086SOL    HW219158   4.380   0.237   6.223
 6087SOL     OW19159   3.602   5.474   0.800
 6087SOL    HW119160   3.509   5.510   0.804
 6087SOL    HW219161   3.667   5.545   0.827
 6088SOL     OW19162   5.766   5.619   3.926
 6088SOL    HW119163   5.832   5.587   3.994
 6088SOL    HW219164   5.714   5.541   3.890
 6089SOL     OW19165   5.427   3.698   1.165
 6089SOL    HW119166   5.527   3.697   1.166
 6089SOL    HW219167   5.393   3.639   1.092
 6090SOL     OW19168   2.229   5.751   5.787
 6090SOL    HW119169   2.215   5.808   5.706
 6090SOL    HW219170   2.142   5.745   5.837
 6091SOL     OW19171   1.725   1.369   0.425
 6091SOL    HW119172   1.707   1.270   0.426
 6091SOL    HW219173   1.701   1.406   0.336
 6092SOL     OW19174   3.804   0.097   2.862
 6092SOL    HW119175   3.826   0.012   2.911
 6092SOL    HW219176   3.706   0.114   2.866
 6093SOL     OW19177   1.803   3.635   2.229
 6093SOL    HW119178   1.775   3.686   2.148
 6093SOL    HW219179   1.881   3.576   2.206
 6094SOL     OW19180   2.947   6.700   1.356
 6094SOL    HW119181   2.924   6.796   1.341
 6094SOL    HW219182   2.887   6.663   1.427
 6095SOL     OW19183   5.053   3.819   0.623
 6095SOL    HW119184   5.057   3.903   0.569
 6095SOL    HW219185   5.135   3.764   0.607
 6096SOL     OW19186   0.083   0.205   3.166
 6096SOL    HW119187   0.100   0.303   3.152
 6096SOL    HW219188   0.042   0.166   3.084
 6097SOL     OW19189   2.577   6.693   2.586
 6097SOL    HW119190   2.630   6.719   2.667
 6097SOL    HW219191   2.544   6.600   2.597
 6098SOL     OW19192   1.733   2.435   5.296
 6098SOL    HW119193   1.704   2.504   5.230
 6098SOL    HW219194   1.717   2.344   5.257
 6099SOL     OW19195   6.458   6.063   6.926
 6099SOL    HW119196   6.397   6.043   6.849
 6099SOL    HW219197   6.546   6.096   6.891
 6100SOL     OW19198   4.741   4.900   0.177
 6100SOL    HW119199   4.751   4.803   0.153
 6100SOL    HW219200   4.784   4.956   0.106
 6101SOL     OW19201   6.144   2.731   4.498
 6101SOL    HW119202   6.134   2.668   4.421
 6101SOL    HW219203   6.230   2.712   4.545
 6102SOL     OW19204   3.408   6.866   3.850
 6102SOL    HW119205   3.447   6.956   3.871
 6102SOL    HW219206   3.309   6.868   3.865
 6103SOL     OW19207   6.778   2.369   2.560
 6103SOL    HW119208   6.801   2.339   2.652
 6103SOL    HW219209   6.726   2.454   2.564
 6104SOL     OW19210   6.073   0.451   5.290
 6104SOL    HW119211   5.981   0.464   5.253
 6104SOL    HW219212   6.091   0.521   5.359
 6105SOL     OW19213   2.940   6.586   6.184
 6105SOL    HW119214   3.027   6.545   6.157
 6105SOL    HW219215   2.957   6.674   6.229
 6106SOL     OW19216   2.625   4.157   5.948
 6106SOL    HW119217   2.578   4.177   5.862
 6106SOL    HW219218   2.698   4.225   5.963
 6107SOL     OW19219   2.787   5.184   4.415
 6107SOL    HW119220   2.698   5.143   4.434
 6107SOL    HW219221   2.777   5.283   4.408
 6108SOL     OW19222   1.267   2.547   1.967
 6108SOL    HW119223   1.177   2.582   1.991
 6108SOL    HW219224   1.337   2.595   2.019
 6109SOL     OW19225   5.365   2.614   5.017
 6109SOL    HW119226   5.315   2.680   4.960
 6109SOL    HW219227   5.379   2.652   5.108
 6110SOL     OW19228   4.292   4.117   0.494
 6110SOL    HW119229   4.283   4.053   0.570
 6110SOL    HW219230   4.206   4.166   0.482
 6111SOL     OW19231   2.321   4.311   2.276
 6111SOL    HW119232   2.351   4.340   2.367
 6111SOL    HW219233   2.224   4.286   2.279
 6112SOL     OW19234   3.892   0.207   2.235
 6112SOL    HW119235   3.871   0.136   2.167
 6112SOL    HW219236   3.850   0.183   2.322
 6113SOL     OW19237   2.434   1.244   6.430
 6113SOL    HW119238   2.356   1.221   6.488
 6113SOL    HW219239   2.404   1.256   6.336
 6114SOL     OW19240   5.172   6.187   1.290
 6114SOL    HW119241   5.131   6.259   1.345
 6114SOL    HW219242   5.249   6.147   1.339
 6115SOL     OW19243   5.262   6.827   4.403
 6115SOL    HW119244   5.189   6.877   4.356
 6115SOL    HW219245   5.335   6.808   4.338
 6116SOL     OW19246   3.554   1.030   0.122
 6116SOL    HW119247   3.515   1.114   0.085
 6116SOL    HW219248   3.551   0.958   0.053
 6117SOL     OW19249   1.566   1.217   4.882
 6117SOL    HW119250   1.570   1.123   4.849
 6117SOL    HW219251   1.597   1.279   4.809
 6118SOL     OW19252   6.692   0.851   2.328
 6118SOL    HW119253   6.596   0.875   2.343
 6118SOL    HW219254   6.750   0.914   2.380
 6119SOL     OW19255   1.310   3.343   6.363
 6119SOL    HW119256   1.246   3.338   6.440
 6119SOL    HW219257   1.355   3.255   6.352
 6120SOL     OW19258   3.536   6.554   4.827
 6120SOL    HW119259   3.572   6.578   4.917
 6120SOL    HW219260   3.439   6.534   4.833
 6121SOL     OW19261   1.023   3.263   5.457
 6121SOL    HW119262   1.036   3.315   5.372
 6121SOL    HW219263   0.962   3.313   5.518
 6122SOL     OW19264   4.252   5.915   0.699
 6122SOL    HW119265   4.339   5.951   0.734
 6122SOL    HW219266   4.254   5.915   0.599
 6123SOL     OW19267   6.122   6.763   6.721
 6123SOL    HW119268   6.150   6.716   6.804
 6123SOL    HW219269   6.202   6.808   6.680
 6124SOL     OW19270   2.300   0.108   6.199
 6124SOL    HW119271   2.279   0.204   6.180
 6124SOL    HW219272   2.299   0.056   6.114
 6125SOL     OW19273   1.388   5.471   0.750
 6125SOL    HW119274   1.407   5.513   0.839
 6125SOL    HW219275   1.289   5.469   0.735
 6126SOL     OW19276   1.037   0.188   4.170
 6126SOL    HW119277   0.989   0.252   4.229
 6126SOL    HW219278   0.983   0.172   4.087
 6127SOL     OW19279   4.116   6.779   1.061
 6127SOL    HW119280   4.040   6.740   1.113
 6127SOL    HW219281   4.123   6.733   0.973
 6128SOL     OW19282   6.043   3.508   0.239
 6128SOL    HW119283   6.074   3.599   0.214
 6128SOL    HW219284   6.099   3.473   0.314
 6129SOL     OW19285   6.668   3.043   3.254
 6129SOL    HW119286   6.610   3.104   3.308
 6129SOL    HW219287   6.741   3.006   3.311
 6130SOL     OW19288   6.050   2.072   3.888
 6130SOL    HW119289   6.072   2.082   3.985
 6130SOL    HW219290   6.135   2.059   3.837
 6131SOL     OW19291   6.945   1.159   5.238
 6131SOL    HW119292   6.888   1.204   5.169
 6131SOL    HW219293   6.889   1.140   5.319
 6132SOL     OW19294   4.615   2.251   0.449
 6132SOL    HW119295   4.586   2.179   0.386
 6132SOL    HW219296   4.682   2.309   0.404
 6133SOL     OW19297   1.214   2.979   2.073
 6133SOL    HW119298   1.217   3.079   2.062
 6133SOL    HW219299   1.128   2.944   2.034
 6134SOL     OW19300   3.679   4.466   6.556
 6134SOL    HW119301   3.579   4.466   6.566
 6134SOL    HW219302   3.706   4.534   6.488
 6135SOL     OW19303   0.505   0.526   2.075
 6135SOL    HW119304   0.512   0.435   2.116
 6135SOL    HW219305   0.492   0.517   1.977
 6136SOL     OW19306   1.039   2.580   2.445
 6136SOL    HW119307   1.045   2.615   2.539
 6136SOL    HW219308   1.101   2.633   2.386
 6137SOL     OW19309   6.482   2.477   3.588
 6137SOL    HW119310   6.468   2.394   3.535
 6137SOL    HW219311   6.478   2.556   3.527
 6138SOL     OW19312   4.135   0.046   3.203
 6138SOL    HW119313   4.154   0.112   3.276
 6138SOL    HW219314   4.110   0.095   3.120
 6139SOL     OW19315   1.012   0.516   6.503
 6139SOL    HW119316   1.037   0.507   6.599
 6139SOL    HW219317   0.998   0.425   6.463
 6140SOL     OW19318   0.738   6.591   1.440
 6140SOL    HW119319   0.785   6.608   1.526
 6140SOL    HW219320   0.791   6.632   1.365
 6141SOL     OW19321   0.014   6.260   6.031
 6141SOL    HW119322   0.023   6.303   6.121
 6141SOL    HW219323   0.039   6.326   5.960
 6142SOL     OW19324   1.436   5.667   0.461
 6142SOL    HW119325   1.489   5.637   0.540
 6142SOL    HW219326   1.338   5.663   0.482
 6143SOL     OW19327   6.895   3.875   1.233
 6143SOL    HW119328   6.912   3.951   1.172
 6143SOL    HW219329   6.805   3.836   1.213
 6144SOL     OW19330   5.219   4.434   3.038
 6144SOL    HW119331   5.169   4.376   3.102
 6144SOL    HW219332   5.313   4.401   3.029
 6145SOL     OW19333   4.981   5.350   3.216
 6145SOL    HW119334   4.914   5.411   3.259
 6145SOL    HW219335   5.073   5.383   3.236
 6146SOL     OW19336   2.618   5.913   3.254
 6146SOL    HW119337   2.576   5.858   3.326
 6146SOL    HW219338   2.658   5.995   3.293
 6147SOL     OW19339   1.392   2.878   4.514
 6147SOL    HW119340   1.470   2.821   4.541
 6147SOL    HW219341   1.402   2.906   4.419
 6148SOL     OW19342   6.248   6.845   3.961
 6148SOL    HW119343   6.313   6.875   3.890
 6148SOL    HW219344   6.285   6.767   4.010
 6149SOL     OW19345   2.965   5.890   1.221
 6149SOL    HW119346   3.019   5.951   1.278
 6149SOL    HW219347   2.904   5.835   1.278
 6150SOL     OW19348   4.599   5.048   0.365
 6150SOL    HW119349   4.648   4.997   0.295
 6150SOL    HW219350   4.507   5.010   0.375
 6151SOL     OW19351   5.958   4.514   6.552
 6151SOL    HW119352   6.043   4.473   6.585
 6151SOL    HW219353   5.903   4.444   6.506
 6152SOL     OW19354   6.081   5.079   4.513
 6152SOL    HW119355   5.984   5.088   4.493
 6152SOL    HW219356   6.094   5.009   4.583
 6153SOL     OW19357   5.433   4.419   1.228
 6153SOL    HW119358   5.388   4.402   1.140
 6153SOL    HW219359   5.374   4.474   1.286
 6154SOL     OW19360   6.072   2.128   2.604
 6154SOL    HW119361   6.164   2.104   2.636
 6154SOL    HW219362   6.049   2.220   2.634
 6155SOL     OW19363   1.819   1.866   4.366
 6155SOL    HW119364   1.865   1.925   4.299
 6155SOL    HW219365   1.797   1.778   4.323
 6156SOL     OW19366   3.856   4.608   1.731
 6156SOL    HW119367   3.837   4.548   1.653
 6156SOL    HW219368   3.771   4.644   1.767
 6157SOL     OW19369   0.934   0.325   4.875
 6157SOL    HW119370   1.008   0.326   4.942
 6157SOL    HW219371   0.854   0.371   4.914
 6158SOL     OW19372   4.013   1.438   6.180
 6158SOL    HW119373   3.958   1.372   6.128
 6158SOL    HW219374   3.952   1.499   6.230
 6159SOL     OW19375   4.617   2.695   2.335
 6159SOL    HW119376   4.655   2.654   2.252
 6159SOL    HW219377   4.521   2.668   2.345
 6160SOL     OW19378   5.090   1.541   6.623
 6160SOL    HW119379   4.997   1.529   6.659
 6160SOL    HW219380   5.147   1.583   6.693
 6161SOL     OW19381   4.691   1.162   5.065
 6161SOL    HW119382   4.687   1.255   5.104
 6161SOL    HW219383   4.684   1.095   5.139
 6162SOL     OW19384   0.681   6.330   3.595
 6162SOL    HW119385   0.740   6.407   3.571
 6162SOL    HW219386   0.704   6.297   3.687
 6163SOL     OW19387   6.429   6.577   0.994
 6163SOL    HW119388   6.470   6.491   0.965
 6163SOL    HW219389   6.481   6.615   1.071
 6164SOL     OW19390   3.796   3.210   1.943
 6164SOL    HW119391   3.747   3.127   1.916
 6164SOL    HW219392   3.882   3.184   1.987
 6165SOL     OW19393   4.736   0.743   6.999
 6165SOL    HW119394   4.810   0.751   0.045
 6165SOL    HW219395   4.663   0.807   0.004
 6166SOL     OW19396   5.329   1.320   6.015
 6166SOL    HW119397   5.295   1.249   5.953
 6166SOL    HW219398   5.302   1.409   5.980
 6167SOL     OW19399   0.996   5.009   3.518
 6167SOL    HW119400   1.075   4.950   3.533
 6167SOL    HW219401   0.940   4.972   3.444
 6168SOL     OW19402   1.291   3.915   1.693
 6168SOL    HW119403   1.268   3.999   1.642
 6168SOL    HW219404   1.218   3.894   1.758
 6169SOL     OW19405   1.325   2.508   1.023
 6169SOL    HW119406   1.289   2.415   1.032
 6169SOL    HW219407   1.416   2.504   0.983
 6170SOL     OW19408   1.082   4.325   5.786
 6170SOL    HW119409   0.983   4.313   5.773
 6170SOL    HW219410   1.103   4.422   5.793
 6171SOL     OW19411   0.789   3.174   0.610
 6171SOL    HW119412   0.761   3.086   0.571
 6171SOL    HW219413   0.784   3.170   0.709
 6172SOL     OW19414   1.888   2.963   2.572
 6172SOL    HW119415   1.790   2.944   2.562
 6172SOL    HW219416   1.937   2.929   2.491
 6173SOL     OW19417   6.730   5.499   1.934
 6173SOL    HW119418   6.800   5.563   1.903
 6173SOL    HW219419   6.729   5.419   1.873
 6174SOL     OW19420   4.987   5.734   3.517
 6174SOL    HW119421   5.057   5.663   3.515
 6174SOL    HW219422   5.029   5.824   3.512
 6175SOL     OW19423   4.203   0.296   3.756
 6175SOL    HW119424   4.127   0.280   3.820
 6175SOL    HW219425   4.283   0.326   3.808
 6176SOL     OW19426   5.490   3.876   5.796
 6176SOL    HW119427   5.459   3.957   5.745
 6176SOL    HW219428   5.564   3.832   5.745
 6177SOL     OW19429   5.824   1.080   0.976
 6177SOL    HW119430   5.818   1.004   1.042
 6177SOL    HW219431   5.808   1.167   1.024
 6178SOL     OW19432   4.457   4.698   2.449
 6178SOL    HW119433   4.455   4.782   2.395
 6178SOL    HW219434   4.430   4.719   2.543
 6179SOL     OW19435   6.152   5.047   3.663
 6179SOL    HW119436   6.207   5.058   3.580
 6179SOL    HW219437   6.084   5.121   3.667
 6180SOL     OW19438   2.966   4.150   1.007
 6180SOL    HW119439   2.869   4.149   1.031
 6180SOL    HW219440   3.015   4.082   1.061
 6181SOL     OW19441   4.476   6.239   0.187
 6181SOL    HW119442   4.561   6.191   0.208
 6181SOL    HW219443   4.482   6.333   0.218
 6182SOL     OW19444   5.452   3.432   5.406
 6182SOL    HW119445   5.471   3.441   5.309
 6182SOL    HW219446   5.357   3.407   5.420
 6183SOL     OW19447   1.294   2.789   3.617
 6183SOL    HW119448   1.278   2.885   3.641
 6183SOL    HW219449   1.260   2.772   3.525
 6184SOL     OW19450   2.521   6.509   6.545
 6184SOL    HW119451   2.486   6.600   6.526
 6184SOL    HW219452   2.595   6.488   6.481
 6185SOL     OW19453   0.197   3.669   6.167
 6185SOL    HW119454   0.158   3.760   6.179
 6185SOL    HW219455   0.127   3.600   6.184
 6186SOL     OW19456   0.430   1.100   0.470
 6186SOL    HW119457   0.465   1.010   0.446
 6186SOL    HW219458   0.366   1.093   0.546
 6187SOL     OW19459   5.091   4.315   3.996
 6187SOL    HW119460   5.137   4.285   4.079
 6187SOL    HW219461   5.040   4.399   4.015
 6188SOL     OW19462   2.707   1.662   6.743
 6188SOL    HW119463   2.772   1.591   6.771
 6188SOL    HW219464   2.692   1.657   6.644
 6189SOL     OW19465   4.408   4.698   2.732
 6189SOL    HW119466   4.314   4.698   2.766
 6189SOL    HW219467   4.471   4.696   2.809
 6190SOL     OW19468   0.768   4.102   5.288
 6190SOL    HW119469   0.775   4.202   5.286
 6190SOL    HW219470   0.853   4.062   5.252
 6191SOL     OW19471   2.761   2.195   6.891
 6191SOL    HW119472   2.754   2.100   6.918
 6191SOL    HW219473   2.718   2.254   6.960
 6192SOL     OW19474   2.738   2.616   5.943
 6192SOL    HW119475   2.787   2.596   5.858
 6192SOL    HW219476   2.726   2.531   5.995
 6193SOL     OW19477   4.929   0.152   1.593
 6193SOL    HW119478   4.869   0.099   1.533
 6193SOL    HW219479   5.007   0.186   1.540
 6194SOL     OW19480   0.873   0.171   1.247
 6194SOL    HW119481   0.883   0.135   1.154
 6194SOL    HW219482   0.789   0.225   1.253
 6195SOL     OW19483   4.095   5.632   4.963
 6195SOL    HW119484   4.156   5.650   4.886
 6195SOL    HW219485   4.013   5.584   4.930
 6196SOL     OW19486   5.935   3.498   2.095
 6196SOL    HW119487   5.911   3.507   2.192
 6196SOL    HW219488   6.027   3.533   2.079
 6197SOL     OW19489   3.917   5.109   0.689
 6197SOL    HW119490   3.848   5.072   0.751
 6197SOL    HW219491   3.909   5.209   0.685
 6198SOL     OW19492   4.394   6.895   1.780
 6198SOL    HW119493   4.420   6.968   1.717
 6198SOL    HW219494   4.426   6.807   1.744
 6199SOL     OW19495   1.184   1.713   0.139
 6199SOL    HW119496   1.126   1.647   0.090
 6199SOL    HW219497   1.272   1.671   0.160
 6200SOL     OW19498   0.963   0.896   5.693
 6200SOL    HW119499   0.966   0.996   5.689
 6200SOL    HW219500   1.054   0.861   5.713
 6201SOL     OW19501   0.405   4.030   5.613
 6201SOL    HW119502   0.390   4.074   5.702
 6201SOL    HW219503   0.470   3.956   5.623
 6202SOL     OW19504   4.660   1.196   1.530
 6202SOL    HW119505   4.749   1.238   1.548
 6202SOL    HW219506   4.638   1.131   1.603
 6203SOL     OW19507   6.430   5.487   1.867
 6203SOL    HW119508   6.524   5.486   1.902
 6203SOL    HW219509   6.376   5.418   1.916
 6204SOL     OW19510   6.894   5.426   3.931
 6204SOL    HW119511   6.938   5.503   3.978
 6204SOL    HW219512   6.888   5.348   3.993
 6205SOL     OW19513   6.374   5.346   0.925
 6205SOL    HW119514   6.472   5.340   0.906
 6205SOL    HW219515   6.322   5.317   0.844
 6206SOL     OW19516   5.445   2.224   3.163
 6206SOL    HW119517   5.460   2.230   3.262
 6206SOL    HW219518   5.351   2.251   3.142
 6207SOL     OW19519   1.548   5.261   5.421
 6207SOL    HW119520   1.611   5.303   5.356
 6207SOL    HW219521   1.547   5.162   5.407
 6208SOL     OW19522   5.293   2.982   5.761
 6208SOL    HW119523   5.305   2.887   5.790
 6208SOL    HW219524   5.210   3.019   5.802
 6209SOL     OW19525   3.453   5.748   6.645
 6209SOL    HW119526   3.449   5.844   6.619
 6209SOL    HW219527   3.372   5.725   6.700
 6210SOL     OW19528   5.275   3.738   4.030
 6210SOL    HW119529   5.198   3.710   4.087
 6210SOL    HW219530   5.277   3.682   3.948
 6211SOL     OW19531   3.035   5.793   5.965
 6211SOL    HW119532   3.099   5.780   6.041
 6211SOL    HW219533   2.949   5.832   6.000
 6212SOL     OW19534   2.753   4.759   4.776
 6212SOL    HW119535   2.788   4.717   4.859
 6212SOL    HW219536   2.665   4.719   4.752
 6213SOL     OW19537   6.032   0.027   0.239
 6213SOL    HW119538   5.940   0.023   0.200
 6213SOL    HW219539   6.041   0.111   0.294
 6214SOL     OW19540   4.962   5.425   4.484
 6214SOL    HW119541   4.885   5.380   4.529
 6214SOL    HW219542   5.047   5.378   4.507
 6215SOL     OW19543   4.264   2.316   6.348
 6215SOL    HW119544   4.298   2.386   6.412
 6215SOL    HW219545   4.281   2.346   6.254
 6216SOL     OW19546   6.494   1.856   2.708
 6216SOL    HW119547   6.506   1.780   2.772
 6216SOL    HW219548   6.583   1.887   2.674
 6217SOL     OW19549   0.732   3.322   2.378
 6217SOL    HW119550   0.687   3.319   2.289
 6217SOL    HW219551   0.806   3.389   2.376
 6218SOL     OW19552   3.900   6.659   6.221
 6218SOL    HW119553   3.912   6.705   6.309
 6218SOL    HW219554   3.928   6.563   6.229
 6219SOL     OW19555   1.473   1.711   4.939
 6219SOL    HW119556   1.411   1.770   4.888
 6219SOL    HW219557   1.562   1.756   4.949
 6220SOL     OW19558   2.757   1.070   5.062
 6220SOL    HW119559   2.767   1.062   5.162
 6220SOL    HW219560   2.833   1.024   5.017
 6221SOL     OW19561   5.912   6.866   0.489
 6221SOL    HW119562   5.913   6.891   0.392
 6221SOL    HW219563   5.989   6.909   0.536
 6222SOL     OW19564   1.742   0.097   1.919
 6222SOL    HW119565   1.824   0.072   1.869
 6222SOL    HW219566   1.667   0.036   1.893
 6223SOL     OW19567   1.324   5.045   3.873
 6223SOL    HW119568   1.366   5.020   3.786
 6223SOL    HW219569   1.388   5.028   3.947
 6224SOL     OW19570   3.721   1.024   6.234
 6224SOL    HW119571   3.679   1.012   6.144
 6224SOL    HW219572   3.683   0.958   6.298
 6225SOL     OW19573   4.090   3.367   6.377
 6225SOL    HW119574   4.074   3.363   6.278
 6225SOL    HW219575   4.087   3.275   6.415
 6226SOL     OW19576   0.693   1.340   4.772
 6226SOL    HW119577   0.656   1.433   4.778
 6226SOL    HW219578   0.766   1.329   4.840
 6227SOL     OW19579   3.425   4.911   5.017
 6227SOL    HW119580   3.326   4.907   5.006
 6227SOL    HW219581   3.450   4.883   5.110
 6228SOL     OW19582   0.741   3.400   1.847
 6228SOL    HW119583   0.736   3.326   1.779
 6228SOL    HW219584   0.652   3.413   1.889
 6229SOL     OW19585   1.008   2.046   4.473
 6229SOL    HW119586   0.969   1.974   4.530
 6229SOL    HW219587   0.975   2.135   4.502
 6230SOL     OW19588   0.414   2.243   4.295
 6230SOL    HW119589   0.474   2.268   4.220
 6230SOL    HW219590   0.414   2.316   4.363
 6231SOL     OW19591   6.288   5.858   0.409
 6231SOL    HW119592   6.284   5.958   0.402
 6231SOL    HW219593   6.376   5.832   0.448
 6232SOL     OW19594   6.427   1.208   0.744
 6232SOL    HW119595   6.440   1.280   0.813
 6232SOL    HW219596   6.329   1.198   0.725
 6233SOL     OW19597   6.620   2.194   1.428
 6233SOL    HW119598   6.686   2.133   1.384
 6233SOL    HW219599   6.644   2.289   1.408
 6234SOL     OW19600   6.969   0.285   5.595
 6234SOL    HW119601   7.017   0.298   5.509
 6234SOL    HW219602   6.871   0.301   5.581
 6235SOL     OW19603   6.932   7.019   1.312
 6235SOL    HW119604   6.840   0.028   1.338
 6235SOL    HW219605   6.975   6.970   1.388
 6236SOL     OW19606   0.795   4.580   1.363
 6236SOL    HW119607   0.864   4.519   1.324
 6236SOL    HW219608   0.741   4.621   1.288
 6237SOL     OW19609   3.875   0.245   6.430
 6237SOL    HW119610   3.898   0.317   6.495
 6237SOL    HW219611   3.782   0.213   6.447
 6238SOL     OW19612   4.788   5.564   2.719
 6238SOL    HW119613   4.792   5.477   2.767
 6238SOL    HW219614   4.711   5.618   2.753
 6239SOL     OW19615   3.838   1.147   1.639
 6239SOL    HW119616   3.927   1.160   1.595
 6239SOL    HW219617   3.773   1.109   1.573
 6240SOL     OW19618   2.166   3.757   5.785
 6240SOL    HW119619   2.073   3.776   5.816
 6240SOL    HW219620   2.229   3.761   5.863
 6241SOL     OW19621   3.036   0.394   2.290
 6241SOL    HW119622   2.961   0.351   2.340
 6241SOL    HW219623   3.080   0.325   2.231
 6242SOL     OW19624   3.686   0.335   3.741
 6242SOL    HW119625   3.702   0.392   3.822
 6242SOL    HW219626   3.773   0.294   3.712
 6243SOL     OW19627   7.016   6.410   5.246
 6243SOL    HW119628   7.015   6.508   5.262
 6243SOL    HW219629   6.971   6.363   5.323
 6244SOL     OW19630   5.805   3.178   3.099
 6244SOL    HW119631   5.803   3.274   3.127
 6244SOL    HW219632   5.788   3.119   3.179
 6245SOL     OW19633   1.246   3.599   0.672
 6245SOL    HW119634   1.286   3.685   0.639
 6245SOL    HW219635   1.313   3.551   0.729
 6246SOL     OW19636   0.943   2.132   5.451
 6246SOL    HW119637   0.991   2.150   5.365
 6246SOL    HW219638   0.932   2.033   5.463
 6247SOL     OW19639   0.043   5.661   3.774
 6247SOL    HW119640   6.974   5.692   3.806
 6247SOL    HW219641   0.085   5.733   3.719
 6248SOL     OW19642   3.800   4.000   6.688
 6248SOL    HW119643   3.894   4.029   6.706
 6248SOL    HW219644   3.758   4.062   6.622
 6249SOL     OW19645   7.008   3.665   0.534
 6249SOL    HW119646   0.059   3.607   0.574
 6249SOL    HW219647   7.000   3.749   0.587
 6250SOL     OW19648   6.486   0.399   1.175
 6250SOL    HW119649   6.512   0.494   1.195
 6250SOL    HW219650   6.442   0.359   1.255
 6251SOL     OW19651   4.392   5.523   5.401
 6251SOL    HW119652   4.468   5.584   5.381
 6251SOL    HW219653   4.413   5.468   5.482
 6252SOL     OW19654   2.744   6.304   6.051
 6252SOL    HW119655   2.706   6.263   5.967
 6252SOL    HW219656   2.720   6.401   6.054
 6253SOL     OW19657   2.670   4.628   4.067
 6253SOL    HW119658   2.695   4.641   4.162
 6253SOL    HW219659   2.652   4.530   4.050
 6254SOL     OW19660   5.983   1.050   1.405
 6254SOL    HW119661   5.986   1.146   1.431
 6254SOL    HW219662   6.017   0.994   1.481
 6255SOL     OW19663   2.946   0.894   1.207
 6255SOL    HW119664   2.874   0.887   1.277
 6255SOL    HW219665   3.015   0.823   1.223
 6256SOL     OW19666   3.246   5.182   2.219
 6256SOL    HW119667   3.234   5.111   2.287
 6256SOL    HW219668   3.343   5.192   2.198
 6257SOL     OW19669   4.954   2.750   0.945
 6257SOL    HW119670   5.021   2.700   1.000
 6257SOL    HW219671   4.876   2.775   1.002
 6258SOL     OW19672   2.730   0.911   3.650
 6258SOL    HW119673   2.649   0.923   3.592
 6258SOL    HW219674   2.770   0.821   3.632
 6259SOL     OW19675   1.465   2.098   6.434
 6259SOL    HW119676   1.545   2.149   6.401
 6259SOL    HW219677   1.450   2.117   6.530
 6260SOL     OW19678   3.220   5.832   0.369
 6260SOL    HW119679   3.258   5.742   0.346
 6260SOL    HW219680   3.263   5.865   0.453
 6261SOL     OW19681   4.508   0.593   6.932
 6261SOL    HW119682   4.503   0.633   0.003
 6261SOL    HW219683   4.601   0.600   6.898
 6262SOL     OW19684   2.406   6.712   1.888
 6262SOL    HW119685   2.424   6.614   1.893
 6262SOL    HW219686   2.340   6.731   1.815
 6263SOL     OW19687   0.157   6.963   4.274
 6263SOL    HW119688   0.252   6.982   4.250
 6263SOL    HW219689   0.106   6.938   4.192
 6264SOL     OW19690   1.827   0.567   1.545
 6264SOL    HW119691   1.916   0.524   1.533
 6264SOL    HW219692   1.838   0.655   1.591
 6265SOL     OW19693   3.917   3.729   0.045
 6265SOL    HW119694   3.922   3.829   0.039
 6265SOL    HW219695   3.960   3.689   6.984
 6266SOL     OW19696   4.769   0.008   3.688
 6266SOL    HW119697   4.720   0.094   3.673
 6266SOL    HW219698   4.748   6.992   3.779
 6267SOL     OW19699   2.411   6.827   5.472
 6267SOL    HW119700   2.313   6.847   5.475
 6267SOL    HW219701   2.461   6.909   5.446
 6268SOL     OW19702   2.895   1.380   2.316
 6268SOL    HW119703   2.842   1.422   2.242
 6268SOL    HW219704   2.842   1.305   2.356
 6269SOL     OW19705   6.659   6.660   1.934
 6269SOL    HW119706   6.742   6.648   1.988
 6269SOL    HW219707   6.580   6.666   1.995
 6270SOL     OW19708   0.497   0.548   6.331
 6270SOL    HW119709   0.589   0.545   6.369
 6270SOL    HW219710   0.496   0.501   6.242
 6271SOL     OW19711   5.944   2.206   5.963
 6271SOL    HW119712   5.989   2.149   6.032
 6271SOL    HW219713   5.852   2.171   5.946
 6272SOL     OW19714   0.499   2.263   0.101
 6272SOL    HW119715   0.440   2.190   0.135
 6272SOL    HW219716   0.548   2.230   0.020
 6273SOL     OW19717   0.568   6.472   2.531
 6273SOL    HW119718   0.542   6.533   2.456
 6273SOL    HW219719   0.651   6.423   2.507
 6274SOL     OW19720   2.961   6.853   5.862
 6274SOL    HW119721   2.955   6.855   5.763
 6274SOL    HW219722   2.948   6.760   5.895
 6275SOL     OW19723   2.059   6.439   0.301
 6275SOL    HW119724   2.034   6.527   0.260
 6275SOL    HW219725   2.046   6.444   0.400
 6276SOL     OW19726   2.209   4.894   4.105
 6276SOL    HW119727   2.258   4.821   4.058
 6276SOL    HW219728   2.155   4.946   4.039
 6277SOL     OW19729   4.808   3.064   0.926
 6277SOL    HW119730   4.839   3.114   0.845
 6277SOL    HW219731   4.878   3.069   0.997
 6278SOL     OW19732   4.607   6.780   4.812
 6278SOL    HW119733   4.691   6.729   4.798
 6278SOL    HW219734   4.625   6.878   4.797
 6279SOL     OW19735   3.446   6.019   0.109
 6279SOL    HW119736   3.355   6.037   0.146
 6279SOL    HW219737   3.490   6.106   0.085
 6280SOL     OW19738   0.056   1.218   6.514
 6280SOL    HW119739   6.984   1.181   6.501
 6280SOL    HW219740   0.123   1.146   6.496
 6281SOL     OW19741   0.031   5.267   4.134
 6281SOL    HW119742   0.114   5.211   4.131
 6281SOL    HW219743   0.009   5.288   4.230
 6282SOL     OW19744   6.640   5.403   5.711
 6282SOL    HW119745   6.567   5.404   5.779
 6282SOL    HW219746   6.726   5.376   5.755
 6283SOL     OW19747   0.041   3.533   4.277
 6283SOL    HW119748   0.072   3.488   4.193
 6283SOL    HW219749   6.966   3.562   4.266
 6284SOL     OW19750   1.500   4.448   4.746
 6284SOL    HW119751   1.556   4.526   4.720
 6284SOL    HW219752   1.418   4.444   4.688
 6285SOL     OW19753   0.027   3.433   3.775
 6285SOL    HW119754   0.059   3.349   3.733
 6285SOL    HW219755   6.949   3.442   3.760
 6286SOL     OW19756   6.520   2.510   4.208
 6286SOL    HW119757   6.471   2.478   4.289
 6286SOL    HW219758   6.493   2.604   4.188
 6287SOL     OW19759   3.043   5.046   4.478
 6287SOL    HW119760   2.958   5.086   4.444
 6287SOL    HW219761   3.030   4.948   4.494
 6288SOL     OW19762   4.977   4.208   2.213
 6288SOL    HW119763   4.878   4.222   2.218
 6288SOL    HW219764   5.014   4.262   2.137
 6289SOL     OW19765   2.160   4.981   6.876
 6289SOL    HW119766   2.213   4.896   6.882
 6289SOL    HW219767   2.119   5.001   6.965
 6290SOL     OW19768   6.168   4.571   6.093
 6290SOL    HW119769   6.148   4.473   6.093
 6290SOL    HW219770   6.110   4.617   6.161
 6291SOL     OW19771   3.974   3.813   3.855
 6291SOL    HW119772   3.984   3.731   3.798
 6291SOL    HW219773   3.923   3.790   3.937
 6292SOL     OW19774   1.884   2.228   4.801
 6292SOL    HW119775   1.946   2.189   4.733
 6292SOL    HW219776   1.790   2.224   4.766
 6293SOL     OW19777   4.404   1.486   1.137
 6293SOL    HW119778   4.370   1.507   1.229
 6293SOL    HW219779   4.481   1.423   1.144
 6294SOL     OW19780   3.662   0.367   4.256
 6294SOL    HW119781   3.588   0.336   4.197
 6294SOL    HW219782   3.625   0.391   4.346
 6295SOL     OW19783   5.044   4.677   4.599
 6295SOL    HW119784   5.111   4.720   4.660
 6295SOL    HW219785   4.953   4.686   4.638
 6296SOL     OW19786   0.027   5.199   5.853
 6296SOL    HW119787   6.992   5.274   5.816
 6296SOL    HW219788   0.082   5.232   5.929
 6297SOL     OW19789   5.830   0.395   5.111
 6297SOL    HW119790   5.797   0.313   5.064
 6297SOL    HW219791   5.765   0.422   5.181
 6298SOL     OW19792   1.424   3.284   6.632
 6298SOL    HW119793   1.344   3.332   6.598
 6298SOL    HW219794   1.504   3.310   6.577
 6299SOL     OW19795   6.229   2.647   1.937
 6299SOL    HW119796   6.308   2.610   1.986
 6299SOL    HW219797   6.218   2.744   1.959
 6300SOL     OW19798   6.769   1.178   6.563
 6300SOL    HW119799   6.738   1.099   6.615
 6300SOL    HW219800   6.770   1.155   6.465
 6301SOL     OW19801   2.708   6.979   6.897
 6301SOL    HW119802   2.692   6.973   6.995
 6301SOL    HW219803   2.715   6.887   6.859
 6302SOL     OW19804   1.708   1.821   4.879
 6302SOL    HW119805   1.736   1.796   4.786
 6302SOL    HW219806   1.785   1.865   4.926
 6303SOL     OW19807   0.949   0.573   5.306
 6303SOL    HW119808   0.925   0.586   5.210
 6303SOL    HW219809   0.878   0.614   5.364
 6304SOL     OW19810   3.372   0.565   1.837
 6304SOL    HW119811   3.297   0.574   1.772
 6304SOL    HW219812   3.439   0.637   1.820
 6305SOL     OW19813   5.869   6.316   0.713
 6305SOL    HW119814   5.870   6.356   0.621
 6305SOL    HW219815   5.941   6.358   0.768
 6306SOL     OW19816   0.012   4.419   4.154
 6306SOL    HW119817   0.001   4.475   4.236
 6306SOL    HW219818   0.075   4.344   4.174
 6307SOL     OW19819   3.578   4.167   4.167
 6307SOL    HW119820   3.551   4.260   4.191
 6307SOL    HW219821   3.568   4.153   4.069
 6308SOL     OW19822   2.062   2.804   4.322
 6308SOL    HW119823   2.045   2.789   4.419
 6308SOL    HW219824   2.010   2.739   4.267
 6309SOL     OW19825   6.485   5.949   4.359
 6309SOL    HW119826   6.452   6.032   4.315
 6309SOL    HW219827   6.583   5.958   4.378
 6310SOL     OW19828   1.898   5.927   2.422
 6310SOL    HW119829   1.860   5.919   2.330
 6310SOL    HW219830   1.833   5.892   2.489
 6311SOL     OW19831   5.286   1.615   5.983
 6311SOL    HW119832   5.267   1.701   6.030
 6311SOL    HW219833   5.203   1.582   5.938
 6312SOL     OW19834   0.254   6.344   5.138
 6312SOL    HW119835   0.169   6.353   5.190
 6312SOL    HW219836   0.259   6.253   5.097
 6313SOL     OW19837   6.879   5.974   3.588
 6313SOL    HW119838   6.919   6.006   3.674
 6313SOL    HW219839   6.812   5.903   3.606
 6314SOL     OW19840   4.115   6.509   1.636
 6314SOL    HW119841   4.076   6.451   1.708
 6314SOL    HW219842   4.208   6.536   1.663
 6315SOL     OW19843   3.048   2.056   5.897
 6315SOL    HW119844   2.949   2.060   5.886
 6315SOL    HW219845   3.072   2.090   5.988
 6316SOL     OW19846   4.997   2.168   6.348
 6316SOL    HW119847   4.967   2.073   6.347
 6316SOL    HW219848   5.088   2.174   6.389
 6317SOL     OW19849   5.306   4.723   2.137
 6317SOL    HW119850   5.319   4.780   2.056
 6317SOL    HW219851   5.235   4.655   2.119
 6318SOL     OW19852   4.430   6.674   5.960
 6318SOL    HW119853   4.455   6.744   6.027
 6318SOL    HW219854   4.356   6.618   5.996
 6319SOL     OW19855   6.625   1.753   5.231
 6319SOL    HW119856   6.593   1.798   5.314
 6319SOL    HW219857   6.708   1.800   5.198
 6320SOL     OW19858   6.834   6.331   5.050
 6320SOL    HW119859   6.925   6.354   5.085
 6320SOL    HW219860   6.770   6.322   5.126
 6321SOL     OW19861   4.657   3.303   1.020
 6321SOL    HW119862   4.655   3.336   0.926
 6321SOL    HW219863   4.711   3.219   1.025
 6322SOL     OW19864   1.564   2.529   0.878
 6322SOL    HW119865   1.632   2.553   0.947
 6322SOL    HW219866   1.609   2.499   0.794
 6323SOL     OW19867   1.986   2.170   1.763
 6323SOL    HW119868   1.982   2.269   1.781
 6323SOL    HW219869   2.041   2.153   1.682
 6324SOL     OW19870   5.282   1.190   0.731
 6324SOL    HW119871   5.348   1.236   0.672
 6324SOL    HW219872   5.304   1.093   0.735
 6325SOL     OW19873   1.903   3.253   2.568
 6325SOL    HW119874   1.818   3.299   2.543
 6325SOL    HW219875   1.895   3.155   2.547
 6326SOL     OW19876   5.371   5.040   1.422
 6326SOL    HW119877   5.398   5.000   1.334
 6326SOL    HW219878   5.272   5.038   1.431
 6327SOL     OW19879   0.368   1.377   4.736
 6327SOL    HW119880   0.351   1.324   4.653
 6327SOL    HW219881   0.437   1.447   4.717
 6328SOL     OW19882   4.142   3.971   0.172
 6328SOL    HW119883   4.209   3.898   0.167
 6328SOL    HW219884   4.173   4.041   0.237
 6329SOL     OW19885   1.821   3.262   3.975
 6329SOL    HW119886   1.916   3.250   4.004
 6329SOL    HW219887   1.765   3.187   4.012
 6330SOL     OW19888   5.583   6.725   1.718
 6330SOL    HW119889   5.522   6.660   1.763
 6330SOL    HW219890   5.575   6.815   1.762
 6331SOL     OW19891   6.334   3.391   5.341
 6331SOL    HW119892   6.299   3.460   5.278
 6331SOL    HW219893   6.295   3.302   5.319
 6332SOL     OW19894   0.578   2.495   0.870
 6332SOL    HW119895   0.587   2.558   0.947
 6332SOL    HW219896   0.486   2.454   0.872
 6333SOL     OW19897   4.555   6.680   5.470
 6333SOL    HW119898   4.606   6.674   5.385
 6333SOL    HW219899   4.590   6.757   5.524
 6334SOL     OW19900   3.322   1.408   2.452
 6334SOL    HW119901   3.406   1.454   2.423
 6334SOL    HW219902   3.341   1.311   2.469
 6335SOL     OW19903   4.437   0.656   0.964
 6335SOL    HW119904   4.351   0.609   0.980
 6335SOL    HW219905   4.511   0.608   1.011
 6336SOL     OW19906   1.368   2.167   6.676
 6336SOL    HW119907   1.273   2.197   6.663
 6336SOL    HW219908   1.396   2.182   6.770
 6337SOL     OW19909   4.825   5.344   5.404
 6337SOL    HW119910   4.760   5.417   5.386
 6337SOL    HW219911   4.829   5.282   5.326
 6338SOL     OW19912   3.252   2.174   3.971
 6338SOL    HW119913   3.273   2.176   3.874
 6338SOL    HW219914   3.157   2.201   3.986
 6339SOL     OW19915   1.004   3.745   3.660
 6339SOL    HW119916   0.914   3.788   3.660
 6339SOL    HW219917   1.062   3.787   3.730
 6340SOL     OW19918   1.386   4.960   1.661
 6340SOL    HW119919   1.425   4.997   1.746
 6340SOL    HW219920   1.337   4.875   1.681
 6341SOL     OW19921   6.812   4.245   4.252
 6341SOL    HW119922   6.889   4.304   4.228
 6341SOL    HW219923   6.841   4.176   4.318
 6342SOL     OW19924   2.815   1.171   1.044
 6342SOL    HW119925   2.815   1.267   1.074
 6342SOL    HW219926   2.742   1.121   1.091
 6343SOL     OW19927   4.626   0.583   6.396
 6343SOL    HW119928   4.600   0.516   6.467
 6343SOL    HW219929   4.562   0.660   6.398
 6344SOL     OW19930   4.885   2.115   4.542
 6344SOL    HW119931   4.918   2.029   4.503
 6344SOL    HW219932   4.950   2.147   4.611
 6345SOL     OW19933   5.871   2.616   2.619
 6345SOL    HW119934   5.775   2.626   2.643
 6345SOL    HW219935   5.906   2.702   2.582
 6346SOL     OW19936   5.931   5.712   3.687
 6346SOL    HW119937   5.855   5.678   3.742
 6346SOL    HW219938   6.017   5.700   3.738
 6347SOL     OW19939   1.924   1.041   0.059
 6347SOL    HW119940   1.825   1.032   0.069
 6347SOL    HW219941   1.969   0.977   0.121
 6348SOL     OW19942   1.642   2.897   5.890
 6348SOL    HW119943   1.567   2.847   5.934
 6348SOL    HW219944   1.620   2.910   5.793
 6349SOL     OW19945   1.729   0.754   0.933
 6349SOL    HW119946   1.690   0.761   0.841
 6349SOL    HW219947   1.709   0.837   0.984
 6350SOL     OW19948   0.588   5.235   4.168
 6350SOL    HW119949   0.675   5.280   4.191
 6350SOL    HW219950   0.568   5.247   4.071
 6351SOL     OW19951   6.213   3.883   3.476
 6351SOL    HW119952   6.130   3.885   3.530
 6351SOL    HW219953   6.292   3.896   3.536
 6352SOL     OW19954   2.875   6.939   5.116
 6352SOL    HW119955   2.917   6.855   5.150
 6352SOL    HW219956   2.936   7.017   5.134
 6353SOL     OW19957   0.723   6.323   6.248
 6353SOL    HW119958   0.726   6.305   6.346
 6353SOL    HW219959   0.733   6.237   6.197
 6354SOL     OW19960   3.020   5.222   3.403
 6354SOL    HW119961   3.106   5.201   3.357
 6354SOL    HW219962   2.999   5.319   3.391
 6355SOL     OW19963   2.283   5.239   6.828
 6355SOL    HW119964   2.252   5.144   6.816
 6355SOL    HW219965   2.204   5.299   6.837
 6356SOL     OW19966   4.904   5.572   1.194
 6356SOL    HW119967   4.976   5.636   1.165
 6356SOL    HW219968   4.886   5.508   1.119
 6357SOL     OW19969   6.288   3.304   2.727
 6357SOL    HW119970   6.207   3.279   2.781
 6357SOL    HW219971   6.317   3.396   2.752
 6358SOL     OW19972   6.798   1.964   6.850
 6358SOL    HW119973   6.775   1.911   6.768
 6358SOL    HW219974   6.789   1.906   6.931
 6359SOL     OW19975   6.471   0.411   0.675
 6359SOL    HW119976   6.437   0.364   0.594
 6359SOL    HW219977   6.470   0.509   0.660
 6360SOL     OW19978   1.049   3.848   5.560
 6360SOL    HW119979   1.061   3.756   5.595
 6360SOL    HW219980   0.952   3.871   5.557
 6361SOL     OW19981   1.361   0.035   0.873
 6361SOL    HW119982   1.293   7.011   0.814
 6361SOL    HW219983   1.326   0.122   0.905
 6362SOL     OW19984   0.661   5.500   0.148
 6362SOL    HW119985   0.686   5.413   0.105
 6362SOL    HW219986   0.737   5.564   0.141
 6363SOL     OW19987   2.307   5.722   3.701
 6363SOL    HW119988   2.226   5.747   3.649
 6363SOL    HW219989   2.337   5.800   3.756
 6364SOL     OW19990   2.531   1.967   5.616
 6364SOL    HW119991   2.557   2.040   5.552
 6364SOL    HW219992   2.614   1.928   5.657
 6365SOL     OW19993   4.813   0.081   4.203
 6365SOL    HW119994   4.733   0.032   4.236
 6365SOL    HW219995   4.784   0.153   4.139
 6366SOL     OW19996   1.001   5.526   5.311
 6366SOL    HW119997   1.080   5.502   5.367
 6366SOL    HW219998   1.030   5.586   5.236
 6367SOL     OW19999   4.160   1.514   3.945
 6367SOL    HW120000   4.182   1.609   3.921
 6367SOL    HW220001   4.229   1.453   3.904
 6368SOL     OW20002   3.470   5.085   3.715
 6368SOL    HW120003   3.484   4.995   3.673
 6368SOL    HW220004   3.385   5.124   3.681
 6369SOL     OW20005   2.566   0.557   4.616
 6369SOL    HW120006   2.598   0.621   4.546
 6369SOL    HW220007   2.627   0.478   4.621
 6370SOL     OW20008   6.586   3.322   3.763
 6370SOL    HW120009   6.542   3.316   3.852
 6370SOL    HW220010   6.672   3.270   3.765
 6371SOL     OW20011   5.588   5.003   3.057
 6371SOL    HW120012   5.502   4.965   3.092
 6371SOL    HW220013   5.572   5.094   3.020
 6372SOL     OW20014   1.416   1.171   1.724
 6372SOL    HW120015   1.479   1.235   1.768
 6372SOL    HW220016   1.354   1.133   1.792
 6373SOL     OW20017   4.552   4.423   2.775
 6373SOL    HW120018   4.568   4.400   2.871
 6373SOL    HW220019   4.522   4.518   2.767
 6374SOL     OW20020   4.028   3.622   2.621
 6374SOL    HW120021   3.928   3.615   2.625
 6374SOL    HW220022   4.069   3.544   2.667
 6375SOL     OW20023   6.735   1.971   2.642
 6375SOL    HW120024   6.755   1.984   2.739
 6375SOL    HW220025   6.820   1.958   2.591
 6376SOL     OW20026   5.181   2.226   5.822
 6376SOL    HW120027   5.088   2.204   5.790
 6376SOL    HW220028   5.183   2.319   5.857
 6377SOL     OW20029   0.314   0.932   5.627
 6377SOL    HW120030   0.362   0.960   5.710
 6377SOL    HW220031   0.250   1.003   5.599
 6378SOL     OW20032   4.443   4.530   3.794
 6378SOL    HW120033   4.488   4.617   3.810
 6378SOL    HW220034   4.461   4.468   3.871
 6379SOL     OW20035   1.140   4.716   5.241
 6379SOL    HW120036   1.165   4.806   5.205
 6379SOL    HW220037   1.181   4.703   5.331
 6380SOL     OW20038   0.729   1.495   5.117
 6380SOL    HW120039   0.754   1.401   5.093
 6380SOL    HW220040   0.633   1.511   5.093
 6381SOL     OW20041   4.091   2.930   1.116
 6381SOL    HW120042   4.190   2.940   1.114
 6381SOL    HW220043   4.052   2.967   1.032
 6382SOL     OW20044   3.215   2.075   0.718
 6382SOL    HW120045   3.197   2.160   0.768
 6382SOL    HW220046   3.301   2.035   0.750
 6383SOL     OW20047   2.258   2.782   3.157
 6383SOL    HW120048   2.160   2.767   3.167
 6383SOL    HW220049   2.276   2.881   3.153
 6384SOL     OW20050   6.390   3.555   2.827
 6384SOL    HW120051   6.472   3.530   2.776
 6384SOL    HW220052   6.409   3.552   2.925
 6385SOL     OW20053   6.822   3.466   3.395
 6385SOL    HW120054   6.918   3.455   3.419
 6385SOL    HW220055   6.800   3.563   3.386
 6386SOL     OW20056   2.317   3.132   6.554
 6386SOL    HW120057   2.227   3.136   6.510
 6386SOL    HW220058   2.341   3.037   6.573
 6387SOL     OW20059   6.867   2.160   6.494
 6387SOL    HW120060   6.826   2.178   6.405
 6387SOL    HW220061   6.800   2.117   6.554
 6388SOL     OW20062   4.543   6.298   1.666
 6388SOL    HW120063   4.468   6.237   1.691
 6388SOL    HW220064   4.616   6.291   1.733
 6389SOL     OW20065   0.152   6.224   1.054
 6389SOL    HW120066   0.173   6.255   1.147
 6389SOL    HW220067   0.205   6.142   1.034
 6390SOL     OW20068   0.515   0.591   5.852
 6390SOL    HW120069   0.499   0.493   5.869
 6390SOL    HW220070   0.437   0.629   5.802
 6391SOL     OW20071   1.320   6.730   6.205
 6391SOL    HW120072   1.344   6.779   6.289
 6391SOL    HW220073   1.385   6.755   6.133
 6392SOL     OW20074   2.808   5.555   2.564
 6392SOL    HW120075   2.908   5.558   2.563
 6392SOL    HW220076   2.774   5.607   2.642
 6393SOL     OW20077   0.586   5.817   1.885
 6393SOL    HW120078   0.568   5.867   1.969
 6393SOL    HW220079   0.510   5.832   1.821
 6394SOL     OW20080   2.142   5.094   0.835
 6394SOL    HW120081   2.051   5.122   0.805
 6394SOL    HW220082   2.152   4.995   0.824
 6395SOL     OW20083   6.959   2.814   1.455
 6395SOL    HW120084   6.910   2.818   1.369
 6395SOL    HW220085   6.898   2.842   1.530
 6396SOL     OW20086   5.538   3.356   6.970
 6396SOL    HW120087   5.468   3.358   0.020
 6396SOL    HW220088   5.629   3.352   7.013
 6397SOL     OW20089   5.787   1.738   1.633
 6397SOL    HW120090   5.730   1.778   1.561
 6397SOL    HW220091   5.761   1.643   1.648
 6398SOL     OW20092   3.138   6.808   1.656
 6398SOL    HW120093   3.041   6.788   1.643
 6398SOL    HW220094   3.178   6.740   1.717
 6399SOL     OW20095   1.939   0.064   0.123
 6399SOL    HW120096   1.958   0.019   0.036
 6399SOL    HW220097   1.972   0.159   0.119
 6400SOL     OW20098   2.401   5.098   2.932
 6400SOL    HW120099   2.470   5.056   2.992
 6400SOL    HW220100   2.310   5.077   2.966
 6401SOL     OW20101   5.305   6.268   3.482
 6401SOL    HW120102   5.366   6.307   3.413
 6401SOL    HW220103   5.287   6.172   3.460
 6402SOL     OW20104   2.398   2.623   3.319
 6402SOL    HW120105   2.378   2.672   3.404
 6402SOL    HW220106   2.367   2.677   3.241
 6403SOL     OW20107   6.746   5.475   6.077
 6403SOL    HW120108   6.674   5.522   6.127
 6403SOL    HW220109   6.827   5.466   6.135
 6404SOL     OW20110   3.924   0.954   2.245
 6404SOL    HW120111   3.879   0.925   2.161
 6404SOL    HW220112   3.978   1.036   2.228
 6405SOL     OW20113   3.490   0.692   3.930
 6405SOL    HW120114   3.566   0.696   3.994
 6405SOL    HW220115   3.507   0.621   3.862
 6406SOL     OW20116   0.631   2.832   2.732
 6406SOL    HW120117   0.685   2.916   2.728
 6406SOL    HW220118   0.535   2.854   2.748
 6407SOL     OW20119   2.086   0.263   4.078
 6407SOL    HW120120   2.172   0.213   4.072
 6407SOL    HW220121   2.038   0.258   3.991
 6408SOL     OW20122   5.371   1.387   0.440
 6408SOL    HW120123   5.379   1.486   0.447
 6408SOL    HW220124   5.460   1.347   0.419
 6409SOL     OW20125   5.854   4.478   3.853
 6409SOL    HW120126   5.945   4.494   3.892
 6409SOL    HW220127   5.850   4.386   3.814
 6410SOL     OW20128   2.148   1.146   6.274
 6410SOL    HW120129   2.079   1.201   6.322
 6410SOL    HW220130   2.125   1.141   6.177
 6411SOL     OW20131   0.410   2.875   2.949
 6411SOL    HW120132   0.398   2.949   2.882
 6411SOL    HW220133   0.486   2.897   3.010
 6412SOL     OW20134   1.714   2.018   4.581
 6412SOL    HW120135   1.718   2.004   4.482
 6412SOL    HW220136   1.754   1.939   4.627
 6413SOL     OW20137   3.799   4.966   3.635
 6413SOL    HW120138   3.827   4.968   3.731
 6413SOL    HW220139   3.703   4.939   3.629
 6414SOL     OW20140   5.559   0.991   6.847
 6414SOL    HW120141   5.459   1.001   6.853
 6414SOL    HW220142   5.582   0.922   6.780
 6415SOL     OW20143   1.791   3.487   3.310
 6415SOL    HW120144   1.823   3.424   3.380
 6415SOL    HW220145   1.866   3.548   3.283
 6416SOL     OW20146   1.565   0.377   6.901
 6416SOL    HW120147   1.559   0.471   6.867
 6416SOL    HW220148   1.608   0.376   6.991
 6417SOL     OW20149   5.700   4.899   0.371
 6417SOL    HW120150   5.615   4.909   0.318
 6417SOL    HW220151   5.692   4.820   0.432
 6418SOL     OW20152   5.058   3.289   2.478
 6418SOL    HW120153   5.106   3.203   2.464
 6418SOL    HW220154   5.041   3.332   2.389
 6419SOL     OW20155   1.040   4.743   3.337
 6419SOL    HW120156   1.055   4.759   3.434
 6419SOL    HW220157   1.123   4.768   3.286
 6420SOL     OW20158   2.460   6.490   3.761
 6420SOL    HW120159   2.518   6.409   3.771
 6420SOL    HW220160   2.484   6.558   3.830
 6421SOL     OW20161   4.495   0.123   2.222
 6421SOL    HW120162   4.541   0.078   2.298
 6421SOL    HW220163   4.542   0.101   2.136
 6422SOL     OW20164   6.756   0.380   5.092
 6422SOL    HW120165   6.725   0.304   5.035
 6422SOL    HW220166   6.854   0.396   5.076
 6423SOL     OW20167   4.819   6.057   3.597
 6423SOL    HW120168   4.917   6.039   3.602
 6423SOL    HW220169   4.801   6.151   3.625
 6424SOL     OW20170   0.499   4.615   4.710
 6424SOL    HW120171   0.411   4.647   4.744
 6424SOL    HW220172   0.521   4.662   4.625
 6425SOL     OW20173   6.479   6.481   2.908
 6425SOL    HW120174   6.495   6.423   2.989
 6425SOL    HW220175   6.489   6.577   2.934
 6426SOL     OW20176   0.912   4.861   3.047
 6426SOL    HW120177   0.870   4.793   2.988
 6426SOL    HW220178   0.915   4.828   3.141
 6427SOL     OW20179   3.992   3.853   4.204
 6427SOL    HW120180   3.906   3.904   4.218
 6427SOL    HW220181   4.040   3.891   4.125
 6428SOL     OW20182   5.666   3.709   6.469
 6428SOL    HW120183   5.591   3.678   6.528
 6428SOL    HW220184   5.628   3.763   6.393
 6429SOL     OW20185   0.527   1.332   5.603
 6429SOL    HW120186   0.607   1.331   5.542
 6429SOL    HW220187   0.444   1.335   5.548
 6430SOL     OW20188   5.978   1.036   3.700
 6430SOL    HW120189   6.014   1.037   3.607
 6430SOL    HW220190   5.935   0.948   3.719
 6431SOL     OW20191   4.418   6.488   3.666
 6431SOL    HW120192   4.451   6.497   3.572
 6431SOL    HW220193   4.369   6.402   3.676
 6432SOL     OW20194   4.392   4.441   6.092
 6432SOL    HW120195   4.433   4.366   6.041
 6432SOL    HW220196   4.454   4.520   6.090
 6433SOL     OW20197   1.604   5.334   5.685
 6433SOL    HW120198   1.611   5.249   5.737
 6433SOL    HW220199   1.584   5.313   5.589
 6434SOL     OW20200   2.582   5.984   6.090
 6434SOL    HW120201   2.604   5.975   5.994
 6434SOL    HW220202   2.664   5.970   6.145
 6435SOL     OW20203   5.161   6.702   0.496
 6435SOL    HW120204   5.207   6.790   0.503
 6435SOL    HW220205   5.187   6.645   0.574
 6436SOL     OW20206   1.251   2.980   2.658
 6436SOL    HW120207   1.228   2.974   2.561
 6436SOL    HW220208   1.299   3.065   2.677
 6437SOL     OW20209   1.806   2.037   0.235
 6437SOL    HW120210   1.902   2.011   0.237
 6437SOL    HW220211   1.760   1.989   0.160
 6438SOL     OW20212   0.331   3.384   5.339
 6438SOL    HW120213   0.265   3.413   5.408
 6438SOL    HW220214   0.366   3.293   5.362
 6439SOL     OW20215   5.478   1.756   1.808
 6439SOL    HW120216   5.544   1.701   1.859
 6439SOL    HW220217   5.528   1.815   1.744
 6440SOL     OW20218   2.380   1.581   6.047
 6440SOL    HW120219   2.473   1.597   6.013
 6440SOL    HW220220   2.381   1.582   6.147
 6441SOL     OW20221   0.276   0.010   1.570
 6441SOL    HW120222   0.265   6.958   1.638
 6441SOL    HW220223   0.239   0.096   1.606
 6442SOL     OW20224   2.376   1.384   5.162
 6442SOL    HW120225   2.473   1.391   5.142
 6442SOL    HW220226   2.328   1.464   5.124
 6443SOL     OW20227   3.525   2.345   5.459
 6443SOL    HW120228   3.500   2.431   5.414
 6443SOL    HW220229   3.587   2.294   5.400
 6444SOL     OW20230   5.562   3.574   4.824
 6444SOL    HW120231   5.473   3.603   4.790
 6444SOL    HW220232   5.623   3.557   4.747
 6445SOL     OW20233   3.886   2.997   4.671
 6445SOL    HW120234   3.891   3.011   4.770
 6445SOL    HW220235   3.946   3.063   4.625
 6446SOL     OW20236   1.368   1.177   6.626
 6446SOL    HW120237   1.459   1.182   6.668
 6446SOL    HW220238   1.366   1.104   6.559
 6447SOL     OW20239   5.840   5.097   2.921
 6447SOL    HW120240   5.779   5.073   2.997
 6447SOL    HW220241   5.850   5.018   2.861
 6448SOL     OW20242   4.831   5.842   1.624
 6448SOL    HW120243   4.778   5.795   1.695
 6448SOL    HW220244   4.802   5.808   1.534
 6449SOL     OW20245   3.818   5.970   1.258
 6449SOL    HW120246   3.855   5.886   1.297
 6449SOL    HW220247   3.849   6.048   1.312
 6450SOL     OW20248   1.368   3.374   0.816
 6450SOL    HW120249   1.449   3.429   0.838
 6450SOL    HW220250   1.365   3.358   0.717
 6451SOL     OW20251   2.047   0.819   5.594
 6451SOL    HW120252   2.065   0.912   5.562
 6451SOL    HW220253   1.950   0.811   5.618
 6452SOL     OW20254   4.264   4.908   3.214
 6452SOL    HW120255   4.255   4.809   3.209
 6452SOL    HW220256   4.295   4.943   3.126
 6453SOL     OW20257   2.400   6.722   2.164
 6453SOL    HW120258   2.470   6.744   2.232
 6453SOL    HW220259   2.426   6.762   2.075
 6454SOL     OW20260   0.758   2.292   3.136
 6454SOL    HW120261   0.815   2.306   3.055
 6454SOL    HW220262   0.799   2.220   3.193
 6455SOL     OW20263   0.171   3.494   4.007
 6455SOL    HW120264   0.123   3.460   3.926
 6455SOL    HW220265   0.184   3.593   4.000
 6456SOL     OW20266   1.610   1.329   3.243
 6456SOL    HW120267   1.680   1.260   3.227
 6456SOL    HW220268   1.521   1.285   3.254
 6457SOL     OW20269   5.152   1.381   1.740
 6457SOL    HW120270   5.060   1.394   1.702
 6457SOL    HW220271   5.172   1.284   1.746
 6458SOL     OW20272   1.079   5.451   4.057
 6458SOL    HW120273   1.042   5.496   3.975
 6458SOL    HW220274   1.083   5.353   4.041
 6459SOL     OW20275   6.137   3.109   1.373
 6459SOL    HW120276   6.062   3.080   1.313
 6459SOL    HW220277   6.121   3.203   1.403
 6460SOL     OW20278   5.775   6.188   6.354
 6460SOL    HW120279   5.755   6.210   6.449
 6460SOL    HW220280   5.768   6.089   6.340
 6461SOL     OW20281   2.207   4.514   6.619
 6461SOL    HW120282   2.156   4.600   6.613
 6461SOL    HW220283   2.176   4.451   6.547
 6462SOL     OW20284   2.116   3.346   4.311
 6462SOL    HW120285   2.203   3.297   4.319
 6462SOL    HW220286   2.055   3.296   4.250
 6463SOL     OW20287   5.937   2.335   0.056
 6463SOL    HW120288   5.854   2.331   0.112
 6463SOL    HW220289   5.985   2.421   0.074
 6464SOL     OW20290   1.282   4.459   4.604
 6464SOL    HW120291   1.205   4.506   4.648
 6464SOL    HW220292   1.252   4.369   4.573
 6465SOL     OW20293   6.825   3.361   2.345
 6465SOL    HW120294   6.822   3.279   2.288
 6465SOL    HW220295   6.894   3.351   2.417
 6466SOL     OW20296   7.017   1.041   5.813
 6466SOL    HW120297   7.011   1.120   5.874
 6466SOL    HW220298   0.060   0.974   5.851
 6467SOL     OW20299   4.219   0.804   0.152
 6467SOL    HW120300   4.121   0.788   0.143
 6467SOL    HW220301   4.269   0.719   0.134
 6468SOL     OW20302   2.812   6.494   1.182
 6468SOL    HW120303   2.867   6.562   1.230
 6468SOL    HW220304   2.865   6.455   1.107
 6469SOL     OW20305   4.551   2.161   3.660
 6469SOL    HW120306   4.600   2.243   3.688
 6469SOL    HW220307   4.575   2.084   3.720
 6470SOL     OW20308   5.762   2.873   0.880
 6470SOL    HW120309   5.753   2.908   0.787
 6470SOL    HW220310   5.782   2.775   0.877
 6471SOL     OW20311   0.091   6.426   5.842
 6471SOL    HW120312   0.087   6.524   5.824
 6471SOL    HW220313   0.108   6.377   5.756
 6472SOL     OW20314   0.070   5.715   1.473
 6472SOL    HW120315   6.996   5.696   1.501
 6472SOL    HW220316   0.133   5.670   1.536
 6473SOL     OW20317   2.744   1.796   4.956
 6473SOL    HW120318   2.827   1.786   5.011
 6473SOL    HW220319   2.769   1.799   4.859
 6474SOL     OW20320   2.979   5.085   6.491
 6474SOL    HW120321   2.917   5.113   6.419
 6474SOL    HW220322   3.068   5.061   6.452
 6475SOL     OW20323   5.973   5.279   3.668
 6475SOL    HW120324   6.058   5.327   3.686
 6475SOL    HW220325   5.898   5.325   3.715
 6476SOL     OW20326   4.550   3.545   1.084
 6476SOL    HW120327   4.460   3.517   1.051
 6476SOL    HW220328   4.611   3.466   1.085
 6477SOL     OW20329   6.076   5.049   0.318
 6477SOL    HW120330   6.068   4.952   0.341
 6477SOL    HW220331   6.007   5.073   0.250
 6478SOL     OW20332   3.257   0.356   2.515
 6478SOL    HW120333   3.297   0.383   2.603
 6478SOL    HW220334   3.157   0.359   2.522
 6479SOL     OW20335   4.030   5.587   3.727
 6479SOL    HW120336   3.970   5.524   3.679
 6479SOL    HW220337   4.074   5.649   3.662
 6480SOL     OW20338   3.162   1.100   6.854
 6480SOL    HW120339   3.096   1.078   6.782
 6480SOL    HW220340   3.128   1.066   6.942
 6481SOL     OW20341   3.312   2.097   2.383
 6481SOL    HW120342   3.224   2.123   2.344
 6481SOL    HW220343   3.385   2.118   2.318
 6482SOL     OW20344   6.722   1.210   5.472
 6482SOL    HW120345   6.718   1.303   5.508
 6482SOL    HW220346   6.796   1.160   5.518
 6483SOL     OW20347   0.873   0.215   3.216
 6483SOL    HW120348   0.961   0.221   3.263
 6483SOL    HW220349   0.888   0.208   3.117
 6484SOL     OW20350   3.724   0.122   1.509
 6484SOL    HW120351   3.762   0.029   1.514
 6484SOL    HW220352   3.776   0.176   1.444
 6485SOL     OW20353   2.053   5.064   3.954
 6485SOL    HW120354   2.148   5.078   3.927
 6485SOL    HW220355   2.011   5.153   3.974
 6486SOL     OW20356   0.712   4.221   2.992
 6486SOL    HW120357   0.707   4.128   2.955
 6486SOL    HW220358   0.757   4.281   2.926
 6487SOL     OW20359   0.931   6.721   5.265
 6487SOL    HW120360   0.880   6.642   5.231
 6487SOL    HW220361   0.955   6.780   5.188
 6488SOL     OW20362   3.697   6.230   4.619
 6488SOL    HW120363   3.715   6.328   4.622
 6488SOL    HW220364   3.720   6.195   4.528
 6489SOL     OW20365   3.039   3.792   6.063
 6489SOL    HW120366   3.039   3.736   6.146
 6489SOL    HW220367   2.946   3.822   6.043
 6490SOL     OW20368   3.979   1.328   6.698
 6490SOL    HW120369   3.917   1.317   6.776
 6490SOL    HW220370   3.935   1.293   6.615
 6491SOL     OW20371   4.136   0.878   1.405
 6491SOL    HW120372   4.170   0.877   1.499
 6491SOL    HW220373   4.185   0.947   1.352
 6492SOL     OW20374   4.066   4.670   6.148
 6492SOL    HW120375   3.973   4.699   6.126
 6492SOL    HW220376   4.088   4.585   6.099
 6493SOL     OW20377   1.656   4.461   5.958
 6493SOL    HW120378   1.594   4.383   5.968
 6493SOL    HW220379   1.668   4.481   5.860
 6494SOL     OW20380   6.597   0.579   3.485
 6494SOL    HW120381   6.577   0.676   3.499
 6494SOL    HW220382   6.553   0.547   3.402
 6495SOL     OW20383   6.249   0.316   4.412
 6495SOL    HW120384   6.279   0.293   4.320
 6495SOL    HW220385   6.290   0.251   4.477
 6496SOL     OW20386   5.774   1.367   3.336
 6496SOL    HW120387   5.797   1.390   3.241
 6496SOL    HW220388   5.773   1.267   3.346
 6497SOL     OW20389   0.800   1.572   1.019
 6497SOL    HW120390   0.753   1.549   0.934
 6497SOL    HW220391   0.898   1.563   1.006
 6498SOL     OW20392   1.592   3.619   3.630
 6498SOL    HW120393   1.571   3.571   3.545
 6498SOL    HW220394   1.553   3.568   3.708
 6499SOL     OW20395   5.592   3.426   5.691
 6499SOL    HW120396   5.640   3.408   5.605
 6499SOL    HW220397   5.504   3.379   5.690
 6500SOL     OW20398   6.646   3.874   4.666
 6500SOL    HW120399   6.563   3.890   4.719
 6500SOL    HW220400   6.661   3.775   4.658
 6501SOL     OW20401   0.005   0.918   6.510
 6501SOL    HW120402   7.011   0.886   6.604
 6501SOL    HW220403   6.989   0.851   6.446
 6502SOL     OW20404   6.853   2.680   2.523
 6502SOL    HW120405   6.923   2.751   2.523
 6502SOL    HW220406   6.768   2.716   2.485
 6503SOL     OW20407   5.224   1.443   3.796
 6503SOL    HW120408   5.159   1.510   3.759
 6503SOL    HW220409   5.242   1.464   3.892
 6504SOL     OW20410   4.379   6.204   5.529
 6504SOL    HW120411   4.440   6.213   5.450
 6504SOL    HW220412   4.432   6.188   5.611
 6505SOL     OW20413   5.630   5.447   6.925
 6505SOL    HW120414   5.605   5.362   6.969
 6505SOL    HW220415   5.559   5.473   6.859
 6506SOL     OW20416   6.834   2.156   3.138
 6506SOL    HW120417   6.769   2.208   3.193
 6506SOL    HW220418   6.925   2.194   3.149
 6507SOL     OW20419   1.316   5.403   6.405
 6507SOL    HW120420   1.387   5.371   6.342
 6507SOL    HW220421   1.359   5.437   6.489
 6508SOL     OW20422   1.594   0.763   2.682
 6508SOL    HW120423   1.662   0.818   2.634
 6508SOL    HW220424   1.599   0.668   2.649
 6509SOL     OW20425   3.837   1.232   4.708
 6509SOL    HW120426   3.816   1.145   4.664
 6509SOL    HW220427   3.771   1.301   4.679
 6510SOL     OW20428   6.214   5.505   0.245
 6510SOL    HW120429   6.285   5.438   0.223
 6510SOL    HW220430   6.221   5.582   0.182
 6511SOL     OW20431   3.988   1.249   5.263
 6511SOL    HW120432   4.027   1.159   5.240
 6511SOL    HW220433   4.061   1.317   5.261
 6512SOL     OW20434   4.364   6.509   1.881
 6512SOL    HW120435   4.347   6.415   1.910
 6512SOL    HW220436   4.333   6.572   1.953
 6513SOL     OW20437   2.870   4.776   3.262
 6513SOL    HW120438   2.958   4.811   3.232
 6513SOL    HW220439   2.799   4.843   3.241
 6514SOL     OW20440   6.194   1.351   4.004
 6514SOL    HW120441   6.267   1.368   3.938
 6514SOL    HW220442   6.156   1.260   3.990
 6515SOL     OW20443   0.245   5.080   4.152
 6515SOL    HW120444   0.306   5.008   4.121
 6515SOL    HW220445   0.252   5.090   4.252
 6516SOL     OW20446   0.079   3.608   1.517
 6516SOL    HW120447   0.099   3.624   1.421
 6516SOL    HW220448   0.076   3.695   1.565
 6517SOL     OW20449   6.453   1.714   1.429
 6517SOL    HW120450   6.370   1.710   1.372
 6517SOL    HW220451   6.427   1.721   1.525
 6518SOL     OW20452   0.200   0.999   0.311
 6518SOL    HW120453   0.219   0.903   0.291
 6518SOL    HW220454   0.280   1.042   0.352
 6519SOL     OW20455   0.637   2.556   3.162
 6519SOL    HW120456   0.709   2.490   3.136
 6519SOL    HW220457   0.616   2.615   3.084
 6520SOL     OW20458   5.927   5.016   1.213
 6520SOL    HW120459   5.834   5.042   1.240
 6520SOL    HW220460   5.965   4.953   1.280
 6521SOL     OW20461   2.355   2.802   4.335
 6521SOL    HW120462   2.400   2.834   4.418
 6521SOL    HW220463   2.256   2.797   4.351
 6522SOL     OW20464   3.346   5.174   5.593
 6522SOL    HW120465   3.299   5.258   5.569
 6522SOL    HW220466   3.328   5.104   5.524
 6523SOL     OW20467   3.312   1.747   0.102
 6523SOL    HW120468   3.399   1.722   0.144
 6523SOL    HW220469   3.329   1.805   0.022
 6524SOL     OW20470   3.343   3.463   1.748
 6524SOL    HW120471   3.293   3.544   1.717
 6524SOL    HW220472   3.316   3.385   1.692
 6525SOL     OW20473   2.298   5.211   3.404
 6525SOL    HW120474   2.267   5.290   3.352
 6525SOL    HW220475   2.244   5.203   3.488
 6526SOL     OW20476   2.541   0.642   0.288
 6526SOL    HW120477   2.589   0.697   0.219
 6526SOL    HW220478   2.531   0.548   0.254
 6527SOL     OW20479   0.867   1.759   5.207
 6527SOL    HW120480   0.948   1.743   5.151
 6527SOL    HW220481   0.800   1.687   5.190
 6528SOL     OW20482   6.323   1.053   5.135
 6528SOL    HW120483   6.394   1.099   5.189
 6528SOL    HW220484   6.362   1.020   5.050
 6529SOL     OW20485   1.902   0.845   2.705
 6529SOL    HW120486   1.858   0.843   2.615
 6529SOL    HW220487   1.981   0.784   2.705
 6530SOL     OW20488   0.039   2.726   0.451
 6530SOL    HW120489   0.049   2.806   0.510
 6530SOL    HW220490   0.126   2.677   0.447
 6531SOL     OW20491   5.160   2.859   5.076
 6531SOL    HW120492   5.173   2.824   4.983
 6531SOL    HW220493   5.098   2.938   5.073
 6532SOL     OW20494   6.744   0.909   1.030
 6532SOL    HW120495   6.655   0.864   1.036
 6532SOL    HW220496   6.815   0.847   1.063
 6533SOL     OW20497   4.835   6.982   0.770
 6533SOL    HW120498   4.806   6.985   0.674
 6533SOL    HW220499   4.794   6.902   0.815
 6534SOL     OW20500   4.313   4.424   1.450
 6534SOL    HW120501   4.356   4.513   1.465
 6534SOL    HW220502   4.341   4.388   1.361
 6535SOL     OW20503   6.446   4.079   4.081
 6535SOL    HW120504   6.504   4.065   4.161
 6535SOL    HW220505   6.441   4.177   4.060
 6536SOL     OW20506   0.640   0.964   5.752
 6536SOL    HW120507   0.715   0.898   5.766
 6536SOL    HW220508   0.673   1.056   5.772
 6537SOL     OW20509   6.943   5.287   6.725
 6537SOL    HW120510   6.889   5.213   6.685
 6537SOL    HW220511   6.882   5.354   6.767
 6538SOL     OW20512   2.132   3.542   6.130
 6538SOL    HW120513   2.119   3.552   6.229
 6538SOL    HW220514   2.088   3.618   6.083
 6539SOL     OW20515   4.870   0.620   6.805
 6539SOL    HW120516   4.913   0.691   6.748
 6539SOL    HW220517   4.811   0.664   6.873
 6540SOL     OW20518   4.517   2.047   5.649
 6540SOL    HW120519   4.421   2.072   5.665
 6540SOL    HW220520   4.576   2.111   5.697
 6541SOL     OW20521   4.261   1.918   4.935
 6541SOL    HW120522   4.292   1.946   5.025
 6541SOL    HW220523   4.199   1.987   4.898
 6542SOL     OW20524   6.448   3.139   4.281
 6542SOL    HW120525   6.528   3.080   4.292
 6542SOL    HW220526   6.364   3.085   4.288
 6543SOL     OW20527   5.019   2.863   5.919
 6543SOL    HW120528   5.023   2.806   6.001
 6543SOL    HW220529   5.030   2.806   5.838
 6544SOL     OW20530   1.022   6.272   2.739
 6544SOL    HW120531   0.960   6.312   2.805
 6544SOL    HW220532   1.111   6.318   2.745
 6545SOL     OW20533   4.243   1.198   0.606
 6545SOL    HW120534   4.154   1.215   0.648
 6545SOL    HW220535   4.257   1.100   0.594
 6546SOL     OW20536   3.167   4.288   0.422
 6546SOL    HW120537   3.262   4.265   0.444
 6546SOL    HW220538   3.107   4.256   0.495
 6547SOL     OW20539   4.921   1.227   6.044
 6547SOL    HW120540   4.985   1.210   5.970
 6547SOL    HW220541   4.829   1.198   6.017
 6548SOL     OW20542   0.233   4.221   1.079
 6548SOL    HW120543   0.274   4.134   1.106
 6548SOL    HW220544   0.285   4.260   1.003
 6549SOL     OW20545   4.637   0.669   1.907
 6549SOL    HW120546   4.604   0.582   1.872
 6549SOL    HW220547   4.685   0.654   1.994
 6550SOL     OW20548   0.236   6.780   3.175
 6550SOL    HW120549   0.269   6.874   3.181
 6550SOL    HW220550   0.212   6.747   3.266
 6551SOL     OW20551   2.177   4.941   2.529
 6551SOL    HW120552   2.245   4.906   2.593
 6551SOL    HW220553   2.147   5.032   2.558
 6552SOL     OW20554   1.933   0.540   0.471
 6552SOL    HW120555   2.017   0.540   0.416
 6552SOL    HW220556   1.907   0.446   0.493
 6553SOL     OW20557   6.890   2.436   3.527
 6553SOL    HW120558   6.927   2.524   3.497
 6553SOL    HW220559   6.790   2.438   3.523
 6554SOL     OW20560   0.633   0.414   5.226
 6554SOL    HW120561   0.667   0.362   5.303
 6554SOL    HW220562   0.576   0.490   5.259
 6555SOL     OW20563   5.599   1.516   3.035
 6555SOL    HW120564   5.588   1.585   3.106
 6555SOL    HW220565   5.571   1.555   2.947
 6556SOL     OW20566   5.040   4.564   4.106
 6556SOL    HW120567   4.980   4.613   4.043
 6556SOL    HW220568   5.028   4.600   4.199
 6557SOL     OW20569   3.506   7.008   2.808
 6557SOL    HW120570   3.515   6.911   2.786
 6557SOL    HW220571   3.415   0.020   2.781
 6558SOL     OW20572   0.065   5.006   0.043
 6558SOL    HW120573   0.063   5.012   0.143
 6558SOL    HW220574   0.127   5.076   0.006
 6559SOL     OW20575   0.297   3.673   6.507
 6559SOL    HW120576   0.354   3.715   6.436
 6559SOL    HW220577   0.335   3.584   6.532
 6560SOL     OW20578   4.381   4.723   1.450
 6560SOL    HW120579   4.409   4.669   1.371
 6560SOL    HW220580   4.384   4.820   1.427
 6561SOL     OW20581   3.127   3.996   1.461
 6561SOL    HW120582   3.096   3.992   1.556
 6561SOL    HW220583   3.144   3.904   1.427
 6562SOL     OW20584   6.242   3.368   0.378
 6562SOL    HW120585   6.261   3.368   0.476
 6562SOL    HW220586   6.239   3.274   0.344
 6563SOL     OW20587   4.879   5.732   6.923
 6563SOL    HW120588   4.943   5.753   6.997
 6563SOL    HW220589   4.787   5.761   6.950
 6564SOL     OW20590   6.965   3.826   3.096
 6564SOL    HW120591   7.006   3.879   3.170
 6564SOL    HW220592   6.867   3.814   3.112
 6565SOL     OW20593   5.044   2.057   3.155
 6565SOL    HW120594   5.107   2.116   3.105
 6565SOL    HW220595   5.078   1.963   3.153
 6566SOL     OW20596   4.347   6.228   1.916
 6566SOL    HW120597   4.429   6.222   1.973
 6566SOL    HW220598   4.266   6.214   1.973
 6567SOL     OW20599   4.619   0.862   2.834
 6567SOL    HW120600   4.633   0.961   2.836
 6567SOL    HW220601   4.571   0.837   2.750
 6568SOL     OW20602   2.891   1.099   3.784
 6568SOL    HW120603   2.970   1.063   3.832
 6568SOL    HW220604   2.852   1.028   3.726
 6569SOL     OW20605   2.972   3.506   0.313
 6569SOL    HW120606   3.041   3.465   0.253
 6569SOL    HW220607   2.888   3.451   0.309
 6570SOL     OW20608   3.247   0.654   2.213
 6570SOL    HW120609   3.275   0.745   2.184
 6570SOL    HW220610   3.230   0.654   2.312
 6571SOL     OW20611   3.180   5.204   1.692
 6571SOL    HW120612   3.174   5.294   1.736
 6571SOL    HW220613   3.173   5.132   1.761
 6572SOL     OW20614   6.980   5.017   5.333
 6572SOL    HW120615   6.992   5.115   5.353
 6572SOL    HW220616   6.941   4.972   5.414
 6573SOL     OW20617   1.325   1.874   2.078
 6573SOL    HW120618   1.341   1.887   1.980
 6573SOL    HW220619   1.242   1.820   2.091
 6574SOL     OW20620   2.749   5.309   2.456
 6574SOL    HW120621   2.670   5.293   2.515
 6574SOL    HW220622   2.793   5.396   2.482
 6575SOL     OW20623   0.688   0.361   2.933
 6575SOL    HW120624   0.704   0.459   2.924
 6575SOL    HW220625   0.775   0.312   2.925
 6576SOL     OW20626   2.263   6.241   0.311
 6576SOL    HW120627   2.295   6.195   0.229
 6576SOL    HW220628   2.194   6.309   0.286
 6577SOL     OW20629   1.192   1.977   4.249
 6577SOL    HW120630   1.121   1.967   4.319
 6577SOL    HW220631   1.268   1.915   4.269
 6578SOL     OW20632   0.617   5.504   3.243
 6578SOL    HW120633   0.644   5.547   3.329
 6578SOL    HW220634   0.525   5.534   3.218
 6579SOL     OW20635   6.814   3.218   4.237
 6579SOL    HW120636   6.878   3.180   4.304
 6579SOL    HW220637   6.864   3.261   4.163
 6580SOL     OW20638   0.764   2.402   1.208
 6580SOL    HW120639   0.764   2.420   1.110
 6580SOL    HW220640   0.858   2.404   1.243
 6581SOL     OW20641   3.218   0.759   0.389
 6581SOL    HW120642   3.184   0.689   0.450
 6581SOL    HW220643   3.152   0.834   0.383
 6582SOL     OW20644   0.617   1.332   3.160
 6582SOL    HW120645   0.579   1.324   3.067
 6582SOL    HW220646   0.547   1.310   3.227
 6583SOL     OW20647   4.497   0.508   5.604
 6583SOL    HW120648   4.430   0.483   5.675
 6583SOL    HW220649   4.587   0.473   5.630
 6584SOL     OW20650   4.618   2.484   0.996
 6584SOL    HW120651   4.611   2.566   1.053
 6584SOL    HW220652   4.714   2.469   0.970
 6585SOL     OW20653   6.417   6.432   6.803
 6585SOL    HW120654   6.513   6.451   6.827
 6585SOL    HW220655   6.404   6.442   6.705
 6586SOL     OW20656   5.704   0.647   5.008
 6586SOL    HW120657   5.791   0.663   5.054
 6586SOL    HW220658   5.688   0.549   4.998
 6587SOL     OW20659   2.012   5.781   5.432
 6587SOL    HW120660   1.946   5.773   5.507
 6587SOL    HW220661   1.964   5.813   5.350
 6588SOL     OW20662   0.786   3.101   1.729
 6588SOL    HW120663   0.789   3.010   1.689
 6588SOL    HW220664   0.868   3.152   1.702
 6589SOL     OW20665   5.137   0.784   0.806
 6589SOL    HW120666   5.062   0.807   0.745
 6589SOL    HW220667   5.135   0.686   0.826
 6590SOL     OW20668   0.436   1.229   5.841
 6590SOL    HW120669   0.345   1.271   5.844
 6590SOL    HW220670   0.481   1.255   5.756
 6591SOL     OW20671   6.126   5.480   2.628
 6591SOL    HW120672   6.080   5.564   2.659
 6591SOL    HW220673   6.149   5.489   2.531
 6592SOL     OW20674   5.297   6.860   3.523
 6592SOL    HW120675   5.241   6.782   3.497
 6592SOL    HW220676   5.354   6.888   3.445
 6593SOL     OW20677   1.964   2.387   2.599
 6593SOL    HW120678   1.967   2.410   2.696
 6593SOL    HW220679   2.050   2.415   2.556
 6594SOL     OW20680   3.736   1.726   7.010
 6594SOL    HW120681   3.686   1.686   0.067
 6594SOL    HW220682   3.679   1.720   6.927
 6595SOL     OW20683   1.064   3.947   6.536
 6595SOL    HW120684   1.117   3.948   6.451
 6595SOL    HW220685   0.971   3.916   6.517
 6596SOL     OW20686   3.105   6.161   4.733
 6596SOL    HW120687   3.101   6.145   4.831
 6596SOL    HW220688   3.122   6.258   4.715
 6597SOL     OW20689   1.567   5.435   1.608
 6597SOL    HW120690   1.510   5.381   1.670
 6597SOL    HW220691   1.602   5.376   1.536
 6598SOL     OW20692   1.303   5.504   4.275
 6598SOL    HW120693   1.274   5.600   4.272
 6598SOL    HW220694   1.397   5.500   4.308
 6599SOL     OW20695   4.508   6.134   6.308
 6599SOL    HW120696   4.459   6.202   6.364
 6599SOL    HW220697   4.551   6.066   6.368
 6600SOL     OW20698   4.859   5.152   5.221
 6600SOL    HW120699   4.793   5.077   5.222
 6600SOL    HW220700   4.923   5.141   5.146
 6601SOL     OW20701   1.496   2.065   4.862
 6601SOL    HW120702   1.523   2.153   4.900
 6601SOL    HW220703   1.578   2.018   4.828
 6602SOL     OW20704   1.069   0.852   1.775
 6602SOL    HW120705   1.007   0.923   1.809
 6602SOL    HW220706   1.131   0.823   1.848
 6603SOL     OW20707   6.928   2.824   3.730
 6603SOL    HW120708   6.937   2.780   3.820
 6603SOL    HW220709   6.832   2.821   3.702
 6604SOL     OW20710   1.621   0.741   0.693
 6604SOL    HW120711   1.528   0.743   0.729
 6604SOL    HW220712   1.637   0.654   0.646
 6605SOL     OW20713   5.083   4.591   1.848
 6605SOL    HW120714   5.014   4.662   1.859
 6605SOL    HW220715   5.173   4.632   1.836
 6606SOL     OW20716   0.541   6.076   2.056
 6606SOL    HW120717   0.464   6.096   1.996
 6606SOL    HW220718   0.509   6.018   2.132
 6607SOL     OW20719   2.075   3.510   2.244
 6607SOL    HW120720   2.104   3.488   2.151
 6607SOL    HW220721   2.080   3.609   2.258
 6608SOL     OW20722   6.297   6.570   0.740
 6608SOL    HW120723   6.351   6.545   0.821
 6608SOL    HW220724   6.352   6.558   0.658
 6609SOL     OW20725   4.595   0.860   6.042
 6609SOL    HW120726   4.514   0.816   6.081
 6609SOL    HW220727   4.611   0.825   5.949
 6610SOL     OW20728   2.263   6.577   6.828
 6610SOL    HW120729   2.330   6.504   6.818
 6610SOL    HW220730   2.195   6.550   6.897
 6611SOL     OW20731   5.000   2.753   3.710
 6611SOL    HW120732   5.044   2.818   3.649
 6611SOL    HW220733   5.070   2.698   3.756
 6612SOL     OW20734   5.965   1.714   5.861
 6612SOL    HW120735   6.060   1.745   5.850
 6612SOL    HW220736   5.963   1.634   5.922
 6613SOL     OW20737   6.412   6.476   5.245
 6613SOL    HW120738   6.330   6.499   5.298
 6613SOL    HW220739   6.477   6.429   5.305
 6614SOL     OW20740   4.565   5.730   0.346
 6614SOL    HW120741   4.500   5.753   0.274
 6614SOL    HW220742   4.538   5.644   0.389
 6615SOL     OW20743   1.738   5.810   1.520
 6615SOL    HW120744   1.738   5.887   1.584
 6615SOL    HW220745   1.807   5.744   1.550
 6616SOL     OW20746   5.084   0.946   6.210
 6616SOL    HW120747   4.987   0.951   6.184
 6616SOL    HW220748   5.120   1.039   6.223
 6617SOL     OW20749   4.567   5.134   3.730
 6617SOL    HW120750   4.611   5.081   3.803
 6617SOL    HW220751   4.632   5.200   3.693
 6618SOL     OW20752   1.459   2.643   2.104
 6618SOL    HW120753   1.498   2.663   2.015
 6618SOL    HW220754   1.492   2.710   2.171
 6619SOL     OW20755   5.882   0.213   4.169
 6619SOL    HW120756   5.956   0.153   4.137
 6619SOL    HW220757   5.817   0.227   4.095
 6620SOL     OW20758   1.940   2.568   5.458
 6620SOL    HW120759   1.972   2.577   5.552
 6620SOL    HW220760   1.855   2.515   5.456
 6621SOL     OW20761   3.720   3.194   6.301
 6621SOL    HW120762   3.773   3.269   6.262
 6621SOL    HW220763   3.694   3.216   6.395
 6622SOL     OW20764   5.832   6.575   1.670
 6622SOL    HW120765   5.769   6.651   1.680
 6622SOL    HW220766   5.851   6.560   1.572
 6623SOL     OW20767   3.216   3.169   4.973
 6623SOL    HW120768   3.236   3.125   4.886
 6623SOL    HW220769   3.117   3.184   4.981
 6624SOL     OW20770   0.432   4.850   6.139
 6624SOL    HW120771   0.391   4.782   6.200
 6624SOL    HW220772   0.529   4.830   6.127
 6625SOL     OW20773   5.013   1.434   5.342
 6625SOL    HW120774   5.078   1.509   5.329
 6625SOL    HW220775   5.049   1.350   5.301
 6626SOL     OW20776   4.500   4.954   5.176
 6626SOL    HW120777   4.425   4.903   5.133
 6626SOL    HW220778   4.462   5.027   5.233
 6627SOL     OW20779   2.150   6.427   5.249
 6627SOL    HW120780   2.189   6.482   5.323
 6627SOL    HW220781   2.182   6.333   5.256
 6628SOL     OW20782   4.760   5.295   4.586
 6628SOL    HW120783   4.689   5.231   4.556
 6628SOL    HW220784   4.741   5.324   4.680
 6629SOL     OW20785   4.640   5.886   6.937
 6629SOL    HW120786   4.664   5.832   6.857
 6629SOL    HW220787   4.578   5.960   6.911
 6630SOL     OW20788   4.106   1.692   1.281
 6630SOL    HW120789   4.140   1.659   1.369
 6630SOL    HW220790   4.087   1.613   1.222
 6631SOL     OW20791   2.174   5.188   3.650
 6631SOL    HW120792   2.246   5.130   3.688
 6631SOL    HW220793   2.095   5.132   3.626
 6632SOL     OW20794   0.069   0.221   1.286
 6632SOL    HW120795   0.012   0.293   1.247
 6632SOL    HW220796   0.017   0.135   1.288
 6633SOL     OW20797   1.528   4.559   6.454
 6633SOL    HW120798   1.558   4.512   6.371
 6633SOL    HW220799   1.588   4.637   6.472
 6634SOL     OW20800   4.978   2.028   4.942
 6634SOL    HW120801   5.046   1.961   4.972
 6634SOL    HW220802   4.891   1.981   4.926
 6635SOL     OW20803   4.628   4.961   2.961
 6635SOL    HW120804   4.663   4.956   2.867
 6635SOL    HW220805   4.667   5.041   3.007
 6636SOL     OW20806   4.882   1.837   5.989
 6636SOL    HW120807   4.879   1.788   6.076
 6636SOL    HW220808   4.885   1.771   5.914
 6637SOL     OW20809   1.091   6.921   6.915
 6637SOL    HW120810   1.015   6.938   6.978
 6637SOL    HW220811   1.166   6.878   6.966
 6638SOL     OW20812   2.934   3.793   3.374
 6638SOL    HW120813   2.838   3.772   3.355
 6638SOL    HW220814   2.987   3.786   3.290
 6639SOL     OW20815   5.331   4.965   6.205
 6639SOL    HW120816   5.256   4.902   6.184
 6639SOL    HW220817   5.418   4.919   6.191
 6640SOL     OW20818   0.983   1.595   4.720
 6640SOL    HW120819   0.916   1.588   4.645
 6640SOL    HW220820   0.994   1.691   4.746
 6641SOL     OW20821   2.260   1.712   5.858
 6641SOL    HW120822   2.165   1.691   5.835
 6641SOL    HW220823   2.286   1.662   5.941
 6642SOL     OW20824   1.808   5.706   6.862
 6642SOL    HW120825   1.750   5.657   6.928
 6642SOL    HW220826   1.796   5.665   6.771
 6643SOL     OW20827   5.948   5.392   0.217
 6643SOL    HW120828   5.940   5.399   0.118
 6643SOL    HW220829   6.044   5.400   0.244
 6644SOL     OW20830   2.681   5.891   1.513
 6644SOL    HW120831   2.754   5.914   1.578
 6644SOL    HW220832   2.639   5.975   1.479
 6645SOL     OW20833   6.380   4.485   0.483
 6645SOL    HW120834   6.336   4.544   0.550
 6645SOL    HW220835   6.429   4.540   0.416
 6646SOL     OW20836   3.971   0.608   5.099
 6646SOL    HW120837   3.938   0.660   5.020
 6646SOL    HW220838   4.058   0.646   5.129
 6647SOL     OW20839   5.492   1.312   0.875
 6647SOL    HW120840   5.498   1.242   0.947
 6647SOL    HW220841   5.396   1.330   0.855
 6648SOL     OW20842   3.682   6.509   3.657
 6648SOL    HW120843   3.677   6.562   3.742
 6648SOL    HW220844   3.634   6.422   3.669
 6649SOL     OW20845   5.310   1.049   6.909
 6649SOL    HW120846   5.264   0.963   6.930
 6649SOL    HW220847   5.258   1.126   6.946
 6650SOL     OW20848   4.059   1.174   5.794
 6650SOL    HW120849   4.058   1.243   5.722
 6650SOL    HW220850   4.142   1.183   5.849
 6651SOL     OW20851   2.826   1.430   5.794
 6651SOL    HW120852   2.740   1.395   5.755
 6651SOL    HW220853   2.903   1.377   5.758
 6652SOL     OW20854   0.710   4.485   1.008
 6652SOL    HW120855   0.794   4.540   1.003
 6652SOL    HW220856   0.645   4.529   1.070
 6653SOL     OW20857   3.713   3.685   2.326
 6653SOL    HW120858   3.781   3.622   2.286
 6653SOL    HW220859   3.642   3.703   2.258
 6654SOL     OW20860   1.394   4.752   1.249
 6654SOL    HW120861   1.491   4.731   1.262
 6654SOL    HW220862   1.340   4.702   1.317
 6655SOL     OW20863   0.993   0.585   3.811
 6655SOL    HW120864   0.963   0.679   3.795
 6655SOL    HW220865   1.070   0.585   3.876
 6656SOL     OW20866   5.520   2.272   4.006
 6656SOL    HW120867   5.514   2.184   4.053
 6656SOL    HW220868   5.488   2.344   4.067
 6657SOL     OW20869   6.430   4.851   6.466
 6657SOL    HW120870   6.504   4.897   6.417
 6657SOL    HW220871   6.441   4.752   6.456
 6658SOL     OW20872   6.637   0.695   4.942
 6658SOL    HW120873   6.651   0.766   5.011
 6658SOL    HW220874   6.682   0.722   4.857
 6659SOL     OW20875   1.918   3.021   0.716
 6659SOL    HW120876   1.916   2.923   0.732
 6659SOL    HW220877   1.825   3.054   0.699
 6660SOL     OW20878   0.979   5.293   1.422
 6660SOL    HW120879   0.889   5.250   1.422
 6660SOL    HW220880   1.023   5.279   1.334
 6661SOL     OW20881   1.246   6.671   5.093
 6661SOL    HW120882   1.244   6.767   5.119
 6661SOL    HW220883   1.286   6.617   5.167
 6662SOL     OW20884   1.453   6.989   0.286
 6662SOL    HW120885   1.419   0.057   0.253
 6662SOL    HW220886   1.552   6.983   0.271
 6663SOL     OW20887   6.419   5.183   4.048
 6663SOL    HW120888   6.505   5.146   4.012
 6663SOL    HW220889   6.342   5.138   4.003
 6664SOL     OW20890   2.122   6.571   0.794
 6664SOL    HW120891   2.083   6.501   0.854
 6664SOL    HW220892   2.135   6.532   0.703
 6665SOL     OW20893   2.209   5.524   4.855
 6665SOL    HW120894   2.162   5.438   4.832
 6665SOL    HW220895   2.307   5.508   4.865
 6666SOL     OW20896   6.364   0.141   5.867
 6666SOL    HW120897   6.296   0.090   5.920
 6666SOL    HW220898   6.374   0.098   5.777
 6667SOL     OW20899   6.938   6.382   6.894
 6667SOL    HW120900   6.850   6.393   6.940
 6667SOL    HW220901   7.009   6.368   6.963
 6668SOL     OW20902   0.002   5.148   0.892
 6668SOL    HW120903   0.048   5.104   0.815
 6668SOL    HW220904   6.940   5.096   0.916
 6669SOL     OW20905   1.862   2.701   2.992
 6669SOL    HW120906   1.769   2.677   3.022
 6669SOL    HW220907   1.884   2.793   3.024
 6670SOL     OW20908   3.797   1.087   5.713
 6670SOL    HW120909   3.882   1.099   5.765
 6670SOL    HW220910   3.817   1.088   5.615
 6671SOL     OW20911   5.224   6.539   0.694
 6671SOL    HW120912   5.171   6.490   0.764
 6671SOL    HW220913   5.322   6.532   0.715
 6672SOL     OW20914   6.478   2.475   6.877
 6672SOL    HW120915   6.561   2.530   6.882
 6672SOL    HW220916   6.490   2.392   6.933
 6673SOL     OW20917   4.901   5.050   4.150
 6673SOL    HW120918   4.855   4.994   4.081
 6673SOL    HW220919   4.988   5.083   4.115
 6674SOL     OW20920   0.115   3.934   6.224
 6674SOL    HW120921   0.065   3.949   6.139
 6674SOL    HW220922   0.175   4.013   6.241
 6675SOL     OW20923   5.329   3.950   1.225
 6675SOL    HW120924   5.389   4.003   1.285
 6675SOL    HW220925   5.360   3.854   1.223
 6676SOL     OW20926   0.595   3.893   5.976
 6676SOL    HW120927   0.638   3.813   5.934
 6676SOL    HW220928   0.613   3.973   5.919
 6677SOL     OW20929   1.531   1.954   5.851
 6677SOL    HW120930   1.504   1.974   5.757
 6677SOL    HW220931   1.518   1.856   5.869
 6678SOL     OW20932   2.678   3.489   6.270
 6678SOL    HW120933   2.703   3.459   6.363
 6678SOL    HW220934   2.603   3.434   6.236
 6679SOL     OW20935   3.281   1.115   3.762
 6679SOL    HW120936   3.230   1.195   3.730
 6679SOL    HW220937   3.223   1.060   3.821
 6680SOL     OW20938   5.255   6.577   6.928
 6680SOL    HW120939   5.286   6.650   6.867
 6680SOL    HW220940   5.155   6.577   6.932
 6681SOL     OW20941   3.577   6.057   1.511
 6681SOL    HW120942   3.479   6.061   1.497
 6681SOL    HW220943   3.611   5.966   1.487
 6682SOL     OW20944   0.709   4.063   2.124
 6682SOL    HW120945   0.666   4.025   2.042
 6682SOL    HW220946   0.767   3.993   2.166
 6683SOL     OW20947   5.975   3.129   4.971
 6683SOL    HW120948   5.965   3.060   5.043
 6683SOL    HW220949   5.888   3.140   4.923
 6684SOL     OW20950   2.851   0.016   1.573
 6684SOL    HW120951   2.939   0.050   1.607
 6684SOL    HW220952   2.840   0.042   1.477
 6685SOL     OW20953   6.320   3.180   5.729
 6685SOL    HW120954   6.243   3.171   5.666
 6685SOL    HW220955   6.365   3.268   5.714
 6686SOL     OW20956   5.040   6.154   4.892
 6686SOL    HW120957   4.964   6.186   4.836
 6686SOL    HW220958   5.045   6.054   4.887
 6687SOL     OW20959   1.218   3.476   6.987
 6687SOL    HW120960   1.160   3.431   6.919
 6687SOL    HW220961   1.276   3.545   6.942
 6688SOL     OW20962   6.297   4.807   2.481
 6688SOL    HW120963   6.228   4.877   2.499
 6688SOL    HW220964   6.277   4.726   2.536
 6689SOL     OW20965   4.241   3.108   0.245
 6689SOL    HW120966   4.297   3.065   0.315
 6689SOL    HW220967   4.145   3.081   0.257
 6690SOL     OW20968   1.270   1.473   0.863
 6690SOL    HW120969   1.181   1.464   0.908
 6690SOL    HW220970   1.337   1.417   0.911
 6691SOL     OW20971   2.689   6.463   2.261
 6691SOL    HW120972   2.776   6.427   2.295
 6691SOL    HW220973   2.686   6.562   2.274
 6692SOL     OW20974   3.511   3.425   4.856
 6692SOL    HW120975   3.598   3.465   4.826
 6692SOL    HW220976   3.509   3.328   4.832
 6693SOL     OW20977   4.393   3.091   5.718
 6693SOL    HW120978   4.295   3.089   5.696
 6693SOL    HW220979   4.430   2.998   5.713
 6694SOL     OW20980   3.749   5.695   0.892
 6694SOL    HW120981   3.822   5.745   0.939
 6694SOL    HW220982   3.739   5.732   0.800
 6695SOL     OW20983   3.281   2.172   0.438
 6695SOL    HW120984   3.361   2.193   0.495
 6695SOL    HW220985   3.199   2.171   0.495
 6696SOL     OW20986   3.318   2.831   5.753
 6696SOL    HW120987   3.279   2.888   5.681
 6696SOL    HW220988   3.252   2.820   5.827
 6697SOL     OW20989   4.919   2.474   2.765
 6697SOL    HW120990   4.882   2.398   2.818
 6697SOL    HW220991   4.853   2.500   2.694
 6698SOL     OW20992   2.577   2.510   1.545
 6698SOL    HW120993   2.674   2.487   1.534
 6698SOL    HW220994   2.567   2.577   1.618
 6699SOL     OW20995   2.593   5.845   5.315
 6699SOL    HW120996   2.528   5.793   5.259
 6699SOL    HW220997   2.582   5.817   5.411
 6700SOL     OW20998   0.712   6.896   1.486
 6700SOL    HW120999   0.660   6.851   1.559
 6700SOL    HW221000   0.809   6.901   1.512
 6701SOL     OW21001   5.540   4.209   2.386
 6701SOL    HW121002   5.518   4.233   2.481
 6701SOL    HW221003   5.639   4.204   2.375
 6702SOL     OW21004   3.341   2.065   1.328
 6702SOL    HW121005   3.307   1.971   1.323
 6702SOL    HW221006   3.325   2.102   1.419
 6703SOL     OW21007   6.456   2.169   6.946
 6703SOL    HW121008   6.444   2.074   6.975
 6703SOL    HW221009   6.519   2.172   6.869
 6704SOL     OW21010   3.546   1.507   3.027
 6704SOL    HW121011   3.521   1.601   3.053
 6704SOL    HW221012   3.479   1.444   3.067
 6705SOL     OW21013   0.290   3.161   1.488
 6705SOL    HW121014   0.277   3.065   1.462
 6705SOL    HW221015   0.251   3.177   1.579
 6706SOL     OW21016   2.049   4.823   2.322
 6706SOL    HW121017   1.951   4.842   2.318
 6706SOL    HW221018   2.088   4.866   2.404
 6707SOL     OW21019   6.797   6.338   3.492
 6707SOL    HW121020   6.816   6.272   3.419
 6707SOL    HW221021   6.883   6.369   3.532
 6708SOL     OW21022   6.890   5.380   1.347
 6708SOL    HW121023   6.988   5.366   1.332
 6708SOL    HW221024   6.853   5.303   1.399
 6709SOL     OW21025   2.962   6.336   3.153
 6709SOL    HW121026   2.883   6.375   3.106
 6709SOL    HW221027   3.045   6.355   3.101
 6710SOL     OW21028   3.626   0.206   6.498
 6710SOL    HW121029   3.537   0.219   6.455
 6710SOL    HW221030   3.618   0.222   6.597
 6711SOL     OW21031   4.746   5.350   5.951
 6711SOL    HW121032   4.747   5.250   5.950
 6711SOL    HW221033   4.732   5.383   5.858
 6712SOL     OW21034   5.225   4.170   0.342
 6712SOL    HW121035   5.296   4.102   0.322
 6712SOL    HW221036   5.135   4.128   0.331
 6713SOL     OW21037   2.171   0.368   2.486
 6713SOL    HW121038   2.209   0.328   2.569
 6713SOL    HW221039   2.130   0.457   2.508
 6714SOL     OW21040   6.148   0.778   6.236
 6714SOL    HW121041   6.091   0.852   6.201
 6714SOL    HW221042   6.122   0.693   6.191
 6715SOL     OW21043   0.613   0.422   0.183
 6715SOL    HW121044   0.626   0.519   0.202
 6715SOL    HW221045   0.531   0.409   0.126
 6716SOL     OW21046   0.400   5.841   1.699
 6716SOL    HW121047   0.412   5.851   1.600
 6716SOL    HW221048   0.342   5.762   1.718
 6717SOL     OW21049   3.869   3.034   6.591
 6717SOL    HW121050   3.888   3.131   6.606
 6717SOL    HW221051   3.836   2.992   6.675
 6718SOL     OW21052   5.380   0.619   1.019
 6718SOL    HW121053   5.409   0.565   1.098
 6718SOL    HW221054   5.449   0.689   1.000
 6719SOL     OW21055   2.351   0.068   6.455
 6719SOL    HW121056   2.313   0.109   6.373
 6719SOL    HW221057   2.444   0.101   6.469
 6720SOL     OW21058   1.386   6.815   3.960
 6720SOL    HW121059   1.462   6.842   4.019
 6720SOL    HW221060   1.306   6.872   3.980
 6721SOL     OW21061   0.092   0.273   0.357
 6721SOL    HW121062   0.183   0.297   0.391
 6721SOL    HW221063   0.024   0.291   0.429
 6722SOL     OW21064   6.773   2.910   1.705
 6722SOL    HW121065   6.800   2.897   1.801
 6722SOL    HW221066   6.746   3.005   1.691
 6723SOL     OW21067   2.113   6.073   3.122
 6723SOL    HW121068   2.186   6.080   3.190
 6723SOL    HW221069   2.118   6.150   3.059
 6724SOL     OW21070   1.904   3.231   5.783
 6724SOL    HW121071   1.883   3.164   5.855
 6724SOL    HW221072   1.970   3.297   5.818
 6725SOL     OW21073   0.268   3.182   1.760
 6725SOL    HW121074   0.366   3.164   1.760
 6725SOL    HW221075   0.251   3.278   1.783
 6726SOL     OW21076   0.578   2.228   5.551
 6726SOL    HW121077   0.665   2.233   5.599
 6726SOL    HW221078   0.560   2.315   5.505
 6727SOL     OW21079   0.199   3.710   5.192
 6727SOL    HW121080   0.109   3.752   5.203
 6727SOL    HW221081   0.242   3.745   5.108
 6728SOL     OW21082   3.777   1.789   2.833
 6728SOL    HW121083   3.779   1.876   2.785
 6728SOL    HW221084   3.683   1.765   2.856
 6729SOL     OW21085   6.947   1.352   3.136
 6729SOL    HW121086   6.920   1.442   3.172
 6729SOL    HW221087   0.003   1.363   3.072
 6730SOL     OW21088   2.413   6.804   1.006
 6730SOL    HW121089   2.380   6.726   1.059
 6730SOL    HW221090   2.445   6.876   1.068
 6731SOL     OW21091   0.692   6.053   1.463
 6731SOL    HW121092   0.741   5.970   1.488
 6731SOL    HW221093   0.662   6.048   1.368
 6732SOL     OW21094   5.520   4.509   4.628
 6732SOL    HW121095   5.554   4.417   4.610
 6732SOL    HW221096   5.424   4.504   4.656
 6733SOL     OW21097   4.279   6.091   0.098
 6733SOL    HW121098   4.337   6.172   0.105
 6733SOL    HW221099   4.194   6.115   0.051
 6734SOL     OW21100   6.336   2.376   4.388
 6734SOL    HW121101   6.300   2.392   4.480
 6734SOL    HW221102   6.329   2.279   4.366
 6735SOL     OW21103   7.004   4.322   4.872
 6735SOL    HW121104   6.995   4.357   4.778
 6735SOL    HW221105   0.059   4.256   4.876
 6736SOL     OW21106   2.846   3.639   0.063
 6736SOL    HW121107   2.747   3.622   0.064
 6736SOL    HW221108   2.883   3.624   0.155
 6737SOL     OW21109   1.628   2.429   0.632
 6737SOL    HW121110   1.635   2.331   0.613
 6737SOL    HW221111   1.539   2.462   0.604
 6738SOL     OW21112   1.603   5.731   2.841
 6738SOL    HW121113   1.542   5.652   2.843
 6738SOL    HW221114   1.553   5.813   2.869
 6739SOL     OW21115   3.432   5.987   5.336
 6739SOL    HW121116   3.486   5.904   5.344
 6739SOL    HW221117   3.357   5.985   5.403
 6740SOL     OW21118   1.612   0.321   4.498
 6740SOL    HW121119   1.680   0.261   4.540
 6740SOL    HW221120   1.604   0.299   4.401
 6741SOL     OW21121   4.490   1.659   5.715
 6741SOL    HW121122   4.408   1.703   5.677
 6741SOL    HW221123   4.525   1.714   5.791
 6742SOL     OW21124   6.502   6.207   2.466
 6742SOL    HW121125   6.498   6.113   2.433
 6742SOL    HW221126   6.537   6.208   2.560
 6743SOL     OW21127   3.324   5.582   0.352
 6743SOL    HW121128   3.229   5.551   0.340
 6743SOL    HW221129   3.386   5.518   0.306
 6744SOL     OW21130   5.823   4.240   5.853
 6744SOL    HW121131   5.782   4.170   5.794
 6744SOL    HW221132   5.750   4.297   5.891
 6745SOL     OW21133   7.015   0.077   2.921
 6745SOL    HW121134   0.028   0.162   2.881
 6745SOL    HW221135   7.000   0.010   2.848
 6746SOL     OW21136   0.448   1.307   3.848
 6746SOL    HW121137   0.356   1.314   3.810
 6746SOL    HW221138   0.455   1.225   3.905
 6747SOL     OW21139   5.640   1.267   5.201
 6747SOL    HW121140   5.553   1.236   5.240
 6747SOL    HW221141   5.639   1.366   5.191
 6748SOL     OW21142   2.293   1.231   3.591
 6748SOL    HW121143   2.199   1.217   3.621
 6748SOL    HW221144   2.331   1.313   3.634
 6749SOL     OW21145   2.886   6.069   0.694
 6749SOL    HW121146   2.829   5.994   0.727
 6749SOL    HW221147   2.953   6.034   0.629
 6750SOL     OW21148   4.004   2.175   5.065
 6750SOL    HW121149   3.958   2.132   5.143
 6750SOL    HW221150   4.071   2.242   5.099
 6751SOL     OW21151   3.836   0.212   3.490
 6751SOL    HW121152   3.758   0.270   3.466
 6751SOL    HW221153   3.914   0.270   3.513
 6752SOL     OW21154   0.691   1.896   3.106
 6752SOL    HW121155   0.631   1.960   3.059
 6752SOL    HW221156   0.737   1.838   3.038
 6753SOL     OW21157   3.365   0.776   6.745
 6753SOL    HW121158   3.453   0.742   6.712
 6753SOL    HW221159   3.305   0.699   6.765
 6754SOL     OW21160   0.539   1.592   0.211
 6754SOL    HW121161   0.597   1.619   0.134
 6754SOL    HW221162   0.499   1.502   0.194
 6755SOL     OW21163   4.219   0.589   3.322
 6755SOL    HW121164   4.245   0.673   3.274
 6755SOL    HW221165   4.136   0.551   3.282
 6756SOL     OW21166   3.982   4.915   5.531
 6756SOL    HW121167   4.006   4.969   5.450
 6756SOL    HW221168   4.062   4.863   5.561
 6757SOL     OW21169   4.712   1.527   1.646
 6757SOL    HW121170   4.664   1.475   1.717
 6757SOL    HW221171   4.681   1.622   1.647
 6758SOL     OW21172   6.633   2.076   1.685
 6758SOL    HW121173   6.647   2.140   1.761
 6758SOL    HW221174   6.620   2.126   1.600
 6759SOL     OW21175   0.752   4.327   4.789
 6759SOL    HW121176   0.809   4.294   4.864
 6759SOL    HW221177   0.657   4.334   4.820
 6760SOL     OW21178   6.265   4.167   2.431
 6760SOL    HW121179   6.174   4.206   2.439
 6760SOL    HW221180   6.309   4.164   2.521
 6761SOL     OW21181   6.482   2.261   6.008
 6761SOL    HW121182   6.390   2.225   6.021
 6761SOL    HW221183   6.548   2.185   6.009
 6762SOL     OW21184   0.298   5.840   3.960
 6762SOL    HW121185   0.282   5.748   3.996
 6762SOL    HW221186   0.304   5.905   4.036
 6763SOL     OW21187   0.480   4.970   2.882
 6763SOL    HW121188   0.387   4.969   2.920
 6763SOL    HW221189   0.476   4.995   2.786
 6764SOL     OW21190   2.091   4.608   0.196
 6764SOL    HW121191   2.013   4.546   0.190
 6764SOL    HW221192   2.078   4.686   0.135
 6765SOL     OW21193   5.413   3.816   3.329
 6765SOL    HW121194   5.380   3.808   3.423
 6765SOL    HW221195   5.370   3.746   3.272
 6766SOL     OW21196   5.181   6.307   6.250
 6766SOL    HW121197   5.244   6.383   6.266
 6766SOL    HW221198   5.232   6.222   6.239
 6767SOL     OW21199   1.240   2.248   1.014
 6767SOL    HW121200   1.235   2.257   0.915
 6767SOL    HW221201   1.278   2.158   1.038
 6768SOL     OW21202   0.984   6.519   3.767
 6768SOL    HW121203   1.016   6.525   3.673
 6768SOL    HW221204   1.063   6.513   3.829
 6769SOL     OW21205   2.565   0.321   5.298
 6769SOL    HW121206   2.611   0.307   5.210
 6769SOL    HW221207   2.630   0.355   5.365
 6770SOL     OW21208   4.697   1.918   3.352
 6770SOL    HW121209   4.693   2.015   3.377
 6770SOL    HW221210   4.768   1.873   3.407
 6771SOL     OW21211   3.965   1.334   2.421
 6771SOL    HW121212   3.953   1.353   2.519
 6771SOL    HW221213   4.021   1.252   2.410
 6772SOL     OW21214   4.355   2.409   2.464
 6772SOL    HW121215   4.265   2.388   2.503
 6772SOL    HW221216   4.410   2.457   2.532
 6773SOL     OW21217   0.675   6.524   1.926
 6773SOL    HW121218   0.643   6.442   1.879
 6773SOL    HW221219   0.765   6.506   1.967
 6774SOL     OW21220   1.559   3.573   4.855
 6774SOL    HW121221   1.526   3.651   4.909
 6774SOL    HW221222   1.622   3.606   4.785
 6775SOL     OW21223   1.704   2.882   3.395
 6775SOL    HW121224   1.728   2.882   3.492
 6775SOL    HW221225   1.643   2.805   3.376
 6776SOL     OW21226   4.324   3.719   0.473
 6776SOL    HW121227   4.280   3.710   0.384
 6776SOL    HW221228   4.278   3.791   0.526
 6777SOL     OW21229   5.009   5.003   0.988
 6777SOL    HW121230   4.920   5.044   0.967
 6777SOL    HW221231   5.055   5.058   1.058
 6778SOL     OW21232   6.613   4.779   1.721
 6778SOL    HW121233   6.552   4.730   1.659
 6778SOL    HW221234   6.698   4.802   1.673
 6779SOL     OW21235   5.637   4.534   6.248
 6779SOL    HW121236   5.702   4.590   6.196
 6779SOL    HW221237   5.592   4.591   6.317
 6780SOL     OW21238   1.027   2.815   2.682
 6780SOL    HW121239   0.958   2.876   2.721
 6780SOL    HW221240   1.114   2.863   2.675
 6781SOL     OW21241   6.593   1.435   4.654
 6781SOL    HW121242   6.496   1.412   4.650
 6781SOL    HW221243   6.603   1.529   4.689
 6782SOL     OW21244   0.764   1.074   3.287
 6782SOL    HW121245   0.833   1.023   3.236
 6782SOL    HW221246   0.727   1.146   3.229
 6783SOL     OW21247   0.824   2.230   5.667
 6783SOL    HW121248   0.811   2.158   5.736
 6783SOL    HW221249   0.871   2.191   5.588
 6784SOL     OW21250   2.722   3.865   0.415
 6784SOL    HW121251   2.719   3.781   0.469
 6784SOL    HW221252   2.631   3.882   0.376
 6785SOL     OW21253   5.990   4.951   4.746
 6785SOL    HW121254   5.944   4.871   4.707
 6785SOL    HW221255   6.076   4.923   4.788
 6786SOL     OW21256   1.052   2.733   0.235
 6786SOL    HW121257   1.130   2.772   0.284
 6786SOL    HW221258   0.984   2.702   0.301
 6787SOL     OW21259   3.669   3.359   0.377
 6787SOL    HW121260   3.697   3.407   0.459
 6787SOL    HW221261   3.576   3.385   0.352
 6788SOL     OW21262   0.901   4.656   2.074
 6788SOL    HW121263   0.894   4.558   2.059
 6788SOL    HW221264   0.835   4.684   2.144
 6789SOL     OW21265   0.176   4.722   3.724
 6789SOL    HW121266   0.086   4.764   3.733
 6789SOL    HW221267   0.196   4.667   3.806
 6790SOL     OW21268   0.842   3.512   6.683
 6790SOL    HW121269   0.854   3.422   6.641
 6790SOL    HW221270   0.918   3.571   6.658
 6791SOL     OW21271   3.758   1.997   2.330
 6791SOL    HW121272   3.799   1.918   2.286
 6791SOL    HW221273   3.670   2.017   2.286
 6792SOL     OW21274   5.161   0.115   5.407
 6792SOL    HW121275   5.149   0.158   5.318
 6792SOL    HW221276   5.180   0.186   5.476
 6793SOL     OW21277   2.947   0.988   6.686
 6793SOL    HW121278   2.912   1.040   6.609
 6793SOL    HW221279   2.878   0.985   6.759
 6794SOL     OW21280   5.613   1.554   5.156
 6794SOL    HW121281   5.712   1.553   5.142
 6794SOL    HW221282   5.592   1.585   5.249
 6795SOL     OW21283   1.151   6.129   1.182
 6795SOL    HW121284   1.074   6.183   1.148
 6795SOL    HW221285   1.139   6.033   1.158
 6796SOL     OW21286   6.534   0.666   2.856
 6796SOL    HW121287   6.448   0.641   2.811
 6796SOL    HW221288   6.522   0.754   2.902
 6797SOL     OW21289   0.156   2.350   2.161
 6797SOL    HW121290   0.251   2.352   2.191
 6797SOL    HW221291   0.130   2.256   2.138
 6798SOL     OW21292   6.609   6.424   1.273
 6798SOL    HW121293   6.617   6.503   1.213
 6798SOL    HW221294   6.517   6.419   1.310
 6799SOL     OW21295   5.929   0.825   1.959
 6799SOL    HW121296   6.003   0.864   1.905
 6799SOL    HW221297   5.887   0.897   2.014
 6800SOL     OW21298   2.406   2.505   2.177
 6800SOL    HW121299   2.313   2.539   2.193
 6800SOL    HW221300   2.431   2.520   2.082
 6801SOL     OW21301   1.257   0.435   3.690
 6801SOL    HW121302   1.246   0.337   3.672
 6801SOL    HW221303   1.281   0.449   3.786
 6802SOL     OW21304   3.258   5.976   1.766
 6802SOL    HW121305   3.308   5.913   1.825
 6802SOL    HW221306   3.281   5.958   1.671
 6803SOL     OW21307   4.351   4.197   6.664
 6803SOL    HW121308   4.438   4.236   6.696
 6803SOL    HW221309   4.276   4.231   6.721
 6804SOL     OW21310   3.840   5.298   3.139
 6804SOL    HW121311   3.883   5.307   3.228
 6804SOL    HW221312   3.872   5.215   3.094
 6805SOL     OW21313   0.557   4.290   6.151
 6805SOL    HW121314   0.567   4.310   6.248
 6805SOL    HW221315   0.644   4.306   6.105
 6806SOL     OW21316   6.581   1.524   3.481
 6806SOL    HW121317   6.554   1.456   3.549
 6806SOL    HW221318   6.502   1.582   3.459
 6807SOL     OW21319   3.450   3.087   1.974
 6807SOL    HW121320   3.446   3.105   2.073
 6807SOL    HW221321   3.535   3.040   1.952
 6808SOL     OW21322   6.882   1.877   5.678
 6808SOL    HW121323   6.943   1.814   5.727
 6808SOL    HW221324   6.934   1.957   5.648
 6809SOL     OW21325   6.497   3.338   1.163
 6809SOL    HW121326   6.444   3.257   1.190
 6809SOL    HW221327   6.434   3.412   1.139
 6810SOL     OW21328   3.188   1.229   2.112
 6810SOL    HW121329   3.241   1.313   2.126
 6810SOL    HW221330   3.194   1.201   2.016
 6811SOL     OW21331   6.385   3.587   1.877
 6811SOL    HW121332   6.441   3.610   1.797
 6811SOL    HW221333   6.442   3.542   1.945
 6812SOL     OW21334   3.651   4.072   5.240
 6812SOL    HW121335   3.690   3.988   5.203
 6812SOL    HW221336   3.639   4.139   5.167
 6813SOL     OW21337   5.665   3.222   2.559
 6813SOL    HW121338   5.609   3.155   2.607
 6813SOL    HW221339   5.626   3.241   2.469
 6814SOL     OW21340   4.492   1.811   6.417
 6814SOL    HW121341   4.442   1.835   6.334
 6814SOL    HW221342   4.453   1.728   6.457
 6815SOL     OW21343   2.255   6.491   0.090
 6815SOL    HW121344   2.186   6.478   0.161
 6815SOL    HW221345   2.292   6.402   0.064
 6816SOL     OW21346   6.868   0.789   5.499
 6816SOL    HW121347   6.847   0.748   5.411
 6816SOL    HW221348   6.930   0.729   5.550
 6817SOL     OW21349   2.280   2.752   3.541
 6817SOL    HW121350   2.202   2.711   3.589
 6817SOL    HW221351   2.263   2.849   3.528
 6818SOL     OW21352   1.844   6.375   0.704
 6818SOL    HW121353   1.938   6.359   0.736
 6818SOL    HW221354   1.782   6.310   0.748
 6819SOL     OW21355   4.199   1.308   3.170
 6819SOL    HW121356   4.158   1.389   3.129
 6819SOL    HW221357   4.265   1.269   3.106
 6820SOL     OW21358   2.070   6.215   1.463
 6820SOL    HW121359   2.148   6.175   1.512
 6820SOL    HW221360   2.070   6.182   1.369
 6821SOL     OW21361   3.938   2.498   5.423
 6821SOL    HW121362   3.939   2.542   5.333
 6821SOL    HW221363   3.875   2.547   5.484
 6822SOL     OW21364   6.034   2.268   5.715
 6822SOL    HW121365   5.961   2.315   5.666
 6822SOL    HW221366   6.003   2.246   5.808
 6823SOL     OW21367   5.855   4.258   6.160
 6823SOL    HW121368   5.775   4.273   6.102
 6823SOL    HW221369   5.889   4.166   6.146
 6824SOL     OW21370   0.922   1.678   0.565
 6824SOL    HW121371   0.914   1.734   0.648
 6824SOL    HW221372   0.882   1.588   0.582
 6825SOL     OW21373   5.878   0.624   0.168
 6825SOL    HW121374   5.797   0.651   0.117
 6825SOL    HW221375   5.950   0.596   0.105
 6826SOL     OW21376   1.978   3.687   3.239
 6826SOL    HW121377   2.051   3.736   3.286
 6826SOL    HW221378   2.004   3.671   3.144
 6827SOL     OW21379   5.498   5.177   6.146
 6827SOL    HW121380   5.536   5.144   6.059
 6827SOL    HW221381   5.438   5.107   6.185
 6828SOL     OW21382   3.591   1.538   1.666
 6828SOL    HW121383   3.564   1.535   1.762
 6828SOL    HW221384   3.510   1.532   1.608
 6829SOL     OW21385   5.290   6.036   5.783
 6829SOL    HW121386   5.236   6.117   5.761
 6829SOL    HW221387   5.234   5.972   5.835
 6830SOL     OW21388   5.333   0.494   3.258
 6830SOL    HW121389   5.294   0.430   3.192
 6830SOL    HW221390   5.415   0.536   3.219
 6831SOL     OW21391   1.857   1.246   6.202
 6831SOL    HW121392   1.891   1.208   6.116
 6831SOL    HW221393   1.861   1.175   6.273
 6832SOL     OW21394   2.239   4.049   0.651
 6832SOL    HW121395   2.257   4.130   0.707
 6832SOL    HW221396   2.291   4.054   0.566
 6833SOL     OW21397   2.312   4.744   6.923
 6833SOL    HW121398   2.379   4.768   6.853
 6833SOL    HW221399   2.342   4.662   6.971
 6834SOL     OW21400   6.591   0.083   0.746
 6834SOL    HW121401   6.533   0.034   0.811
 6834SOL    HW221402   6.628   0.018   0.679
 6835SOL     OW21403   3.892   1.087   4.985
 6835SOL    HW121404   3.858   1.180   4.974
 6835SOL    HW221405   3.867   1.053   5.075
 6836SOL     OW21406   2.847   4.642   6.316
 6836SOL    HW121407   2.831   4.713   6.385
 6836SOL    HW221408   2.929   4.591   6.340
 6837SOL     OW21409   0.414   2.469   3.299
 6837SOL    HW121410   0.501   2.511   3.276
 6837SOL    HW221411   0.360   2.454   3.216
 6838SOL     OW21412   3.117   5.681   6.429
 6838SOL    HW121413   3.028   5.672   6.384
 6838SOL    HW221414   3.105   5.730   6.516
 6839SOL     OW21415   5.406   0.774   5.144
 6839SOL    HW121416   5.497   0.799   5.112
 6839SOL    HW221417   5.362   0.854   5.185
 6840SOL     OW21418   3.159   6.938   4.993
 6840SOL    HW121419   3.103   6.993   4.931
 6840SOL    HW221420   3.108   6.856   5.020
 6841SOL     OW21421   3.801   4.720   0.643
 6841SOL    HW121422   3.880   4.779   0.626
 6841SOL    HW221423   3.754   4.701   0.557
 6842SOL     OW21424   2.394   2.978   0.604
 6842SOL    HW121425   2.468   3.036   0.640
 6842SOL    HW221426   2.399   2.889   0.648
 6843SOL     OW21427   5.710   0.092   1.685
 6843SOL    HW121428   5.784   0.060   1.626
 6843SOL    HW221429   5.746   0.160   1.749
 6844SOL     OW21430   5.662   6.971   3.892
 6844SOL    HW121431   5.570   6.933   3.890
 6844SOL    HW221432   5.684   7.009   3.803
 6845SOL     OW21433   5.509   4.830   2.661
 6845SOL    HW121434   5.534   4.777   2.742
 6845SOL    HW221435   5.590   4.842   2.603
 6846SOL     OW21436   4.479   3.185   1.179
 6846SOL    HW121437   4.560   3.236   1.151
 6846SOL    HW221438   4.434   3.146   1.099
 6847SOL     OW21439   6.700   5.073   2.887
 6847SOL    HW121440   6.708   5.147   2.819
 6847SOL    HW221441   6.642   5.001   2.850
 6848SOL     OW21442   3.583   6.624   3.871
 6848SOL    HW121443   3.520   6.579   3.934
 6848SOL    HW221444   3.552   6.717   3.854
 6849SOL     OW21445   3.408   5.515   4.777
 6849SOL    HW121446   3.404   5.453   4.856
 6849SOL    HW221447   3.371   5.467   4.697
 6850SOL     OW21448   5.613   3.609   1.947
 6850SOL    HW121449   5.636   3.706   1.940
 6850SOL    HW221450   5.537   3.588   1.886
 6851SOL     OW21451   0.980   2.777   3.647
 6851SOL    HW121452   0.915   2.709   3.614
 6851SOL    HW221453   1.073   2.753   3.618
 6852SOL     OW21454   1.943   4.918   0.551
 6852SOL    HW121455   1.935   4.975   0.633
 6852SOL    HW221456   1.859   4.924   0.498
 6853SOL     OW21457   6.685   4.078   7.009
 6853SOL    HW121458   6.703   4.013   0.063
 6853SOL    HW221459   6.597   4.058   6.967
 6854SOL     OW21460   4.951   2.039   5.777
 6854SOL    HW121461   4.947   2.022   5.875
 6854SOL    HW221462   4.994   1.961   5.731
 6855SOL     OW21463   3.342   5.714   3.312
 6855SOL    HW121464   3.392   5.790   3.269
 6855SOL    HW221465   3.320   5.646   3.243
 6856SOL     OW21466   5.000   4.424   5.429
 6856SOL    HW121467   5.087   4.473   5.437
 6856SOL    HW221468   5.006   4.357   5.355
 6857SOL     OW21469   2.647   2.350   0.057
 6857SOL    HW121470   2.656   2.308   0.148
 6857SOL    HW221471   2.550   2.351   0.031
 6858SOL     OW21472   3.757   3.679   4.038
 6858SOL    HW121473   3.835   3.653   4.095
 6858SOL    HW221474   3.688   3.724   4.094
 6859SOL     OW21475   0.950   0.572   0.790
 6859SOL    HW121476   0.904   0.597   0.704
 6859SOL    HW221477   0.958   0.654   0.848
 6860SOL     OW21478   6.048   5.160   0.867
 6860SOL    HW121479   6.088   5.185   0.778
 6860SOL    HW221480   6.071   5.230   0.934
 6861SOL     OW21481   5.893   3.869   0.905
 6861SOL    HW121482   5.810   3.925   0.915
 6861SOL    HW221483   5.931   3.883   0.813
 6862SOL     OW21484   1.886   4.766   5.371
 6862SOL    HW121485   1.973   4.814   5.363
 6862SOL    HW221486   1.884   4.688   5.309
 6863SOL     OW21487   5.950   0.989   5.967
 6863SOL    HW121488   5.892   0.910   5.954
 6863SOL    HW221489   5.983   0.991   6.061
 6864SOL     OW21490   2.859   5.890   4.180
 6864SOL    HW121491   2.932   5.856   4.120
 6864SOL    HW221492   2.874   5.988   4.197
 6865SOL     OW21493   0.364   5.944   2.911
 6865SOL    HW121494   0.426   5.902   2.977
 6865SOL    HW221495   0.275   5.898   2.916
 6866SOL     OW21496   6.468   4.917   2.832
 6866SOL    HW121497   6.468   4.905   2.733
 6866SOL    HW221498   6.374   4.909   2.866
 6867SOL     OW21499   2.040   4.748   1.599
 6867SOL    HW121500   2.049   4.666   1.655
 6867SOL    HW221501   2.123   4.761   1.545
 6868SOL     OW21502   0.952   5.105   6.320
 6868SOL    HW121503   0.998   5.035   6.266
 6868SOL    HW221504   0.997   5.193   6.306
 6869SOL     OW21505   5.136   0.553   4.613
 6869SOL    HW121506   5.045   0.551   4.654
 6869SOL    HW221507   5.187   0.472   4.641
 6870SOL     OW21508   6.823   4.763   2.333
 6870SOL    HW121509   6.814   4.841   2.271
 6870SOL    HW221510   6.871   4.689   2.286
 6871SOL     OW21511   6.206   4.848   2.834
 6871SOL    HW121512   6.114   4.887   2.835
 6871SOL    HW221513   6.201   4.755   2.797
 6872SOL     OW21514   0.793   3.090   1.386
 6872SOL    HW121515   0.727   3.020   1.413
 6872SOL    HW221516   0.749   3.157   1.326
 6873SOL     OW21517   6.941   3.814   5.195
 6873SOL    HW121518   6.959   3.912   5.204
 6873SOL    HW221519   6.938   3.789   5.098
 6874SOL     OW21520   0.840   6.102   2.128
 6874SOL    HW121521   0.876   6.196   2.125
 6874SOL    HW221522   0.770   6.091   2.058
 6875SOL     OW21523   1.637   2.478   3.082
 6875SOL    HW121524   1.642   2.409   3.010
 6875SOL    HW221525   1.580   2.444   3.157
 6876SOL     OW21526   3.990   6.228   3.873
 6876SOL    HW121527   3.943   6.157   3.821
 6876SOL    HW221528   3.924   6.296   3.903
 6877SOL     OW21529   2.682   3.534   0.665
 6877SOL    HW121530   2.762   3.475   0.673
 6877SOL    HW221531   2.646   3.530   0.572
 6878SOL     OW21532   3.022   1.702   5.644
 6878SOL    HW121533   3.051   1.771   5.577
 6878SOL    HW221534   3.043   1.611   5.609
 6879SOL     OW21535   0.918   2.518   0.094
 6879SOL    HW121536   0.849   2.573   0.048
 6879SOL    HW221537   0.988   2.578   0.133
 6880SOL     OW21538   2.066   4.052   5.160
 6880SOL    HW121539   2.165   4.066   5.162
 6880SOL    HW221540   2.019   4.140   5.168
 6881SOL     OW21541   1.088   3.769   1.815
 6881SOL    HW121542   0.992   3.796   1.827
 6881SOL    HW221543   1.096   3.711   1.734
 6882SOL     OW21544   3.239   0.711   0.114
 6882SOL    HW121545   3.319   0.771   0.114
 6882SOL    HW221546   3.197   0.712   0.205
 6883SOL     OW21547   3.853   1.901   0.282
 6883SOL    HW121548   3.767   1.873   0.325
 6883SOL    HW221549   3.886   1.984   0.326
 6884SOL     OW21550   1.729   3.910   4.328
 6884SOL    HW121551   1.762   3.962   4.250
 6884SOL    HW221552   1.791   3.921   4.405
 6885SOL     OW21553   3.787   6.125   4.394
 6885SOL    HW121554   3.832   6.036   4.384
 6885SOL    HW221555   3.831   6.191   4.334
 6886SOL     OW21556   6.580   0.683   4.024
 6886SOL    HW121557   6.651   0.671   4.094
 6886SOL    HW221558   6.620   0.667   3.933
 6887SOL     OW21559   5.116   6.277   5.442
 6887SOL    HW121560   5.055   6.323   5.377
 6887SOL    HW221561   5.115   6.179   5.426
 6888SOL     OW21562   5.360   6.091   6.157
 6888SOL    HW121563   5.458   6.089   6.175
 6888SOL    HW221564   5.328   5.998   6.139
 6889SOL     OW21565   2.109   1.860   4.698
 6889SOL    HW121566   2.088   1.956   4.712
 6889SOL    HW221567   2.202   1.850   4.663
 6890SOL     OW21568   4.263   6.371   1.086
 6890SOL    HW121569   4.181   6.429   1.082
 6890SOL    HW221570   4.333   6.416   1.141
 6891SOL     OW21571   1.560   4.912   3.753
 6891SOL    HW121572   1.660   4.917   3.745
 6891SOL    HW221573   1.536   4.863   3.837
 6892SOL     OW21574   3.485   2.103   3.482
 6892SOL    HW121575   3.403   2.136   3.434
 6892SOL    HW221576   3.567   2.134   3.434
 6893SOL     OW21577   4.588   4.283   6.765
 6893SOL    HW121578   4.633   4.336   6.692
 6893SOL    HW221579   4.637   4.297   6.851
 6894SOL     OW21580   6.059   4.704   7.001
 6894SOL    HW121581   6.038   4.744   6.911
 6894SOL    HW221582   6.158   4.702   7.014
 6895SOL     OW21583   2.823   6.081   6.866
 6895SOL    HW121584   2.758   6.028   6.921
 6895SOL    HW221585   2.799   6.072   6.769
 6896SOL     OW21586   1.499   0.134   3.379
 6896SOL    HW121587   1.444   0.213   3.351
 6896SOL    HW221588   1.562   0.161   3.452
 6897SOL     OW21589   2.883   3.432   6.059
 6897SOL    HW121590   2.954   3.363   6.074
 6897SOL    HW221591   2.833   3.447   6.145
 6898SOL     OW21592   4.295   1.292   2.219
 6898SOL    HW121593   4.308   1.379   2.266
 6898SOL    HW221594   4.380   1.265   2.173
 6899SOL     OW21595   5.656   6.722   1.049
 6899SOL    HW121596   5.623   6.706   0.957
 6899SOL    HW221597   5.756   6.727   1.049
 6900SOL     OW21598   6.892   6.762   5.618
 6900SOL    HW121599   6.885   6.691   5.689
 6900SOL    HW221600   6.846   6.845   5.650
 6901SOL     OW21601   0.234   6.739   6.155
 6901SOL    HW121602   0.242   6.816   6.093
 6901SOL    HW221603   0.170   6.672   6.118
 6902SOL     OW21604   6.112   6.052   6.946
 6902SOL    HW121605   6.062   6.059   0.012
 6902SOL    HW221606   6.164   6.136   6.931
 6903SOL     OW21607   3.626   5.714   4.770
 6903SOL    HW121608   3.614   5.806   4.807
 6903SOL    HW221609   3.537   5.668   4.764
 6904SOL     OW21610   6.145   1.498   4.487
 6904SOL    HW121611   6.189   1.419   4.444
 6904SOL    HW221612   6.093   1.468   4.567
 6905SOL     OW21613   6.245   6.276   6.949
 6905SOL    HW121614   6.318   6.321   6.898
 6905SOL    HW221615   6.264   6.281   0.027
 6906SOL     OW21616   4.752   1.318   4.028
 6906SOL    HW121617   4.829   1.379   4.008
 6906SOL    HW221618   4.672   1.372   4.053
 6907SOL     OW21619   5.115   2.512   1.248
 6907SOL    HW121620   5.118   2.428   1.303
 6907SOL    HW221621   5.036   2.567   1.276
 6908SOL     OW21622   0.786   5.962   6.635
 6908SOL    HW121623   0.867   5.993   6.686
 6908SOL    HW221624   0.711   6.027   6.649
 6909SOL     OW21625   6.334   4.416   1.351
 6909SOL    HW121626   6.235   4.398   1.351
 6909SOL    HW221627   6.380   4.346   1.297
 6910SOL     OW21628   0.017   3.040   3.612
 6910SOL    HW121629   0.003   2.954   3.661
 6910SOL    HW221630   0.097   3.032   3.553
 6911SOL     OW21631   4.324   6.044   3.450
 6911SOL    HW121632   4.302   6.127   3.500
 6911SOL    HW221633   4.411   6.007   3.483
 6912SOL     OW21634   3.309   5.081   0.698
 6912SOL    HW121635   3.228   5.137   0.679
 6912SOL    HW221636   3.371   5.132   0.758
 6913SOL     OW21637   4.786   4.699   5.088
 6913SOL    HW121638   4.822   4.611   5.057
 6913SOL    HW221639   4.861   4.766   5.088
 6914SOL     OW21640   5.742   4.047   5.694
 6914SOL    HW121641   5.776   3.991   5.619
 6914SOL    HW221642   5.734   3.991   5.777
 6915SOL     OW21643   5.982   3.866   1.539
 6915SOL    HW121644   5.974   3.963   1.560
 6915SOL    HW221645   6.037   3.821   1.610
 6916SOL     OW21646   6.248   3.234   0.109
 6916SOL    HW121647   6.347   3.217   0.115
 6916SOL    HW221648   6.230   3.292   0.030
 6917SOL     OW21649   3.076   6.093   1.359
 6917SOL    HW121650   3.071   6.137   1.449
 6917SOL    HW221651   3.102   6.160   1.290
 6918SOL     OW21652   6.740   3.368   4.484
 6918SOL    HW121653   6.759   3.301   4.556
 6918SOL    HW221654   6.793   3.344   4.402
 6919SOL     OW21655   0.078   6.330   2.018
 6919SOL    HW121656   0.162   6.374   2.050
 6919SOL    HW221657   0.101   6.254   1.958
 6920SOL     OW21658   4.989   5.169   5.571
 6920SOL    HW121659   4.917   5.175   5.502
 6920SOL    HW221660   5.072   5.133   5.528
 6921SOL     OW21661   5.660   6.208   3.448
 6921SOL    HW121662   5.625   6.207   3.541
 6921SOL    HW221663   5.594   6.164   3.387
 6922SOL     OW21664   2.022   5.762   6.648
 6922SOL    HW121665   2.108   5.711   6.642
 6922SOL    HW221666   2.015   5.806   6.737
 6923SOL     OW21667   4.795   5.508   3.365
 6923SOL    HW121668   4.845   5.589   3.397
 6923SOL    HW221669   4.710   5.537   3.320
 6924SOL     OW21670   1.766   3.857   6.686
 6924SOL    HW121671   1.812   3.861   6.597
 6924SOL    HW221672   1.753   3.761   6.712
 6925SOL     OW21673   4.089   5.999   4.907
 6925SOL    HW121674   3.999   6.016   4.866
 6925SOL    HW221675   4.078   5.940   4.987
 6926SOL     OW21676   3.237   2.899   1.393
 6926SOL    HW121677   3.204   2.807   1.414
 6926SOL    HW221678   3.328   2.893   1.351
 6927SOL     OW21679   5.412   2.970   6.342
 6927SOL    HW121680   5.462   3.016   6.268
 6927SOL    HW221681   5.475   2.951   6.417
 6928SOL     OW21682   6.155   5.712   0.820
 6928SOL    HW121683   6.191   5.645   0.886
 6928SOL    HW221684   6.197   5.801   0.838
 6929SOL     OW21685   5.281   5.223   0.915
 6929SOL    HW121686   5.254   5.288   0.986
 6929SOL    HW221687   5.239   5.249   0.828
 6930SOL     OW21688   0.486   6.652   2.067
 6930SOL    HW121689   0.565   6.602   2.030
 6930SOL    HW221690   0.404   6.628   2.015
 6931SOL     OW21691   1.974   0.405   2.164
 6931SOL    HW121692   1.966   0.335   2.235
 6931SOL    HW221693   1.947   0.494   2.201
 6932SOL     OW21694   3.746   0.106   0.634
 6932SOL    HW121695   3.764   0.047   0.713
 6932SOL    HW221696   3.821   0.171   0.623
 6933SOL     OW21697   2.948   6.419   5.111
 6933SOL    HW121698   2.858   6.383   5.136
 6933SOL    HW221699   2.954   6.427   5.012
 6934SOL     OW21700   5.090   3.491   6.177
 6934SOL    HW121701   5.049   3.532   6.096
 6934SOL    HW221702   5.109   3.562   6.245
 6935SOL     OW21703   3.926   5.038   3.057
 6935SOL    HW121704   3.972   5.007   2.974
 6935SOL    HW221705   3.851   4.975   3.079
 6936SOL     OW21706   6.250   2.443   3.833
 6936SOL    HW121707   6.221   2.527   3.787
 6936SOL    HW221708   6.342   2.454   3.869
 6937SOL     OW21709   0.034   6.524   0.204
 6937SOL    HW121710   0.098   6.591   0.243
 6937SOL    HW221711   0.077   6.476   0.128
 6938SOL     OW21712   5.111   3.440   5.469
 6938SOL    HW121713   5.116   3.504   5.392
 6938SOL    HW221714   5.166   3.475   5.545
 6939SOL     OW21715   0.791   4.391   2.003
 6939SOL    HW121716   0.694   4.371   2.019
 6939SOL    HW221717   0.844   4.362   2.082
 6940SOL     OW21718   4.505   0.656   0.252
 6940SOL    HW121719   4.553   0.568   0.242
 6940SOL    HW221720   4.466   0.662   0.344
 6941SOL     OW21721   3.248   3.030   2.610
 6941SOL    HW121722   3.181   3.046   2.536
 6941SOL    HW221723   3.281   3.118   2.644
 6942SOL     OW21724   5.579   1.956   1.443
 6942SOL    HW121725   5.595   1.921   1.351
 6942SOL    HW221726   5.651   2.021   1.467
 6943SOL     OW21727   4.235   6.121   6.802
 6943SOL    HW121728   4.204   6.029   6.827
 6943SOL    HW221729   4.163   6.167   6.750
 6944SOL     OW21730   0.895   3.345   6.324
 6944SOL    HW121731   0.940   3.433   6.317
 6944SOL    HW221732   0.886   3.320   6.421
 6945SOL     OW21733   6.679   2.813   6.221
 6945SOL    HW121734   6.687   2.771   6.311
 6945SOL    HW221735   6.607   2.883   6.223
 6946SOL     OW21736   6.091   6.393   1.271
 6946SOL    HW121737   6.052   6.344   1.194
 6946SOL    HW221738   6.122   6.484   1.241
 6947SOL     OW21739   3.643   6.399   6.074
 6947SOL    HW121740   3.602   6.469   6.016
 6947SOL    HW221741   3.743   6.406   6.069
 6948SOL     OW21742   6.936   0.373   6.846
 6948SOL    HW121743   6.985   0.395   6.930
 6948SOL    HW221744   6.985   0.302   6.796
 6949SOL     OW21745   5.218   6.555   3.260
 6949SOL    HW121746   5.227   6.649   3.229
 6949SOL    HW221747   5.309   6.517   3.278
 6950SOL     OW21748   2.666   1.309   4.659
 6950SOL    HW121749   2.640   1.288   4.753
 6950SOL    HW221750   2.599   1.372   4.619
 6951SOL     OW21751   6.674   5.800   5.498
 6951SOL    HW121752   6.766   5.807   5.458
 6951SOL    HW221753   6.606   5.829   5.431
 6952SOL     OW21754   0.221   5.890   3.706
 6952SOL    HW121755   0.300   5.910   3.648
 6952SOL    HW221756   0.251   5.884   3.801
 6953SOL     OW21757   5.044   6.226   0.263
 6953SOL    HW121758   5.118   6.260   0.206
 6953SOL    HW221759   5.030   6.287   0.340
 6954SOL     OW21760   0.480   3.652   3.935
 6954SOL    HW121761   0.525   3.740   3.920
 6954SOL    HW221762   0.381   3.663   3.924
 6955SOL     OW21763   6.429   0.752   1.854
 6955SOL    HW121764   6.413   0.770   1.951
 6955SOL    HW221765   6.525   0.732   1.839
 6956SOL     OW21766   4.651   6.825   3.292
 6956SOL    HW121767   4.746   6.840   3.320
 6956SOL    HW221768   4.589   6.870   3.357
 6957SOL     OW21769   6.051   4.810   0.991
 6957SOL    HW121770   5.992   4.780   0.916
 6957SOL    HW221771   6.037   4.907   1.008
 6958SOL     OW21772   2.923   3.716   4.528
 6958SOL    HW121773   2.949   3.657   4.605
 6958SOL    HW221774   2.897   3.806   4.563
 6959SOL     OW21775   2.147   1.430   4.535
 6959SOL    HW121776   2.171   1.333   4.546
 6959SOL    HW221777   2.151   1.475   4.624
 6960SOL     OW21778   1.932   5.648   1.631
 6960SOL    HW121779   1.939   5.668   1.729
 6960SOL    HW221780   2.024   5.636   1.593
 6961SOL     OW21781   5.594   1.887   4.362
 6961SOL    HW121782   5.582   1.796   4.403
 6961SOL    HW221783   5.666   1.936   4.410
 6962SOL     OW21784   5.242   6.071   1.989
 6962SOL    HW121785   5.293   6.117   2.062
 6962SOL    HW221786   5.211   6.139   1.922
 6963SOL     OW21787   6.031   5.805   1.688
 6963SOL    HW121788   5.990   5.893   1.710
 6963SOL    HW221789   6.118   5.795   1.735
 6964SOL     OW21790   3.558   0.087   5.055
 6964SOL    HW121791   3.557   0.142   5.138
 6964SOL    HW221792   3.625   0.013   5.064
 6965SOL     OW21793   0.513   3.649   0.895
 6965SOL    HW121794   0.421   3.611   0.896
 6965SOL    HW221795   0.552   3.646   0.987
 6966SOL     OW21796   0.052   2.340   3.253
 6966SOL    HW121797   0.148   2.324   3.233
 6966SOL    HW221798   0.029   2.436   3.236
 6967SOL     OW21799   1.733   6.812   5.038
 6967SOL    HW121800   1.641   6.845   5.017
 6967SOL    HW221801   1.736   6.779   5.133
 6968SOL     OW21802   4.417   6.225   2.696
 6968SOL    HW121803   4.407   6.130   2.667
 6968SOL    HW221804   4.341   6.279   2.659
 6969SOL     OW21805   2.834   2.455   1.432
 6969SOL    HW121806   2.793   2.368   1.404
 6969SOL    HW221807   2.922   2.438   1.477
 6970SOL     OW21808   3.318   4.452   6.270
 6970SOL    HW121809   3.418   4.443   6.273
 6970SOL    HW221810   3.277   4.374   6.316
 6971SOL     OW21811   6.135   4.498   1.578
 6971SOL    HW121812   6.092   4.439   1.510
 6971SOL    HW221813   6.139   4.592   1.542
 6972SOL     OW21814   5.380   4.601   3.238
 6972SOL    HW121815   5.328   4.550   3.169
 6972SOL    HW221816   5.319   4.627   3.313
 6973SOL     OW21817   0.221   3.537   4.787
 6973SOL    HW121818   0.209   3.496   4.697
 6973SOL    HW221819   0.140   3.520   4.843
 6974SOL     OW21820   3.142   3.622   2.615
 6974SOL    HW121821   3.166   3.635   2.712
 6974SOL    HW221822   3.047   3.592   2.609
 6975SOL     OW21823   1.895   6.412   6.522
 6975SOL    HW121824   1.990   6.405   6.491
 6975SOL    HW221825   1.879   6.503   6.560
 6976SOL     OW21826   4.312   6.176   4.919
 6976SOL    HW121827   4.326   6.177   5.018
 6976SOL    HW221828   4.249   6.101   4.895
 6977SOL     OW21829   4.396   2.622   1.366
 6977SOL    HW121830   4.461   2.675   1.312
 6977SOL    HW221831   4.401   2.526   1.340
 6978SOL     OW21832   3.930   1.355   2.715
 6978SOL    HW121833   3.964   1.448   2.725
 6978SOL    HW221834   3.849   1.342   2.773
 6979SOL     OW21835   1.589   4.423   1.245
 6979SOL    HW121836   1.665   4.414   1.181
 6979SOL    HW221837   1.504   4.433   1.194
 6980SOL     OW21838   1.284   1.052   3.733
 6980SOL    HW121839   1.380   1.044   3.705
 6980SOL    HW221840   1.230   0.982   3.685
 6981SOL     OW21841   3.873   2.409   5.849
 6981SOL    HW121842   3.828   2.411   5.759
 6981SOL    HW221843   3.807   2.430   5.920
 6982SOL     OW21844   1.632   0.602   4.421
 6982SOL    HW121845   1.569   0.680   4.421
 6982SOL    HW221846   1.585   0.522   4.459
 6983SOL     OW21847   4.228   2.249   3.950
 6983SOL    HW121848   4.259   2.289   4.036
 6983SOL    HW221849   4.254   2.308   3.874
 6984SOL     OW21850   2.419   1.902   3.608
 6984SOL    HW121851   2.490   1.928   3.542
 6984SOL    HW221852   2.462   1.858   3.687
 6985SOL     OW21853   4.369   5.007   1.380
 6985SOL    HW121854   4.453   5.037   1.425
 6985SOL    HW221855   4.345   5.071   1.307
 6986SOL     OW21856   1.684   6.943   6.637
 6986SOL    HW121857   1.655   0.009   6.679
 6986SOL    HW221858   1.621   6.870   6.664
 6987SOL     OW21859   7.008   1.224   6.031
 6987SOL    HW121860   7.014   1.142   6.088
 6987SOL    HW221861   6.937   1.284   6.068
 6988SOL     OW21862   0.389   0.428   5.588
 6988SOL    HW121863   0.340   0.507   5.623
 6988SOL    HW221864   0.464   0.405   5.649
 6989SOL     OW21865   0.751   4.392   2.572
 6989SOL    HW121866   0.675   4.455   2.588
 6989SOL    HW221867   0.728   4.332   2.496
 6990SOL     OW21868   4.849   2.760   1.235
 6990SOL    HW121869   4.831   2.704   1.316
 6990SOL    HW221870   4.861   2.855   1.263
 6991SOL     OW21871   3.278   5.120   3.929
 6991SOL    HW121872   3.260   5.210   3.968
 6991SOL    HW221873   3.346   5.129   3.856
 6992SOL     OW21874   5.270   5.830   6.156
 6992SOL    HW121875   5.303   5.735   6.163
 6992SOL    HW221876   5.205   5.836   6.080
 6993SOL     OW21877   6.180   0.652   3.099
 6993SOL    HW121878   6.167   0.726   3.032
 6993SOL    HW221879   6.137   0.569   3.064
 6994SOL     OW21880   0.160   2.380   4.447
 6994SOL    HW121881   0.130   2.410   4.356
 6994SOL    HW221882   0.257   2.356   4.444
 6995SOL     OW21883   6.815   4.745   5.747
 6995SOL    HW121884   6.753   4.680   5.704
 6995SOL    HW221885   6.888   4.695   5.794
 6996SOL     OW21886   1.517   0.153   6.739
 6996SOL    HW121887   1.545   0.223   6.804
 6996SOL    HW221888   1.471   0.195   6.661
 6997SOL     OW21889   6.537   6.198   4.961
 6997SOL    HW121890   6.525   6.210   4.862
 6997SOL    HW221891   6.472   6.131   4.995
 6998SOL     OW21892   1.460   1.479   1.543
 6998SOL    HW121893   1.499   1.504   1.454
 6998SOL    HW221894   1.522   1.416   1.590
 6999SOL     OW21895   2.518   2.734   5.781
 6999SOL    HW121896   2.518   2.656   5.718
 6999SOL    HW221897   2.575   2.712   5.860
 7000SOL     OW21898   5.869   6.062   1.465
 7000SOL    HW121899   5.881   6.032   1.371
 7000SOL    HW221900   5.773   6.089   1.480
 7001SOL     OW21901   1.794   2.761   5.294
 7001SOL    HW121902   1.856   2.797   5.224
 7001SOL    HW221903   1.838   2.686   5.343
 7002SOL     OW21904   2.133   5.468   3.745
 7002SOL    HW121905   2.125   5.539   3.675
 7002SOL    HW221906   2.153   5.380   3.701
 7003SOL     OW21907   3.686   5.092   0.203
 7003SOL    HW121908   3.712   5.041   0.121
 7003SOL    HW221909   3.646   5.029   0.270
 7004SOL     OW21910   1.201   4.748   2.170
 7004SOL    HW121911   1.159   4.752   2.079
 7004SOL    HW221912   1.160   4.674   2.223
 7005SOL     OW21913   1.773   0.320   0.462
 7005SOL    HW121914   1.728   0.304   0.373
 7005SOL    HW221915   1.802   0.232   0.500
 7006SOL     OW21916   4.509   4.944   3.983
 7006SOL    HW121917   4.455   4.881   4.038
 7006SOL    HW221918   4.482   5.038   4.004
 7007SOL     OW21919   5.170   0.064   3.383
 7007SOL    HW121920   5.083   0.103   3.413
 7007SOL    HW221921   5.186   6.998   3.432
 7008SOL     OW21922   0.867   4.055   4.677
 7008SOL    HW121923   0.907   3.973   4.719
 7008SOL    HW221924   0.936   4.127   4.674
 7009SOL     OW21925   5.778   6.338   1.770
 7009SOL    HW121926   5.797   6.436   1.767
 7009SOL    HW221927   5.864   6.288   1.774
 7010SOL     OW21928   5.159   4.761   4.360
 7010SOL    HW121929   5.100   4.729   4.434
 7010SOL    HW221930   5.198   4.850   4.384
 7011SOL     OW21931   3.630   6.941   6.525
 7011SOL    HW121932   3.620   0.006   6.474
 7011SOL    HW221933   3.546   6.923   6.577
 7012SOL     OW21934   1.672   2.334   1.811
 7012SOL    HW121935   1.633   2.295   1.894
 7012SOL    HW221936   1.690   2.432   1.825
 7013SOL     OW21937   0.795   0.201   0.796
 7013SOL    HW121938   0.810   0.132   0.867
 7013SOL    HW221939   0.721   0.171   0.736
 7014SOL     OW21940   4.307   3.381   1.358
 7014SOL    HW121941   4.237   3.425   1.303
 7014SOL    HW221942   4.347   3.305   1.308
 7015SOL     OW21943   5.855   4.664   2.287
 7015SOL    HW121944   5.869   4.758   2.320
 7015SOL    HW221945   5.803   4.613   2.355
 7016SOL     OW21946   3.431   4.800   1.429
 7016SOL    HW121947   3.488   4.863   1.376
 7016SOL    HW221948   3.346   4.846   1.454
 7017SOL     OW21949   2.509   5.578   2.666
 7017SOL    HW121950   2.505   5.480   2.687
 7017SOL    HW221951   2.565   5.624   2.735
 7018SOL     OW21952   5.921   3.781   4.383
 7018SOL    HW121953   5.997   3.842   4.404
 7018SOL    HW221954   5.880   3.808   4.296
 7019SOL     OW21955   3.047   4.124   0.256
 7019SOL    HW121956   3.094   4.199   0.302
 7019SOL    HW221957   3.020   4.055   0.324
 7020SOL     OW21958   6.180   6.008   6.442
 7020SOL    HW121959   6.132   5.921   6.444
 7020SOL    HW221960   6.119   6.079   6.408
 7021SOL     OW21961   1.590   1.245   6.080
 7021SOL    HW121962   1.676   1.263   6.128
 7021SOL    HW221963   1.513   1.264   6.141
 7022SOL     OW21964   4.828   6.554   6.505
 7022SOL    HW121965   4.863   6.516   6.419
 7022SOL    HW221966   4.809   6.651   6.494
 7023SOL     OW21967   0.456   1.329   4.273
 7023SOL    HW121968   0.452   1.419   4.230
 7023SOL    HW221969   0.552   1.306   4.293
 7024SOL     OW21970   2.328   4.018   5.363
 7024SOL    HW121971   2.337   4.037   5.265
 7024SOL    HW221972   2.418   4.001   5.402
 7025SOL     OW21973   2.337   1.385   0.134
 7025SOL    HW121974   2.416   1.354   0.081
 7025SOL    HW221975   2.257   1.328   0.110
 7026SOL     OW21976   3.456   2.135   1.806
 7026SOL    HW121977   3.474   2.230   1.829
 7026SOL    HW221978   3.507   2.075   1.867
 7027SOL     OW21979   2.570   4.931   4.225
 7027SOL    HW121980   2.535   4.907   4.135
 7027SOL    HW221981   2.614   4.851   4.266
 7028SOL     OW21982   4.020   0.591   4.230
 7028SOL    HW121983   4.109   0.591   4.184
 7028SOL    HW221984   4.027   0.641   4.316
 7029SOL     OW21985   5.268   4.666   4.921
 7029SOL    HW121986   5.300   4.745   4.972
 7029SOL    HW221987   5.310   4.583   4.958
 7030SOL     OW21988   1.355   1.281   5.436
 7030SOL    HW121989   1.411   1.304   5.356
 7030SOL    HW221990   1.382   1.192   5.471
 7031SOL     OW21991   2.626   6.088   5.141
 7031SOL    HW121992   2.711   6.092   5.088
 7031SOL    HW221993   2.623   6.002   5.192
 7032SOL     OW21994   3.652   0.862   3.195
 7032SOL    HW121995   3.650   0.962   3.205
 7032SOL    HW221996   3.698   0.822   3.273
 7033SOL     OW21997   1.732   2.490   3.691
 7033SOL    HW121998   1.635   2.511   3.698
 7033SOL    HW221999   1.751   2.447   3.602
 7034SOL     OW22000   5.977   0.459   3.523
 7034SOL    HW122001   5.904   0.435   3.586
 7034SOL    HW222002   5.938   0.487   3.435
 7035SOL     OW22003   1.814   6.880   1.484
 7035SOL    HW122004   1.733   6.925   1.446
 7035SOL    HW222005   1.837   6.800   1.429
 7036SOL     OW22006   0.512   0.889   2.644
 7036SOL    HW122007   0.604   0.927   2.661
 7036SOL    HW222008   0.501   0.873   2.546
 7037SOL     OW22009   2.000   1.413   6.577
 7037SOL    HW122010   2.067   1.417   6.652
 7037SOL    HW222011   2.013   1.492   6.517
 7038SOL     OW22012   2.262   3.437   5.337
 7038SOL    HW122013   2.303   3.474   5.420
 7038SOL    HW222014   2.310   3.353   5.311
 7039SOL     OW22015   3.014   4.755   1.442
 7039SOL    HW122016   3.017   4.797   1.352
 7039SOL    HW222017   3.003   4.656   1.432
 7040SOL     OW22018   6.365   1.882   4.631
 7040SOL    HW122019   6.290   1.910   4.571
 7040SOL    HW222020   6.358   1.932   4.718
 7041SOL     OW22021   6.789   1.877   2.222
 7041SOL    HW122022   6.700   1.833   2.220
 7041SOL    HW222023   6.783   1.969   2.182
 7042SOL     OW22024   4.976   4.862   5.055
 7042SOL    HW122025   5.028   4.911   4.985
 7042SOL    HW222026   5.035   4.846   5.135
 7043SOL     OW22027   1.907   3.858   2.404
 7043SOL    HW122028   1.968   3.834   2.329
 7043SOL    HW222029   1.815   3.826   2.384
 7044SOL     OW22030   4.068   4.765   4.092
 7044SOL    HW122031   4.051   4.671   4.124
 7044SOL    HW222032   3.996   4.825   4.127
 7045SOL     OW22033   5.248   5.415   3.275
 7045SOL    HW122034   5.339   5.377   3.292
 7045SOL    HW222035   5.255   5.492   3.212
 7046SOL     OW22036   3.385   1.029   2.891
 7046SOL    HW122037   3.336   1.113   2.914
 7046SOL    HW222038   3.462   1.050   2.831
 7047SOL     OW22039   6.964   1.948   2.436
 7047SOL    HW122040   0.023   1.890   2.457
 7047SOL    HW222041   6.904   1.900   2.373
 7048SOL     OW22042   5.575   6.213   2.732
 7048SOL    HW122043   5.584   6.230   2.830
 7048SOL    HW222044   5.635   6.138   2.705
 7049SOL     OW22045   3.846   1.534   1.116
 7049SOL    HW122046   3.819   1.544   1.212
 7049SOL    HW222047   3.778   1.577   1.057
 7050SOL     OW22048   4.087   3.377   1.733
 7050SOL    HW122049   4.060   3.462   1.688
 7050SOL    HW222050   4.109   3.396   1.829
 7051SOL     OW22051   6.908   0.199   1.718
 7051SOL    HW122052   6.997   0.199   1.672
 7051SOL    HW222053   6.870   0.106   1.715
 7052SOL     OW22054   5.592   2.675   3.291
 7052SOL    HW122055   5.570   2.745   3.360
 7052SOL    HW222056   5.508   2.650   3.242
 7053SOL     OW22057   0.826   3.082   5.103
 7053SOL    HW122058   0.795   3.140   5.179
 7053SOL    HW222059   0.922   3.101   5.083
 7054SOL     OW22060   0.975   6.816   0.439
 7054SOL    HW122061   0.990   6.901   0.489
 7054SOL    HW222062   0.947   6.836   0.346
 7055SOL     OW22063   2.771   6.984   5.565
 7055SOL    HW122064   2.709   6.938   5.629
 7055SOL    HW222065   2.720   0.033   5.512
 7056SOL     OW22066   6.517   4.863   1.960
 7056SOL    HW122067   6.516   4.963   1.961
 7056SOL    HW222068   6.575   4.831   1.885
 7057SOL     OW22069   1.758   5.619   3.909
 7057SOL    HW122070   1.825   5.545   3.912
 7057SOL    HW222071   1.747   5.650   3.814
 7058SOL     OW22072   6.391   4.753   6.094
 7058SOL    HW122073   6.456   4.707   6.156
 7058SOL    HW222074   6.307   4.700   6.089
 7059SOL     OW22075   6.887   1.283   4.000
 7059SOL    HW122076   6.860   1.287   4.096
 7059SOL    HW222077   6.807   1.262   3.943
 7060SOL     OW22078   4.254   0.239   1.573
 7060SOL    HW122079   4.173   0.192   1.537
 7060SOL    HW222080   4.238   0.263   1.669
 7061SOL     OW22081   0.652   2.815   3.416
 7061SOL    HW122082   0.560   2.781   3.432
 7061SOL    HW222083   0.656   2.913   3.436
 7062SOL     OW22084   4.287   1.104   5.239
 7062SOL    HW122085   4.259   1.033   5.175
 7062SOL    HW222086   4.263   1.077   5.332
 7063SOL     OW22087   1.371   0.263   1.757
 7063SOL    HW122088   1.428   0.305   1.687
 7063SOL    HW222089   1.386   0.164   1.758
 7064SOL     OW22090   3.970   2.178   1.324
 7064SOL    HW122091   3.917   2.104   1.365
 7064SOL    HW222092   3.924   2.210   1.241
 7065SOL     OW22093   4.105   3.990   5.725
 7065SOL    HW122094   4.107   4.087   5.750
 7065SOL    HW222095   4.020   3.949   5.759
 7066SOL     OW22096   4.683   0.618   0.558
 7066SOL    HW122097   4.727   0.642   0.472
 7066SOL    HW222098   4.673   0.519   0.564
 7067SOL     OW22099   2.101   2.547   4.792
 7067SOL    HW122100   2.174   2.479   4.780
 7067SOL    HW222101   2.036   2.514   4.860
 7068SOL     OW22102   0.045   4.611   4.363
 7068SOL    HW122103   0.020   4.699   4.324
 7068SOL    HW222104   7.017   4.598   4.450
 7069SOL     OW22105   5.445   1.241   4.849
 7069SOL    HW122106   5.461   1.334   4.882
 7069SOL    HW222107   5.379   1.244   4.774
 7070SOL     OW22108   0.004   6.161   4.915
 7070SOL    HW122109   6.996   6.256   4.901
 7070SOL    HW222110   6.953   6.112   4.966
 7071SOL     OW22111   2.869   5.678   6.350
 7071SOL    HW122112   2.865   5.579   6.362
 7071SOL    HW222113   2.825   5.723   6.427
 7072SOL     OW22114   1.556   5.890   0.382
 7072SOL    HW122115   1.488   5.962   0.396
 7072SOL    HW222116   1.519   5.802   0.413
 7073SOL     OW22117   4.371   6.676   4.734
 7073SOL    HW122118   4.340   6.638   4.822
 7073SOL    HW222119   4.463   6.712   4.745
 7074SOL     OW22120   4.510   2.541   2.107
 7074SOL    HW122121   4.499   2.613   2.037
 7074SOL    HW222122   4.426   2.489   2.115
 7075SOL     OW22123   1.567   4.023   5.373
 7075SOL    HW122124   1.548   3.983   5.462
 7075SOL    HW222125   1.504   4.098   5.355
 7076SOL     OW22126   6.092   1.917   6.044
 7076SOL    HW122127   6.020   1.897   5.978
 7076SOL    HW222128   6.082   1.857   6.123
 7077SOL     OW22129   2.332   4.687   3.945
 7077SOL    HW122130   2.356   4.599   3.986
 7077SOL    HW222131   2.415   4.739   3.927
 7078SOL     OW22132   0.195   6.809   1.719
 7078SOL    HW122133   0.245   6.746   1.659
 7078SOL    HW222134   0.097   6.788   1.715
 7079SOL     OW22135   6.841   6.029   4.016
 7079SOL    HW122136   6.770   6.072   3.960
 7079SOL    HW222137   6.913   6.095   4.035
 7080SOL     OW22138   3.498   1.344   4.798
 7080SOL    HW122139   3.559   1.397   4.738
 7080SOL    HW222140   3.433   1.406   4.841
 7081SOL     OW22141   2.961   6.998   6.765
 7081SOL    HW122142   2.872   6.965   6.797
 7081SOL    HW222143   3.021   7.012   6.843
 7082SOL     OW22144   6.648   3.787   6.749
 7082SOL    HW122145   6.643   3.701   6.697
 7082SOL    HW222146   6.734   3.833   6.728
 7083SOL     OW22147   2.681   0.091   0.747
 7083SOL    HW122148   2.726   0.002   0.743
 7083SOL    HW222149   2.705   0.137   0.832
 7084SOL     OW22150   0.324   5.693   5.460
 7084SOL    HW122151   0.276   5.606   5.450
 7084SOL    HW222152   0.338   5.713   5.557
 7085SOL     OW22153   0.714   1.901   2.247
 7085SOL    HW122154   0.765   1.818   2.225
 7085SOL    HW222155   0.763   1.981   2.213
 7086SOL     OW22156   5.223   0.346   5.549
 7086SOL    HW122157   5.215   0.443   5.570
 7086SOL    HW222158   5.316   0.315   5.568
 7087SOL     OW22159   6.142   3.651   3.879
 7087SOL    HW122160   6.173   3.679   3.970
 7087SOL    HW222161   6.194   3.702   3.810
 7088SOL     OW22162   5.594   2.681   3.692
 7088SOL    HW122163   5.596   2.581   3.688
 7088SOL    HW222164   5.687   2.715   3.704
 7089SOL     OW22165   2.804   2.050   4.717
 7089SOL    HW122166   2.825   1.952   4.722
 7089SOL    HW222167   2.845   2.096   4.796
 7090SOL     OW22168   2.398   0.677   6.740
 7090SOL    HW122169   2.455   0.599   6.713
 7090SOL    HW222170   2.312   0.643   6.779
 7091SOL     OW22171   0.778   1.877   7.010
 7091SOL    HW122172   0.878   1.877   7.004
 7091SOL    HW222173   0.740   1.861   6.918
 7092SOL     OW22174   4.120   3.080   5.701
 7092SOL    HW122175   4.101   3.108   5.795
 7092SOL    HW222176   4.053   3.011   5.672
 7093SOL     OW22177   2.928   3.768   2.867
 7093SOL    HW122178   2.856   3.836   2.850
 7093SOL    HW222179   2.899   3.679   2.832
 7094SOL     OW22180   6.683   6.007   5.898
 7094SOL    HW122181   6.690   5.942   5.822
 7094SOL    HW222182   6.587   6.033   5.911
 7095SOL     OW22183   4.030   4.430   5.818
 7095SOL    HW122184   4.075   4.387   5.740
 7095SOL    HW222185   3.985   4.359   5.873
 7096SOL     OW22186   6.649   0.495   3.834
 7096SOL    HW122187   6.554   0.477   3.859
 7096SOL    HW222188   6.655   0.505   3.734
 7097SOL     OW22189   5.823   2.186   1.006
 7097SOL    HW122190   5.909   2.151   0.969
 7097SOL    HW222191   5.756   2.112   1.010
 7098SOL     OW22192   1.519   5.862   5.453
 7098SOL    HW122193   1.600   5.813   5.486
 7098SOL    HW222194   1.482   5.815   5.372
 7099SOL     OW22195   3.799   1.182   5.458
 7099SOL    HW122196   3.723   1.198   5.395
 7099SOL    HW222197   3.885   1.205   5.413
 7100SOL     OW22198   5.591   3.194   0.879
 7100SOL    HW122199   5.588   3.159   0.785
 7100SOL    HW222200   5.498   3.193   0.917
 7101SOL     OW22201   1.829   0.858   5.015
 7101SOL    HW122202   1.889   0.806   4.955
 7101SOL    HW222203   1.736   0.856   4.979
 7102SOL     OW22204   5.509   6.482   0.759
 7102SOL    HW122205   5.589   6.447   0.809
 7102SOL    HW222206   5.527   6.575   0.728
 7103SOL     OW22207   4.528   4.808   1.903
 7103SOL    HW122208   4.518   4.711   1.922
 7103SOL    HW222209   4.577   4.852   1.978
 7104SOL     OW22210   0.401   2.848   3.909
 7104SOL    HW122211   0.440   2.807   3.992
 7104SOL    HW222212   0.307   2.816   3.897
 7105SOL     OW22213   3.205   3.052   5.554
 7105SOL    HW122214   3.154   3.089   5.476
 7105SOL    HW222215   3.303   3.063   5.538
 7106SOL     OW22216   3.733   3.609   2.606
 7106SOL    HW122217   3.669   3.601   2.682
 7106SOL    HW222218   3.706   3.547   2.533
 7107SOL     OW22219   4.684   1.030   0.610
 7107SOL    HW122220   4.756   1.097   0.593
 7107SOL    HW222221   4.614   1.037   0.538
 7108SOL     OW22222   3.863   6.034   2.593
 7108SOL    HW122223   3.953   6.077   2.581
 7108SOL    HW222224   3.872   5.936   2.577
 7109SOL     OW22225   2.832   0.519   6.077
 7109SOL    HW122226   2.777   0.476   6.005
 7109SOL    HW222227   2.895   0.585   6.036
 7110SOL     OW22228   3.037   5.759   4.361
 7110SOL    HW122229   3.047   5.810   4.446
 7110SOL    HW222230   2.966   5.802   4.305
 7111SOL     OW22231   1.263   2.902   4.942
 7111SOL    HW122232   1.206   2.932   4.865
 7111SOL    HW222233   1.215   2.922   5.028
 7112SOL     OW22234   1.707   4.658   4.692
 7112SOL    HW122235   1.760   4.596   4.749
 7112SOL    HW222236   1.638   4.705   4.748
 7113SOL     OW22237   3.914   3.830   4.776
 7113SOL    HW122238   3.907   3.893   4.698
 7113SOL    HW222239   3.952   3.878   4.854
 7114SOL     OW22240   4.968   6.390   1.378
 7114SOL    HW122241   4.890   6.357   1.430
 7114SOL    HW222242   4.937   6.458   1.311
 7115SOL     OW22243   5.417   3.112   1.113
 7115SOL    HW122244   5.462   3.175   1.176
 7115SOL    HW222245   5.327   3.087   1.149
 7116SOL     OW22246   6.267   4.157   3.193
 7116SOL    HW122247   6.246   4.255   3.187
 7116SOL    HW222248   6.325   4.140   3.273
 7117SOL     OW22249   0.218   6.062   5.077
 7117SOL    HW122250   0.164   6.059   4.993
 7117SOL    HW222251   0.251   5.970   5.098
 7118SOL     OW22252   3.127   4.511   0.790
 7118SOL    HW122253   3.223   4.503   0.818
 7118SOL    HW222254   3.068   4.475   0.863
 7119SOL     OW22255   4.677   2.349   3.824
 7119SOL    HW122256   4.757   2.389   3.779
 7119SOL    HW222257   4.634   2.417   3.883
 7120SOL     OW22258   3.478   1.920   2.545
 7120SOL    HW122259   3.408   1.848   2.549
 7120SOL    HW222260   3.450   1.990   2.479
 7121SOL     OW22261   0.656   0.166   3.377
 7121SOL    HW122262   0.630   0.071   3.358
 7121SOL    HW222263   0.741   0.188   3.328
 7122SOL     OW22264   1.200   6.862   5.712
 7122SOL    HW122265   1.290   6.903   5.722
 7122SOL    HW222266   1.186   6.834   5.617
 7123SOL     OW22267   1.744   4.164   3.025
 7123SOL    HW122268   1.718   4.202   3.113
 7123SOL    HW222269   1.692   4.210   2.952
 7124SOL     OW22270   6.797   2.005   1.290
 7124SOL    HW122271   6.745   1.976   1.210
 7124SOL    HW222272   6.782   1.941   1.365
 7125SOL     OW22273   0.355   6.951   1.297
 7125SOL    HW122274   0.338   6.982   1.390
 7125SOL    HW222275   0.407   0.001   1.248
 7126SOL     OW22276   3.435   4.813   0.627
 7126SOL    HW122277   3.380   4.752   0.684
 7126SOL    HW222278   3.432   4.906   0.666
 7127SOL     OW22279   1.892   4.810   5.641
 7127SOL    HW122280   1.864   4.732   5.697
 7127SOL    HW222281   1.866   4.794   5.546
 7128SOL     OW22282   2.831   5.365   0.159
 7128SOL    HW122283   2.787   5.318   0.236
 7128SOL    HW222284   2.893   5.302   0.113
 7129SOL     OW22285   2.735   1.918   6.921
 7129SOL    HW122286   2.829   1.903   6.890
 7129SOL    HW222287   2.675   1.852   6.877
 7130SOL     OW22288   3.957   5.109   5.308
 7130SOL    HW122289   4.007   5.116   5.222
 7130SOL    HW222290   3.861   5.133   5.292
 7131SOL     OW22291   2.846   0.561   1.249
 7131SOL    HW122292   2.878   0.581   1.156
 7131SOL    HW222293   2.922   0.528   1.304
 7132SOL     OW22294   4.325   4.463   0.209
 7132SOL    HW122295   4.363   4.381   0.168
 7132SOL    HW222296   4.234   4.480   0.171
 7133SOL     OW22297   5.604   5.645   6.098
 7133SOL    HW122298   5.641   5.636   6.190
 7133SOL    HW222299   5.542   5.569   6.079
 7134SOL     OW22300   5.085   6.983   2.072
 7134SOL    HW122301   5.162   6.994   2.135
 7134SOL    HW222302   5.103   0.016   1.989
 7135SOL     OW22303   1.556   2.651   3.415
 7135SOL    HW122304   1.603   2.564   3.430
 7135SOL    HW222305   1.485   2.662   3.485
 7136SOL     OW22306   2.618   2.234   1.010
 7136SOL    HW122307   2.602   2.331   1.031
 7136SOL    HW222308   2.574   2.211   0.923
 7137SOL     OW22309   4.039   0.111   6.625
 7137SOL    HW122310   3.981   0.117   6.707
 7137SOL    HW222311   4.013   0.182   6.560
 7138SOL     OW22312   2.551   2.099   0.640
 7138SOL    HW122313   2.608   2.049   0.576
 7138SOL    HW222314   2.469   2.131   0.593
 7139SOL     OW22315   6.086   4.296   1.369
 7139SOL    HW122316   6.115   4.201   1.382
 7139SOL    HW222317   5.997   4.298   1.324
 7140SOL     OW22318   0.051   3.542   3.074
 7140SOL    HW122319   6.990   3.488   3.096
 7140SOL    HW222320   0.027   3.639   3.073
 7141SOL     OW22321   3.709   6.452   1.294
 7141SOL    HW122322   3.695   6.414   1.385
 7141SOL    HW222323   3.734   6.379   1.230
 7142SOL     OW22324   4.028   0.175   2.981
 7142SOL    HW122325   4.044   0.272   2.961
 7142SOL    HW222326   3.930   0.156   2.976
 7143SOL     OW22327   1.449   2.920   5.634
 7143SOL    HW122328   1.528   2.910   5.574
 7143SOL    HW222329   1.405   2.831   5.647
 7144SOL     OW22330   1.806   2.337   2.293
 7144SOL    HW122331   1.817   2.391   2.377
 7144SOL    HW222332   1.709   2.336   2.267
 7145SOL     OW22333   4.508   0.220   0.490
 7145SOL    HW122334   4.477   0.235   0.396
 7145SOL    HW222335   4.606   0.200   0.490
 7146SOL     OW22336   1.980   6.946   0.679
 7146SOL    HW122337   2.061   6.949   0.621
 7146SOL    HW222338   1.994   6.881   0.754
 7147SOL     OW22339   6.659   0.181   2.472
 7147SOL    HW122340   6.709   0.207   2.555
 7147SOL    HW222341   6.701   0.225   2.393
 7148SOL     OW22342   0.158   5.779   0.961
 7148SOL    HW122343   0.078   5.834   0.937
 7148SOL    HW222344   0.147   5.742   1.053
 7149SOL     OW22345   6.126   6.606   3.192
 7149SOL    HW122346   6.172   6.597   3.104
 7149SOL    HW222347   6.027   6.612   3.177
 7150SOL     OW22348   3.460   2.778   1.248
 7150SOL    HW122349   3.527   2.785   1.321
 7150SOL    HW222350   3.498   2.818   1.164
 7151SOL     OW22351   2.519   6.351   0.431
 7151SOL    HW122352   2.596   6.334   0.371
 7151SOL    HW222353   2.433   6.334   0.382
 7152SOL     OW22354   0.690   0.520   5.630
 7152SOL    HW122355   0.686   0.541   5.728
 7152SOL    HW222356   0.728   0.597   5.580
 7153SOL     OW22357   4.187   5.291   1.638
 7153SOL    HW122358   4.164   5.220   1.705
 7153SOL    HW222359   4.184   5.252   1.546
 7154SOL     OW22360   4.444   6.917   3.759
 7154SOL    HW122361   4.446   6.824   3.796
 7154SOL    HW222362   4.386   6.975   3.818
 7155SOL     OW22363   1.657   3.311   0.932
 7155SOL    HW122364   1.754   3.313   0.907
 7155SOL    HW222365   1.633   3.399   0.974
 7156SOL     OW22366   6.901   3.246   3.973
 7156SOL    HW122367   6.842   3.197   3.909
 7156SOL    HW222368   6.997   3.229   3.949
 7157SOL     OW22369   0.390   3.494   1.282
 7157SOL    HW122370   0.314   3.557   1.272
 7157SOL    HW222371   0.458   3.511   1.211
 7158SOL     OW22372   1.325   7.014   3.724
 7158SOL    HW122373   1.277   0.069   3.769
 7158SOL    HW222374   1.416   7.003   3.765
 7159SOL     OW22375   0.441   5.046   2.589
 7159SOL    HW122376   0.513   5.051   2.520
 7159SOL    HW222377   0.390   5.132   2.591
 7160SOL     OW22378   5.716   0.343   2.844
 7160SOL    HW122379   5.690   0.300   2.930
 7160SOL    HW222380   5.635   0.366   2.791
 7161SOL     OW22381   3.368   4.018   3.783
 7161SOL    HW122382   3.314   3.954   3.729
 7161SOL    HW222383   3.318   4.042   3.867
 7162SOL     OW22384   1.095   5.318   6.259
 7162SOL    HW122385   1.053   5.397   6.214
 7162SOL    HW222386   1.187   5.342   6.290
 7163SOL     OW22387   3.029   6.544   2.407
 7163SOL    HW122388   3.029   6.642   2.429
 7163SOL    HW222389   3.007   6.492   2.489
 7164SOL     OW22390   2.724   0.230   4.167
 7164SOL    HW122391   2.795   0.280   4.117
 7164SOL    HW222392   2.652   0.293   4.194
 7165SOL     OW22393   6.187   0.942   2.715
 7165SOL    HW122394   6.245   0.866   2.685
 7165SOL    HW222395   6.114   0.957   2.649
 7166SOL     OW22396   5.283   2.131   0.874
 7166SOL    HW122397   5.227   2.145   0.955
 7166SOL    HW222398   5.331   2.043   0.881
 7167SOL     OW22399   5.564   3.539   4.356
 7167SOL    HW122400   5.494   3.468   4.368
 7167SOL    HW222401   5.653   3.496   4.340
 7168SOL     OW22402   1.458   2.620   2.919
 7168SOL    HW122403   1.524   2.580   2.982
 7168SOL    HW222404   1.498   2.702   2.877
 7169SOL     OW22405   0.615   2.782   5.581
 7169SOL    HW122406   0.662   2.801   5.495
 7169SOL    HW222407   0.682   2.768   5.653
 7170SOL     OW22408   4.676   0.224   3.976
 7170SOL    HW122409   4.719   0.268   3.897
 7170SOL    HW222410   4.603   0.284   4.011
 7171SOL     OW22411   6.099   3.773   0.180
 7171SOL    HW122412   6.196   3.751   0.176
 7171SOL    HW222413   6.079   3.847   0.116
 7172SOL     OW22414   1.045   6.912   4.554
 7172SOL    HW122415   1.053   6.918   4.455
 7172SOL    HW222416   1.135   6.889   4.593
 7173SOL     OW22417   6.667   4.023   6.330
 7173SOL    HW122418   6.591   3.981   6.380
 7173SOL    HW222419   6.725   4.074   6.393
 7174SOL     OW22420   1.317   3.791   0.131
 7174SOL    HW122421   1.304   3.883   0.167
 7174SOL    HW222422   1.229   3.756   0.098
 7175SOL     OW22423   5.633   3.091   6.653
 7175SOL    HW122424   5.710   3.078   6.591
 7175SOL    HW222425   5.556   3.035   6.624
 7176SOL     OW22426   0.078   0.308   2.799
 7176SOL    HW122427   0.019   0.386   2.778
 7176SOL    HW222428   0.169   0.341   2.822
 7177SOL     OW22429   1.672   5.015   4.467
 7177SOL    HW122430   1.657   4.921   4.498
 7177SOL    HW222431   1.607   5.076   4.513
 7178SOL     OW22432   1.154   1.734   5.764
 7178SOL    HW122433   1.166   1.833   5.762
 7178SOL    HW222434   1.102   1.705   5.683
 7179SOL     OW22435   2.164   3.894   4.560
 7179SOL    HW122436   2.186   3.811   4.611
 7179SOL    HW222437   2.215   3.971   4.598
 7180SOL     OW22438   2.193   5.450   0.243
 7180SOL    HW122439   2.237   5.368   0.281
 7180SOL    HW222440   2.263   5.512   0.208
 7181SOL     OW22441   2.217   6.903   0.549
 7181SOL    HW122442   2.231   6.969   0.475
 7181SOL    HW222443   2.303   6.890   0.599
 7182SOL     OW22444   0.158   2.819   4.703
 7182SOL    HW122445   0.234   2.769   4.745
 7182SOL    HW222446   0.097   2.755   4.657
 7183SOL     OW22447   2.040   5.910   0.934
 7183SOL    HW122448   2.116   5.845   0.931
 7183SOL    HW222449   2.069   5.994   0.980
 7184SOL     OW22450   6.779   1.188   3.722
 7184SOL    HW122451   6.696   1.208   3.671
 7184SOL    HW222452   6.848   1.257   3.702
 7185SOL     OW22453   5.680   0.370   4.782
 7185SOL    HW122454   5.732   0.317   4.849
 7185SOL    HW222455   5.743   0.420   4.723
 7186SOL     OW22456   6.633   1.918   1.059
 7186SOL    HW122457   6.550   1.899   1.006
 7186SOL    HW222458   6.691   1.837   1.060
 7187SOL     OW22459   4.150   4.514   6.692
 7187SOL    HW122460   4.126   4.423   6.660
 7187SOL    HW222461   4.176   4.571   6.614
 7188SOL     OW22462   6.012   0.865   0.259
 7188SOL    HW122463   6.044   0.771   0.259
 7188SOL    HW222464   5.927   0.872   0.310
 7189SOL     OW22465   6.928   1.048   5.553
 7189SOL    HW122466   6.941   1.040   5.652
 7189SOL    HW222467   6.904   0.959   5.515
 7190SOL     OW22468   0.458   3.552   2.281
 7190SOL    HW122469   0.382   3.604   2.320
 7190SOL    HW222470   0.423   3.484   2.217
 7191SOL     OW22471   1.321   5.163   2.642
 7191SOL    HW122472   1.226   5.181   2.618
 7191SOL    HW222473   1.332   5.066   2.664
 7192SOL     OW22474   2.768   4.183   5.590
 7192SOL    HW122475   2.669   4.176   5.608
 7192SOL    HW222476   2.818   4.159   5.673
 7193SOL     OW22477   0.739   2.944   2.318
 7193SOL    HW122478   0.776   2.851   2.327
 7193SOL    HW222479   0.680   2.965   2.396
 7194SOL     OW22480   2.854   2.549   0.467
 7194SOL    HW122481   2.895   2.591   0.548
 7194SOL    HW222482   2.785   2.483   0.495
 7195SOL     OW22483   0.557   3.577   6.611
 7195SOL    HW122484   0.652   3.583   6.643
 7195SOL    HW222485   0.546   3.495   6.555
 7196SOL     OW22486   2.802   3.795   1.502
 7196SOL    HW122487   2.811   3.695   1.508
 7196SOL    HW222488   2.801   3.822   1.406
 7197SOL     OW22489   0.449   2.250   6.281
 7197SOL    HW122490   0.407   2.339   6.265
 7197SOL    HW222491   0.518   2.233   6.212
 7198SOL     OW22492   6.766   0.567   0.810
 7198SOL    HW122493   6.861   0.576   0.783
 7198SOL    HW222494   6.759   0.570   0.910
 7199SOL     OW22495   1.845   0.938   2.184
 7199SOL    HW122496   1.759   0.888   2.194
 7199SOL    HW222497   1.838   1.026   2.231
 7200SOL     OW22498   2.418   2.413   6.657
 7200SOL    HW122499   2.327   2.426   6.697
 7200SOL    HW222500   2.488   2.439   6.724
 7201SOL     OW22501   0.963   5.179   4.316
 7201SOL    HW122502   0.901   5.231   4.375
 7201SOL    HW222503   1.057   5.208   4.332
 7202SOL     OW22504   5.275   6.940   6.973
 7202SOL    HW122505   5.362   6.981   7.001
 7202SOL    HW222506   5.234   6.891   0.030
 7203SOL     OW22507   0.425   2.032   0.781
 7203SOL    HW122508   0.353   2.048   0.714
 7203SOL    HW222509   0.392   2.056   0.873
 7204SOL     OW22510   0.330   6.853   5.598
 7204SOL    HW122511   0.420   6.868   5.557
 7204SOL    HW222512   0.298   6.937   5.642
 7205SOL     OW22513   0.967   4.080   3.771
 7205SOL    HW122514   1.007   4.163   3.734
 7205SOL    HW222515   0.921   4.030   3.698
 7206SOL     OW22516   1.442   0.602   1.492
 7206SOL    HW122517   1.372   0.564   1.553
 7206SOL    HW222518   1.515   0.535   1.479
 7207SOL     OW22519   3.489   0.760   2.542
 7207SOL    HW122520   3.513   0.847   2.499
 7207SOL    HW222521   3.391   0.759   2.563
 7208SOL     OW22522   3.527   0.072   3.108
 7208SOL    HW122523   3.554   0.027   3.022
 7208SOL    HW222524   3.556   0.015   3.185
 7209SOL     OW22525   2.815   3.488   1.465
 7209SOL    HW122526   2.750   3.481   1.389
 7209SOL    HW222527   2.796   3.415   1.530
 7210SOL     OW22528   4.437   1.394   3.849
 7210SOL    HW122529   4.466   1.361   3.760
 7210SOL    HW222530   4.450   1.493   3.854
 7211SOL     OW22531   2.989   6.464   4.810
 7211SOL    HW122532   2.938   6.386   4.774
 7211SOL    HW222533   2.971   6.545   4.754
 7212SOL     OW22534   0.422   5.904   4.478
 7212SOL    HW122535   0.505   5.884   4.529
 7212SOL    HW222536   0.347   5.846   4.511
 7213SOL     OW22537   5.418   6.235   0.315
 7213SOL    HW122538   5.420   6.160   0.248
 7213SOL    HW222539   5.366   6.312   0.278
 7214SOL     OW22540   6.345   5.972   5.586
 7214SOL    HW122541   6.407   6.050   5.576
 7214SOL    HW222542   6.301   5.954   5.498
 7215SOL     OW22543   0.103   3.779   4.570
 7215SOL    HW122544   0.142   3.706   4.626
 7215SOL    HW222545   0.133   3.766   4.475
 7216SOL     OW22546   3.102   0.024   0.019
 7216SOL    HW122547   3.140   6.973   0.077
 7216SOL    HW222548   3.027   0.070   0.066
 7217SOL     OW22549   1.916   4.022   3.215
 7217SOL    HW122550   1.980   3.947   3.230
 7217SOL    HW222551   1.910   4.041   3.117
 7218SOL     OW22552   5.683   3.099   5.690
 7218SOL    HW122553   5.645   3.026   5.632
 7218SOL    HW222554   5.724   3.058   5.771
 7219SOL     OW22555   4.544   0.103   3.239
 7219SOL    HW122556   4.542   0.075   3.334
 7219SOL    HW222557   4.504   0.032   3.182
 7220SOL     OW22558   1.237   4.866   4.976
 7220SOL    HW122559   1.141   4.838   4.972
 7220SOL    HW222560   1.287   4.806   5.038
 7221SOL     OW22561   3.435   6.099   4.725
 7221SOL    HW122562   3.414   6.001   4.719
 7221SOL    HW222563   3.533   6.113   4.714
 7222SOL     OW22564   5.767   7.011   2.774
 7222SOL    HW122565   5.862   7.004   2.806
 7222SOL    HW222566   5.712   6.940   2.818
 7223SOL     OW22567   3.038   1.159   0.860
 7223SOL    HW122568   3.095   1.225   0.909
 7223SOL    HW222569   2.974   1.117   0.925
 7224SOL     OW22570   5.493   1.533   4.160
 7224SOL    HW122571   5.544   1.569   4.082
 7224SOL    HW222572   5.400   1.511   4.132
 7225SOL     OW22573   1.270   4.938   0.725
 7225SOL    HW122574   1.211   5.015   0.699
 7225SOL    HW222575   1.345   4.972   0.783
 7226SOL     OW22576   6.604   1.472   1.445
 7226SOL    HW122577   6.569   1.563   1.420
 7226SOL    HW222578   6.588   1.455   1.542
 7227SOL     OW22579   1.445   1.858   0.841
 7227SOL    HW122580   1.532   1.896   0.809
 7227SOL    HW222581   1.439   1.868   0.940
 7228SOL     OW22582   1.324   1.835   2.825
 7228SOL    HW122583   1.268   1.848   2.907
 7228SOL    HW222584   1.282   1.883   2.748
 7229SOL     OW22585   1.430   6.265   5.924
 7229SOL    HW122586   1.405   6.169   5.911
 7229SOL    HW222587   1.354   6.314   5.967
 7230SOL     OW22588   3.556   5.273   4.737
 7230SOL    HW122589   3.479   5.210   4.726
 7230SOL    HW222590   3.528   5.365   4.709
 7231SOL     OW22591   4.028   0.868   6.814
 7231SOL    HW122592   3.990   0.857   6.905
 7231SOL    HW222593   3.964   0.918   6.756
 7232SOL     OW22594   5.265   6.001   3.441
 7232SOL    HW122595   5.215   5.989   3.355
 7232SOL    HW222596   5.329   5.925   3.452
 7233SOL     OW22597   0.948   1.657   4.181
 7233SOL    HW122598   0.986   1.664   4.274
 7233SOL    HW222599   0.872   1.721   4.172
 7234SOL     OW22600   5.378   3.282   3.923
 7234SOL    HW122601   5.328   3.202   3.891
 7234SOL    HW222602   5.470   3.282   3.884
 7235SOL     OW22603   6.923   4.542   2.243
 7235SOL    HW122604   7.016   4.556   2.210
 7235SOL    HW222605   6.880   4.466   2.194
 7236SOL     OW22606   1.875   1.545   1.333
 7236SOL    HW122607   1.846   1.524   1.426
 7236SOL    HW222608   1.901   1.641   1.327
 7237SOL     OW22609   4.450   0.819   5.238
 7237SOL    HW122610   4.508   0.774   5.306
 7237SOL    HW222611   4.506   0.850   5.161
 7238SOL     OW22612   3.551   1.998   1.025
 7238SOL    HW122613   3.459   2.028   1.047
 7238SOL    HW222614   3.617   2.069   1.049
 7239SOL     OW22615   1.291   2.470   2.779
 7239SOL    HW122616   1.204   2.491   2.824
 7239SOL    HW222617   1.365   2.518   2.825
 7240SOL     OW22618   1.635   6.392   6.054
 7240SOL    HW122619   1.707   6.391   5.985
 7240SOL    HW222620   1.559   6.333   6.025
 7241SOL     OW22621   1.870   0.870   0.681
 7241SOL    HW122622   1.912   0.885   0.591
 7241SOL    HW222623   1.826   0.781   0.684
 7242SOL     OW22624   6.655   6.096   0.381
 7242SOL    HW122625   6.717   6.167   0.346
 7242SOL    HW222626   6.615   6.047   0.304
 7243SOL     OW22627   6.610   4.546   5.837
 7243SOL    HW122628   6.687   4.544   5.901
 7243SOL    HW222629   6.531   4.502   5.879
 7244SOL     OW22630   5.852   1.463   1.783
 7244SOL    HW122631   5.816   1.373   1.757
 7244SOL    HW222632   5.929   1.450   1.846
 7245SOL     OW22633   1.199   1.836   4.640
 7245SOL    HW122634   1.203   1.771   4.564
 7245SOL    HW222635   1.252   1.918   4.617
 7246SOL     OW22636   6.630   0.172   4.388
 7246SOL    HW122637   6.651   0.134   4.478
 7246SOL    HW222638   6.628   0.099   4.320
 7247SOL     OW22639   2.436   0.765   4.418
 7247SOL    HW122640   2.407   0.784   4.325
 7247SOL    HW222641   2.384   0.822   4.482
 7248SOL     OW22642   2.315   1.639   3.542
 7248SOL    HW122643   2.348   1.570   3.607
 7248SOL    HW222644   2.359   1.726   3.561
 7249SOL     OW22645   6.594   4.882   2.585
 7249SOL    HW122646   6.647   4.824   2.647
 7249SOL    HW222647   6.539   4.825   2.524
 7250SOL     OW22648   4.833   6.808   6.374
 7250SOL    HW122649   4.915   6.853   6.411
 7250SOL    HW222650   4.752   6.859   6.404
 7251SOL     OW22651   0.543   6.687   5.964
 7251SOL    HW122652   0.598   6.646   5.892
 7251SOL    HW222653   0.457   6.722   5.925
 7252SOL     OW22654   3.566   3.538   2.951
 7252SOL    HW122655   3.580   3.634   2.975
 7252SOL    HW222656   3.654   3.492   2.945
 7253SOL     OW22657   2.157   6.414   6.469
 7253SOL    HW122658   2.248   6.372   6.469
 7253SOL    HW222659   2.161   6.502   6.422
 7254SOL     OW22660   4.470   5.223   3.978
 7254SOL    HW122661   4.555   5.238   4.029
 7254SOL    HW222662   4.485   5.238   3.881
 7255SOL     OW22663   3.376   3.353   0.506
 7255SOL    HW122664   3.447   3.386   0.568
 7255SOL    HW222665   3.298   3.416   0.509
 7256SOL     OW22666   3.774   4.923   4.413
 7256SOL    HW122667   3.688   4.958   4.450
 7256SOL    HW222668   3.848   4.939   4.478
 7257SOL     OW22669   5.696   3.172   3.556
 7257SOL    HW122670   5.655   3.260   3.580
 7257SOL    HW222671   5.796   3.181   3.558
 7258SOL     OW22672   4.110   1.709   3.469
 7258SOL    HW122673   4.029   1.664   3.506
 7258SOL    HW222674   4.126   1.795   3.517
 7259SOL     OW22675   2.651   3.436   1.260
 7259SOL    HW122676   2.606   3.347   1.260
 7259SOL    HW222677   2.667   3.465   1.165
 7260SOL     OW22678   3.456   1.849   2.033
 7260SOL    HW122679   3.369   1.799   2.031
 7260SOL    HW222680   3.491   1.859   1.940
 7261SOL     OW22681   1.574   2.290   1.132
 7261SOL    HW122682   1.536   2.368   1.181
 7261SOL    HW222683   1.574   2.210   1.192
 7262SOL     OW22684   5.267   1.757   5.609
 7262SOL    HW122685   5.297   1.677   5.558
 7262SOL    HW222686   5.168   1.767   5.601
 7263SOL     OW22687   1.182   6.973   0.686
 7263SOL    HW122688   1.147   7.011   0.601
 7263SOL    HW222689   1.114   6.913   0.727
 7264SOL     OW22690   5.792   1.434   6.415
 7264SOL    HW122691   5.712   1.487   6.441
 7264SOL    HW222692   5.779   1.396   6.323
 7265SOL     OW22693   5.864   5.101   5.790
 7265SOL    HW122694   5.910   5.018   5.757
 7265SOL    HW222695   5.933   5.164   5.827
 7266SOL     OW22696   5.704   0.090   1.386
 7266SOL    HW122697   5.683   7.014   1.370
 7266SOL    HW222698   5.759   0.125   1.311
 7267SOL     OW22699   6.539   5.832   5.215
 7267SOL    HW122700   6.524   5.869   5.124
 7267SOL    HW222701   6.457   5.783   5.246
 7268SOL     OW22702   5.109   5.296   3.677
 7268SOL    HW122703   5.073   5.223   3.620
 7268SOL    HW222704   5.035   5.337   3.731
 7269SOL     OW22705   0.078   6.445   0.589
 7269SOL    HW122706   0.014   6.373   0.563
 7269SOL    HW222707   0.142   6.461   0.514
 7270SOL     OW22708   1.325   3.461   5.408
 7270SOL    HW122709   1.323   3.487   5.311
 7270SOL    HW222710   1.374   3.375   5.419
 7271SOL     OW22711   0.189   6.140   3.268
 7271SOL    HW122712   0.285   6.163   3.285
 7271SOL    HW222713   0.161   6.176   3.179
 7272SOL     OW22714   5.484   5.289   2.354
 7272SOL    HW122715   5.445   5.221   2.417
 7272SOL    HW222716   5.422   5.301   2.277
 7273SOL     OW22717   5.566   4.291   1.978
 7273SOL    HW122718   5.521   4.232   1.910
 7273SOL    HW222719   5.644   4.242   2.017
 7274SOL     OW22720   0.863   5.634   6.996
 7274SOL    HW122721   0.902   5.623   6.904
 7274SOL    HW222722   0.865   5.730   0.001
 7275SOL     OW22723   6.384   0.287   2.488
 7275SOL    HW122724   6.474   0.245   2.470
 7275SOL    HW222725   6.368   0.288   2.587
 7276SOL     OW22726   3.832   1.662   3.070
 7276SOL    HW122727   3.763   1.611   3.120
 7276SOL    HW222728   3.796   1.690   2.981
 7277SOL     OW22729   4.747   0.594   3.927
 7277SOL    HW122730   4.648   0.606   3.931
 7277SOL    HW222731   4.769   0.509   3.880
 7278SOL     OW22732   3.186   2.648   1.459
 7278SOL    HW122733   3.263   2.607   1.508
 7278SOL    HW222734   3.158   2.589   1.385
 7279SOL     OW22735   4.070   3.631   5.813
 7279SOL    HW122736   4.104   3.538   5.826
 7279SOL    HW222737   4.041   3.667   5.902
 7280SOL     OW22738   0.425   1.582   4.156
 7280SOL    HW122739   0.329   1.599   4.137
 7280SOL    HW222740   0.467   1.537   4.077
 7281SOL     OW22741   1.629   0.822   0.402
 7281SOL    HW122742   1.619   0.810   0.501
 7281SOL    HW222743   1.540   0.843   0.362
 7282SOL     OW22744   5.882   6.504   1.396
 7282SOL    HW122745   5.805   6.485   1.335
 7282SOL    HW222746   5.963   6.454   1.365
 7283SOL     OW22747   3.579   0.793   1.983
 7283SOL    HW122748   3.676   0.777   2.005
 7283SOL    HW222749   3.567   0.795   1.884
 7284SOL     OW22750   6.901   2.078   5.168
 7284SOL    HW122751   6.930   1.983   5.181
 7284SOL    HW222752   6.882   2.119   5.257
 7285SOL     OW22753   5.519   3.319   1.738
 7285SOL    HW122754   5.597   3.262   1.712
 7285SOL    HW222755   5.460   3.334   1.658
 7286SOL     OW22756   0.921   0.817   0.917
 7286SOL    HW122757   0.932   0.912   0.886
 7286SOL    HW222758   1.000   0.792   0.973
 7287SOL     OW22759   6.263   2.755   4.822
 7287SOL    HW122760   6.175   2.716   4.848
 7287SOL    HW222761   6.299   2.809   4.899
 7288SOL     OW22762   1.639   1.750   1.463
 7288SOL    HW122763   1.720   1.782   1.414
 7288SOL    HW222764   1.559   1.759   1.403
 7289SOL     OW22765   5.663   2.254   3.769
 7289SOL    HW122766   5.618   2.253   3.858
 7289SOL    HW222767   5.743   2.313   3.773
 7290SOL     OW22768   2.269   1.148   5.281
 7290SOL    HW122769   2.315   1.225   5.238
 7290SOL    HW222770   2.201   1.110   5.218
 7291SOL     OW22771   1.788   0.050   0.549
 7291SOL    HW122772   1.698   0.052   0.594
 7291SOL    HW222773   1.850   7.014   0.604
 7292SOL     OW22774   3.077   0.650   2.988
 7292SOL    HW122775   3.176   0.636   2.984
 7292SOL    HW222776   3.057   0.748   2.989
 7293SOL     OW22777   0.954   1.624   5.580
 7293SOL    HW122778   1.010   1.550   5.543
 7293SOL    HW222779   0.873   1.586   5.625
 7294SOL     OW22780   3.098   4.705   0.627
 7294SOL    HW122781   3.160   4.670   0.557
 7294SOL    HW222782   3.094   4.642   0.704
 7295SOL     OW22783   6.624   4.124   0.688
 7295SOL    HW122784   6.662   4.110   0.596
 7295SOL    HW222785   6.558   4.199   0.685
 7296SOL     OW22786   4.372   5.446   1.452
 7296SOL    HW122787   4.324   5.534   1.446
 7296SOL    HW222788   4.306   5.374   1.472
 7297SOL     OW22789   3.155   6.520   1.343
 7297SOL    HW122790   3.098   6.601   1.359
 7297SOL    HW222791   3.249   6.548   1.325
 7298SOL     OW22792   4.757   5.074   5.969
 7298SOL    HW122793   4.660   5.084   5.993
 7298SOL    HW222794   4.800   5.011   6.034
 7299SOL     OW22795   1.165   2.308   0.677
 7299SOL    HW122796   1.239   2.362   0.637
 7299SOL    HW222797   1.197   2.215   0.693
 7300SOL     OW22798   0.778   0.119   2.489
 7300SOL    HW122799   0.747   0.071   2.571
 7300SOL    HW222800   0.715   0.100   2.413
 7301SOL     OW22801   5.499   2.691   5.279
 7301SOL    HW122802   5.535   2.782   5.256
 7301SOL    HW222803   5.419   2.701   5.338
 7302SOL     OW22804   0.139   2.282   6.244
 7302SOL    HW122805   0.161   2.332   6.327
 7302SOL    HW222806   0.164   2.337   6.164
 7303SOL     OW22807   3.739   1.229   6.589
 7303SOL    HW122808   3.716   1.239   6.492
 7303SOL    HW222809   3.725   1.134   6.617
 7304SOL     OW22810   2.926   5.255   1.542
 7304SOL    HW122811   2.851   5.285   1.600
 7304SOL    HW222812   2.988   5.197   1.595
 7305SOL     OW22813   5.109   1.938   1.354
 7305SOL    HW122814   5.192   1.884   1.361
 7305SOL    HW222815   5.107   2.007   1.426
 7306SOL     OW22816   3.828   1.868   1.665
 7306SOL    HW122817   3.877   1.847   1.581
 7306SOL    HW222818   3.794   1.963   1.661
 7307SOL     OW22819   3.335   6.318   2.599
 7307SOL    HW122820   3.356   6.247   2.666
 7307SOL    HW222821   3.321   6.276   2.509
 7308SOL     OW22822   6.587   1.721   4.277
 7308SOL    HW122823   6.505   1.723   4.334
 7308SOL    HW222824   6.667   1.709   4.336
 7309SOL     OW22825   4.030   5.756   1.425
 7309SOL    HW122826   4.096   5.781   1.353
 7309SOL    HW222827   4.076   5.758   1.514
 7310SOL     OW22828   2.157   3.319   0.469
 7310SOL    HW122829   2.077   3.368   0.502
 7310SOL    HW222830   2.151   3.223   0.496
 7311SOL     OW22831   1.540   1.281   0.924
 7311SOL    HW122832   1.535   1.316   0.830
 7311SOL    HW222833   1.625   1.312   0.967
 7312SOL     OW22834   1.127   2.817   4.502
 7312SOL    HW122835   1.099   2.787   4.411
 7312SOL    HW222836   1.225   2.833   4.503
 7313SOL     OW22837   1.984   1.458   0.206
 7313SOL    HW122838   2.036   1.385   0.162
 7313SOL    HW222839   2.023   1.477   0.297
 7314SOL     OW22840   6.941   4.049   6.070
 7314SOL    HW122841   6.945   4.104   5.987
 7314SOL    HW222842   6.908   4.104   6.146
 7315SOL     OW22843   5.290   5.892   1.483
 7315SOL    HW122844   5.354   5.967   1.467
 7315SOL    HW222845   5.284   5.835   1.401
 7316SOL     OW22846   3.059   3.167   6.462
 7316SOL    HW122847   3.035   3.126   6.550
 7316SOL    HW222848   3.016   3.114   6.389
 7317SOL     OW22849   3.855   1.575   1.612
 7317SOL    HW122850   3.881   1.611   1.702
 7317SOL    HW222851   3.757   1.556   1.610
 7318SOL     OW22852   3.097   0.147   2.166
 7318SOL    HW122853   3.118   0.099   2.251
 7318SOL    HW222854   3.031   0.094   2.113
 7319SOL     OW22855   5.851   3.160   6.814
 7319SOL    HW122856   5.829   3.187   6.908
 7319SOL    HW222857   5.770   3.121   6.770
 7320SOL     OW22858   0.331   3.977   1.161
 7320SOL    HW122859   0.402   3.906   1.161
 7320SOL    HW222860   0.266   3.960   1.235
 7321SOL     OW22861   2.149   6.671   5.528
 7321SOL    HW122862   2.160   6.765   5.560
 7321SOL    HW222863   2.107   6.616   5.601
 7322SOL     OW22864   0.077   2.873   2.759
 7322SOL    HW122865   0.112   2.801   2.819
 7322SOL    HW222866   0.105   2.962   2.795
 7323SOL     OW22867   2.132   2.736   1.487
 7323SOL    HW122868   2.203   2.709   1.421
 7323SOL    HW222869   2.089   2.821   1.457
 7324SOL     OW22870   5.514   4.568   1.937
 7324SOL    HW122871   5.441   4.573   1.869
 7324SOL    HW222872   5.532   4.472   1.959
 7325SOL     OW22873   3.210   0.531   5.899
 7325SOL    HW122874   3.309   0.531   5.884
 7325SOL    HW222875   3.165   0.478   5.826
 7326SOL     OW22876   3.787   6.237   5.812
 7326SOL    HW122877   3.827   6.263   5.724
 7326SOL    HW222878   3.835   6.285   5.886
 7327SOL     OW22879   5.899   2.946   4.763
 7327SOL    HW122880   5.827   3.011   4.786
 7327SOL    HW222881   5.947   2.919   4.847
 7328SOL     OW22882   4.751   6.684   5.875
 7328SOL    HW122883   4.692   6.679   5.795
 7328SOL    HW222884   4.727   6.609   5.938
 7329SOL     OW22885   0.961   4.098   0.664
 7329SOL    HW122886   0.958   4.065   0.569
 7329SOL    HW222887   0.870   4.088   0.705
 7330SOL     OW22888   2.318   3.388   0.273
 7330SOL    HW122889   2.379   3.308   0.270
 7330SOL    HW222890   2.250   3.375   0.346
 7331SOL     OW22891   5.432   6.454   1.195
 7331SOL    HW122892   5.382   6.480   1.277
 7331SOL    HW222893   5.409   6.517   1.120
 7332SOL     OW22894   3.331   4.663   0.028
 7332SOL    HW122895   3.393   4.607   0.083
 7332SOL    HW222896   3.340   4.758   0.055
 7333SOL     OW22897   5.950   2.730   3.496
 7333SOL    HW122898   5.941   2.630   3.494
 7333SOL    HW222899   5.922   2.767   3.407
 7334SOL     OW22900   1.786   6.306   6.299
 7334SOL    HW122901   1.818   6.357   6.379
 7334SOL    HW222902   1.723   6.363   6.247
 7335SOL     OW22903   0.406   3.037   2.701
 7335SOL    HW122904   0.472   3.107   2.674
 7335SOL    HW222905   0.316   3.080   2.714
 7336SOL     OW22906   2.352   6.505   2.361
 7336SOL    HW122907   2.318   6.540   2.449
 7336SOL    HW222908   2.384   6.581   2.305
 7337SOL     OW22909   1.592   2.668   1.832
 7337SOL    HW122910   1.645   2.665   1.747
 7337SOL    HW222911   1.642   2.619   1.904
 7338SOL     OW22912   5.799   2.044   1.918
 7338SOL    HW122913   5.751   2.109   1.860
 7338SOL    HW222914   5.780   2.063   2.014
 7339SOL     OW22915   6.188   0.208   4.796
 7339SOL    HW122916   6.153   0.301   4.808
 7339SOL    HW222917   6.132   0.144   4.848
 7340SOL     OW22918   3.662   1.366   0.206
 7340SOL    HW122919   3.758   1.348   0.186
 7340SOL    HW222920   3.646   1.352   0.304
 7341SOL     OW22921   0.974   4.702   4.667
 7341SOL    HW122922   0.889   4.662   4.634
 7341SOL    HW222923   1.010   4.648   4.743
 7342SOL     OW22924   0.043   6.593   6.772
 7342SOL    HW122925   0.013   6.514   6.826
 7342SOL    HW222926   6.984   6.635   6.728
 7343SOL     OW22927   5.562   4.588   1.454
 7343SOL    HW122928   5.629   4.532   1.502
 7343SOL    HW222929   5.608   4.644   1.385
 7344SOL     OW22930   1.408   0.450   5.583
 7344SOL    HW122931   1.488   0.391   5.588
 7344SOL    HW222932   1.431   0.541   5.616
 7345SOL     OW22933   4.768   5.792   5.417
 7345SOL    HW122934   4.859   5.789   5.459
 7345SOL    HW222935   4.773   5.840   5.330
 7346SOL     OW22936   4.084   3.871   1.442
 7346SOL    HW122937   3.987   3.893   1.455
 7346SOL    HW222938   4.140   3.948   1.473
 7347SOL     OW22939   0.731   3.443   0.746
 7347SOL    HW122940   0.746   3.383   0.667
 7347SOL    HW222941   0.659   3.406   0.804
 7348SOL     OW22942   1.184   3.359   3.530
 7348SOL    HW122943   1.259   3.311   3.576
 7348SOL    HW222944   1.154   3.436   3.586
 7349SOL     OW22945   4.553   2.214   0.722
 7349SOL    HW122946   4.606   2.231   0.639
 7349SOL    HW222947   4.552   2.116   0.741
 7350SOL     OW22948   1.654   3.273   5.344
 7350SOL    HW122949   1.717   3.201   5.374
 7350SOL    HW222950   1.622   3.252   5.252
 7351SOL     OW22951   4.791   5.943   5.183
 7351SOL    HW122952   4.763   6.029   5.139
 7351SOL    HW222953   4.874   5.909   5.140
 7352SOL     OW22954   1.802   3.007   2.827
 7352SOL    HW122955   1.851   3.004   2.740
 7352SOL    HW222956   1.704   3.017   2.809
 7353SOL     OW22957   0.165   6.680   5.744
 7353SOL    HW122958   0.238   6.737   5.706
 7353SOL    HW222959   0.080   6.733   5.746
 7354SOL     OW22960   1.098   2.057   6.919
 7354SOL    HW122961   1.059   2.140   6.960
 7354SOL    HW222962   1.189   2.041   6.957
 7355SOL     OW22963   1.427   1.536   0.255
 7355SOL    HW122964   1.446   1.594   0.334
 7355SOL    HW222965   1.513   1.516   0.207
 7356SOL     OW22966   4.176   3.363   5.869
 7356SOL    HW122967   4.265   3.406   5.856
 7356SOL    HW222968   4.151   3.313   5.786
 7357SOL     OW22969   4.622   0.199   1.889
 7357SOL    HW122970   4.553   0.183   1.818
 7357SOL    HW222971   4.660   0.112   1.919
 7358SOL     OW22972   0.299   2.608   2.581
 7358SOL    HW122973   0.344   2.693   2.553
 7358SOL    HW222974   0.206   2.607   2.544
 7359SOL     OW22975   2.802   2.750   6.169
 7359SOL    HW122976   2.783   2.690   6.092
 7359SOL    HW222977   2.745   2.832   6.162
 7360SOL     OW22978   3.409   4.190   6.039
 7360SOL    HW122979   3.327   4.135   6.029
 7360SOL    HW222980   3.387   4.287   6.027
 7361SOL     OW22981   4.304   0.173   2.051
 7361SOL    HW122982   4.350   0.168   2.139
 7361SOL    HW222983   4.297   0.082   2.011
 7362SOL     OW22984   1.075   5.255   4.620
 7362SOL    HW122985   1.116   5.271   4.530
 7362SOL    HW222986   0.981   5.288   4.619
 7363SOL     OW22987   4.090   1.426   1.151
 7363SOL    HW122988   4.158   1.423   1.077
 7363SOL    HW222989   4.006   1.469   1.118
 7364SOL     OW22990   4.668   0.527   1.146
 7364SOL    HW122991   4.707   0.544   1.237
 7364SOL    HW222992   4.726   0.570   1.077
 7365SOL     OW22993   1.622   0.446   1.997
 7365SOL    HW122994   1.563   0.508   1.944
 7365SOL    HW222995   1.706   0.429   1.946
 7366SOL     OW22996   2.145   5.974   6.809
 7366SOL    HW122997   2.156   5.928   6.897
 7366SOL    HW222998   2.052   6.009   6.801
 7367SOL     OW22999   4.677   3.653   1.528
 7367SOL    HW123000   4.621   3.668   1.609
 7367SOL    HW223001   4.685   3.555   1.509
 7368SOL     OW23002   3.810   2.971   3.483
 7368SOL    HW123003   3.756   2.933   3.557
 7368SOL    HW223004   3.867   3.046   3.517
 7369SOL     OW23005   4.276   2.814   6.827
 7369SOL    HW123006   4.278   2.886   6.896
 7369SOL    HW223007   4.188   2.817   6.778
 7370SOL     OW23008   3.235   0.936   4.811
 7370SOL    HW123009   3.263   1.029   4.835
 7370SOL    HW223010   3.301   0.871   4.850
 7371SOL     OW23011   1.941   5.915   3.678
 7371SOL    HW123012   1.913   6.004   3.642
 7371SOL    HW223013   2.040   5.913   3.687
 7372SOL     OW23014   3.760   1.417   5.690
 7372SOL    HW123015   3.755   1.334   5.634
 7372SOL    HW223016   3.853   1.428   5.724
 7373SOL     OW23017   5.708   1.417   4.554
 7373SOL    HW123018   5.731   1.335   4.607
 7373SOL    HW223019   5.779   1.434   4.487
 7374SOL     OW23020   3.155   1.352   5.836
 7374SOL    HW123021   3.168   1.423   5.905
 7374SOL    HW223022   3.199   1.267   5.866
 7375SOL     OW23023   2.209   3.033   3.112
 7375SOL    HW123024   2.201   3.121   3.160
 7375SOL    HW223025   2.174   3.043   3.019
 7376SOL     OW23026   3.555   1.640   0.216
 7376SOL    HW123027   3.594   1.703   0.283
 7376SOL    HW223028   3.587   1.547   0.235
 7377SOL     OW23029   5.259   4.636   0.809
 7377SOL    HW123030   5.276   4.562   0.744
 7377SOL    HW223031   5.217   4.713   0.761
 7378SOL     OW23032   0.774   1.184   5.909
 7378SOL    HW123033   0.839   1.230   5.969
 7378SOL    HW223034   0.700   1.145   5.964
 7379SOL     OW23035   3.178   2.017   2.922
 7379SOL    HW123036   3.132   2.089   2.869
 7379SOL    HW223037   3.275   2.015   2.899
 7380SOL     OW23038   0.416   3.099   5.226
 7380SOL    HW123039   0.349   3.038   5.186
 7380SOL    HW223040   0.467   3.051   5.297
 7381SOL     OW23041   4.873   3.545   2.147
 7381SOL    HW123042   4.787   3.519   2.104
 7381SOL    HW223043   4.911   3.624   2.099
 7382SOL     OW23044   0.382   5.371   6.330
 7382SOL    HW123045   0.381   5.305   6.255
 7382SOL    HW223046   0.291   5.412   6.340
 7383SOL     OW23047   0.856   6.726   1.230
 7383SOL    HW123048   0.925   6.707   1.161
 7383SOL    HW223049   0.790   6.792   1.193
 7384SOL     OW23050   5.567   0.844   3.239
 7384SOL    HW123051   5.549   0.795   3.324
 7384SOL    HW223052   5.491   0.906   3.219
 7385SOL     OW23053   4.427   5.773   1.714
 7385SOL    HW123054   4.441   5.861   1.669
 7385SOL    HW223055   4.506   5.753   1.773
 7386SOL     OW23056   0.721   2.004   5.224
 7386SOL    HW123057   0.792   2.074   5.214
 7386SOL    HW223058   0.759   1.922   5.265
 7387SOL     OW23059   4.477   6.194   3.741
 7387SOL    HW123060   4.398   6.139   3.713
 7387SOL    HW223061   4.468   6.217   3.838
 7388SOL     OW23062   0.038   4.726   3.062
 7388SOL    HW123063   0.033   4.697   2.967
 7388SOL    HW223064   0.119   4.687   3.105
 7389SOL     OW23065   0.261   3.013   6.328
 7389SOL    HW123066   0.355   3.011   6.292
 7389SOL    HW223067   0.207   3.079   6.276
 7390SOL     OW23068   2.121   1.580   6.994
 7390SOL    HW123069   2.205   1.633   7.011
 7390SOL    HW223070   2.088   1.542   0.060
 7391SOL     OW23071   4.419   3.940   5.373
 7391SOL    HW123072   4.420   3.960   5.471
 7391SOL    HW223073   4.507   3.899   5.347
 7392SOL     OW23074   2.344   6.262   6.975
 7392SOL    HW123075   2.390   6.316   6.905
 7392SOL    HW223076   2.272   6.208   6.934
 7393SOL     OW23077   4.884   4.828   1.891
 7393SOL    HW123078   4.819   4.824   1.967
 7393SOL    HW223079   4.925   4.919   1.888
 7394SOL     OW23080   2.746   2.334   5.674
 7394SOL    HW123081   2.824   2.396   5.664
 7394SOL    HW223082   2.662   2.386   5.680
 7395SOL     OW23083   2.092   1.985   0.242
 7395SOL    HW123084   2.121   1.901   0.289
 7395SOL    HW223085   2.156   2.004   0.168
 7396SOL     OW23086   1.134   6.561   0.439
 7396SOL    HW123087   1.227   6.550   0.404
 7396SOL    HW223088   1.099   6.651   0.413
 7397SOL     OW23089   4.062   4.864   4.803
 7397SOL    HW123090   4.042   4.767   4.799
 7397SOL    HW223091   3.999   4.909   4.866
 7398SOL     OW23092   2.407   4.724   4.496
 7398SOL    HW123093   2.467   4.707   4.574
 7398SOL    HW223094   2.433   4.664   4.420
 7399SOL     OW23095   1.147   2.353   5.484
 7399SOL    HW123096   1.237   2.322   5.453
 7399SOL    HW223097   1.093   2.274   5.512
 7400SOL     OW23098   4.054   3.086   6.187
 7400SOL    HW123099   3.984   3.067   6.118
 7400SOL    HW223100   4.101   3.171   6.165
 7401SOL     OW23101   1.874   0.592   4.620
 7401SOL    HW123102   1.957   0.636   4.586
 7401SOL    HW223103   1.800   0.603   4.554
 7402SOL     OW23104   3.260   5.760   6.123
 7402SOL    HW123105   3.229   5.758   6.218
 7402SOL    HW223106   3.360   5.764   6.120
 7403SOL     OW23107   2.189   3.922   2.463
 7403SOL    HW123108   2.203   4.020   2.479
 7403SOL    HW223109   2.172   3.876   2.550
 7404SOL     OW23110   2.431   5.359   1.421
 7404SOL    HW123111   2.440   5.458   1.409
 7404SOL    HW223112   2.386   5.320   1.340
 7405SOL     OW23113   3.531   5.000   3.991
 7405SOL    HW123114   3.480   5.059   3.928
 7405SOL    HW223115   3.467   4.958   4.056
 7406SOL     OW23116   0.534   3.152   3.090
 7406SOL    HW123117   0.549   3.064   3.135
 7406SOL    HW223118   0.618   3.206   3.095
 7407SOL     OW23119   0.176   6.251   4.584
 7407SOL    HW123120   0.253   6.275   4.524
 7407SOL    HW223121   0.206   6.184   4.652
 7408SOL     OW23122   2.221   3.987   6.453
 7408SOL    HW123123   2.225   3.966   6.551
 7408SOL    HW223124   2.294   4.052   6.430
 7409SOL     OW23125   0.476   1.569   6.251
 7409SOL    HW123126   0.470   1.535   6.345
 7409SOL    HW223127   0.493   1.493   6.189
 7410SOL     OW23128   6.985   5.909   1.190
 7410SOL    HW123129   6.959   5.921   1.094
 7410SOL    HW223130   0.004   5.818   1.203
 7411SOL     OW23131   3.132   0.402   4.853
 7411SOL    HW123132   3.175   0.482   4.894
 7411SOL    HW223133   3.136   0.325   4.917
 7412SOL     OW23134   4.704   0.411   2.280
 7412SOL    HW123135   4.776   0.356   2.322
 7412SOL    HW223136   4.630   0.427   2.346
 7413SOL     OW23137   4.860   6.109   4.667
 7413SOL    HW123138   4.902   6.191   4.628
 7413SOL    HW223139   4.882   6.030   4.611
 7414SOL     OW23140   0.452   0.340   3.639
 7414SOL    HW123141   0.422   0.307   3.549
 7414SOL    HW223142   0.552   0.334   3.644
 7415SOL     OW23143   1.819   4.037   4.091
 7415SOL    HW123144   1.904   4.088   4.078
 7415SOL    HW223145   1.792   3.992   4.006
 7416SOL     OW23146   2.541   1.786   3.836
 7416SOL    HW123147   2.558   1.689   3.856
 7416SOL    HW223148   2.549   1.839   3.920
 7417SOL     OW23149   1.876   0.740   6.364
 7417SOL    HW123150   1.943   0.678   6.322
 7417SOL    HW223151   1.924   0.817   6.406
 7418SOL     OW23152   3.140   6.075   0.890
 7418SOL    HW123153   3.065   6.141   0.893
 7418SOL    HW223154   3.227   6.122   0.903
 7419SOL     OW23155   5.463   3.150   5.106
 7419SOL    HW123156   5.560   3.147   5.131
 7419SOL    HW223157   5.449   3.102   5.019
 7420SOL     OW23158   0.673   0.284   2.065
 7420SOL    HW123159   0.747   0.240   2.014
 7420SOL    HW223160   0.706   0.313   2.155
 7421SOL     OW23161   3.364   3.763   0.811
 7421SOL    HW123162   3.406   3.694   0.753
 7421SOL    HW223163   3.269   3.778   0.783
 7422SOL     OW23164   0.234   3.309   2.587
 7422SOL    HW123165   0.326   3.274   2.568
 7422SOL    HW223166   0.238   3.371   2.665
 7423SOL     OW23167   6.382   4.618   5.631
 7423SOL    HW123168   6.427   4.674   5.701
 7423SOL    HW223169   6.294   4.585   5.666
 7424SOL     OW23170   0.017   0.042   5.634
 7424SOL    HW123171   7.014   0.139   5.623
 7424SOL    HW223172   7.001   7.011   5.556
 7425SOL     OW23173   4.457   5.646   6.770
 7425SOL    HW123174   4.404   5.607   6.694
 7425SOL    HW223175   4.403   5.642   6.854
 7426SOL     OW23176   2.296   0.988   5.999
 7426SOL    HW123177   2.239   1.033   5.931
 7426SOL    HW223178   2.265   0.893   6.012
 7427SOL     OW23179   3.360   0.020   4.215
 7427SOL    HW123180   3.385   0.098   4.158
 7427SOL    HW223181   3.261   0.005   4.209
 7428SOL     OW23182   4.254   1.192   6.014
 7428SOL    HW123183   4.272   1.291   6.008
 7428SOL    HW223184   4.234   1.167   6.108
 7429SOL     OW23185   6.645   6.782   3.512
 7429SOL    HW123186   6.649   6.853   3.442
 7429SOL    HW223187   6.550   6.755   3.526
 7430SOL     OW23188   0.814   3.264   6.587
 7430SOL    HW123189   0.717   3.248   6.570
 7430SOL    HW223190   0.858   3.178   6.610
 7431SOL     OW23191   0.823   3.004   2.796
 7431SOL    HW123192   0.809   2.979   2.891
 7431SOL    HW223193   0.831   3.103   2.788
 7432SOL     OW23194   0.375   0.833   3.267
 7432SOL    HW123195   0.303   0.817   3.334
 7432SOL    HW223196   0.369   0.927   3.234
 7433SOL     OW23197   5.022   5.257   6.036
 7433SOL    HW123198   4.945   5.199   6.064
 7433SOL    HW223199   5.010   5.283   5.940
 7434SOL     OW23200   5.455   6.860   5.710
 7434SOL    HW123201   5.444   6.903   5.799
 7434SOL    HW223202   5.509   6.776   5.721
 7435SOL     OW23203   3.759   5.806   0.633
 7435SOL    HW123204   3.835   5.868   0.613
 7435SOL    HW223205   3.692   5.811   0.559
 7436SOL     OW23206   5.551   3.635   6.954
 7436SOL    HW123207   5.457   3.632   6.989
 7436SOL    HW223208   5.589   3.543   6.952
 7437SOL     OW23209   1.013   6.293   0.407
 7437SOL    HW123210   0.948   6.255   0.472
 7437SOL    HW223211   0.993   6.390   0.392
 7438SOL     OW23212   0.906   5.210   0.354
 7438SOL    HW123213   0.822   5.156   0.354
 7438SOL    HW223214   0.895   5.290   0.295
 7439SOL     OW23215   1.630   5.772   5.054
 7439SOL    HW123216   1.554   5.769   5.119
 7439SOL    HW223217   1.652   5.679   5.025
 7440SOL     OW23218   6.850   3.665   4.634
 7440SOL    HW123219   6.813   3.638   4.545
 7440SOL    HW223220   6.947   3.689   4.624
 7441SOL     OW23221   5.418   6.596   3.996
 7441SOL    HW123222   5.386   6.630   3.908
 7441SOL    HW223223   5.401   6.498   4.002
 7442SOL     OW23224   0.107   0.827   5.914
 7442SOL    HW123225   0.155   0.827   6.002
 7442SOL    HW223226   0.098   0.733   5.881
 7443SOL     OW23227   0.181   0.622   2.500
 7443SOL    HW123228   0.226   0.607   2.589
 7443SOL    HW223229   0.186   0.719   2.477
 7444SOL     OW23230   6.089   2.957   5.434
 7444SOL    HW123231   6.128   2.895   5.501
 7444SOL    HW223232   6.076   3.047   5.475
 7445SOL     OW23233   3.961   1.088   1.145
 7445SOL    HW123234   3.978   0.989   1.147
 7445SOL    HW223235   4.026   1.134   1.205
 7446SOL     OW23236   5.677   3.740   1.134
 7446SOL    HW123237   5.719   3.690   1.209
 7446SOL    HW223238   5.743   3.804   1.094
 7447SOL     OW23239   0.378   3.520   6.015
 7447SOL    HW123240   0.445   3.486   6.081
 7447SOL    HW223241   0.300   3.560   6.064
 7448SOL     OW23242   6.429   6.749   5.839
 7448SOL    HW123243   6.368   6.710   5.908
 7448SOL    HW223244   6.456   6.677   5.774
 7449SOL     OW23245   6.189   3.556   1.479
 7449SOL    HW123246   6.177   3.603   1.566
 7449SOL    HW223247   6.139   3.604   1.408
 7450SOL     OW23248   5.269   1.946   4.607
 7450SOL    HW123249   5.222   1.872   4.654
 7450SOL    HW223250   5.251   1.941   4.509
 7451SOL     OW23251   0.321   0.023   3.179
 7451SOL    HW123252   0.258   0.101   3.181
 7451SOL    HW223253   0.404   0.049   3.130
 7452SOL     OW23254   0.905   6.277   4.737
 7452SOL    HW123255   0.927   6.255   4.832
 7452SOL    HW223256   0.815   6.321   4.732
 7453SOL     OW23257   4.868   6.501   5.563
 7453SOL    HW123258   4.900   6.565   5.494
 7453SOL    HW223259   4.929   6.502   5.642
 7454SOL     OW23260   0.477   2.434   2.424
 7454SOL    HW123261   0.430   2.522   2.422
 7454SOL    HW223262   0.550   2.436   2.493
 7455SOL     OW23263   6.705   1.628   2.573
 7455SOL    HW123264   6.799   1.614   2.542
 7455SOL    HW223265   6.693   1.587   2.663
 7456SOL     OW23266   0.739   1.853   4.205
 7456SOL    HW123267   0.687   1.933   4.173
 7456SOL    HW223268   0.703   1.824   4.294
 7457SOL     OW23269   3.874   6.997   6.054
 7457SOL    HW123270   3.923   7.013   6.140
 7457SOL    HW223271   3.884   6.902   6.026
 7458SOL     OW23272   2.054   6.872   6.007
 7458SOL    HW123273   2.046   6.795   5.943
 7458SOL    HW223274   2.148   6.906   6.007
 7459SOL     OW23275   5.074   0.783   1.789
 7459SOL    HW123276   4.984   0.743   1.772
 7459SOL    HW223277   5.105   0.758   1.881
 7460SOL     OW23278   2.089   5.421   1.203
 7460SOL    HW123279   2.098   5.398   1.300
 7460SOL    HW223280   2.070   5.518   1.194
 7461SOL     OW23281   6.495   1.425   5.786
 7461SOL    HW123282   6.418   1.362   5.776
 7461SOL    HW223283   6.463   1.511   5.826
 7462SOL     OW23284   1.881   4.152   2.457
 7462SOL    HW123285   1.804   4.174   2.397
 7462SOL    HW223286   1.893   4.053   2.461
 7463SOL     OW23287   2.794   4.764   0.881
 7463SOL    HW123288   2.870   4.829   0.884
 7463SOL    HW223289   2.825   4.678   0.840
 7464SOL     OW23290   5.096   0.136   6.606
 7464SOL    HW123291   5.114   0.037   6.603
 7464SOL    HW223292   4.998   0.151   6.617
 7465SOL     OW23293   1.116   5.412   0.193
 7465SOL    HW123294   1.208   5.384   0.221
 7465SOL    HW223295   1.090   5.495   0.243
 7466SOL     OW23296   0.540   0.304   5.769
 7466SOL    HW123297   0.637   0.310   5.793
 7466SOL    HW223298   0.512   0.208   5.768
 7467SOL     OW23299   0.082   2.023   0.832
 7467SOL    HW123300   7.019   1.973   0.806
 7467SOL    HW223301   0.099   2.009   0.929
 7468SOL     OW23302   5.819   2.464   4.026
 7468SOL    HW123303   5.892   2.433   4.087
 7468SOL    HW223304   5.831   2.425   3.935
 7469SOL     OW23305   0.262   1.088   0.679
 7469SOL    HW123306   0.212   1.021   0.733
 7469SOL    HW223307   0.245   1.180   0.715
 7470SOL     OW23308   6.841   3.230   3.673
 7470SOL    HW123309   6.845   3.289   3.593
 7470SOL    HW223310   6.896   3.148   3.658
 7471SOL     OW23311   6.870   5.650   5.925
 7471SOL    HW123312   6.822   5.589   5.988
 7471SOL    HW223313   6.944   5.697   5.974
 7472SOL     OW23314   6.085   6.995   4.571
 7472SOL    HW123315   6.150   0.045   4.599
 7472SOL    HW223316   6.038   0.004   4.488
 7473SOL     OW23317   6.459   4.907   3.111
 7473SOL    HW123318   6.467   4.905   3.011
 7473SOL    HW223319   6.529   4.968   3.149
 7474SOL     OW23320   1.827   1.323   5.361
 7474SOL    HW123321   1.796   1.345   5.269
 7474SOL    HW223322   1.869   1.232   5.362
 7475SOL     OW23323   4.387   2.023   2.097
 7475SOL    HW123324   4.293   1.997   2.074
 7475SOL    HW223325   4.438   2.039   2.013
 7476SOL     OW23326   3.092   6.112   3.412
 7476SOL    HW123327   3.015   6.174   3.394
 7476SOL    HW223328   3.062   6.017   3.404
 7477SOL     OW23329   0.054   0.679   5.234
 7477SOL    HW123330   6.976   0.659   5.240
 7477SOL    HW223331   0.070   0.743   5.159
 7478SOL     OW23332   4.902   5.659   6.512
 7478SOL    HW123333   4.925   5.564   6.535
 7478SOL    HW223334   4.904   5.671   6.413
 7479SOL     OW23335   4.165   2.694   1.717
 7479SOL    HW123336   4.107   2.765   1.756
 7479SOL    HW223337   4.255   2.733   1.695
 7480SOL     OW23338   0.317   4.152   2.021
 7480SOL    HW123339   0.282   4.152   1.927
 7480SOL    HW223340   0.242   4.176   2.083
 7481SOL     OW23341   6.046   5.269   1.149
 7481SOL    HW123342   6.021   5.173   1.162
 7481SOL    HW223343   6.089   5.304   1.232
 7482SOL     OW23344   4.000   2.192   3.216
 7482SOL    HW123345   3.941   2.251   3.161
 7482SOL    HW223346   3.989   2.097   3.187
 7483SOL     OW23347   4.856   3.270   4.564
 7483SOL    HW123348   4.827   3.254   4.658
 7483SOL    HW223349   4.842   3.366   4.540
 7484SOL     OW23350   1.372   1.229   3.246
 7484SOL    HW123351   1.304   1.283   3.296
 7484SOL    HW223352   1.337   1.207   3.155
 7485SOL     OW23353   3.475   0.583   5.282
 7485SOL    HW123354   3.543   0.633   5.229
 7485SOL    HW223355   3.416   0.531   5.220
 7486SOL     OW23356   2.208   0.322   0.189
 7486SOL    HW123357   2.214   0.308   0.288
 7486SOL    HW223358   2.297   0.350   0.154
 7487SOL     OW23359   2.401   6.439   2.679
 7487SOL    HW123360   2.321   6.496   2.660
 7487SOL    HW223361   2.391   6.394   2.768
 7488SOL     OW23362   2.175   6.900   3.879
 7488SOL    HW123363   2.137   6.812   3.849
 7488SOL    HW223364   2.229   6.940   3.805
 7489SOL     OW23365   5.258   2.609   4.596
 7489SOL    HW123366   5.198   2.553   4.538
 7489SOL    HW223367   5.335   2.642   4.541
 7490SOL     OW23368   1.261   0.670   2.027
 7490SOL    HW123369   1.225   0.588   2.072
 7490SOL    HW223370   1.361   0.663   2.021
 7491SOL     OW23371   6.015   2.695   5.910
 7491SOL    HW123372   5.963   2.739   5.983
 7491SOL    HW223373   6.013   2.752   5.828
 7492SOL     OW23374   1.707   0.901   3.270
 7492SOL    HW123375   1.649   0.910   3.189
 7492SOL    HW223376   1.651   0.914   3.352
 7493SOL     OW23377   0.181   3.587   6.947
 7493SOL    HW123378   0.134   3.615   6.864
 7493SOL    HW223379   0.275   3.559   6.924
 7494SOL     OW23380   4.891   0.877   2.752
 7494SOL    HW123381   4.906   0.843   2.659
 7494SOL    HW223382   4.799   0.853   2.782
 7495SOL     OW23383   1.563   1.236   0.013
 7495SOL    HW123384   1.633   1.305   0.033
 7495SOL    HW223385   1.475   1.282   7.020
 7496SOL     OW23386   6.382   3.632   6.146
 7496SOL    HW123387   6.389   3.694   6.224
 7496SOL    HW223388   6.458   3.566   6.149
 7497SOL     OW23389   2.222   4.158   0.200
 7497SOL    HW123390   2.156   4.160   0.275
 7497SOL    HW223391   2.175   4.176   0.114
 7498SOL     OW23392   2.781   0.877   5.845
 7498SOL    HW123393   2.856   0.941   5.860
 7498SOL    HW223394   2.750   0.883   5.750
 7499SOL     OW23395   3.470   2.112   3.153
 7499SOL    HW123396   3.386   2.113   3.208
 7499SOL    HW223397   3.448   2.087   3.059
 7500SOL     OW23398   2.955   5.523   3.549
 7500SOL    HW123399   3.035   5.535   3.491
 7500SOL    HW223400   2.983   5.507   3.644
 7501SOL     OW23401   5.528   4.233   4.524
 7501SOL    HW123402   5.514   4.173   4.603
 7501SOL    HW223403   5.440   4.265   4.490
 7502SOL     OW23404   1.642   0.191   3.611
 7502SOL    HW123405   1.614   0.287   3.615
 7502SOL    HW223406   1.617   0.146   3.696
 7503SOL     OW23407   3.269   1.311   0.930
 7503SOL    HW123408   3.258   1.309   0.830
 7503SOL    HW223409   3.291   1.404   0.958
 7504SOL     OW23410   1.169   0.101   3.045
 7504SOL    HW123411   1.179   0.158   3.127
 7504SOL    HW223412   1.184   0.157   2.963
 7505SOL     OW23413   1.685   1.362   5.592
 7505SOL    HW123414   1.741   1.365   5.509
 7505SOL    HW223415   1.612   1.430   5.585
 7506SOL     OW23416   5.581   0.572   3.142
 7506SOL    HW123417   5.588   0.663   3.183
 7506SOL    HW223418   5.545   0.579   3.049
 7507SOL     OW23419   0.868   0.762   2.174
 7507SOL    HW123420   0.774   0.794   2.180
 7507SOL    HW223421   0.914   0.775   2.262
 7508SOL     OW23422   0.906   6.601   1.687
 7508SOL    HW123423   0.934   6.692   1.658
 7508SOL    HW223424   0.983   6.538   1.678
 7509SOL     OW23425   5.017   4.367   0.582
 7509SOL    HW123426   4.961   4.400   0.658
 7509SOL    HW223427   4.958   4.337   0.507
 7510SOL     OW23428   3.735   4.134   5.482
 7510SOL    HW123429   3.665   4.134   5.553
 7510SOL    HW223430   3.692   4.112   5.394
 7511SOL     OW23431   2.745   6.978   3.964
 7511SOL    HW123432   2.738   6.963   4.063
 7511SOL    HW223433   2.691   0.038   3.938
 7512SOL     OW23434   2.766   6.488   6.398
 7512SOL    HW123435   2.808   6.532   6.478
 7512SOL    HW223436   2.807   6.525   6.315
 7513SOL     OW23437   2.335   0.445   1.618
 7513SOL    HW123438   2.390   0.512   1.669
 7513SOL    HW223439   2.299   0.377   1.681
 7514SOL     OW23440   2.313   6.011   1.510
 7514SOL    HW123441   2.366   5.928   1.530
 7514SOL    HW223442   2.357   6.061   1.436
 7515SOL     OW23443   6.915   4.897   2.775
 7515SOL    HW123444   7.009   4.912   2.805
 7515SOL    HW223445   6.853   4.957   2.827
 7516SOL     OW23446   6.596   6.407   5.450
 7516SOL    HW123447   6.594   6.326   5.508
 7516SOL    HW223448   6.586   6.489   5.507
 7517SOL     OW23449   0.353   3.007   0.800
 7517SOL    HW123450   0.443   2.967   0.783
 7517SOL    HW223451   0.359   3.074   0.875
 7518SOL     OW23452   4.329   5.083   3.636
 7518SOL    HW123453   4.302   4.989   3.658
 7518SOL    HW223454   4.423   5.098   3.668
 7519SOL     OW23455   0.053   6.745   3.681
 7519SOL    HW123456   0.118   6.805   3.728
 7519SOL    HW223457   0.057   6.654   3.721
 7520SOL     OW23458   2.604   0.189   2.537
 7520SOL    HW123459   2.569   0.105   2.579
 7520SOL    HW223460   2.535   0.261   2.544
 7521SOL     OW23461   5.018   4.137   6.261
 7521SOL    HW123462   5.070   4.094   6.187
 7521SOL    HW223463   4.921   4.123   6.246
 7522SOL     OW23464   2.122   0.581   6.338
 7522SOL    HW123465   2.222   0.585   6.332
 7522SOL    HW223466   2.089   0.497   6.296
 7523SOL     OW23467   5.811   0.100   5.423
 7523SOL    HW123468   5.807   0.147   5.511
 7523SOL    HW223469   5.725   0.113   5.374
 7524SOL     OW23470   1.629   1.749   5.407
 7524SOL    HW123471   1.604   1.706   5.494
 7524SOL    HW223472   1.701   1.817   5.424
 7525SOL     OW23473   3.447   0.581   6.262
 7525SOL    HW123474   3.351   0.586   6.289
 7525SOL    HW223475   3.453   0.582   6.162
 7526SOL     OW23476   2.819   3.403   1.938
 7526SOL    HW123477   2.916   3.382   1.950
 7526SOL    HW223478   2.808   3.499   1.913
 7527SOL     OW23479   3.352   6.207   3.327
 7527SOL    HW123480   3.255   6.183   3.333
 7527SOL    HW223481   3.402   6.164   3.402
 7528SOL     OW23482   5.204   1.840   0.046
 7528SOL    HW123483   5.284   1.869   7.014
 7528SOL    HW223484   5.216   1.746   0.078
 7529SOL     OW23485   4.757   0.918   4.543
 7529SOL    HW123486   4.844   0.947   4.581
 7529SOL    HW223487   4.753   0.941   4.446
 7530SOL     OW23488   0.646   3.482   2.965
 7530SOL    HW123489   0.680   3.576   2.973
 7530SOL    HW223490   0.657   3.451   2.871
 7531SOL     OW23491   5.345   3.353   4.404
 7531SOL    HW123492   5.319   3.337   4.499
 7531SOL    HW223493   5.263   3.364   4.348
 7532SOL     OW23494   5.546   4.983   0.089
 7532SOL    HW123495   5.540   5.068   0.038
 7532SOL    HW223496   5.603   4.918   0.040
 7533SOL     OW23497   2.587   1.808   1.840
 7533SOL    HW123498   2.527   1.844   1.768
 7533SOL    HW223499   2.679   1.844   1.828
 7534SOL     OW23500   4.291   5.967   5.337
 7534SOL    HW123501   4.223   6.017   5.391
 7534SOL    HW223502   4.245   5.916   5.264
 7535SOL     OW23503   1.935   6.984   5.088
 7535SOL    HW123504   1.913   0.044   5.032
 7535SOL    HW223505   1.862   6.916   5.080
 7536SOL     OW23506   4.639   4.335   4.906
 7536SOL    HW123507   4.595   4.368   4.990
 7536SOL    HW223508   4.605   4.388   4.828
 7537SOL     OW23509   3.092   6.038   2.510
 7537SOL    HW123510   3.009   6.035   2.567
 7537SOL    HW223511   3.090   5.965   2.443
 7538SOL     OW23512   2.449   2.943   1.586
 7538SOL    HW123513   2.402   2.939   1.498
 7538SOL    HW223514   2.391   2.992   1.652
 7539SOL     OW23515   0.842   3.363   4.946
 7539SOL    HW123516   0.753   3.377   4.991
 7539SOL    HW223517   0.871   3.269   4.958
 7540SOL     OW23518   4.304   0.260   4.824
 7540SOL    HW123519   4.401   0.238   4.837
 7540SOL    HW223520   4.248   0.185   4.859
 7541SOL     OW23521   0.529   3.951   5.318
 7541SOL    HW123522   0.480   4.035   5.343
 7541SOL    HW223523   0.611   3.975   5.267
 7542SOL     OW23524   1.003   4.987   6.565
 7542SOL    HW123525   0.967   5.017   6.477
 7542SOL    HW223526   1.043   5.064   6.614
 7543SOL     OW23527   3.587   2.349   6.777
 7543SOL    HW123528   3.655   2.302   6.721
 7543SOL    HW223529   3.623   2.362   6.870
 7544SOL     OW23530   0.246   2.673   2.974
 7544SOL    HW123531   0.272   2.608   2.903
 7544SOL    HW223532   0.309   2.750   2.974
 7545SOL     OW23533   6.591   5.662   0.742
 7545SOL    HW123534   6.549   5.687   0.655
 7545SOL    HW223535   6.676   5.612   0.726
 7546SOL     OW23536   3.227   2.039   1.978
 7546SOL    HW123537   3.233   1.956   2.035
 7546SOL    HW223538   3.304   2.040   1.914
 7547SOL     OW23539   5.622   1.071   0.707
 7547SOL    HW123540   5.685   1.104   0.778
 7547SOL    HW223541   5.539   1.037   0.750
 7548SOL     OW23542   3.910   1.428   0.108
 7548SOL    HW123543   3.914   1.447   0.010
 7548SOL    HW223544   3.942   1.508   0.159
 7549SOL     OW23545   4.821   2.535   0.618
 7549SOL    HW123546   4.770   2.608   0.664
 7549SOL    HW223547   4.821   2.453   0.676
 7550SOL     OW23548   2.716   4.892   2.479
 7550SOL    HW123549   2.646   4.950   2.437
 7550SOL    HW223550   2.773   4.948   2.539
 7551SOL     OW23551   5.284   3.724   6.807
 7551SOL    HW123552   5.256   3.677   6.891
 7551SOL    HW223553   5.293   3.822   6.825
 7552SOL     OW23554   1.423   5.928   2.945
 7552SOL    HW123555   1.362   5.930   2.866
 7552SOL    HW223556   1.369   5.925   3.029
 7553SOL     OW23557   4.416   6.104   5.941
 7553SOL    HW123558   4.485   6.155   5.992
 7553SOL    HW223559   4.458   6.063   5.860
 7554SOL     OW23560   4.523   1.073   0.375
 7554SOL    HW123561   4.469   1.025   0.306
 7554SOL    HW223562   4.568   1.152   0.333
 7555SOL     OW23563   2.353   4.765   5.965
 7555SOL    HW123564   2.366   4.667   5.948
 7555SOL    HW223565   2.426   4.816   5.920
 7556SOL     OW23566   1.607   2.857   0.052
 7556SOL    HW123567   1.707   2.854   0.050
 7556SOL    HW223568   1.572   2.781   0.106
 7557SOL     OW23569   4.945   1.561   5.567
 7557SOL    HW123570   4.931   1.500   5.490
 7557SOL    HW223571   4.904   1.521   5.649
 7558SOL     OW23572   1.140   2.910   3.928
 7558SOL    HW123573   1.145   2.810   3.931
 7558SOL    HW223574   1.052   2.938   3.891
 7559SOL     OW23575   5.169   4.431   6.758
 7559SOL    HW123576   5.132   4.345   6.724
 7559SOL    HW223577   5.160   4.502   6.687
 7560SOL     OW23578   4.898   6.905   1.138
 7560SOL    HW123579   4.819   6.867   1.090
 7560SOL    HW223580   4.889   7.005   1.143
 7561SOL     OW23581   1.140   3.354   6.600
 7561SOL    HW123582   1.125   3.453   6.607
 7561SOL    HW223583   1.110   3.310   6.685
 7562SOL     OW23584   6.932   6.450   4.043
 7562SOL    HW123585   6.838   6.474   4.019
 7562SOL    HW223586   6.934   6.360   4.086
 7563SOL     OW23587   3.119   0.196   1.176
 7563SOL    HW123588   3.216   0.207   1.158
 7563SOL    HW223589   3.099   0.215   1.272
 7564SOL     OW23590   4.787   0.594   3.266
 7564SOL    HW123591   4.782   0.608   3.167
 7564SOL    HW223592   4.746   0.506   3.289
 7565SOL     OW23593   5.326   3.433   1.122
 7565SOL    HW123594   5.255   3.404   1.186
 7565SOL    HW223595   5.416   3.413   1.162
 7566SOL     OW23596   5.789   4.637   2.717
 7566SOL    HW123597   5.751   4.612   2.628
 7566SOL    HW223598   5.717   4.670   2.777
 7567SOL     OW23599   1.842   2.284   4.291
 7567SOL    HW123600   1.755   2.283   4.338
 7567SOL    HW223601   1.864   2.191   4.258
 7568SOL     OW23602   5.314   6.118   2.684
 7568SOL    HW123603   5.413   6.116   2.669
 7568SOL    HW223604   5.277   6.203   2.648
 7569SOL     OW23605   3.962   5.687   6.183
 7569SOL    HW123606   3.866   5.691   6.214
 7569SOL    HW223607   4.007   5.608   6.225
 7570SOL     OW23608   5.897   3.526   5.644
 7570SOL    HW123609   5.804   3.510   5.611
 7570SOL    HW223610   5.928   3.447   5.698
 7571SOL     OW23611   3.968   5.349   3.384
 7571SOL    HW123612   3.907   5.384   3.456
 7571SOL    HW223613   4.014   5.267   3.416
 7572SOL     OW23614   4.963   1.004   1.656
 7572SOL    HW123615   5.013   0.970   1.735
 7572SOL    HW223616   5.018   1.073   1.608
 7573SOL     OW23617   0.618   6.990   5.171
 7573SOL    HW123618   0.554   0.046   5.156
 7573SOL    HW223619   0.684   6.987   5.095
 7574SOL     OW23620   5.951   0.703   5.615
 7574SOL    HW123621   6.017   0.719   5.688
 7574SOL    HW223622   5.990   0.640   5.548
 7575SOL     OW23623   5.268   6.788   6.711
 7575SOL    HW123624   5.328   6.810   6.633
 7575SOL    HW223625   5.309   6.823   6.795
 7576SOL     OW23626   4.867   4.554   6.773
 7576SOL    HW123627   4.965   4.572   6.774
 7576SOL    HW223628   4.849   4.470   6.824
 7577SOL     OW23629   0.806   6.901   6.979
 7577SOL    HW123630   0.796   6.937   0.052
 7577SOL    HW223631   0.801   6.976   6.913
 7578SOL     OW23632   1.953   5.195   2.146
 7578SOL    HW123633   1.962   5.252   2.064
 7578SOL    HW223634   2.011   5.114   2.137
 7579SOL     OW23635   6.700   0.677   1.849
 7579SOL    HW123636   6.714   0.582   1.822
 7579SOL    HW223637   6.747   0.694   1.936
 7580SOL     OW23638   0.777   3.854   4.482
 7580SOL    HW123639   0.802   3.927   4.545
 7580SOL    HW223640   0.701   3.802   4.519
 7581SOL     OW23641   6.905   1.097   0.855
 7581SOL    HW123642   6.859   1.039   0.922
 7581SOL    HW223643   6.923   1.187   0.895
 7582SOL     OW23644   4.076   1.364   1.554
 7582SOL    HW123645   3.988   1.411   1.545
 7582SOL    HW223646   4.098   1.318   1.468
 7583SOL     OW23647   6.350   3.138   1.572
 7583SOL    HW123648   6.278   3.125   1.503
 7583SOL    HW223649   6.370   3.235   1.582
 7584SOL     OW23650   3.295   6.974   1.227
 7584SOL    HW123651   3.307   6.928   1.315
 7584SOL    HW223652   3.203   6.957   1.192
 7585SOL     OW23653   1.283   2.650   6.305
 7585SOL    HW123654   1.267   2.749   6.308
 7585SOL    HW223655   1.226   2.605   6.374
 7586SOL     OW23656   2.449   1.009   3.623
 7586SOL    HW123657   2.456   0.980   3.527
 7586SOL    HW223658   2.383   1.084   3.630
 7587SOL     OW23659   2.392   2.317   0.012
 7587SOL    HW123660   2.356   2.298   6.941
 7587SOL    HW223661   2.317   2.341   0.073
 7588SOL     OW23662   1.894   3.332   3.518
 7588SOL    HW123663   1.980   3.316   3.566
 7588SOL    HW223664   1.862   3.247   3.477
 7589SOL     OW23665   1.073   0.405   2.419
 7589SOL    HW123666   0.979   0.385   2.389
 7589SOL    HW223667   1.129   0.430   2.341
 7590SOL     OW23668   4.246   1.777   6.042
 7590SOL    HW123669   4.222   1.839   5.968
 7590SOL    HW223670   4.170   1.770   6.106
 7591SOL     OW23671   0.584   3.906   0.430
 7591SOL    HW123672   0.642   3.944   0.502
 7591SOL    HW223673   0.559   3.812   0.452
 7592SOL     OW23674   6.841   4.630   5.199
 7592SOL    HW123675   6.772   4.568   5.162
 7592SOL    HW223676   6.844   4.714   5.144
 7593SOL     OW23677   6.092   3.127   0.911
 7593SOL    HW123678   6.017   3.090   0.966
 7593SOL    HW223679   6.066   3.217   0.876
 7594SOL     OW23680   0.865   5.437   2.434
 7594SOL    HW123681   0.814   5.383   2.501
 7594SOL    HW223682   0.865   5.533   2.461
 7595SOL     OW23683   6.591   2.801   5.939
 7595SOL    HW123684   6.616   2.706   5.921
 7595SOL    HW223685   6.607   2.822   6.036
 7596SOL     OW23686   4.493   5.463   4.322
 7596SOL    HW123687   4.557   5.523   4.273
 7596SOL    HW223688   4.400   5.483   4.292
 7597SOL     OW23689   2.888   6.780   2.838
 7597SOL    HW123690   2.920   6.685   2.833
 7597SOL    HW223691   2.967   6.842   2.839
 7598SOL     OW23692   6.945   1.639   3.201
 7598SOL    HW123693   7.000   1.722   3.187
 7598SOL    HW223694   6.906   1.641   3.293
 7599SOL     OW23695   5.107   1.866   2.303
 7599SOL    HW123696   5.095   1.886   2.206
 7599SOL    HW223697   5.184   1.802   2.315
 7600SOL     OW23698   1.613   1.608   2.427
 7600SOL    HW123699   1.576   1.640   2.339
 7600SOL    HW223700   1.685   1.670   2.457
 7601SOL     OW23701   1.460   5.504   2.889
 7601SOL    HW123702   1.460   5.435   2.818
 7601SOL    HW223703   1.529   5.482   2.958
 7602SOL     OW23704   2.003   4.165   6.427
 7602SOL    HW123705   1.917   4.152   6.477
 7602SOL    HW223706   2.053   4.079   6.423
 7603SOL     OW23707   1.631   5.770   6.299
 7603SOL    HW123708   1.653   5.686   6.250
 7603SOL    HW223709   1.715   5.806   6.340
 7604SOL     OW23710   1.890   4.019   4.503
 7604SOL    HW123711   1.982   3.988   4.528
 7604SOL    HW223712   1.894   4.115   4.475
 7605SOL     OW23713   1.054   6.959   1.287
 7605SOL    HW123714   1.036   6.882   1.226
 7605SOL    HW223715   0.971   7.015   1.294
 7606SOL     OW23716   5.891   3.785   5.255
 7606SOL    HW123717   5.958   3.767   5.183
 7606SOL    HW223718   5.832   3.705   5.267
 7607SOL     OW23719   3.359   4.948   0.092
 7607SOL    HW123720   3.362   4.926   0.190
 7607SOL    HW223721   3.348   5.046   0.081
 7608SOL     OW23722   4.122   3.535   2.314
 7608SOL    HW123723   4.120   3.562   2.410
 7608SOL    HW223724   4.134   3.436   2.307
 7609SOL     OW23725   1.169   3.504   4.385
 7609SOL    HW123726   1.077   3.481   4.354
 7609SOL    HW223727   1.164   3.556   4.470
 7610SOL     OW23728   4.487   5.079   6.057
 7610SOL    HW123729   4.480   4.980   6.073
 7610SOL    HW223730   4.408   5.110   6.004
 7611SOL     OW23731   6.382   3.114   1.240
 7611SOL    HW123732   6.459   3.085   1.298
 7611SOL    HW223733   6.304   3.137   1.299
 7612SOL     OW23734   4.494   2.524   3.599
 7612SOL    HW123735   4.590   2.550   3.602
 7612SOL    HW223736   4.453   2.558   3.514
 7613SOL     OW23737   6.613   2.973   0.787
 7613SOL    HW123738   6.667   2.891   0.805
 7613SOL    HW223739   6.548   2.988   0.861
 7614SOL     OW23740   5.145   2.921   0.904
 7614SOL    HW123741   5.053   2.886   0.883
 7614SOL    HW223742   5.187   2.863   0.973
 7615SOL     OW23743   3.494   5.349   0.519
 7615SOL    HW123744   3.557   5.374   0.445
 7615SOL    HW223745   3.539   5.362   0.607
 7616SOL     OW23746   5.898   5.914   4.363
 7616SOL    HW123747   5.847   5.997   4.338
 7616SOL    HW223748   5.996   5.932   4.355
 7617SOL     OW23749   4.112   5.281   2.532
 7617SOL    HW123750   4.134   5.311   2.625
 7617SOL    HW223751   4.081   5.359   2.478
 7618SOL     OW23752   0.333   1.339   5.430
 7618SOL    HW123753   0.284   1.254   5.450
 7618SOL    HW223754   0.271   1.402   5.383
 7619SOL     OW23755   5.672   2.787   5.508
 7619SOL    HW123756   5.595   2.850   5.520
 7619SOL    HW223757   5.668   2.715   5.577
 7620SOL     OW23758   4.226   5.686   0.847
 7620SOL    HW123759   4.232   5.768   0.790
 7620SOL    HW223760   4.151   5.629   0.815
 7621SOL     OW23761   6.634   1.536   0.712
 7621SOL    HW123762   6.716   1.536   0.655
 7621SOL    HW223763   6.627   1.448   0.760
 7622SOL     OW23764   4.576   5.485   0.103
 7622SOL    HW123765   4.583   5.574   0.149
 7622SOL    HW223766   4.540   5.417   0.167
 7623SOL     OW23767   4.522   4.129   0.242
 7623SOL    HW123768   4.450   4.123   0.173
 7623SOL    HW223769   4.501   4.203   0.306
 7624SOL     OW23770   6.909   3.803   4.924
 7624SOL    HW123771   6.921   3.890   4.877
 7624SOL    HW223772   6.895   3.730   4.858
 7625SOL     OW23773   4.801   0.363   1.739
 7625SOL    HW123774   4.720   0.337   1.791
 7625SOL    HW223775   4.823   0.291   1.673
 7626SOL     OW23776   6.083   7.000   4.274
 7626SOL    HW123777   6.177   7.011   4.307
 7626SOL    HW223778   6.077   0.007   4.178
 7627SOL     OW23779   4.637   3.101   6.993
 7627SOL    HW123780   4.698   3.153   6.933
 7627SOL    HW223781   4.546   3.095   6.951
 7628SOL     OW23782   3.499   2.058   2.178
 7628SOL    HW123783   3.561   2.111   2.120
 7628SOL    HW223784   3.476   1.972   2.132
 7629SOL     OW23785   0.075   6.218   3.015
 7629SOL    HW123786   0.142   6.214   2.941
 7629SOL    HW223787   0.039   6.311   3.022
 7630SOL     OW23788   6.935   6.588   1.117
 7630SOL    HW123789   6.975   6.676   1.092
 7630SOL    HW223790   6.990   6.545   1.189
 7631SOL     OW23791   0.858   1.222   6.551
 7631SOL    HW123792   0.878   1.293   6.619
 7631SOL    HW223793   0.769   1.181   6.571
 7632SOL     OW23794   3.569   3.411   1.493
 7632SOL    HW123795   3.594   3.368   1.580
 7632SOL    HW223796   3.475   3.388   1.469
 7633SOL     OW23797   5.568   0.816   0.999
 7633SOL    HW123798   5.572   0.828   1.098
 7633SOL    HW223799   5.552   0.905   0.955
 7634SOL     OW23800   1.363   2.136   2.689
 7634SOL    HW123801   1.380   2.152   2.787
 7634SOL    HW223802   1.434   2.181   2.635
 7635SOL     OW23803   3.662   5.045   5.118
 7635SOL    HW123804   3.682   5.142   5.133
 7635SOL    HW223805   3.577   5.035   5.066
 7636SOL     OW23806   1.700   3.056   4.083
 7636SOL    HW123807   1.601   3.067   4.086
 7636SOL    HW223808   1.734   3.030   4.174
 7637SOL     OW23809   2.066   5.285   2.857
 7637SOL    HW123810   2.100   5.231   2.934
 7637SOL    HW223811   2.133   5.356   2.835
 7638SOL     OW23812   2.669   6.197   1.300
 7638SOL    HW123813   2.697   6.132   1.229
 7638SOL    HW223814   2.648   6.285   1.258
 7639SOL     OW23815   0.856   2.354   0.518
 7639SOL    HW123816   0.825   2.307   0.435
 7639SOL    HW223817   0.956   2.361   0.516
 7640SOL     OW23818   3.513   1.174   5.697
 7640SOL    HW123819   3.500   1.273   5.702
 7640SOL    HW223820   3.610   1.153   5.690
 7641SOL     OW23821   1.067   4.057   2.363
 7641SOL    HW123822   0.973   4.024   2.378
 7641SOL    HW223823   1.100   4.023   2.275
 7642SOL     OW23824   3.667   1.125   3.268
 7642SOL    HW123825   3.658   1.219   3.234
 7642SOL    HW223826   3.686   1.128   3.367
 7643SOL     OW23827   4.760   2.864   3.840
 7643SOL    HW123828   4.820   2.816   3.776
 7643SOL    HW223829   4.725   2.798   3.907
 7644SOL     OW23830   5.886   2.220   2.182
 7644SOL    HW123831   5.928   2.304   2.217
 7644SOL    HW223832   5.803   2.243   2.131
 7645SOL     OW23833   4.388   3.504   5.805
 7645SOL    HW123834   4.471   3.473   5.851
 7645SOL    HW223835   4.408   3.522   5.709
 7646SOL     OW23836   1.106   3.721   2.721
 7646SOL    HW123837   1.146   3.799   2.673
 7646SOL    HW223838   1.092   3.744   2.817
 7647SOL     OW23839   7.003   2.655   3.430
 7647SOL    HW123840   6.974   2.747   3.454
 7647SOL    HW223841   0.005   2.651   3.333
 7648SOL     OW23842   3.271   1.695   2.881
 7648SOL    HW123843   3.274   1.722   2.977
 7648SOL    HW223844   3.213   1.759   2.830
 7649SOL     OW23845   0.735   1.426   2.709
 7649SOL    HW123846   0.738   1.520   2.741
 7649SOL    HW223847   0.781   1.367   2.775
 7650SOL     OW23848   4.419   1.647   0.464
 7650SOL    HW123849   4.518   1.635   0.474
 7650SOL    HW223850   4.372   1.577   0.517
 7651SOL     OW23851   2.119   0.611   3.716
 7651SOL    HW123852   2.042   0.609   3.652
 7651SOL    HW223853   2.087   0.636   3.807
 7652SOL     OW23854   6.159   3.942   5.711
 7652SOL    HW123855   6.105   3.864   5.680
 7652SOL    HW223856   6.150   4.017   5.647
 7653SOL     OW23857   1.017   1.546   6.974
 7653SOL    HW123858   0.984   1.492   6.897
 7653SOL    HW223859   1.034   1.641   6.945
 7654SOL     OW23860   4.896   3.189   4.204
 7654SOL    HW123861   4.882   3.101   4.159
 7654SOL    HW223862   4.873   3.181   4.301
 7655SOL     OW23863   4.353   7.012   2.656
 7655SOL    HW123864   4.421   6.939   2.658
 7655SOL    HW223865   4.263   6.974   2.680
 7656SOL     OW23866   2.816   3.955   5.983
 7656SOL    HW123867   2.753   4.029   5.961
 7656SOL    HW223868   2.793   3.916   6.072
 7657SOL     OW23869   1.191   2.627   3.951
 7657SOL    HW123870   1.210   2.551   3.889
 7657SOL    HW223871   1.264   2.632   4.020
 7658SOL     OW23872   4.388   0.025   6.444
 7658SOL    HW123873   4.343   0.094   6.387
 7658SOL    HW223874   4.373   0.046   6.541
 7659SOL     OW23875   6.363   5.026   6.092
 7659SOL    HW123876   6.404   5.065   6.010
 7659SOL    HW223877   6.365   4.926   6.086
 7660SOL     OW23878   0.543   6.056   3.969
 7660SOL    HW123879   0.523   5.971   3.920
 7660SOL    HW223880   0.486   6.130   3.933
 7661SOL     OW23881   5.885   2.777   4.567
 7661SOL    HW123882   5.893   2.851   4.634
 7661SOL    HW223883   5.976   2.747   4.540
 7662SOL     OW23884   1.322   3.131   3.350
 7662SOL    HW123885   1.224   3.151   3.350
 7662SOL    HW223886   1.363   3.168   3.433
 7663SOL     OW23887   0.254   5.079   5.525
 7663SOL    HW123888   0.167   5.076   5.575
 7663SOL    HW223889   0.284   4.986   5.506
 7664SOL     OW23890   3.915   6.913   1.756
 7664SOL    HW123891   3.832   6.969   1.756
 7664SOL    HW223892   3.945   6.897   1.661
 7665SOL     OW23893   6.335   0.118   4.579
 7665SOL    HW123894   6.312   0.172   4.660
 7665SOL    HW223895   6.402   0.048   4.602
 7666SOL     OW23896   0.459   5.446   1.968
 7666SOL    HW123897   0.493   5.360   2.005
 7666SOL    HW223898   0.532   5.493   1.918
 7667SOL     OW23899   4.880   6.724   2.290
 7667SOL    HW123900   4.858   6.627   2.289
 7667SOL    HW223901   4.925   6.748   2.376
 7668SOL     OW23902   3.220   4.582   0.398
 7668SOL    HW123903   3.151   4.516   0.427
 7668SOL    HW223904   3.286   4.538   0.338
 7669SOL     OW23905   4.618   1.436   5.223
 7669SOL    HW123906   4.675   1.514   5.250
 7669SOL    HW223907   4.540   1.428   5.286
 7670SOL     OW23908   0.775   4.564   0.047
 7670SOL    HW123909   0.773   4.620   6.984
 7670SOL    HW223910   0.863   4.576   0.092
 7671SOL     OW23911   4.581   1.333   2.260
 7671SOL    HW123912   4.594   1.408   2.196
 7671SOL    HW223913   4.620   1.357   2.349
 7672SOL     OW23914   0.505   6.665   2.335
 7672SOL    HW123915   0.493   6.646   2.237
 7672SOL    HW223916   0.459   6.751   2.358
 7673SOL     OW23917   1.450   6.427   0.781
 7673SOL    HW123918   1.446   6.525   0.762
 7673SOL    HW223919   1.383   6.380   0.725
 7674SOL     OW23920   5.343   0.984   3.020
 7674SOL    HW123921   5.430   0.954   2.980
 7674SOL    HW223922   5.267   0.943   2.970
 7675SOL     OW23923   6.045   6.704   2.238
 7675SOL    HW123924   6.066   6.622   2.185
 7675SOL    HW223925   6.128   6.759   2.248
 7676SOL     OW23926   2.945   1.975   0.673
 7676SOL    HW123927   2.884   2.023   0.736
 7676SOL    HW223928   3.038   1.979   0.709
 7677SOL     OW23929   0.495   4.927   1.701
 7677SOL    HW123930   0.554   4.904   1.778
 7677SOL    HW223931   0.539   4.900   1.615
 7678SOL     OW23932   1.732   3.357   4.920
 7678SOL    HW123933   1.680   3.431   4.877
 7678SOL    HW223934   1.715   3.356   5.018
 7679SOL     OW23935   3.014   5.708   5.516
 7679SOL    HW123936   2.941   5.676   5.577
 7679SOL    HW223937   3.028   5.642   5.442
 7680SOL     OW23938   1.180   0.761   0.520
 7680SOL    HW123939   1.106   0.724   0.464
 7680SOL    HW223940   1.172   0.860   0.524
 7681SOL     OW23941   2.530   0.868   0.904
 7681SOL    HW123942   2.493   0.782   0.869
 7681SOL    HW223943   2.507   0.942   0.840
 7682SOL     OW23944   3.218   6.818   2.319
 7682SOL    HW123945   3.295   6.881   2.320
 7682SOL    HW223946   3.161   6.832   2.400
 7683SOL     OW23947   4.891   1.644   4.596
 7683SOL    HW123948   4.824   1.633   4.669
 7683SOL    HW223949   4.882   1.569   4.530
 7684SOL     OW23950   3.061   2.021   1.581
 7684SOL    HW123951   3.145   2.075   1.585
 7684SOL    HW223952   3.017   2.022   1.671
 7685SOL     OW23953   2.965   1.840   6.210
 7685SOL    HW123954   2.886   1.869   6.156
 7685SOL    HW223955   2.984   1.909   6.280
 7686SOL     OW23956   6.566   6.248   2.745
 7686SOL    HW123957   6.495   6.206   2.801
 7686SOL    HW223958   6.572   6.346   2.765
 7687SOL     OW23959   5.718   5.153   3.514
 7687SOL    HW123960   5.734   5.168   3.416
 7687SOL    HW223961   5.791   5.198   3.566
 7688SOL     OW23962   0.964   5.991   6.039
 7688SOL    HW123963   0.975   5.906   5.988
 7688SOL    HW223964   0.885   6.041   6.003
 7689SOL     OW23965   5.649   6.437   2.584
 7689SOL    HW123966   5.629   6.350   2.628
 7689SOL    HW223967   5.676   6.504   2.654
 7690SOL     OW23968   5.394   5.236   0.336
 7690SOL    HW123969   5.296   5.215   0.338
 7690SOL    HW223970   5.426   5.242   0.241
 7691SOL     OW23971   5.182   4.076   4.208
 7691SOL    HW123972   5.093   4.029   4.203
 7691SOL    HW223973   5.250   4.023   4.157
 7692SOL     OW23974   0.655   6.282   1.821
 7692SOL    HW123975   0.717   6.214   1.782
 7692SOL    HW223976   0.561   6.260   1.795
 7693SOL     OW23977   3.700   6.483   1.679
 7693SOL    HW123978   3.680   6.404   1.738
 7693SOL    HW223979   3.757   6.548   1.729
 7694SOL     OW23980   6.548   4.417   4.365
 7694SOL    HW123981   6.502   4.473   4.296
 7694SOL    HW223982   6.583   4.334   4.322
 7695SOL     OW23983   4.841   0.647   0.985
 7695SOL    HW123984   4.861   0.745   0.988
 7695SOL    HW223985   4.899   0.604   0.916
 7696SOL     OW23986   0.512   0.048   5.470
 7696SOL    HW123987   0.594   0.040   5.413
 7696SOL    HW223988   0.462   0.130   5.445
 7697SOL     OW23989   2.242   6.690   2.624
 7697SOL    HW123990   2.147   6.712   2.598
 7697SOL    HW223991   2.292   6.776   2.640
 7698SOL     OW23992   5.777   0.853   4.041
 7698SOL    HW123993   5.873   0.868   4.063
 7698SOL    HW223994   5.765   0.855   3.941
 7699SOL     OW23995   3.522   5.551   6.449
 7699SOL    HW123996   3.491   5.632   6.498
 7699SOL    HW223997   3.557   5.483   6.514
 7700SOL     OW23998   4.206   6.073   2.977
 7700SOL    HW123999   4.286   6.127   3.003
 7700SOL    HW224000   4.123   6.128   2.989
 7701SOL     OW24001   6.738   1.817   0.386
 7701SOL    HW124002   6.783   1.886   0.443
 7701SOL    HW224003   6.767   1.828   0.291
 7702SOL     OW24004   3.291   6.623   5.347
 7702SOL    HW124005   3.201   6.657   5.374
 7702SOL    HW224006   3.281   6.537   5.297
 7703SOL     OW24007   6.593   6.105   6.549
 7703SOL    HW124008   6.680   6.151   6.528
 7703SOL    HW224009   6.579   6.106   6.648
 7704SOL     OW24010   5.960   6.491   4.713
 7704SOL    HW124011   5.884   6.456   4.659
 7704SOL    HW224012   6.006   6.564   4.664
 7705SOL     OW24013   2.564   5.681   6.703
 7705SOL    HW124014   2.518   5.741   6.769
 7705SOL    HW224015   2.533   5.587   6.717
 7706SOL     OW24016   4.276   3.321   5.555
 7706SOL    HW124017   4.354   3.285   5.605
 7706SOL    HW224018   4.293   3.417   5.532
 7707SOL     OW24019   6.948   5.319   5.355
 7707SOL    HW124020   6.861   5.312   5.403
 7707SOL    HW224021   6.938   5.382   5.277
 7708SOL     OW24022   0.504   6.799   6.517
 7708SOL    HW124023   0.563   6.719   6.525
 7708SOL    HW224024   0.544   6.875   6.568
 7709SOL     OW24025   6.496   4.218   1.968
 7709SOL    HW124026   6.584   4.253   1.936
 7709SOL    HW224027   6.465   4.145   1.907
 7710SOL     OW24028   3.075   1.860   0.451
 7710SOL    HW124029   3.043   1.914   0.530
 7710SOL    HW224030   3.106   1.770   0.482
 7711SOL     OW24031   6.039   6.621   5.820
 7711SOL    HW124032   5.949   6.576   5.816
 7711SOL    HW224033   6.026   6.719   5.835
 7712SOL     OW24034   6.005   5.398   1.774
 7712SOL    HW124035   6.043   5.420   1.684
 7712SOL    HW224036   6.040   5.462   1.842
 7713SOL     OW24037   2.197   4.176   1.360
 7713SOL    HW124038   2.204   4.172   1.459
 7713SOL    HW224039   2.164   4.087   1.325
 7714SOL     OW24040   0.186   3.532   5.562
 7714SOL    HW124041   0.088   3.525   5.579
 7714SOL    HW224042   0.212   3.628   5.549
 7715SOL     OW24043   3.355   1.742   0.554
 7715SOL    HW124044   3.269   1.760   0.601
 7715SOL    HW224045   3.359   1.796   0.470
 7716SOL     OW24046   6.539   4.550   2.413
 7716SOL    HW124047   6.480   4.625   2.383
 7716SOL    HW224048   6.508   4.464   2.374
 7717SOL     OW24049   1.942   1.102   5.609
 7717SOL    HW124050   1.886   1.171   5.655
 7717SOL    HW224051   1.883   1.027   5.578
 7718SOL     OW24052   0.643   3.446   4.081
 7718SOL    HW124053   0.573   3.516   4.068
 7718SOL    HW224054   0.696   3.435   3.997
 7719SOL     OW24055   6.668   4.310   5.287
 7719SOL    HW124056   6.584   4.350   5.324
 7719SOL    HW224057   6.742   4.321   5.353
 7720SOL     OW24058   0.246   1.134   6.883
 7720SOL    HW124059   0.230   1.039   6.909
 7720SOL    HW224060   0.158   1.183   6.881
 7721SOL     OW24061   0.285   5.310   2.614
 7721SOL    HW124062   0.358   5.345   2.673
 7721SOL    HW224063   0.198   5.353   2.641
 7722SOL     OW24064   1.034   4.325   3.614
 7722SOL    HW124065   1.116   4.281   3.576
 7722SOL    HW224066   0.992   4.381   3.543
 7723SOL     OW24067   4.797   3.374   6.525
 7723SOL    HW124068   4.716   3.405   6.475
 7723SOL    HW224069   4.858   3.326   6.462
 7724SOL     OW24070   3.025   3.935   1.155
 7724SOL    HW124071   2.933   3.944   1.192
 7724SOL    HW224072   3.083   3.889   1.222
 7725SOL     OW24073   6.427   0.905   2.921
 7725SOL    HW124074   6.467   0.961   2.994
 7725SOL    HW224075   6.335   0.937   2.900
 7726SOL     OW24076   1.104   5.231   5.152
 7726SOL    HW124077   1.005   5.221   5.140
 7726SOL    HW224078   1.146   5.251   5.064
 7727SOL     OW24079   0.170   2.156   2.944
 7727SOL    HW124080   0.196   2.060   2.942
 7727SOL    HW224081   0.091   2.170   2.883
 7728SOL     OW24082   1.524   3.819   4.999
 7728SOL    HW124083   1.580   3.806   5.080
 7728SOL    HW224084   1.572   3.877   4.934
 7729SOL     OW24085   5.649   2.619   1.114
 7729SOL    HW124086   5.689   2.541   1.065
 7729SOL    HW224087   5.648   2.600   1.212
 7730SOL     OW24088   6.250   5.828   0.121
 7730SOL    HW124089   6.276   5.848   0.216
 7730SOL    HW224090   6.157   5.861   0.104
 7731SOL     OW24091   6.971   1.358   0.768
 7731SOL    HW124092   6.927   1.295   0.704
 7731SOL    HW224093   6.905   1.389   0.836
 7732SOL     OW24094   5.113   6.986   0.717
 7732SOL    HW124095   5.024   6.962   0.678
 7732SOL    HW224096   5.186   6.942   0.664
 7733SOL     OW24097   4.587   6.622   3.114
 7733SOL    HW124098   4.521   6.566   3.166
 7733SOL    HW224099   4.627   6.691   3.175
 7734SOL     OW24100   1.973   4.851   2.983
 7734SOL    HW124101   1.925   4.785   3.040
 7734SOL    HW224102   1.949   4.836   2.887
 7735SOL     OW24103   4.285   6.627   6.946
 7735SOL    HW124104   4.364   6.643   6.887
 7735SOL    HW224105   4.270   6.528   6.955
 7736SOL     OW24106   3.659   3.561   6.930
 7736SOL    HW124107   3.683   3.649   6.889
 7736SOL    HW224108   3.737   3.526   6.982
 7737SOL     OW24109   3.025   6.813   2.516
 7737SOL    HW124110   2.954   6.879   2.489
 7737SOL    HW224111   3.064   6.840   2.604
 7738SOL     OW24112   3.057   6.016   7.015
 7738SOL    HW124113   3.077   5.918   7.013
 7738SOL    HW224114   2.983   6.037   6.950
 7739SOL     OW24115   0.043   2.410   1.096
 7739SOL    HW124116   7.011   2.345   1.151
 7739SOL    HW224117   7.007   2.492   1.081
 7740SOL     OW24118   2.513   1.600   2.605
 7740SOL    HW124119   2.543   1.511   2.568
 7740SOL    HW224120   2.582   1.669   2.584
 7741SOL     OW24121   0.997   5.111   5.929
 7741SOL    HW124122   1.034   5.190   5.881
 7741SOL    HW224123   0.917   5.139   5.982
 7742SOL     OW24124   4.259   1.908   3.602
 7742SOL    HW124125   4.272   2.005   3.578
 7742SOL    HW224126   4.178   1.899   3.660
 7743SOL     OW24127   5.755   1.628   6.986
 7743SOL    HW124128   5.766   1.684   6.903
 7743SOL    HW224129   5.709   1.682   0.036
 7744SOL     OW24130   0.705   6.998   4.246
 7744SOL    HW124131   0.802   6.975   4.245
 7744SOL    HW224132   0.691   0.060   4.301
 7745SOL     OW24133   4.082   1.162   0.020
 7745SOL    HW124134   4.125   1.244   0.059
 7745SOL    HW224135   3.982   1.172   0.025
 7746SOL     OW24136   1.697   0.331   0.145
 7746SOL    HW124137   1.684   0.417   0.193
 7746SOL    HW224138   1.789   0.328   0.107
 7747SOL     OW24139   5.551   5.934   1.726
 7747SOL    HW124140   5.566   6.018   1.780
 7747SOL    HW224141   5.518   5.862   1.787
 7748SOL     OW24142   2.894   3.585   4.280
 7748SOL    HW124143   2.899   3.636   4.366
 7748SOL    HW224144   2.884   3.488   4.299
 7749SOL     OW24145   3.207   3.437   5.740
 7749SOL    HW124146   3.212   3.491   5.657
 7749SOL    HW224147   3.297   3.436   5.785
 7750SOL     OW24148   0.477   6.496   1.352
 7750SOL    HW124149   0.567   6.532   1.376
 7750SOL    HW224150   0.465   6.406   1.394
 7751SOL     OW24151   2.056   2.973   2.345
 7751SOL    HW124152   2.143   2.934   2.374
 7751SOL    HW224153   2.072   3.048   2.281
 7752SOL     OW24154   5.521   6.486   5.786
 7752SOL    HW124155   5.508   6.519   5.692
 7752SOL    HW224156   5.436   6.444   5.818
 7753SOL     OW24157   2.073   0.873   4.216
 7753SOL    HW124158   2.026   0.795   4.256
 7753SOL    HW224159   2.068   0.951   4.279
 7754SOL     OW24160   3.810   6.576   2.124
 7754SOL    HW124161   3.906   6.550   2.136
 7754SOL    HW224162   3.755   6.493   2.113
 7755SOL     OW24163   1.380   2.242   5.395
 7755SOL    HW124164   1.443   2.320   5.396
 7755SOL    HW224165   1.428   2.161   5.362
 7756SOL     OW24166   2.455   6.070   2.861
 7756SOL    HW124167   2.468   6.169   2.871
 7756SOL    HW224168   2.539   6.028   2.828
 7757SOL     OW24169   6.175   4.948   6.416
 7757SOL    HW124170   6.118   4.891   6.476
 7757SOL    HW224171   6.271   4.926   6.431
 7758SOL     OW24172   1.558   0.716   5.885
 7758SOL    HW124173   1.518   0.712   5.794
 7758SOL    HW224174   1.508   0.655   5.946
 7759SOL     OW24175   1.301   1.675   5.373
 7759SOL    HW124176   1.293   1.770   5.403
 7759SOL    HW224177   1.210   1.633   5.368
 7760SOL     OW24178   6.075   3.202   2.880
 7760SOL    HW124179   5.988   3.221   2.926
 7760SOL    HW224180   6.066   3.117   2.827
 7761SOL     OW24181   0.226   0.502   4.919
 7761SOL    HW124182   0.178   0.568   4.862
 7761SOL    HW224183   0.240   0.418   4.868
 7762SOL     OW24184   2.783   6.527   3.986
 7762SOL    HW124185   2.807   6.480   3.901
 7762SOL    HW224186   2.706   6.481   4.030
 7763SOL     OW24187   1.682   0.892   6.194
 7763SOL    HW124188   1.723   0.820   6.249
 7763SOL    HW224189   1.750   0.928   6.130
 7764SOL     OW24190   3.794   3.359   4.197
 7764SOL    HW124191   3.719   3.387   4.137
 7764SOL    HW224192   3.857   3.436   4.209
 7765SOL     OW24193   6.224   3.265   4.906
 7765SOL    HW124194   6.196   3.180   4.861
 7765SOL    HW224195   6.142   3.316   4.934
 7766SOL     OW24196   6.791   3.846   0.160
 7766SOL    HW124197   6.839   3.778   0.215
 7766SOL    HW224198   6.698   3.814   0.141
 7767SOL     OW24199   4.674   6.389   2.785
 7767SOL    HW124200   4.700   6.366   2.879
 7767SOL    HW224201   4.586   6.347   2.764
 7768SOL     OW24202   4.173   4.785   2.843
 7768SOL    HW124203   4.113   4.779   2.923
 7768SOL    HW224204   4.118   4.786   2.760
 7769SOL     OW24205   3.895   1.915   3.162
 7769SOL    HW124206   3.838   1.838   3.132
 7769SOL    HW224207   3.975   1.881   3.211
 7770SOL     OW24208   1.895   4.383   3.586
 7770SOL    HW124209   1.814   4.345   3.630
 7770SOL    HW224210   1.961   4.311   3.568
 7771SOL     OW24211   3.845   1.726   5.375
 7771SOL    HW124212   3.843   1.643   5.318
 7771SOL    HW224213   3.794   1.710   5.459
 7772SOL     OW24214   4.225   0.244   2.744
 7772SOL    HW124215   4.255   0.188   2.667
 7772SOL    HW224216   4.129   0.270   2.731
 7773SOL     OW24217   2.835   5.866   5.045
 7773SOL    HW124218   2.848   5.958   5.007
 7773SOL    HW224219   2.782   5.810   4.981
 7774SOL     OW24220   5.267   2.032   5.163
 7774SOL    HW124221   5.184   2.078   5.195
 7774SOL    HW224222   5.252   1.996   5.071
 7775SOL     OW24223   4.701   5.621   0.856
 7775SOL    HW124224   4.732   5.684   0.785
 7775SOL    HW224225   4.646   5.549   0.815
 7776SOL     OW24226   0.676   5.892   5.890
 7776SOL    HW124227   0.770   5.880   5.857
 7776SOL    HW224228   0.643   5.805   5.927
 7777SOL     OW24229   6.406   6.191   4.304
 7777SOL    HW124230   6.380   6.283   4.333
 7777SOL    HW224231   6.338   6.157   4.239
 7778SOL     OW24232   5.294   4.254   0.611
 7778SOL    HW124233   5.287   4.349   0.580
 7778SOL    HW224234   5.258   4.193   0.540
 7779SOL     OW24235   2.756   2.196   1.452
 7779SOL    HW124236   2.672   2.225   1.498
 7779SOL    HW224237   2.733   2.137   1.375
 7780SOL     OW24238   1.063   4.982   5.533
 7780SOL    HW124239   1.077   5.050   5.462
 7780SOL    HW224240   0.967   4.953   5.533
 7781SOL     OW24241   2.509   4.762   0.893
 7781SOL    HW124242   2.607   4.776   0.901
 7781SOL    HW224243   2.464   4.788   0.979
 7782SOL     OW24244   5.170   5.163   4.121
 7782SOL    HW124245   5.238   5.217   4.169
 7782SOL    HW224246   5.186   5.065   4.138
 7783SOL     OW24247   0.987   6.018   4.893
 7783SOL    HW124248   0.987   5.949   4.820
 7783SOL    HW224249   1.055   6.088   4.872
 7784SOL     OW24250   3.411   2.439   1.675
 7784SOL    HW124251   3.499   2.427   1.722
 7784SOL    HW224252   3.393   2.536   1.663
 7785SOL     OW24253   1.820   6.161   4.800
 7785SOL    HW124254   1.755   6.086   4.812
 7785SOL    HW224255   1.879   6.168   4.881
 7786SOL     OW24256   3.306   6.361   0.404
 7786SOL    HW124257   3.238   6.300   0.445
 7786SOL    HW224258   3.385   6.307   0.373
 7787SOL     OW24259   2.125   2.732   6.073
 7787SOL    HW124260   2.129   2.680   6.159
 7787SOL    HW224261   2.030   2.738   6.043
 7788SOL     OW24262   2.339   5.010   1.334
 7788SOL    HW124263   2.426   5.022   1.381
 7788SOL    HW224264   2.322   5.087   1.273
 7789SOL     OW24265   2.235   6.612   6.294
 7789SOL    HW124266   2.163   6.598   6.225
 7789SOL    HW224267   2.228   6.705   6.331
 7790SOL     OW24268   5.428   5.780   3.494
 7790SOL    HW124269   5.375   5.736   3.567
 7790SOL    HW224270   5.521   5.798   3.526
 7791SOL     OW24271   2.936   4.989   3.010
 7791SOL    HW124272   2.990   5.007   2.929
 7791SOL    HW224273   2.879   4.908   2.995
 7792SOL     OW24274   1.548   5.396   4.846
 7792SOL    HW124275   1.595   5.311   4.822
 7792SOL    HW224276   1.562   5.416   4.943
 7793SOL     OW24277   4.346   0.924   1.140
 7793SOL    HW124278   4.351   0.847   1.077
 7793SOL    HW224279   4.395   1.002   1.101
 7794SOL     OW24280   6.516   3.784   2.436
 7794SOL    HW124281   6.478   3.770   2.528
 7794SOL    HW224282   6.612   3.755   2.435
 7795SOL     OW24283   1.624   3.880   5.637
 7795SOL    HW124284   1.572   3.797   5.619
 7795SOL    HW224285   1.717   3.869   5.604
 7796SOL     OW24286   3.824   3.052   3.989
 7796SOL    HW124287   3.905   3.006   4.027
 7796SOL    HW224288   3.763   3.078   4.063
 7797SOL     OW24289   1.602   0.386   1.547
 7797SOL    HW124290   1.619   0.289   1.561
 7797SOL    HW224291   1.687   0.437   1.558
 7798SOL     OW24292   1.745   3.359   4.308
 7798SOL    HW124293   1.657   3.312   4.313
 7798SOL    HW224294   1.812   3.298   4.265
 7799SOL     OW24295   2.139   5.975   2.535
 7799SOL    HW124296   2.055   5.937   2.497
 7799SOL    HW224297   2.141   6.074   2.520
 7800SOL     OW24298   1.117   5.873   1.571
 7800SOL    HW124299   1.080   5.792   1.617
 7800SOL    HW224300   1.197   5.847   1.518
 7801SOL     OW24301   2.110   1.933   1.831
 7801SOL    HW124302   2.060   2.020   1.830
 7801SOL    HW224303   2.071   1.873   1.901
 7802SOL     OW24304   5.678   3.011   1.096
 7802SOL    HW124305   5.697   2.956   1.014
 7802SOL    HW224306   5.593   3.062   1.083
 7803SOL     OW24307   4.177   2.550   5.821
 7803SOL    HW124308   4.246   2.496   5.869
 7803SOL    HW224309   4.086   2.524   5.853
 7804SOL     OW24310   4.509   1.765   5.273
 7804SOL    HW124311   4.595   1.782   5.321
 7804SOL    HW224312   4.518   1.793   5.177
 7805SOL     OW24313   5.557   2.819   1.640
 7805SOL    HW124314   5.549   2.850   1.735
 7805SOL    HW224315   5.470   2.778   1.611
 7806SOL     OW24316   6.578   1.961   6.416
 7806SOL    HW124317   6.564   2.039   6.477
 7806SOL    HW224318   6.579   1.992   6.321
 7807SOL     OW24319   1.195   4.926   5.955
 7807SOL    HW124320   1.259   4.948   5.882
 7807SOL    HW224321   1.136   5.004   5.972
 7808SOL     OW24322   6.168   3.378   4.640
 7808SOL    HW124323   6.227   3.330   4.704
 7808SOL    HW224324   6.140   3.466   4.680
 7809SOL     OW24325   3.667   4.927   4.730
 7809SOL    HW124326   3.596   4.990   4.759
 7809SOL    HW224327   3.640   4.884   4.643
 7810SOL     OW24328   3.194   6.792   4.526
 7810SOL    HW124329   3.241   6.878   4.546
 7810SOL    HW224330   3.118   6.779   4.590
 7811SOL     OW24331   1.524   5.575   2.293
 7811SOL    HW124332   1.529   5.670   2.325
 7811SOL    HW224333   1.474   5.572   2.207
 7812SOL     OW24334   0.119   2.383   4.142
 7812SOL    HW124335   0.022   2.357   4.145
 7812SOL    HW224336   0.149   2.390   4.047
 7813SOL     OW24337   4.306   2.404   0.153
 7813SOL    HW124338   4.247   2.331   0.118
 7813SOL    HW224339   4.313   2.396   0.252
 7814SOL     OW24340   0.196   3.954   3.640
 7814SOL    HW124341   0.225   3.860   3.623
 7814SOL    HW224342   0.099   3.956   3.663
 7815SOL     OW24343   6.050   1.305   4.696
 7815SOL    HW124344   6.097   1.217   4.687
 7815SOL    HW224345   5.959   1.290   4.735
 7816SOL     OW24346   1.615   2.257   6.271
 7816SOL    HW124347   1.638   2.246   6.174
 7816SOL    HW224348   1.537   2.319   6.279
 7817SOL     OW24349   4.748   4.216   4.164
 7817SOL    HW124350   4.810   4.264   4.226
 7817SOL    HW224351   4.784   4.125   4.144
 7818SOL     OW24352   4.893   0.259   2.440
 7818SOL    HW124353   4.869   0.214   2.526
 7818SOL    HW224354   4.920   0.191   2.373
 7819SOL     OW24355   6.985   4.188   3.399
 7819SOL    HW124356   6.962   4.234   3.485
 7819SOL    HW224357   6.937   4.232   3.323
 7820SOL     OW24358   1.410   1.045   5.576
 7820SOL    HW124359   1.491   1.011   5.624
 7820SOL    HW224360   1.329   1.034   5.633
 7821SOL     OW24361   5.628   5.574   6.640
 7821SOL    HW124362   5.715   5.525   6.646
 7821SOL    HW224363   5.554   5.514   6.669
 7822SOL     OW24364   0.703   1.578   6.978
 7822SOL    HW124365   0.704   1.480   6.994
 7822SOL    HW224366   0.786   1.606   6.930
 7823SOL     OW24367   2.791   3.228   5.543
 7823SOL    HW124368   2.784   3.254   5.639
 7823SOL    HW224369   2.807   3.310   5.487
 7824SOL     OW24370   6.109   1.095   3.964
 7824SOL    HW124371   6.084   1.066   3.871
 7824SOL    HW224372   6.095   1.019   4.027
 7825SOL     OW24373   1.104   3.364   0.819
 7825SOL    HW124374   1.080   3.440   0.760
 7825SOL    HW224375   1.203   3.347   0.813
 7826SOL     OW24376   6.354   1.428   0.101
 7826SOL    HW124377   6.387   1.401   0.192
 7826SOL    HW224378   6.269   1.380   0.081
 7827SOL     OW24379   3.229   4.931   1.547
 7827SOL    HW124380   3.223   5.028   1.572
 7827SOL    HW224381   3.136   4.893   1.540
 7828SOL     OW24382   0.566   4.913   0.086
 7828SOL    HW124383   0.526   4.906   0.177
 7828SOL    HW224384   0.526   4.843   0.026
 7829SOL     OW24385   1.897   2.816   0.173
 7829SOL    HW124386   1.847   2.820   0.260
 7829SOL    HW224387   1.968   2.886   0.172
 7830SOL     OW24388   3.795   3.967   6.038
 7830SOL    HW124389   3.720   3.909   6.070
 7830SOL    HW224390   3.853   3.991   6.116
 7831SOL     OW24391   1.213   5.685   0.992
 7831SOL    HW124392   1.312   5.688   0.979
 7831SOL    HW224393   1.190   5.610   1.055
 7832SOL     OW24394   4.463   1.374   4.394
 7832SOL    HW124395   4.382   1.420   4.358
 7832SOL    HW224396   4.541   1.436   4.389
 7833SOL     OW24397   0.366   1.197   6.642
 7833SOL    HW124398   0.330   1.175   6.733
 7833SOL    HW224399   0.371   1.297   6.632
 7834SOL     OW24400   6.556   1.197   3.394
 7834SOL    HW124401   6.524   1.210   3.489
 7834SOL    HW224402   6.637   1.139   3.394
 7835SOL     OW24403   2.439   1.835   5.247
 7835SOL    HW124404   2.511   1.863   5.183
 7835SOL    HW224405   2.421   1.910   5.311
 7836SOL     OW24406   3.281   2.965   5.238
 7836SOL    HW124407   3.345   3.029   5.281
 7836SOL    HW224408   3.264   2.888   5.300
 7837SOL     OW24409   6.231   5.710   1.132
 7837SOL    HW124410   6.219   5.654   1.215
 7837SOL    HW224411   6.317   5.684   1.087
 7838SOL     OW24412   4.507   6.685   6.767
 7838SOL    HW124413   4.508   6.780   6.797
 7838SOL    HW224414   4.586   6.637   6.805
 7839SOL     OW24415   6.418   4.215   4.740
 7839SOL    HW124416   6.411   4.117   4.723
 7839SOL    HW224417   6.360   4.240   4.817
 7840SOL     OW24418   5.677   2.925   3.962
 7840SOL    HW124419   5.718   2.858   4.023
 7840SOL    HW224420   5.723   2.923   3.873
 7841SOL     OW24421   4.528   1.880   6.876
 7841SOL    HW124422   4.444   1.916   6.918
 7841SOL    HW224423   4.511   1.788   6.842
 7842SOL     OW24424   1.686   2.294   2.900
 7842SOL    HW124425   1.780   2.329   2.903
 7842SOL    HW224426   1.643   2.320   2.814
 7843SOL     OW24427   5.463   4.601   2.304
 7843SOL    HW124428   5.431   4.662   2.232
 7843SOL    HW224429   5.429   4.509   2.287
 7844SOL     OW24430   4.125   6.963   2.826
 7844SOL    HW124431   4.099   0.033   2.861
 7844SOL    HW224432   4.043   6.911   2.802
 7845SOL     OW24433   5.505   2.004   4.108
 7845SOL    HW124434   5.571   1.953   4.164
 7845SOL    HW224435   5.464   1.943   4.040
 7846SOL     OW24436   0.641   0.842   3.341
 7846SOL    HW124437   0.547   0.810   3.339
 7846SOL    HW224438   0.645   0.937   3.309
 7847SOL     OW24439   6.832   1.643   3.466
 7847SOL    HW124440   6.752   1.586   3.484
 7847SOL    HW224441   6.809   1.739   3.485
 7848SOL     OW24442   3.067   3.003   0.456
 7848SOL    HW124443   3.090   2.938   0.384
 7848SOL    HW224444   3.146   3.060   0.478
 7849SOL     OW24445   5.396   4.195   2.976
 7849SOL    HW124446   5.456   4.114   2.979
 7849SOL    HW224447   5.323   4.179   2.909
 7850SOL     OW24448   0.913   2.025   4.859
 7850SOL    HW124449   0.941   2.119   4.840
 7850SOL    HW224450   0.988   1.977   4.906
 7851SOL     OW24451   6.224   0.951   1.931
 7851SOL    HW124452   6.284   0.882   1.891
 7851SOL    HW224453   6.269   0.993   2.010
 7852SOL     OW24454   2.468   1.156   6.138
 7852SOL    HW124455   2.414   1.080   6.101
 7852SOL    HW224456   2.492   1.219   6.065
 7853SOL     OW24457   4.319   1.910   1.687
 7853SOL    HW124458   4.289   1.917   1.782
 7853SOL    HW224459   4.308   1.999   1.642
 7854SOL     OW24460   3.453   3.434   0.048
 7854SOL    HW124461   3.391   3.425   6.990
 7854SOL    HW224462   3.538   3.478   0.018
 7855SOL     OW24463   3.558   5.751   5.322
 7855SOL    HW124464   3.618   5.773   5.245
 7855SOL    HW224465   3.614   5.730   5.402
 7856SOL     OW24466   6.227   4.187   4.935
 7856SOL    HW124467   6.267   4.111   4.988
 7856SOL    HW224468   6.141   4.157   4.894
 7857SOL     OW24469   6.217   2.070   5.620
 7857SOL    HW124470   6.129   2.117   5.609
 7857SOL    HW224471   6.221   2.026   5.709
 7858SOL     OW24472   5.062   4.985   3.272
 7858SOL    HW124473   5.060   4.996   3.172
 7858SOL    HW224474   4.977   4.942   3.302
 7859SOL     OW24475   5.444   2.898   6.627
 7859SOL    HW124476   5.374   2.926   6.693
 7859SOL    HW224477   5.428   2.803   6.600
 7860SOL     OW24478   4.461   0.387   2.722
 7860SOL    HW124479   4.520   0.344   2.791
 7860SOL    HW224480   4.366   0.362   2.739
 7861SOL     OW24481   3.843   5.498   1.951
 7861SOL    HW124482   3.745   5.517   1.945
 7861SOL    HW224483   3.883   5.505   1.859
 7862SOL     OW24484   3.264   4.166   1.683
 7862SOL    HW124485   3.311   4.185   1.769
 7862SOL    HW224486   3.315   4.097   1.632
 7863SOL     OW24487   0.335   5.505   4.056
 7863SOL    HW124488   0.285   5.484   3.972
 7863SOL    HW224489   0.433   5.501   4.037
 7864SOL     OW24490   0.726   5.528   5.413
 7864SOL    HW124491   0.815   5.533   5.367
 7864SOL    HW224492   0.695   5.620   5.434
 7865SOL     OW24493   5.651   0.144   4.325
 7865SOL    HW124494   5.727   0.185   4.273
 7865SOL    HW224495   5.682   0.128   4.419
 7866SOL     OW24496   1.750   1.996   6.208
 7866SOL    HW124497   1.722   1.900   6.195
 7866SOL    HW224498   1.811   2.023   6.134
 7867SOL     OW24499   5.073   6.864   2.494
 7867SOL    HW124500   5.154   6.817   2.529
 7867SOL    HW224501   5.099   6.955   2.462
 7868SOL     OW24502   5.505   0.044   2.089
 7868SOL    HW124503   5.430   7.019   2.136
 7868SOL    HW224504   5.576   0.068   2.155
 7869SOL     OW24505   5.764   3.995   0.116
 7869SOL    HW124506   5.747   3.975   0.019
 7869SOL    HW224507   5.761   3.910   0.168
 7870SOL     OW24508   3.831   5.296   4.617
 7870SOL    HW124509   3.798   5.357   4.545
 7870SOL    HW224510   3.755   5.244   4.654
 7871SOL     OW24511   5.161   3.006   2.508
 7871SOL    HW124512   5.080   3.003   2.567
 7871SOL    HW224513   5.147   2.947   2.429
 7872SOL     OW24514   2.340   4.215   3.066
 7872SOL    HW124515   2.266   4.267   3.110
 7872SOL    HW224516   2.308   4.123   3.045
 7873SOL     OW24517   5.873   0.589   6.280
 7873SOL    HW124518   5.863   0.687   6.293
 7873SOL    HW224519   5.957   0.571   6.228
 7874SOL     OW24520   5.476   1.934   0.803
 7874SOL    HW124521   5.493   2.008   0.737
 7874SOL    HW224522   5.474   1.846   0.755
 7875SOL     OW24523   5.580   2.229   6.581
 7875SOL    HW124524   5.569   2.132   6.603
 7875SOL    HW224525   5.493   2.276   6.594
 7876SOL     OW24526   0.522   6.443   4.750
 7876SOL    HW124527   0.522   6.492   4.663
 7876SOL    HW224528   0.452   6.483   4.810
 7877SOL     OW24529   0.901   2.439   2.681
 7877SOL    HW124530   0.808   2.462   2.652
 7877SOL    HW224531   0.955   2.411   2.603
 7878SOL     OW24532   5.468   5.063   4.030
 7878SOL    HW124533   5.483   5.090   3.936
 7878SOL    HW224534   5.470   5.143   4.089
 7879SOL     OW24535   4.513   5.776   3.787
 7879SOL    HW124536   4.565   5.692   3.772
 7879SOL    HW224537   4.426   5.753   3.830
 7880SOL     OW24538   2.130   5.104   1.817
 7880SOL    HW124539   2.210   5.080   1.762
 7880SOL    HW224540   2.090   5.189   1.782
 7881SOL     OW24541   5.810   4.211   4.982
 7881SOL    HW124542   5.852   4.120   4.986
 7881SOL    HW224543   5.769   4.225   4.892
 7882SOL     OW24544   0.773   3.281   3.117
 7882SOL    HW124545   0.711   3.354   3.088
 7882SOL    HW224546   0.786   3.286   3.216
 7883SOL     OW24547   1.242   0.407   0.261
 7883SOL    HW124548   1.308   0.337   0.233
 7883SOL    HW224549   1.267   0.442   0.352
 7884SOL     OW24550   2.012   4.130   3.587
 7884SOL    HW124551   2.083   4.094   3.528
 7884SOL    HW224552   1.924   4.086   3.566
 7885SOL     OW24553   6.246   5.856   1.492
 7885SOL    HW124554   6.186   5.929   1.525
 7885SOL    HW224555   6.323   5.896   1.442
 7886SOL     OW24556   3.385   5.560   0.643
 7886SOL    HW124557   3.416   5.634   0.582
 7886SOL    HW224558   3.420   5.473   0.609
 7887SOL     OW24559   3.385   2.604   5.316
 7887SOL    HW124560   3.328   2.549   5.255
 7887SOL    HW224561   3.327   2.662   5.373
 7888SOL     OW24562   6.817   6.725   5.161
 7888SOL    HW124563   6.739   6.676   5.121
 7888SOL    HW224564   6.791   6.820   5.178
 7889SOL     OW24565   0.962   4.340   0.436
 7889SOL    HW124566   1.050   4.385   0.446
 7889SOL    HW224567   0.902   4.365   0.512
 7890SOL     OW24568   0.398   2.739   3.451
 7890SOL    HW124569   0.353   2.696   3.530
 7890SOL    HW224570   0.334   2.742   3.374
 7891SOL     OW24571   1.905   4.312   4.214
 7891SOL    HW124572   1.969   4.251   4.168
 7891SOL    HW224573   1.925   4.407   4.188
 7892SOL     OW24574   1.866   1.875   3.933
 7892SOL    HW124575   1.787   1.907   3.881
 7892SOL    HW224576   1.856   1.777   3.952
 7893SOL     OW24577   6.054   6.269   1.767
 7893SOL    HW124578   6.113   6.275   1.848
 7893SOL    HW224579   6.106   6.296   1.686
 7894SOL     OW24580   3.836   6.673   0.900
 7894SOL    HW124581   3.890   6.748   0.862
 7894SOL    HW224582   3.754   6.660   0.845
 7895SOL     OW24583   5.720   0.174   5.025
 7895SOL    HW124584   5.758   0.082   5.014
 7895SOL    HW224585   5.620   0.170   5.014
 7896SOL     OW24586   4.013   3.231   1.088
 7896SOL    HW124587   4.009   3.155   1.023
 7896SOL    HW224588   4.036   3.315   1.039
 7897SOL     OW24589   3.701   3.040   0.907
 7897SOL    HW124590   3.742   3.095   0.980
 7897SOL    HW224591   3.634   2.977   0.947
 7898SOL     OW24592   3.667   0.924   3.722
 7898SOL    HW124593   3.634   0.852   3.661
 7898SOL    HW224594   3.767   0.919   3.729
 7899SOL     OW24595   5.924   0.510   1.004
 7899SOL    HW124596   5.949   0.607   0.996
 7899SOL    HW224597   5.862   0.499   1.082
 7900SOL     OW24598   1.916   5.321   1.918
 7900SOL    HW124599   1.925   5.332   1.819
 7900SOL    HW224600   1.844   5.381   1.952
 7901SOL     OW24601   3.984   1.038   6.295
 7901SOL    HW124602   4.001   0.940   6.302
 7901SOL    HW224603   3.887   1.056   6.307
 7902SOL     OW24604   6.462   6.908   1.376
 7902SOL    HW124605   6.485   7.001   1.406
 7902SOL    HW224606   6.380   6.877   1.425
 7903SOL     OW24607   4.654   1.534   2.079
 7903SOL    HW124608   4.730   1.536   2.145
 7903SOL    HW224609   4.601   1.618   2.087
 7904SOL     OW24610   5.634   6.274   2.988
 7904SOL    HW124611   5.727   6.306   3.005
 7904SOL    HW224612   5.597   6.235   3.073
 7905SOL     OW24613   5.548   2.134   0.304
 7905SOL    HW124614   5.541   2.050   0.250
 7905SOL    HW224615   5.574   2.111   0.397
 7906SOL     OW24616   0.336   5.232   0.552
 7906SOL    HW124617   0.298   5.322   0.575
 7906SOL    HW224618   0.329   5.217   0.454
 7907SOL     OW24619   5.104   2.099   3.420
 7907SOL    HW124620   5.088   2.091   3.322
 7907SOL    HW224621   5.154   2.184   3.439
 7908SOL     OW24622   1.608   0.971   5.746
 7908SOL    HW124623   1.598   0.891   5.805
 7908SOL    HW224624   1.627   1.051   5.803
 7909SOL     OW24625   4.811   4.629   4.289
 7909SOL    HW124626   4.839   4.718   4.327
 7909SOL    HW224627   4.777   4.571   4.362
 7910SOL     OW24628   2.986   3.605   5.834
 7910SOL    HW124629   3.077   3.581   5.799
 7910SOL    HW224630   2.968   3.554   5.918
 7911SOL     OW24631   1.157   3.905   0.448
 7911SOL    HW124632   1.064   3.868   0.454
 7911SOL    HW224633   1.168   3.955   0.362
 7912SOL     OW24634   6.351   4.705   0.649
 7912SOL    HW124635   6.443   4.722   0.683
 7912SOL    HW224636   6.313   4.789   0.610
 7913SOL     OW24637   1.151   4.452   2.015
 7913SOL    HW124638   1.103   4.380   2.065
 7913SOL    HW224639   1.110   4.463   1.924
 7914SOL     OW24640   0.589   4.613   0.312
 7914SOL    HW124641   0.606   4.603   0.410
 7914SOL    HW224642   0.603   4.709   0.285
 7915SOL     OW24643   5.037   2.268   1.854
 7915SOL    HW124644   4.952   2.314   1.831
 7915SOL    HW224645   5.114   2.328   1.831
 7916SOL     OW24646   0.311   5.255   5.224
 7916SOL    HW124647   0.310   5.213   5.132
 7916SOL    HW224648   0.338   5.186   5.291
 7917SOL     OW24649   3.527   2.955   4.870
 7917SOL    HW124650   3.505   3.035   4.813
 7917SOL    HW224651   3.444   2.925   4.917
 7918SOL     OW24652   0.349   0.713   5.058
 7918SOL    HW124653   0.350   0.701   5.157
 7918SOL    HW224654   0.304   0.635   5.015
 7919SOL     OW24655   1.413   4.380   3.496
 7919SOL    HW124656   1.359   4.304   3.458
 7919SOL    HW224657   1.479   4.344   3.562
 7920SOL     OW24658   0.582   0.115   0.652
 7920SOL    HW124659   0.507   0.067   0.696
 7920SOL    HW224660   0.546   0.170   0.576
 7921SOL     OW24661   5.251   5.750   2.400
 7921SOL    HW124662   5.213   5.707   2.482
 7921SOL    HW224663   5.199   5.720   2.320
 7922SOL     OW24664   0.385   6.323   0.861
 7922SOL    HW124665   0.336   6.245   0.822
 7922SOL    HW224666   0.407   6.388   0.788
 7923SOL     OW24667   3.590   0.284   0.098
 7923SOL    HW124668   3.568   0.359   0.161
 7923SOL    HW224669   3.552   0.198   0.134
 7924SOL     OW24670   4.890   7.011   2.266
 7924SOL    HW124671   4.846   6.922   2.279
 7924SOL    HW224672   4.976   6.998   2.217
 7925SOL     OW24673   0.861   0.918   6.246
 7925SOL    HW124674   0.927   0.966   6.189
 7925SOL    HW224675   0.905   0.839   6.288
 7926SOL     OW24676   4.629   1.914   5.874
 7926SOL    HW124677   4.628   1.931   5.776
 7926SOL    HW224678   4.723   1.899   5.905
 7927SOL     OW24679   4.112   5.625   3.248
 7927SOL    HW124680   4.140   5.720   3.266
 7927SOL    HW224681   4.137   5.567   3.325
 7928SOL     OW24682   1.576   1.468   4.961
 7928SOL    HW124683   1.541   1.557   4.931
 7928SOL    HW224684   1.617   1.421   4.883
 7929SOL     OW24685   4.816   4.290   5.603
 7929SOL    HW124686   4.798   4.192   5.594
 7929SOL    HW224687   4.892   4.315   5.543
 7930SOL     OW24688   4.322   5.308   4.682
 7930SOL    HW124689   4.330   5.283   4.778
 7930SOL    HW224690   4.376   5.390   4.665
 7931SOL     OW24691   3.317   3.024   6.991
 7931SOL    HW124692   3.231   3.063   0.003
 7931SOL    HW224693   3.393   3.068   0.018
 7932SOL     OW24694   1.188   6.625   0.001
 7932SOL    HW124695   1.217   6.533   0.026
 7932SOL    HW224696   1.263   6.689   0.014
 7933SOL     OW24697   0.405   5.974   6.239
 7933SOL    HW124698   0.307   5.958   6.227
 7933SOL    HW224699   0.428   6.065   6.205
 7934SOL     OW24700   1.678   4.762   6.521
 7934SOL    HW124701   1.758   4.710   6.550
 7934SOL    HW224702   1.696   4.860   6.532
 7935SOL     OW24703   5.695   6.486   1.201
 7935SOL    HW124704   5.715   6.560   1.137
 7935SOL    HW224705   5.599   6.459   1.193
 7936SOL     OW24706   3.939   5.773   2.334
 7936SOL    HW124707   3.918   5.700   2.270
 7936SOL    HW224708   4.029   5.811   2.313
 7937SOL     OW24709   6.568   6.203   3.636
 7937SOL    HW124710   6.515   6.144   3.575
 7937SOL    HW224711   6.647   6.239   3.586
 7938SOL     OW24712   6.472   5.935   4.000
 7938SOL    HW124713   6.533   6.014   3.996
 7938SOL    HW224714   6.486   5.878   3.919
 7939SOL     OW24715   1.544   2.564   4.361
 7939SOL    HW124716   1.523   2.583   4.457
 7939SOL    HW224717   1.569   2.468   4.351
 7940SOL     OW24718   1.782   3.047   1.312
 7940SOL    HW124719   1.734   3.014   1.393
 7940SOL    HW224720   1.850   3.115   1.338
 7941SOL     OW24721   5.897   0.551   1.897
 7941SOL    HW124722   5.876   0.644   1.924
 7941SOL    HW224723   5.831   0.488   1.938
 7942SOL     OW24724   6.843   5.616   2.522
 7942SOL    HW124725   6.907   5.615   2.599
 7942SOL    HW224726   6.849   5.530   2.472
 7943SOL     OW24727   6.312   3.624   6.478
 7943SOL    HW124728   6.326   3.540   6.427
 7943SOL    HW224729   6.271   3.603   6.567
 7944SOL     OW24730   0.603   2.699   1.079
 7944SOL    HW124731   0.702   2.711   1.069
 7944SOL    HW224732   0.576   2.715   1.174
 7945SOL     OW24733   6.124   5.325   1.394
 7945SOL    HW124734   6.143   5.421   1.417
 7945SOL    HW224735   6.051   5.290   1.453
 7946SOL     OW24736   3.189   0.601   6.299
 7946SOL    HW124737   3.152   0.512   6.272
 7946SOL    HW224738   3.116   0.657   6.339
 7947SOL     OW24739   4.120   2.208   6.647
 7947SOL    HW124740   4.091   2.266   6.570
 7947SOL    HW224741   4.217   2.186   6.638
 7948SOL     OW24742   1.075   6.815   1.025
 7948SOL    HW124743   1.171   6.812   1.052
 7948SOL    HW224744   1.063   6.765   0.939
 7949SOL     OW24745   4.573   4.663   4.913
 7949SOL    HW124746   4.500   4.623   4.969
 7949SOL    HW224747   4.653   4.682   4.970
 7950SOL     OW24748   4.676   5.230   4.150
 7950SOL    HW124749   4.675   5.304   4.217
 7950SOL    HW224750   4.760   5.176   4.161
 7951SOL     OW24751   2.193   4.384   1.945
 7951SOL    HW124752   2.280   4.343   1.916
 7951SOL    HW224753   2.126   4.312   1.961
 7952SOL     OW24754   0.119   3.607   0.190
 7952SOL    HW124755   0.175   3.545   0.246
 7952SOL    HW224756   0.146   3.599   0.094
 7953SOL     OW24757   2.981   2.200   3.576
 7953SOL    HW124758   2.970   2.269   3.648
 7953SOL    HW224759   3.072   2.158   3.585
 7954SOL     OW24760   3.387   4.721   6.780
 7954SOL    HW124761   3.381   4.683   6.872
 7954SOL    HW224762   3.419   4.650   6.717
 7955SOL     OW24763   1.730   0.596   6.550
 7955SOL    HW124764   1.772   0.666   6.493
 7955SOL    HW224765   1.775   0.594   6.640
 7956SOL     OW24766   3.922   6.342   2.356
 7956SOL    HW124767   3.880   6.251   2.355
 7956SOL    HW224768   3.885   6.395   2.433
 7957SOL     OW24769   0.974   0.675   1.277
 7957SOL    HW124770   1.059   0.691   1.227
 7957SOL    HW224771   0.995   0.655   1.373
 7958SOL     OW24772   3.808   4.864   5.315
 7958SOL    HW124773   3.768   4.942   5.267
 7958SOL    HW224774   3.871   4.897   5.386
 7959SOL     OW24775   4.601   6.006   0.379
 7959SOL    HW124776   4.648   6.040   0.297
 7959SOL    HW224777   4.596   5.906   0.375
 7960SOL     OW24778   2.647   1.675   5.909
 7960SOL    HW124779   2.719   1.607   5.892
 7960SOL    HW224780   2.662   1.717   5.998
 7961SOL     OW24781   6.339   1.644   1.073
 7961SOL    HW124782   6.259   1.650   1.132
 7961SOL    HW224783   6.316   1.677   0.981
 7962SOL     OW24784   1.058   0.897   6.668
 7962SOL    HW124785   1.016   0.939   6.749
 7962SOL    HW224786   1.142   0.851   6.695
 7963SOL     OW24787   6.566   6.358   4.056
 7963SOL    HW124788   6.552   6.388   4.150
 7963SOL    HW224789   6.520   6.420   3.993
 7964SOL     OW24790   0.257   4.485   2.603
 7964SOL    HW124791   0.178   4.428   2.628
 7964SOL    HW224792   0.230   4.547   2.529
 7965SOL     OW24793   4.440   2.810   5.613
 7965SOL    HW124794   4.366   2.815   5.547
 7965SOL    HW224795   4.468   2.714   5.625
 7966SOL     OW24796   1.536   2.435   5.575
 7966SOL    HW124797   1.545   2.444   5.476
 7966SOL    HW224798   1.609   2.375   5.610
 7967SOL     OW24799   2.965   6.518   2.860
 7967SOL    HW124800   3.032   6.453   2.896
 7967SOL    HW224801   2.904   6.471   2.797
 7968SOL     OW24802   1.713   3.163   3.646
 7968SOL    HW124803   1.750   3.074   3.675
 7968SOL    HW224804   1.739   3.233   3.713
 7969SOL     OW24805   3.781   6.075   6.949
 7969SOL    HW124806   3.736   5.996   6.991
 7969SOL    HW224807   3.757   6.079   6.852
 7970SOL     OW24808   6.424   2.758   2.784
 7970SOL    HW124809   6.365   2.733   2.707
 7970SOL    HW224810   6.423   2.857   2.797
 7971SOL     OW24811   3.401   1.931   0.359
 7971SOL    HW124812   3.350   2.017   0.352
 7971SOL    HW224813   3.478   1.944   0.421
 7972SOL     OW24814   2.008   3.055   0.102
 7972SOL    HW124815   1.937   3.085   0.166
 7972SOL    HW224816   2.042   3.134   0.050
 7973SOL     OW24817   4.395   4.775   4.412
 7973SOL    HW124818   4.303   4.812   4.404
 7973SOL    HW224819   4.409   4.738   4.504
 7974SOL     OW24820   6.194   0.647   5.433
 7974SOL    HW124821   6.211   0.743   5.411
 7974SOL    HW224822   6.276   0.608   5.476
 7975SOL     OW24823   6.443   1.517   2.216
 7975SOL    HW124824   6.412   1.489   2.307
 7975SOL    HW224825   6.363   1.532   2.157
 7976SOL     OW24826   0.162   0.258   6.006
 7976SOL    HW124827   0.214   0.207   5.938
 7976SOL    HW224828   0.085   0.203   6.038
 7977SOL     OW24829   4.533   5.835   2.730
 7977SOL    HW124830   4.469   5.911   2.730
 7977SOL    HW224831   4.518   5.779   2.812
 7978SOL     OW24832   5.572   3.977   6.376
 7978SOL    HW124833   5.545   4.043   6.447
 7978SOL    HW224834   5.669   3.990   6.355
 7979SOL     OW24835   4.095   5.830   5.155
 7979SOL    HW124836   4.044   5.812   5.238
 7979SOL    HW224837   4.076   5.758   5.088
 7980SOL     OW24838   3.113   5.734   0.048
 7980SOL    HW124839   3.117   5.683   0.134
 7980SOL    HW224840   3.022   5.726   0.008
 7981SOL     OW24841   0.501   5.304   1.108
 7981SOL    HW124842   0.466   5.352   1.188
 7981SOL    HW224843   0.538   5.370   1.043
 7982SOL     OW24844   1.141   1.346   6.514
 7982SOL    HW124845   1.237   1.323   6.532
 7982SOL    HW224846   1.091   1.262   6.495
 7983SOL     OW24847   5.580   2.159   1.667
 7983SOL    HW124848   5.552   2.255   1.675
 7983SOL    HW224849   5.636   2.147   1.585
 7984SOL     OW24850   1.357   1.247   0.527
 7984SOL    HW124851   1.436   1.227   0.584
 7984SOL    HW224852   1.289   1.298   0.579
 7985SOL     OW24853   2.772   1.123   4.309
 7985SOL    HW124854   2.799   1.042   4.256
 7985SOL    HW224855   2.853   1.167   4.346
 7986SOL     OW24856   3.228   1.234   6.238
 7986SOL    HW124857   3.184   1.291   6.308
 7986SOL    HW224858   3.304   1.284   6.198
 7987SOL     OW24859   1.452   2.749   5.989
 7987SOL    HW124860   1.355   2.771   5.986
 7987SOL    HW224861   1.472   2.681   5.918
 7988SOL     OW24862   0.719   2.445   3.865
 7988SOL    HW124863   0.810   2.459   3.904
 7988SOL    HW224864   0.658   2.409   3.935
 7989SOL     OW24865   3.232   2.583   6.330
 7989SOL    HW124866   3.309   2.518   6.336
 7989SOL    HW224867   3.204   2.609   6.423
 7990SOL     OW24868   0.548   3.596   4.740
 7990SOL    HW124869   0.483   3.521   4.759
 7990SOL    HW224870   0.641   3.559   4.738
 7991SOL     OW24871   5.888   0.011   3.479
 7991SOL    HW124872   5.856   7.019   3.385
 7991SOL    HW224873   5.947   6.954   3.504
 7992SOL     OW24874   1.658   0.402   1.049
 7992SOL    HW124875   1.703   0.396   0.960
 7992SOL    HW224876   1.629   0.496   1.065
 7993SOL     OW24877   0.867   0.277   0.519
 7993SOL    HW124878   0.854   0.261   0.617
 7993SOL    HW224879   0.782   0.312   0.479
 7994SOL     OW24880   3.930   6.967   3.498
 7994SOL    HW124881   3.952   6.973   3.401
 7994SOL    HW224882   3.890   0.034   3.528
 7995SOL     OW24883   4.862   6.138   3.953
 7995SOL    HW124884   4.906   6.202   3.890
 7995SOL    HW224885   4.789   6.089   3.905
 7996SOL     OW24886   2.673   6.681   4.483
 7996SOL    HW124887   2.692   6.743   4.560
 7996SOL    HW224888   2.750   6.683   4.419
 7997SOL     OW24889   0.125   1.328   1.200
 7997SOL    HW124890   0.047   1.266   1.205
 7997SOL    HW224891   0.155   1.352   1.293
 7998SOL     OW24892   2.868   6.784   0.887
 7998SOL    HW124893   2.774   6.786   0.854
 7998SOL    HW224894   2.876   6.844   0.968
 7999SOL     OW24895   0.986   0.253   6.408
 7999SOL    HW124896   0.886   0.247   6.413
 7999SOL    HW224897   1.018   0.205   6.326
 8000SOL     OW24898   4.886   0.249   6.985
 8000SOL    HW124899   4.864   0.313   6.911
 8000SOL    HW224900   4.956   0.185   6.953
 8001SOL     OW24901   4.452   6.182   0.954
 8001SOL    HW124902   4.367   6.233   0.966
 8001SOL    HW224903   4.529   6.238   0.983
 8002SOL     OW24904   0.981   1.679   5.992
 8002SOL    HW124905   1.052   1.708   5.928
 8002SOL    HW224906   1.021   1.622   6.063
 8003SOL     OW24907   3.139   5.212   2.486
 8003SOL    HW124908   3.191   5.220   2.571
 8003SOL    HW224909   3.135   5.300   2.440
 8004SOL     OW24910   2.129   3.400   2.984
 8004SOL    HW124911   2.054   3.369   2.926
 8004SOL    HW224912   2.134   3.341   3.065
 8005SOL     OW24913   3.431   0.972   1.520
 8005SOL    HW124914   3.367   1.049   1.512
 8005SOL    HW224915   3.409   0.903   1.451
 8006SOL     OW24916   1.864   6.989   6.246
 8006SOL    HW124917   1.886   6.988   6.343
 8006SOL    HW224918   1.927   6.927   6.198
 8007SOL     OW24919   6.728   0.418   4.665
 8007SOL    HW124920   6.638   0.380   4.687
 8007SOL    HW224921   6.720   0.517   4.652
 8008SOL     OW24922   3.920   5.525   6.671
 8008SOL    HW124923   3.883   5.615   6.649
 8008SOL    HW224924   3.847   5.456   6.669
 8009SOL     OW24925   5.858   0.755   2.422
 8009SOL    HW124926   5.767   0.772   2.387
 8009SOL    HW224927   5.852   0.701   2.506
 8010SOL     OW24928   1.232   1.322   5.777
 8010SOL    HW124929   1.267   1.354   5.689
 8010SOL    HW224930   1.257   1.388   5.849
 8011SOL     OW24931   3.219   2.821   1.114
 8011SOL    HW124932   3.228   2.904   1.059
 8011SOL    HW224933   3.307   2.798   1.154
 8012SOL     OW24934   1.907   4.252   1.652
 8012SOL    HW124935   1.846   4.207   1.587
 8012SOL    HW224936   1.910   4.350   1.631
 8013SOL     OW24937   1.228   5.456   3.367
 8013SOL    HW124938   1.183   5.541   3.393
 8013SOL    HW224939   1.164   5.398   3.317
 8014SOL     OW24940   1.108   6.460   5.301
 8014SOL    HW124941   1.094   6.515   5.219
 8014SOL    HW224942   1.072   6.368   5.286
 8015SOL     OW24943   2.902   0.515   6.361
 8015SOL    HW124944   2.832   0.554   6.421
 8015SOL    HW224945   2.872   0.522   6.265
 8016SOL     OW24946   5.096   0.275   5.787
 8016SOL    HW124947   5.172   0.279   5.851
 8016SOL    HW224948   5.124   0.313   5.699
 8017SOL     OW24949   5.686   0.273   0.440
 8017SOL    HW124950   5.700   0.364   0.402
 8017SOL    HW224951   5.744   0.262   0.521
 8018SOL     OW24952   3.153   1.807   5.871
 8018SOL    HW124953   3.131   1.903   5.891
 8018SOL    HW224954   3.104   1.777   5.790
 8019SOL     OW24955   2.371   4.049   6.916
 8019SOL    HW124956   2.440   4.095   6.972
 8019SOL    HW224957   2.281   4.088   6.937
 8020SOL     OW24958   5.849   0.926   1.217
 8020SOL    HW124959   5.890   0.983   1.289
 8020SOL    HW224960   5.889   0.834   1.221
 8021SOL     OW24961   0.868   2.767   1.049
 8021SOL    HW124962   0.868   2.726   0.958
 8021SOL    HW224963   0.951   2.821   1.061
 8022SOL     OW24964   5.199   6.822   3.210
 8022SOL    HW124965   5.104   6.797   3.231
 8022SOL    HW224966   5.202   6.866   3.119
 8023SOL     OW24967   5.661   5.234   2.692
 8023SOL    HW124968   5.679   5.197   2.783
 8023SOL    HW224969   5.730   5.303   2.670
 8024SOL     OW24970   2.070   4.861   6.194
 8024SOL    HW124971   1.971   4.845   6.195
 8024SOL    HW224972   2.094   4.918   6.115
 8025SOL     OW24973   1.701   6.553   6.784
 8025SOL    HW124974   1.720   6.556   6.882
 8025SOL    HW224975   1.776   6.595   6.734
 8026SOL     OW24976   0.757   4.278   6.761
 8026SOL    HW124977   0.781   4.367   6.723
 8026SOL    HW224978   0.769   4.208   6.690
 8027SOL     OW24979   4.640   0.862   5.012
 8027SOL    HW124980   4.589   0.913   4.943
 8027SOL    HW224981   4.715   0.812   4.968
 8028SOL     OW24982   3.582   5.296   5.237
 8028SOL    HW124983   3.607   5.272   5.330
 8028SOL    HW224984   3.495   5.252   5.213
 8029SOL     OW24985   4.930   2.992   1.392
 8029SOL    HW124986   4.880   2.912   1.426
 8029SOL    HW224987   4.957   3.050   1.469
 8030SOL     OW24988   4.361   4.372   0.698
 8030SOL    HW124989   4.408   4.360   0.786
 8030SOL    HW224990   4.262   4.369   0.712
 8031SOL     OW24991   6.143   6.659   1.912
 8031SOL    HW124992   6.124   6.581   1.852
 8031SOL    HW224993   6.068   6.725   1.907
 8032SOL     OW24994   6.734   4.998   1.228
 8032SOL    HW124995   6.760   5.090   1.259
 8032SOL    HW224996   6.651   5.004   1.173
 8033SOL     OW24997   5.232   1.228   5.584
 8033SOL    HW124998   5.144   1.195   5.550
 8033SOL    HW224999   5.305   1.195   5.525
 8034SOL     OW25000   4.969   6.953   4.742
 8034SOL    HW125001   4.940   6.879   4.682
 8034SOL    HW225002   4.936   0.020   4.706
 8035SOL     OW25003   5.021   1.970   4.191
 8035SOL    HW125004   5.118   1.988   4.208
 8035SOL    HW225005   4.982   1.922   4.270
 8036SOL     OW25006   6.921   3.776   3.481
 8036SOL    HW125007   6.976   3.728   3.549
 8036SOL    HW225008   6.980   3.829   3.421
 8037SOL     OW25009   1.743   3.306   6.997
 8037SOL    HW125010   1.769   3.240   6.927
 8037SOL    HW225011   1.653   3.344   6.977
 8038SOL     OW25012   3.808   6.817   2.752
 8038SOL    HW125013   3.848   6.808   2.843
 8038SOL    HW225014   3.710   6.795   2.756
 8039SOL     OW25015   0.521   1.755   4.391
 8039SOL    HW125016   0.452   1.749   4.463
 8039SOL    HW225017   0.489   1.706   4.310
 8040SOL     OW25018   1.812   5.385   6.860
 8040SOL    HW125019   1.763   5.401   6.774
 8040SOL    HW225020   1.746   5.366   6.932
 8041SOL     OW25021   2.352   1.801   2.556
 8041SOL    HW125022   2.381   1.849   2.473
 8041SOL    HW225023   2.409   1.721   2.571
 8042SOL     OW25024   2.973   3.239   3.939
 8042SOL    HW125025   2.926   3.274   3.858
 8042SOL    HW225026   3.041   3.306   3.970
 8043SOL     OW25027   3.788   6.877   1.449
 8043SOL    HW125028   3.836   6.792   1.423
 8043SOL    HW225029   3.725   6.902   1.376
 8044SOL     OW25030   4.232   2.126   1.254
 8044SOL    HW125031   4.149   2.125   1.310
 8044SOL    HW225032   4.244   2.037   1.211
 8045SOL     OW25033   5.137   1.854   2.854
 8045SOL    HW125034   5.184   1.893   2.775
 8045SOL    HW225035   5.038   1.867   2.843
 8046SOL     OW25036   0.062   5.364   1.042
 8046SOL    HW125037   0.048   5.324   1.132
 8046SOL    HW225038   0.059   5.292   0.973
 8047SOL     OW25039   4.271   5.749   4.422
 8047SOL    HW125040   4.198   5.707   4.476
 8047SOL    HW225041   4.256   5.730   4.325
 8048SOL     OW25042   5.264   1.125   5.848
 8048SOL    HW125043   5.263   1.166   5.757
 8048SOL    HW225044   5.277   1.026   5.839
 8049SOL     OW25045   0.802   0.229   0.080
 8049SOL    HW125046   0.764   0.308   0.129
 8049SOL    HW225047   0.749   0.214   7.017
 8050SOL     OW25048   1.323   4.403   3.801
 8050SOL    HW125049   1.275   4.459   3.734
 8050SOL    HW225050   1.305   4.306   3.783
 8051SOL     OW25051   4.547   5.890   3.521
 8051SOL    HW125052   4.527   5.865   3.616
 8051SOL    HW225053   4.642   5.920   3.514
 8052SOL     OW25054   4.198   1.236   1.751
 8052SOL    HW125055   4.150   1.286   1.678
 8052SOL    HW225056   4.248   1.301   1.808
 8053SOL     OW25057   2.907   3.659   3.592
 8053SOL    HW125058   2.939   3.709   3.673
 8053SOL    HW225059   2.932   3.709   3.509
 8054SOL     OW25060   5.833   6.879   4.759
 8054SOL    HW125061   5.877   6.968   4.746
 8054SOL    HW225062   5.784   6.879   4.846
 8055SOL     OW25063   0.820   0.116   5.611
 8055SOL    HW125064   0.796   0.045   5.545
 8055SOL    HW225065   0.851   0.075   5.696
 8056SOL     OW25066   2.533   1.591   4.123
 8056SOL    HW125067   2.533   1.650   4.204
 8056SOL    HW225068   2.496   1.502   4.147
 8057SOL     OW25069   2.956   2.183   2.858
 8057SOL    HW125070   2.925   2.258   2.916
 8057SOL    HW225071   2.879   2.120   2.842
 8058SOL     OW25072   3.682   0.091   2.585
 8058SOL    HW125073   3.632   0.052   2.662
 8058SOL    HW225074   3.731   0.019   2.536
 8059SOL     OW25075   3.155   1.954   5.042
 8059SOL    HW125076   3.140   2.039   4.991
 8059SOL    HW225077   3.248   1.953   5.079
 8060SOL     OW25078   6.099   2.138   4.577
 8060SOL    HW125079   6.152   2.189   4.646
 8060SOL    HW225080   6.159   2.110   4.503
 8061SOL     OW25081   0.392   1.157   2.693
 8061SOL    HW125082   0.469   1.145   2.630
 8061SOL    HW225083   0.317   1.098   2.667
 8062SOL     OW25084   3.818   5.024   3.907
 8062SOL    HW125085   3.876   5.008   3.987
 8062SOL    HW225086   3.727   4.987   3.924
 8063SOL     OW25087   1.430   2.395   1.621
 8063SOL    HW125088   1.495   2.329   1.657
 8063SOL    HW225089   1.343   2.350   1.602
 8064SOL     OW25090   0.204   3.665   1.881
 8064SOL    HW125091   0.182   3.623   1.969
 8064SOL    HW225092   0.188   3.600   1.807
 8065SOL     OW25093   2.419   5.517   3.554
 8065SOL    HW125094   2.359   5.577   3.607
 8065SOL    HW225095   2.510   5.517   3.595
 8066SOL     OW25096   0.440   1.907   5.006
 8066SOL    HW125097   0.481   1.830   5.056
 8066SOL    HW225098   0.342   1.911   5.026
 8067SOL     OW25099   4.596   2.760   1.797
 8067SOL    HW125100   4.624   2.856   1.794
 8067SOL    HW225101   4.520   2.746   1.733
 8068SOL     OW25102   0.180   3.640   1.239
 8068SOL    HW125103   0.167   3.729   1.197
 8068SOL    HW225104   0.115   3.574   1.200
 8069SOL     OW25105   2.535   6.146   1.728
 8069SOL    HW125106   2.439   6.173   1.722
 8069SOL    HW225107   2.542   6.060   1.779
 8070SOL     OW25108   4.295   3.356   0.544
 8070SOL    HW125109   4.277   3.325   0.637
 8070SOL    HW225110   4.356   3.292   0.498
 8071SOL     OW25111   2.687   6.143   4.494
 8071SOL    HW125112   2.700   6.239   4.470
 8071SOL    HW225113   2.598   6.112   4.460
 8072SOL     OW25114   3.697   1.281   0.759
 8072SOL    HW125115   3.614   1.227   0.755
 8072SOL    HW225116   3.724   1.294   0.854
 8073SOL     OW25117   2.977   5.253   4.681
 8073SOL    HW125118   2.886   5.212   4.687
 8073SOL    HW225119   3.032   5.203   4.614
 8074SOL     OW25120   3.843   2.773   0.435
 8074SOL    HW125121   3.794   2.859   0.446
 8074SOL    HW225122   3.821   2.734   0.345
 8075SOL     OW25123   0.201   0.549   0.916
 8075SOL    HW125124   0.141   0.575   0.992
 8075SOL    HW225125   0.288   0.517   0.952
 8076SOL     OW25126   6.501   1.226   5.271
 8076SOL    HW125127   6.552   1.188   5.348
 8076SOL    HW225128   6.493   1.325   5.283
 8077SOL     OW25129   2.711   5.978   2.789
 8077SOL    HW125130   2.727   6.005   2.694
 8077SOL    HW225131   2.755   6.042   2.851
 8078SOL     OW25132   0.353   1.632   0.659
 8078SOL    HW125133   0.380   1.728   0.652
 8078SOL    HW225134   0.406   1.577   0.595
 8079SOL     OW25135   4.688   1.964   3.809
 8079SOL    HW125136   4.770   1.988   3.862
 8079SOL    HW225137   4.665   1.868   3.826
 8080SOL     OW25138   0.633   2.521   0.611
 8080SOL    HW125139   0.620   2.507   0.709
 8080SOL    HW225140   0.718   2.477   0.582
 8081SOL     OW25141   6.215   5.950   5.308
 8081SOL    HW125142   6.156   6.013   5.358
 8081SOL    HW225143   6.183   5.942   5.213
 8082SOL     OW25144   4.334   6.904   2.262
 8082SOL    HW125145   4.314   6.905   2.164
 8082SOL    HW225146   4.397   6.979   2.284
 8083SOL     OW25147   5.037   3.461   3.090
 8083SOL    HW125148   4.959   3.424   3.038
 8083SOL    HW225149   5.106   3.494   3.026
 8084SOL     OW25150   4.223   6.842   0.508
 8084SOL    HW125151   4.216   6.927   0.561
 8084SOL    HW225152   4.319   6.814   0.502
 8085SOL     OW25153   6.726   6.449   1.780
 8085SOL    HW125154   6.783   6.427   1.859
 8085SOL    HW225155   6.699   6.545   1.784
 8086SOL     OW25156   5.480   0.618   2.894
 8086SOL    HW125157   5.533   0.686   2.843
 8086SOL    HW225158   5.383   0.628   2.872
 8087SOL     OW25159   2.870   1.286   6.972
 8087SOL    HW125160   2.908   1.367   6.927
 8087SOL    HW225161   2.945   1.223   6.995
 8088SOL     OW25162   5.359   2.127   1.387
 8088SOL    HW125163   5.426   2.058   1.414
 8088SOL    HW225164   5.393   2.177   1.307
 8089SOL     OW25165   5.727   2.328   0.334
 8089SOL    HW125166   5.692   2.392   0.266
 8089SOL    HW225167   5.661   2.254   0.348
 8090SOL     OW25168   4.283   1.744   0.226
 8090SOL    HW125169   4.291   1.837   0.191
 8090SOL    HW225170   4.331   1.737   0.313
 8091SOL     OW25171   2.096   3.669   5.322
 8091SOL    HW125172   2.100   3.743   5.389
 8091SOL    HW225173   2.169   3.602   5.341
 8092SOL     OW25174   5.929   1.745   4.744
 8092SOL    HW125175   6.008   1.687   4.724
 8092SOL    HW225176   5.956   1.819   4.806
 8093SOL     OW25177   3.600   5.430   2.798
 8093SOL    HW125178   3.690   5.387   2.806
 8093SOL    HW225179   3.538   5.389   2.865
 8094SOL     OW25180   1.757   3.634   4.635
 8094SOL    HW125181   1.803   3.701   4.693
 8094SOL    HW225182   1.823   3.564   4.606
 8095SOL     OW25183   0.161   4.415   4.641
 8095SOL    HW125184   0.084   4.478   4.638
 8095SOL    HW225185   0.207   4.414   4.552
 8096SOL     OW25186   2.303   6.545   3.082
 8096SOL    HW125187   2.207   6.569   3.096
 8096SOL    HW225188   2.354   6.626   3.052
 8097SOL     OW25189   4.011   0.254   3.941
 8097SOL    HW125190   3.922   0.276   3.981
 8097SOL    HW225191   4.077   0.238   4.014
 8098SOL     OW25192   1.551   0.392   3.183
 8098SOL    HW125193   1.616   0.322   3.154
 8098SOL    HW225194   1.477   0.398   3.116
 8099SOL     OW25195   3.556   6.808   4.759
 8099SOL    HW125196   3.489   6.864   4.808
 8099SOL    HW225197   3.552   6.714   4.793
 8100SOL     OW25198   5.996   1.274   0.520
 8100SOL    HW125199   5.897   1.264   0.528
 8100SOL    HW225200   6.025   1.360   0.562
 8101SOL     OW25201   1.928   6.595   2.681
 8101SOL    HW125202   1.957   6.512   2.729
 8101SOL    HW225203   1.912   6.667   2.748
 8102SOL     OW25204   0.489   4.378   4.071
 8102SOL    HW125205   0.470   4.467   4.029
 8102SOL    HW225206   0.504   4.391   4.169
 8103SOL     OW25207   3.864   0.162   1.259
 8103SOL    HW125208   3.834   0.129   1.170
 8103SOL    HW225209   3.882   0.260   1.254
 8104SOL     OW25210   3.728   0.245   6.134
 8104SOL    HW125211   3.760   0.315   6.199
 8104SOL    HW225212   3.807   0.197   6.095
 8105SOL     OW25213   0.616   2.874   3.150
 8105SOL    HW125214   0.614   2.809   3.226
 8105SOL    HW225215   0.708   2.878   3.111
 8106SOL     OW25216   2.203   5.740   3.114
 8106SOL    HW125217   2.279   5.772   3.057
 8106SOL    HW225218   2.171   5.652   3.081
 8107SOL     OW25219   0.570   4.745   4.492
 8107SOL    HW125220   0.501   4.781   4.430
 8107SOL    HW225221   0.661   4.770   4.460
 8108SOL     OW25222   6.110   3.193   5.577
 8108SOL    HW125223   6.103   3.247   5.493
 8108SOL    HW225224   6.055   3.234   5.649
 8109SOL     OW25225   1.074   3.601   5.302
 8109SOL    HW125226   1.036   3.513   5.276
 8109SOL    HW225227   1.174   3.598   5.293
 8110SOL     OW25228   2.993   6.209   1.608
 8110SOL    HW125229   3.045   6.288   1.642
 8110SOL    HW225230   2.896   6.223   1.626
 8111SOL     OW25231   4.957   0.362   5.225
 8111SOL    HW125232   5.011   0.420   5.165
 8111SOL    HW225233   4.906   0.296   5.171
 8112SOL     OW25234   2.096   2.130   4.641
 8112SOL    HW125235   2.149   2.208   4.675
 8112SOL    HW225236   2.148   2.083   4.570
 8113SOL     OW25237   2.984   3.437   0.646
 8113SOL    HW125238   3.077   3.427   0.612
 8113SOL    HW225239   2.934   3.351   0.637
 8114SOL     OW25240   1.715   3.743   1.990
 8114SOL    HW125241   1.671   3.691   1.917
 8114SOL    HW225242   1.805   3.773   1.961
 8115SOL     OW25243   3.510   0.768   0.267
 8115SOL    HW125244   3.503   0.847   0.207
 8115SOL    HW225245   3.420   0.744   0.302
 8116SOL     OW25246   5.355   5.090   5.834
 8116SOL    HW125247   5.282   5.044   5.885
 8116SOL    HW225248   5.352   5.188   5.853
 8117SOL     OW25249   1.116   0.869   3.433
 8117SOL    HW125250   1.168   0.798   3.479
 8117SOL    HW225251   1.053   0.912   3.497
 8118SOL     OW25252   5.924   4.316   5.236
 8118SOL    HW125253   5.894   4.276   5.149
 8118SOL    HW225254   5.927   4.415   5.227
 8119SOL     OW25255   5.677   5.405   5.724
 8119SOL    HW125256   5.644   5.316   5.693
 8119SOL    HW225257   5.772   5.417   5.696
 8120SOL     OW25258   2.730   5.608   0.321
 8120SOL    HW125259   2.689   5.570   0.404
 8120SOL    HW225260   2.774   5.695   0.343
 8121SOL     OW25261   0.616   4.836   1.945
 8121SOL    HW125262   0.692   4.888   1.983
 8121SOL    HW225263   0.570   4.786   2.018
 8122SOL     OW25264   0.886   5.941   2.369
 8122SOL    HW125265   0.865   5.993   2.286
 8122SOL    HW225266   0.905   6.004   2.444
 8123SOL     OW25267   6.824   0.854   5.842
 8123SOL    HW125268   6.735   0.886   5.875
 8123SOL    HW225269   6.891   0.928   5.848
 8124SOL     OW25270   5.944   6.904   1.190
 8124SOL    HW125271   5.989   6.900   1.101
 8124SOL    HW225272   5.963   6.992   1.233
 8125SOL     OW25273   1.185   1.323   3.812
 8125SOL    HW125274   1.085   1.321   3.815
 8125SOL    HW225275   1.219   1.237   3.774
 8126SOL     OW25276   4.815   5.304   2.764
 8126SOL    HW125277   4.730   5.253   2.778
 8126SOL    HW225278   4.871   5.258   2.695
 8127SOL     OW25279   2.619   5.100   6.430
 8127SOL    HW125280   2.683   5.119   6.355
 8127SOL    HW225281   2.595   5.186   6.475
 8128SOL     OW25282   2.754   1.450   1.626
 8128SOL    HW125283   2.730   1.501   1.708
 8128SOL    HW225284   2.762   1.513   1.549
 8129SOL     OW25285   4.902   0.667   6.354
 8129SOL    HW125286   4.965   0.590   6.351
 8129SOL    HW225287   4.808   0.633   6.361
 8130SOL     OW25288   0.047   3.037   6.101
 8130SOL    HW125289   0.040   2.949   6.149
 8130SOL    HW225290   6.975   3.067   6.073
 8131SOL     OW25291   3.762   2.197   1.100
 8131SOL    HW125292   3.691   2.254   1.143
 8131SOL    HW225293   3.822   2.256   1.047
 8132SOL     OW25294   6.061   6.887   5.922
 8132SOL    HW125295   6.070   6.939   5.836
 8132SOL    HW225296   6.129   6.919   5.987
 8133SOL     OW25297   2.740   4.774   1.514
 8133SOL    HW125298   2.747   4.676   1.535
 8133SOL    HW225299   2.832   4.812   1.504
 8134SOL     OW25300   0.193   2.806   5.666
 8134SOL    HW125301   0.224   2.817   5.572
 8134SOL    HW225302   0.153   2.892   5.698
 8135SOL     OW25303   2.629   5.911   1.843
 8135SOL    HW125304   2.716   5.941   1.805
 8135SOL    HW225305   2.603   5.824   1.800
 8136SOL     OW25306   4.278   5.249   2.999
 8136SOL    HW125307   4.293   5.249   3.098
 8136SOL    HW225308   4.284   5.156   2.963
 8137SOL     OW25309   3.250   1.141   5.268
 8137SOL    HW125310   3.311   1.220   5.275
 8137SOL    HW225311   3.230   1.123   5.172
 8138SOL     OW25312   5.647   1.156   0.067
 8138SOL    HW125313   5.621   1.094   0.141
 8138SOL    HW225314   5.618   1.117   7.000
 8139SOL     OW25315   0.369   1.266   2.972
 8139SOL    HW125316   0.405   1.241   2.882
 8139SOL    HW225317   0.369   1.366   2.980
 8140SOL     OW25318   4.818   0.147   1.161
 8140SOL    HW125319   4.852   0.227   1.210
 8140SOL    HW225320   4.718   0.150   1.157
 8141SOL     OW25321   4.701   6.321   5.688
 8141SOL    HW125322   4.774   6.376   5.647
 8141SOL    HW225323   4.624   6.380   5.712
 8142SOL     OW25324   1.080   4.558   0.059
 8142SOL    HW125325   1.126   4.525   6.997
 8142SOL    HW225326   1.124   4.642   0.091
 8143SOL     OW25327   7.005   4.798   0.770
 8143SOL    HW125328   6.911   4.823   0.751
 8143SOL    HW225329   7.018   4.787   0.869
 8144SOL     OW25330   6.600   6.688   6.178
 8144SOL    HW125331   6.509   6.673   6.218
 8144SOL    HW225332   6.589   6.737   6.091
 8145SOL     OW25333   5.772   5.568   1.809
 8145SOL    HW125334   5.707   5.551   1.735
 8145SOL    HW225335   5.859   5.526   1.787
 8146SOL     OW25336   4.764   0.990   5.325
 8146SOL    HW125337   4.714   0.943   5.397
 8146SOL    HW225338   4.775   1.087   5.349
 8147SOL     OW25339   6.622   1.869   1.877
 8147SOL    HW125340   6.641   1.941   1.809
 8147SOL    HW225341   6.706   1.849   1.927
 8148SOL     OW25342   5.046   4.189   0.813
 8148SOL    HW125343   5.108   4.122   0.851
 8148SOL    HW225344   5.097   4.253   0.755
 8149SOL     OW25345   2.578   6.088   2.358
 8149SOL    HW125346   2.567   6.148   2.279
 8149SOL    HW225347   2.502   6.022   2.361
 8150SOL     OW25348   2.174   4.374   1.106
 8150SOL    HW125349   2.100   4.317   1.140
 8150SOL    HW225350   2.159   4.469   1.135
 8151SOL     OW25351   5.357   4.362   2.226
 8151SOL    HW125352   5.380   4.318   2.313
 8151SOL    HW225353   5.402   4.314   2.151
 8152SOL     OW25354   6.134   2.208   2.934
 8152SOL    HW125355   6.049   2.243   2.894
 8152SOL    HW225356   6.210   2.229   2.872
 8153SOL     OW25357   1.262   1.047   4.008
 8153SOL    HW125358   1.271   1.070   3.911
 8153SOL    HW225359   1.228   0.954   4.018
 8154SOL     OW25360   3.507   5.186   2.357
 8154SOL    HW125361   3.564   5.213   2.280
 8154SOL    HW225362   3.525   5.246   2.435
 8155SOL     OW25363   1.965   2.995   1.625
 8155SOL    HW125364   1.878   2.947   1.624
 8155SOL    HW225365   1.955   3.084   1.579
 8156SOL     OW25366   5.440   6.205   0.881
 8156SOL    HW125367   5.481   6.290   0.849
 8156SOL    HW225368   5.346   6.199   0.849
 8157SOL     OW25369   6.497   5.130   5.875
 8157SOL    HW125370   6.548   5.074   5.810
 8157SOL    HW225371   6.552   5.143   5.957
 8158SOL     OW25372   4.820   4.454   0.191
 8158SOL    HW125373   4.904   4.412   0.225
 8158SOL    HW225374   4.746   4.441   0.258
 8159SOL     OW25375   2.420   5.838   3.017
 8159SOL    HW125376   2.452   5.912   2.957
 8159SOL    HW225377   2.472   5.754   2.997
 8160SOL     OW25378   5.001   1.072   3.113
 8160SOL    HW125379   5.054   1.157   3.104
 8160SOL    HW225380   5.014   1.016   3.031
 8161SOL     OW25381   6.129   2.540   6.743
 8161SOL    HW125382   6.099   2.460   6.794
 8161SOL    HW225383   6.052   2.603   6.732
 8162SOL     OW25384   5.942   6.580   0.012
 8162SOL    HW125385   5.906   6.534   6.950
 8162SOL    HW225386   6.024   6.631   7.008
 8163SOL     OW25387   2.842   4.059   5.370
 8163SOL    HW125388   2.940   4.046   5.389
 8163SOL    HW225389   2.798   4.097   5.452
 8164SOL     OW25390   5.016   2.043   0.156
 8164SOL    HW125391   4.947   2.092   0.103
 8164SOL    HW225392   5.072   1.988   0.096
 8165SOL     OW25393   0.909   3.606   6.042
 8165SOL    HW125394   0.993   3.563   6.007
 8165SOL    HW225395   0.926   3.703   6.060
 8166SOL     OW25396   1.146   0.916   3.166
 8166SOL    HW125397   1.157   0.900   3.264
 8166SOL    HW225398   1.086   0.846   3.128
 8167SOL     OW25399   0.048   6.903   4.012
 8167SOL    HW125400   0.126   6.868   3.961
 8167SOL    HW225401   0.033   6.999   3.989
 8168SOL     OW25402   2.031   1.545   3.220
 8168SOL    HW125403   2.041   1.599   3.136
 8168SOL    HW225404   2.066   1.452   3.204
 8169SOL     OW25405   4.816   2.211   0.949
 8169SOL    HW125406   4.781   2.164   1.030
 8169SOL    HW225407   4.750   2.199   0.874
 8170SOL     OW25408   1.277   4.795   2.445
 8170SOL    HW125409   1.229   4.848   2.516
 8170SOL    HW225410   1.222   4.794   2.362
 8171SOL     OW25411   1.714   1.708   6.156
 8171SOL    HW125412   1.720   1.614   6.122
 8171SOL    HW225413   1.705   1.707   6.256
 8172SOL     OW25414   1.059   2.310   2.496
 8172SOL    HW125415   1.058   2.387   2.433
 8172SOL    HW225416   1.153   2.275   2.505
 8173SOL     OW25417   5.513   1.458   2.147
 8173SOL    HW125418   5.484   1.495   2.059
 8173SOL    HW225419   5.613   1.460   2.152
 8174SOL     OW25420   6.062   2.547   1.228
 8174SOL    HW125421   6.128   2.543   1.303
 8174SOL    HW225422   6.042   2.454   1.196
 8175SOL     OW25423   0.267   2.487   5.293
 8175SOL    HW125424   0.289   2.469   5.388
 8175SOL    HW225425   0.321   2.427   5.234
 8176SOL     OW25426   2.292   5.475   1.898
 8176SOL    HW125427   2.365   5.521   1.949
 8176SOL    HW225428   2.220   5.446   1.961
 8177SOL     OW25429   3.638   6.940   4.094
 8177SOL    HW125430   3.583   7.006   4.042
 8177SOL    HW225431   3.583   6.858   4.112
 8178SOL     OW25432   2.783   6.339   6.962
 8178SOL    HW125433   2.778   6.246   6.926
 8178SOL    HW225434   2.865   6.384   6.928
 8179SOL     OW25435   5.006   1.817   5.575
 8179SOL    HW125436   4.982   1.848   5.483
 8179SOL    HW225437   4.956   1.733   5.596
 8180SOL     OW25438   6.676   0.125   5.050
 8180SOL    HW125439   6.689   0.096   4.955
 8180SOL    HW225440   6.583   0.159   5.062
 8181SOL     OW25441   2.000   1.516   0.787
 8181SOL    HW125442   1.968   1.610   0.799
 8181SOL    HW225443   2.075   1.497   0.850
 8182SOL     OW25444   3.725   3.550   5.916
 8182SOL    HW125445   3.768   3.493   5.846
 8182SOL    HW225446   3.772   3.638   5.920
 8183SOL     OW25447   6.779   2.154   4.911
 8183SOL    HW125448   6.874   2.155   4.878
 8183SOL    HW225449   6.779   2.146   5.011
 8184SOL     OW25450   6.211   0.992   0.141
 8184SOL    HW125451   6.134   0.957   0.195
 8184SOL    HW225452   6.179   1.024   0.052
 8185SOL     OW25453   2.989   6.679   0.192
 8185SOL    HW125454   3.039   6.765   0.193
 8185SOL    HW225455   2.894   6.696   0.164
 8186SOL     OW25456   3.679   5.532   5.672
 8186SOL    HW125457   3.606   5.465   5.675
 8186SOL    HW225458   3.758   5.498   5.724
 8187SOL     OW25459   1.638   2.334   4.733
 8187SOL    HW125460   1.671   2.426   4.711
 8187SOL    HW225461   1.538   2.332   4.724
 8188SOL     OW25462   5.686   2.753   3.006
 8188SOL    HW125463   5.689   2.653   3.010
 8188SOL    HW225464   5.626   2.787   3.078
 8189SOL     OW25465   4.582   4.698   2.942
 8189SOL    HW125466   4.625   4.625   2.995
 8189SOL    HW225467   4.622   4.786   2.968
 8190SOL     OW25468   4.493   5.227   4.480
 8190SOL    HW125469   4.436   5.240   4.561
 8190SOL    HW225470   4.499   5.313   4.430
 8191SOL     OW25471   3.992   6.363   1.833
 8191SOL    HW125472   3.991   6.407   1.923
 8191SOL    HW225473   3.899   6.340   1.805
 8192SOL     OW25474   4.119   5.035   0.531
 8192SOL    HW125475   4.041   5.067   0.584
 8192SOL    HW225476   4.113   5.070   0.438
 8193SOL     OW25477   6.977   6.371   4.683
 8193SOL    HW125478   7.002   6.462   4.718
 8193SOL    HW225479   0.036   6.330   4.638
 8194SOL     OW25480   5.402   2.635   0.832
 8194SOL    HW125481   5.346   2.561   0.870
 8194SOL    HW225482   5.421   2.702   0.904
 8195SOL     OW25483   1.472   0.574   1.811
 8195SOL    HW125484   1.516   0.657   1.777
 8195SOL    HW225485   1.380   0.566   1.774
 8196SOL     OW25486   3.913   6.430   6.024
 8196SOL    HW125487   3.988   6.409   6.087
 8196SOL    HW225488   3.945   6.492   5.953
 8197SOL     OW25489   4.549   2.055   0.291
 8197SOL    HW125490   4.550   1.980   0.357
 8197SOL    HW225491   4.462   2.055   0.242
 8198SOL     OW25492   3.352   6.881   3.065
 8198SOL    HW125493   3.321   6.974   3.083
 8198SOL    HW225494   3.273   6.820   3.062
 8199SOL     OW25495   5.700   2.841   6.832
 8199SOL    HW125496   5.675   2.878   6.921
 8199SOL    HW225497   5.651   2.890   6.760
 8200SOL     OW25498   5.229   4.023   1.654
 8200SOL    HW125499   5.201   4.012   1.559
 8200SOL    HW225500   5.150   4.046   1.710
 8201SOL     OW25501   5.694   0.222   3.990
 8201SOL    HW125502   5.676   0.132   3.951
 8201SOL    HW225503   5.609   0.261   4.025
 8202SOL     OW25504   0.230   5.718   4.539
 8202SOL    HW125505   0.144   5.732   4.491
 8202SOL    HW225506   0.265   5.627   4.519
 8203SOL     OW25507   4.748   2.398   0.001
 8203SOL    HW125508   4.758   2.304   0.034
 8203SOL    HW225509   4.825   2.453   0.033
 8204SOL     OW25510   3.028   5.193   0.044
 8204SOL    HW125511   3.127   5.202   0.056
 8204SOL    HW225512   2.994   5.119   0.102
 8205SOL     OW25513   0.258   4.616   0.927
 8205SOL    HW125514   0.302   4.649   0.843
 8205SOL    HW225515   0.202   4.688   0.966
 8206SOL     OW25516   4.887   2.945   6.441
 8206SOL    HW125517   4.871   2.906   6.350
 8206SOL    HW225518   4.982   2.975   6.447
 8207SOL     OW25519   3.122   4.059   4.976
 8207SOL    HW125520   3.143   4.001   4.898
 8207SOL    HW225521   3.037   4.028   5.019
 8208SOL     OW25522   1.914   0.293   1.380
 8208SOL    HW125523   1.941   0.357   1.308
 8208SOL    HW225524   1.940   0.330   1.469
 8209SOL     OW25525   0.457   1.261   6.336
 8209SOL    HW125526   0.432   1.183   6.393
 8209SOL    HW225527   0.460   1.233   6.240
 8210SOL     OW25528   2.446   0.830   1.422
 8210SOL    HW125529   2.474   0.735   1.412
 8210SOL    HW225530   2.389   0.840   1.504
 8211SOL     OW25531   3.870   3.963   2.124
 8211SOL    HW125532   3.882   4.010   2.037
 8211SOL    HW225533   3.948   3.904   2.141
 8212SOL     OW25534   2.542   1.884   1.221
 8212SOL    HW125535   2.611   1.955   1.208
 8212SOL    HW225536   2.584   1.804   1.263
 8213SOL     OW25537   6.335   4.523   2.084
 8213SOL    HW125538   6.375   4.566   2.165
 8213SOL    HW225539   6.323   4.592   2.012
 8214SOL     OW25540   6.974   5.254   4.434
 8214SOL    HW125541   6.877   5.241   4.415
 8214SOL    HW225542   6.986   5.291   4.526
 8215SOL     OW25543   2.787   5.391   6.103
 8215SOL    HW125544   2.806   5.444   6.020
 8215SOL    HW225545   2.702   5.423   6.144
 8216SOL     OW25546   5.086   5.990   3.644
 8216SOL    HW125547   5.138   5.994   3.559
 8216SOL    HW225548   5.147   6.006   3.722
 8217SOL     OW25549   2.337   3.986   1.746
 8217SOL    HW125550   2.423   3.958   1.703
 8217SOL    HW225551   2.270   4.008   1.674
 8218SOL     OW25552   0.813   6.531   4.653
 8218SOL    HW125553   0.811   6.626   4.685
 8218SOL    HW225554   0.895   6.486   4.688
 8219SOL     OW25555   4.339   3.091   0.898
 8219SOL    HW125556   4.342   2.997   0.933
 8219SOL    HW225557   4.406   3.100   0.824
 8220SOL     OW25558   3.219   3.672   4.438
 8220SOL    HW125559   3.120   3.681   4.446
 8220SOL    HW225560   3.258   3.647   4.527
 8221SOL     OW25561   6.108   5.932   3.236
 8221SOL    HW125562   6.044   5.906   3.308
 8221SOL    HW225563   6.166   5.854   3.214
 8222SOL     OW25564   5.150   1.450   1.318
 8222SOL    HW125565   5.117   1.529   1.266
 8222SOL    HW225566   5.236   1.418   1.278
 8223SOL     OW25567   1.078   4.239   5.176
 8223SOL    HW125568   1.164   4.187   5.183
 8223SOL    HW225569   1.097   4.329   5.138
 8224SOL     OW25570   5.809   2.610   1.940
 8224SOL    HW125571   5.742   2.545   1.974
 8224SOL    HW225572   5.901   2.575   1.957
 8225SOL     OW25573   4.159   1.238   1.317
 8225SOL    HW125574   4.145   1.311   1.250
 8225SOL    HW225575   4.252   1.242   1.352
 8226SOL     OW25576   3.420   0.003   0.923
 8226SOL    HW125577   3.397   0.088   0.875
 8226SOL    HW225578   3.393   0.010   1.019
 8227SOL     OW25579   6.411   1.181   2.657
 8227SOL    HW125580   6.317   1.176   2.624
 8227SOL    HW225581   6.413   1.225   2.747
 8228SOL     OW25582   0.270   1.727   6.295
 8228SOL    HW125583   0.193   1.670   6.323
 8228SOL    HW225584   0.353   1.671   6.292
 8229SOL     OW25585   3.834   3.969   1.447
 8229SOL    HW125586   3.804   3.946   1.540
 8229SOL    HW225587   3.853   4.067   1.442
 8230SOL     OW25588   3.603   6.509   5.306
 8230SOL    HW125589   3.559   6.564   5.377
 8230SOL    HW225590   3.534   6.454   5.258
 8231SOL     OW25591   2.908   2.916   1.634
 8231SOL    HW125592   2.957   2.842   1.680
 8231SOL    HW225593   2.961   3.001   1.644
 8232SOL     OW25594   6.004   1.879   2.531
 8232SOL    HW125595   6.070   1.855   2.601
 8232SOL    HW225596   6.005   1.978   2.516
 8233SOL     OW25597   1.510   6.718   6.688
 8233SOL    HW125598   1.566   6.645   6.727
 8233SOL    HW225599   1.437   6.678   6.633
 8234SOL     OW25600   2.977   3.982   0.461
 8234SOL    HW125601   3.045   3.919   0.498
 8234SOL    HW225602   2.885   3.950   0.485
 8235SOL     OW25603   0.317   3.859   0.085
 8235SOL    HW125604   0.356   3.767   0.097
 8235SOL    HW225605   0.249   3.876   0.155
 8236SOL     OW25606   6.737   4.796   7.011
 8236SOL    HW125607   6.787   4.883   7.010
 8236SOL    HW225608   6.773   4.736   6.939
 8237SOL     OW25609   4.747   5.863   6.002
 8237SOL    HW125610   4.728   5.955   5.970
 8237SOL    HW225611   4.796   5.812   5.931
 8238SOL     OW25612   0.754   5.246   0.076
 8238SOL    HW125613   0.781   5.193   7.016
 8238SOL    HW225614   0.746   5.185   0.155
 8239SOL     OW25615   0.606   0.894   5.466
 8239SOL    HW125616   0.515   0.860   5.443
 8239SOL    HW225617   0.606   0.930   5.559
 8240SOL     OW25618   3.468   4.081   2.226
 8240SOL    HW125619   3.506   4.138   2.300
 8240SOL    HW225620   3.543   4.035   2.178
 8241SOL     OW25621   2.876   4.997   5.978
 8241SOL    HW125622   2.922   5.067   5.924
 8241SOL    HW225623   2.786   5.031   6.008
 8242SOL     OW25624   0.348   3.813   5.908
 8242SOL    HW125625   0.360   3.721   5.945
 8242SOL    HW225626   0.421   3.872   5.941
 8243SOL     OW25627   6.690   3.794   1.062
 8243SOL    HW125628   6.774   3.805   1.009
 8243SOL    HW225629   6.650   3.705   1.040
 8244SOL     OW25630   0.261   0.408   3.449
 8244SOL    HW125631   0.230   0.487   3.502
 8244SOL    HW225632   0.202   0.330   3.467
 8245SOL     OW25633   3.689   2.033   2.732
 8245SOL    HW125634   3.775   2.050   2.683
 8245SOL    HW225635   3.613   2.036   2.666
 8246SOL     OW25636   0.660   3.581   6.175
 8246SOL    HW125637   0.683   3.567   6.271
 8246SOL    HW225638   0.744   3.591   6.121
 8247SOL     OW25639   1.641   0.597   3.596
 8247SOL    HW125640   1.584   0.617   3.676
 8247SOL    HW225641   1.593   0.534   3.535
 8248SOL     OW25642   0.431   4.027   4.548
 8248SOL    HW125643   0.483   3.944   4.525
 8248SOL    HW225644   0.391   4.017   4.639
 8249SOL     OW25645   2.220   1.183   5.817
 8249SOL    HW125646   2.214   1.168   5.718
 8249SOL    HW225647   2.302   1.235   5.838
 8250SOL     OW25648   2.245   2.286   1.580
 8250SOL    HW125649   2.272   2.350   1.652
 8250SOL    HW225650   2.182   2.333   1.517
 8251SOL     OW25651   5.215   2.725   3.949
 8251SOL    HW125652   5.214   2.744   4.047
 8251SOL    HW225653   5.308   2.735   3.914
 8252SOL     OW25654   4.003   1.892   6.397
 8252SOL    HW125655   4.029   1.935   6.310
 8252SOL    HW225656   4.062   1.813   6.413
 8253SOL     OW25657   3.881   5.453   5.807
 8253SOL    HW125658   3.928   5.417   5.726
 8253SOL    HW225659   3.945   5.510   5.860
 8254SOL     OW25660   4.863   4.704   5.751
 8254SOL    HW125661   4.849   4.802   5.737
 8254SOL    HW225662   4.828   4.654   5.672
 8255SOL     OW25663   1.259   6.190   5.106
 8255SOL    HW125664   1.330   6.259   5.090
 8255SOL    HW225665   1.195   6.189   5.029
 8256SOL     OW25666   6.592   6.451   2.370
 8256SOL    HW125667   6.550   6.366   2.402
 8256SOL    HW225668   6.681   6.430   2.328
 8257SOL     OW25669   5.119   4.121   2.917
 8257SOL    HW125670   5.165   4.032   2.910
 8257SOL    HW225671   5.113   4.162   2.826
 8258SOL     OW25672   4.941   2.686   1.797
 8258SOL    HW125673   4.905   2.778   1.783
 8258SOL    HW225674   4.948   2.667   1.895
 8259SOL     OW25675   3.631   2.197   5.268
 8259SOL    HW125676   3.540   2.180   5.230
 8259SOL    HW225677   3.697   2.135   5.227
 8260SOL     OW25678   2.518   0.085   1.563
 8260SOL    HW125679   2.614   0.102   1.537
 8260SOL    HW225680   2.483   0.008   1.511
 8261SOL     OW25681   5.168   6.330   3.094
 8261SOL    HW125682   5.068   6.329   3.094
 8261SOL    HW225683   5.200   6.386   3.170
 8262SOL     OW25684   1.187   4.063   0.163
 8262SOL    HW125685   1.127   4.079   0.084
 8262SOL    HW225686   1.223   4.150   0.196
 8263SOL     OW25687   6.923   3.050   6.865
 8263SOL    HW125688   6.868   3.012   6.790
 8263SOL    HW225689   6.893   3.143   6.885
 8264SOL     OW25690   1.307   6.788   1.355
 8264SOL    HW125691   1.354   6.753   1.274
 8264SOL    HW225692   1.264   6.876   1.333
 8265SOL     OW25693   5.373   0.283   2.161
 8265SOL    HW125694   5.434   0.359   2.138
 8265SOL    HW225695   5.419   0.196   2.141
 8266SOL     OW25696   2.520   1.149   4.411
 8266SOL    HW125697   2.615   1.122   4.393
 8266SOL    HW225698   2.475   1.170   4.324
 8267SOL     OW25699   1.382   3.575   1.105
 8267SOL    HW125700   1.336   3.663   1.096
 8267SOL    HW225701   1.329   3.515   1.165
 8268SOL     OW25702   2.901   6.115   6.246
 8268SOL    HW125703   2.943   6.159   6.167
 8268SOL    HW225704   2.814   6.159   6.266
 8269SOL     OW25705   4.701   2.773   2.845
 8269SOL    HW125706   4.739   2.866   2.845
 8269SOL    HW225707   4.706   2.736   2.752
 8270SOL     OW25708   2.835   6.117   4.976
 8270SOL    HW125709   2.933   6.139   4.976
 8270SOL    HW225710   2.793   6.151   4.892
 8271SOL     OW25711   6.749   0.245   2.733
 8271SOL    HW125712   6.832   0.277   2.779
 8271SOL    HW225713   6.711   0.168   2.783
 8272SOL     OW25714   6.683   1.571   2.851
 8272SOL    HW125715   6.691   1.477   2.885
 8272SOL    HW225716   6.673   1.634   2.928
 8273SOL     OW25717   2.922   0.828   0.680
 8273SOL    HW125718   2.919   0.824   0.780
 8273SOL    HW225719   3.004   0.877   0.651
 8274SOL     OW25720   4.461   5.534   4.636
 8274SOL    HW125721   4.476   5.522   4.538
 8274SOL    HW225722   4.526   5.602   4.672
 8275SOL     OW25723   5.256   0.526   4.367
 8275SOL    HW125724   5.208   0.551   4.451
 8275SOL    HW225725   5.324   0.456   4.387
 8276SOL     OW25726   0.694   1.456   5.414
 8276SOL    HW125727   0.726   1.445   5.320
 8276SOL    HW225728   0.643   1.542   5.421
 8277SOL     OW25729   1.052   6.109   6.389
 8277SOL    HW125730   1.084   6.039   6.453
 8277SOL    HW225731   1.119   6.121   6.316
 8278SOL     OW25732   3.484   1.991   6.824
 8278SOL    HW125733   3.483   1.981   6.923
 8278SOL    HW225734   3.395   2.024   6.792
 8279SOL     OW25735   0.369   6.525   4.963
 8279SOL    HW125736   0.342   6.445   5.017
 8279SOL    HW225737   0.308   6.601   4.983
 8280SOL     OW25738   3.540   2.841   0.361
 8280SOL    HW125739   3.612   2.847   0.292
 8280SOL    HW225740   3.482   2.762   0.343
 8281SOL     OW25741   2.370   4.548   1.593
 8281SOL    HW125742   2.427   4.476   1.631
 8281SOL    HW225743   2.298   4.508   1.536
 8282SOL     OW25744   3.677   4.376   0.124
 8282SOL    HW125745   3.742   4.422   0.063
 8282SOL    HW225746   3.606   4.331   0.070
 8283SOL     OW25747   1.567   4.622   4.437
 8283SOL    HW125748   1.599   4.537   4.395
 8283SOL    HW225749   1.590   4.621   4.535
 8284SOL     OW25750   1.567   4.235   2.035
 8284SOL    HW125751   1.541   4.139   2.021
 8284SOL    HW225752   1.655   4.252   1.990
 8285SOL     OW25753   3.418   3.816   5.030
 8285SOL    HW125754   3.388   3.911   5.029
 8285SOL    HW225755   3.434   3.785   4.936
 8286SOL     OW25756   4.983   1.541   4.895
 8286SOL    HW125757   5.075   1.512   4.871
 8286SOL    HW225758   4.919   1.467   4.876
 8287SOL     OW25759   0.980   4.997   4.099
 8287SOL    HW125760   0.955   5.061   4.172
 8287SOL    HW225761   1.028   4.919   4.138
 8288SOL     OW25762   2.599   2.396   2.331
 8288SOL    HW125763   2.645   2.331   2.270
 8288SOL    HW225764   2.526   2.442   2.281
 8289SOL     OW25765   6.884   6.742   6.188
 8289SOL    HW125766   6.921   6.834   6.175
 8289SOL    HW225767   6.784   6.745   6.188
 8290SOL     OW25768   5.264   1.564   0.670
 8290SOL    HW125769   5.244   1.538   0.765
 8290SOL    HW225770   5.358   1.595   0.663
 8291SOL     OW25771   6.083   5.259   6.198
 8291SOL    HW125772   6.041   5.246   6.108
 8291SOL    HW225773   6.182   5.248   6.190
 8292SOL     OW25774   2.875   5.434   6.420
 8292SOL    HW125775   2.954   5.407   6.475
 8292SOL    HW225776   2.887   5.402   6.326
 8293SOL     OW25777   2.575   5.026   1.148
 8293SOL    HW125778   2.612   5.017   1.055
 8293SOL    HW225779   2.622   4.962   1.208
 8294SOL     OW25780   6.286   3.727   4.609
 8294SOL    HW125781   6.222   3.693   4.678
 8294SOL    HW225782   6.271   3.678   4.523
 8295SOL     OW25783   4.968   3.776   2.815
 8295SOL    HW125784   4.915   3.861   2.811
 8295SOL    HW225785   4.924   3.707   2.758
 8296SOL     OW25786   2.771   5.879   0.464
 8296SOL    HW125787   2.688   5.924   0.431
 8296SOL    HW225788   2.760   5.856   0.561
 8297SOL     OW25789   6.819   3.237   2.775
 8297SOL    HW125790   6.788   3.189   2.693
 8297SOL    HW225791   6.877   3.314   2.749
 8298SOL     OW25792   6.977   0.877   0.694
 8298SOL    HW125793   6.946   0.966   0.728
 8298SOL    HW225794   6.985   0.881   0.594
 8299SOL     OW25795   0.455   2.865   2.491
 8299SOL    HW125796   0.446   2.932   2.564
 8299SOL    HW225797   0.480   2.912   2.406
 8300SOL     OW25798   0.196   6.537   4.192
 8300SOL    HW125799   0.161   6.575   4.278
 8300SOL    HW225800   0.148   6.452   4.172
 8301SOL     OW25801   4.214   0.839   6.585
 8301SOL    HW125802   4.156   0.852   6.665
 8301SOL    HW225803   4.240   0.928   6.547
 8302SOL     OW25804   5.352   6.331   5.902
 8302SOL    HW125805   5.254   6.317   5.889
 8302SOL    HW225806   5.386   6.266   5.970
 8303SOL     OW25807   5.831   0.590   3.295
 8303SOL    HW125808   5.815   0.587   3.196
 8303SOL    HW225809   5.908   0.651   3.314
 8304SOL     OW25810   5.627   4.714   1.208
 8304SOL    HW125811   5.719   4.687   1.179
 8304SOL    HW225812   5.567   4.718   1.128
 8305SOL     OW25813   4.598   4.980   4.440
 8305SOL    HW125814   4.524   4.914   4.429
 8305SOL    HW225815   4.561   5.068   4.469
 8306SOL     OW25816   5.954   1.447   3.516
 8306SOL    HW125817   5.868   1.424   3.472
 8306SOL    HW225818   6.004   1.513   3.460
 8307SOL     OW25819   4.003   5.507   1.723
 8307SOL    HW125820   3.973   5.527   1.629
 8307SOL    HW225821   4.053   5.421   1.725
 8308SOL     OW25822   2.306   6.055   0.625
 8308SOL    HW125823   2.214   6.074   0.660
 8308SOL    HW225824   2.299   6.011   0.536
 8309SOL     OW25825   6.556   5.562   2.577
 8309SOL    HW125826   6.652   5.561   2.549
 8309SOL    HW225827   6.547   5.613   2.663
 8310SOL     OW25828   1.309   5.146   1.441
 8310SOL    HW125829   1.406   5.170   1.447
 8310SOL    HW225830   1.291   5.065   1.496
 8311SOL     OW25831   6.228   1.320   5.010
 8311SOL    HW125832   6.254   1.225   5.028
 8311SOL    HW225833   6.211   1.332   4.913
 8312SOL     OW25834   5.410   1.264   6.448
 8312SOL    HW125835   5.467   1.339   6.480
 8312SOL    HW225836   5.334   1.250   6.511
 8313SOL     OW25837   5.620   0.555   6.250
 8313SOL    HW125838   5.719   0.543   6.258
 8313SOL    HW225839   5.582   0.574   6.341
 8314SOL     OW25840   6.397   6.970   6.256
 8314SOL    HW125841   6.382   6.883   6.302
 8314SOL    HW225842   6.401   0.023   6.324
 8315SOL     OW25843   4.127   3.213   2.912
 8315SOL    HW125844   4.184   3.133   2.893
 8315SOL    HW225845   4.050   3.186   2.969
 8316SOL     OW25846   1.697   2.907   1.560
 8316SOL    HW125847   1.720   2.813   1.536
 8316SOL    HW225848   1.603   2.927   1.532
 8317SOL     OW25849   1.414   2.224   2.940
 8317SOL    HW125850   1.512   2.240   2.948
 8317SOL    HW225851   1.368   2.310   2.919
 8318SOL     OW25852   4.226   1.473   6.003
 8318SOL    HW125853   4.135   1.442   6.030
 8318SOL    HW225854   4.222   1.571   5.981
 8319SOL     OW25855   1.260   1.222   1.230
 8319SOL    HW125856   1.307   1.182   1.309
 8319SOL    HW225857   1.252   1.154   1.158
 8320SOL     OW25858   3.113   4.023   2.781
 8320SOL    HW125859   3.091   3.980   2.693
 8320SOL    HW225860   3.156   3.956   2.841
 8321SOL     OW25861   6.846   0.018   0.073
 8321SOL    HW125862   6.800   0.106   0.061
 8321SOL    HW225863   6.878   0.009   0.167
 8322SOL     OW25864   6.055   1.036   0.818
 8322SOL    HW125865   6.052   0.997   0.726
 8322SOL    HW225866   5.961   1.044   0.853
 8323SOL     OW25867   4.061   4.583   1.527
 8323SOL    HW125868   4.156   4.556   1.509
 8323SOL    HW225869   4.001   4.539   1.461
 8324SOL     OW25870   5.561   0.117   1.052
 8324SOL    HW125871   5.544   0.178   1.129
 8324SOL    HW225872   5.475   0.079   1.019
 8325SOL     OW25873   1.511   3.662   5.484
 8325SOL    HW125874   1.445   3.591   5.462
 8325SOL    HW225875   1.566   3.682   5.403
 8326SOL     OW25876   4.405   4.272   5.863
 8326SOL    HW125877   4.434   4.291   5.770
 8326SOL    HW225878   4.322   4.324   5.884
 8327SOL     OW25879   0.267   0.663   5.688
 8327SOL    HW125880   0.291   0.760   5.677
 8327SOL    HW225881   0.168   0.652   5.679
 8328SOL     OW25882   2.797   6.088   6.593
 8328SOL    HW125883   2.722   6.136   6.548
 8328SOL    HW225884   2.884   6.126   6.564
 8329SOL     OW25885   0.455   2.744   4.500
 8329SOL    HW125886   0.506   2.806   4.440
 8329SOL    HW225887   0.361   2.736   4.467
 8330SOL     OW25888   3.223   1.385   6.703
 8330SOL    HW125889   3.219   1.344   6.611
 8330SOL    HW225890   3.235   1.312   6.770
 8331SOL     OW25891   3.680   0.616   0.720
 8331SOL    HW125892   3.672   0.707   0.678
 8331SOL    HW225893   3.665   0.546   0.650
 8332SOL     OW25894   6.082   5.762   2.370
 8332SOL    HW125895   6.086   5.824   2.449
 8332SOL    HW225896   6.001   5.783   2.316
 8333SOL     OW25897   1.293   4.814   0.105
 8333SOL    HW125898   1.374   4.794   0.159
 8333SOL    HW225899   1.217   4.837   0.166
 8334SOL     OW25900   3.442   1.790   5.400
 8334SOL    HW125901   3.530   1.748   5.376
 8334SOL    HW225902   3.394   1.817   5.316
 8335SOL     OW25903   4.653   1.438   0.526
 8335SOL    HW125904   4.642   1.385   0.442
 8335SOL    HW225905   4.629   1.382   0.605
 8336SOL     OW25906   0.479   4.195   2.660
 8336SOL    HW125907   0.565   4.244   2.673
 8336SOL    HW225908   0.443   4.213   2.568
 8337SOL     OW25909   0.360   6.540   3.978
 8337SOL    HW125910   0.390   6.635   3.970
 8337SOL    HW225911   0.310   6.528   4.063
 8338SOL     OW25912   3.394   5.539   1.504
 8338SOL    HW125913   3.436   5.448   1.503
 8338SOL    HW225914   3.338   5.550   1.422
 8339SOL     OW25915   6.629   0.537   2.108
 8339SOL    HW125916   6.601   0.515   2.201
 8339SOL    HW225917   6.603   0.463   2.047
 8340SOL     OW25918   4.942   3.937   1.054
 8340SOL    HW125919   4.896   3.915   0.969
 8340SOL    HW225920   4.978   3.853   1.096
 8341SOL     OW25921   2.526   0.436   6.705
 8341SOL    HW125922   2.580   0.361   6.743
 8341SOL    HW225923   2.525   0.429   6.605
 8342SOL     OW25924   4.583   6.704   0.182
 8342SOL    HW125925   4.553   6.780   0.126
 8342SOL    HW225926   4.636   6.738   0.260
 8343SOL     OW25927   0.435   5.766   3.405
 8343SOL    HW125928   0.479   5.830   3.468
 8343SOL    HW225929   0.455   5.792   3.311
 8344SOL     OW25930   6.471   5.863   4.638
 8344SOL    HW125931   6.546   5.904   4.586
 8344SOL    HW225932   6.471   5.764   4.624
 8345SOL     OW25933   3.923   2.073   2.612
 8345SOL    HW125934   3.970   1.985   2.617
 8345SOL    HW225935   3.955   2.124   2.533
 8346SOL     OW25936   3.686   4.794   0.926
 8346SOL    HW125937   3.704   4.773   0.830
 8346SOL    HW225938   3.762   4.849   0.962
 8347SOL     OW25939   3.008   6.687   5.407
 8347SOL    HW125940   3.066   6.739   5.470
 8347SOL    HW225941   2.939   6.636   5.458
 8348SOL     OW25942   2.251   1.118   1.030
 8348SOL    HW125943   2.186   1.058   0.983
 8348SOL    HW225944   2.266   1.085   1.123
 8349SOL     OW25945   1.013   6.637   2.359
 8349SOL    HW125946   0.919   6.613   2.334
 8349SOL    HW225947   1.015   6.668   2.454
 8350SOL     OW25948   2.685   6.890   6.014
 8350SOL    HW125949   2.595   6.848   6.025
 8350SOL    HW225950   2.722   6.915   6.104
 8351SOL     OW25951   5.119   5.631   4.277
 8351SOL    HW125952   5.028   5.638   4.238
 8351SOL    HW225953   5.112   5.615   4.376
 8352SOL     OW25954   0.596   6.932   3.315
 8352SOL    HW125955   0.631   6.854   3.366
 8352SOL    HW225956   0.508   6.908   3.274
 8353SOL     OW25957   0.740   4.114   1.130
 8353SOL    HW125958   0.811   4.181   1.149
 8353SOL    HW225959   0.767   4.057   1.052
 8354SOL     OW25960   3.369   7.003   4.586
 8354SOL    HW125961   3.453   6.991   4.533
 8354SOL    HW225962   3.392   7.011   4.684
 8355SOL     OW25963   2.627   1.430   5.389
 8355SOL    HW125964   2.534   1.463   5.376
 8355SOL    HW225965   2.691   1.491   5.342
 8356SOL     OW25966   0.914   0.202   1.928
 8356SOL    HW125967   0.947   0.111   1.953
 8356SOL    HW225968   0.963   0.272   1.980
 8357SOL     OW25969   3.170   6.818   5.547
 8357SOL    HW125970   3.266   6.806   5.522
 8357SOL    HW225971   3.153   6.775   5.636
 8358SOL     OW25972   2.100   3.860   4.893
 8358SOL    HW125973   2.178   3.921   4.881
 8358SOL    HW225974   2.078   3.853   4.990
 8359SOL     OW25975   3.324   1.179   4.937
 8359SOL    HW125976   3.384   1.135   5.003
 8359SOL    HW225977   3.378   1.238   4.878
 8360SOL     OW25978   4.203   0.162   0.308
 8360SOL    HW125979   4.150   0.087   0.268
 8360SOL    HW225980   4.199   0.156   0.408
 8361SOL     OW25981   3.650   0.491   1.610
 8361SOL    HW125982   3.695   0.579   1.626
 8361SOL    HW225983   3.704   0.438   1.545
 8362SOL     OW25984   4.998   1.589   1.144
 8362SOL    HW125985   4.913   1.641   1.139
 8362SOL    HW225986   4.978   1.491   1.145
 8363SOL     OW25987   4.744   2.786   0.054
 8363SOL    HW125988   4.721   2.880   0.081
 8363SOL    HW225989   4.765   2.733   0.136
 8364SOL     OW25990   0.167   1.560   4.080
 8364SOL    HW125991   0.069   1.568   4.100
 8364SOL    HW225992   0.180   1.510   3.995
 8365SOL     OW25993   1.735   2.686   2.709
 8365SOL    HW125994   1.760   2.720   2.799
 8365SOL    HW225995   1.755   2.588   2.704
 8366SOL     OW25996   2.777   5.184   0.978
 8366SOL    HW125997   2.784   5.170   1.076
 8366SOL    HW225998   2.710   5.256   0.958
 8367SOL     OW25999   3.134   5.857   5.047
 8367SOL    HW126000   3.168   5.770   5.011
 8367SOL    HW226001   3.046   5.843   5.091
 8368SOL     OW26002   0.908   6.506   6.841
 8368SOL    HW126003   0.982   6.543   6.896
 8368SOL    HW226004   0.820   6.525   6.886
 8369SOL     OW26005   0.702   0.204   6.122
 8369SOL    HW126006   0.722   0.260   6.202
 8369SOL    HW226007   0.764   0.126   6.119
 8370SOL     OW26008   2.749   1.827   5.700
 8370SOL    HW126009   2.842   1.794   5.688
 8370SOL    HW226010   2.697   1.764   5.757
 8371SOL     OW26011   2.401   4.521   0.805
 8371SOL    HW126012   2.370   4.505   0.711
 8371SOL    HW226013   2.431   4.616   0.814
 8372SOL     OW26014   1.921   5.368   1.641
 8372SOL    HW126015   1.880   5.457   1.623
 8372SOL    HW226016   1.899   5.306   1.566
 8373SOL     OW26017   1.768   6.352   3.792
 8373SOL    HW126018   1.692   6.289   3.779
 8373SOL    HW226019   1.732   6.443   3.815
 8374SOL     OW26020   0.325   0.248   5.395
 8374SOL    HW126021   0.337   0.339   5.435
 8374SOL    HW226022   0.228   0.234   5.373
 8375SOL     OW26023   4.150   6.356   5.592
 8375SOL    HW126024   4.188   6.402   5.511
 8375SOL    HW226025   4.216   6.288   5.625
 8376SOL     OW26026   0.928   1.220   4.576
 8376SOL    HW126027   0.980   1.198   4.494
 8376SOL    HW226028   0.835   1.246   4.550
 8377SOL     OW26029   5.705   6.383   0.921
 8377SOL    HW126030   5.746   6.343   0.839
 8377SOL    HW226031   5.760   6.359   1.001
 8378SOL     OW26032   3.537   4.933   2.931
 8378SOL    HW126033   3.576   4.933   3.023
 8378SOL    HW226034   3.437   4.935   2.937
 8379SOL     OW26035   5.375   2.701   1.359
 8379SOL    HW126036   5.295   2.664   1.312
 8379SOL    HW226037   5.378   2.800   1.347
 8380SOL     OW26038   0.813   0.482   1.674
 8380SOL    HW126039   0.717   0.474   1.645
 8380SOL    HW226040   0.816   0.512   1.769
 8381SOL     OW26041   0.355   2.587   4.169
 8381SOL    HW126042   0.283   2.530   4.128
 8381SOL    HW226043   0.320   2.630   4.252
 8382SOL     OW26044   2.283   7.002   2.362
 8382SOL    HW126045   2.208   0.042   2.336
 8382SOL    HW226046   2.364   0.004   2.308
 8383SOL     OW26047   2.831   6.969   6.237
 8383SOL    HW126048   2.914   6.977   6.182
 8383SOL    HW226049   2.849   7.001   6.330
 8384SOL     OW26050   6.117   1.953   1.404
 8384SOL    HW126051   6.156   2.021   1.466
 8384SOL    HW226052   6.164   1.866   1.417
 8385SOL     OW26053   5.035   2.684   6.911
 8385SOL    HW126054   4.997   2.605   6.863
 8385SOL    HW226055   5.045   2.760   6.847
 8386SOL     OW26056   1.716   6.400   2.013
 8386SOL    HW126057   1.778   6.454   1.957
 8386SOL    HW226058   1.675   6.459   2.084
 8387SOL     OW26059   0.880   1.606   1.274
 8387SOL    HW126060   0.857   1.588   1.179
 8387SOL    HW226061   0.861   1.524   1.329
 8388SOL     OW26062   2.380   6.876   0.760
 8388SOL    HW126063   2.398   6.851   0.855
 8388SOL    HW226064   2.358   6.973   0.754
 8389SOL     OW26065   0.200   3.767   4.008
 8389SOL    HW126066   0.288   3.805   4.037
 8389SOL    HW226067   0.127   3.833   4.027
 8390SOL     OW26068   4.204   6.501   0.312
 8390SOL    HW126069   4.113   6.475   0.346
 8390SOL    HW226070   4.203   6.597   0.284
 8391SOL     OW26071   5.571   5.269   1.183
 8391SOL    HW126072   5.590   5.326   1.103
 8391SOL    HW226073   5.557   5.174   1.154
 8392SOL     OW26074   0.304   4.711   5.417
 8392SOL    HW126075   0.384   4.676   5.466
 8392SOL    HW226076   0.222   4.693   5.472
 8393SOL     OW26077   0.110   0.145   2.592
 8393SOL    HW126078   0.057   0.210   2.646
 8393SOL    HW226079   0.075   0.143   2.498
 8394SOL     OW26080   0.512   3.086   1.795
 8394SOL    HW126081   0.584   3.126   1.738
 8394SOL    HW226082   0.554   3.031   1.867
 8395SOL     OW26083   1.845   6.519   4.876
 8395SOL    HW126084   1.824   6.464   4.795
 8395SOL    HW226085   1.933   6.565   4.863
 8396SOL     OW26086   3.840   5.285   2.785
 8396SOL    HW126087   3.857   5.205   2.843
 8396SOL    HW226088   3.851   5.260   2.689
 8397SOL     OW26089   2.318   1.085   2.989
 8397SOL    HW126090   2.400   1.034   3.014
 8397SOL    HW226091   2.296   1.068   2.893
 8398SOL     OW26092   4.487   2.400   6.843
 8398SOL    HW126093   4.513   2.459   6.920
 8398SOL    HW226094   4.505   2.305   6.866
 8399SOL     OW26095   6.274   6.837   0.807
 8399SOL    HW126096   6.372   6.851   0.816
 8399SOL    HW226097   6.256   6.742   0.780
 8400SOL     OW26098   1.294   0.424   4.211
 8400SOL    HW126099   1.309   0.325   4.210
 8400SOL    HW226100   1.223   0.446   4.278
 8401SOL     OW26101   3.436   1.687   6.182
 8401SOL    HW126102   3.508   1.707   6.115
 8401SOL    HW226103   3.359   1.749   6.168
 8402SOL     OW26104   3.635   2.264   6.061
 8402SOL    HW126105   3.638   2.296   6.155
 8402SOL    HW226106   3.556   2.204   6.049
 8403SOL     OW26107   0.916   2.295   4.193
 8403SOL    HW126108   0.919   2.330   4.287
 8403SOL    HW226109   0.890   2.370   4.131
 8404SOL     OW26110   4.278   6.765   6.213
 8404SOL    HW126111   4.362   6.801   6.252
 8404SOL    HW226112   4.213   6.744   6.286
 8405SOL     OW26113   2.976   0.364   5.814
 8405SOL    HW126114   2.920   0.309   5.752
 8405SOL    HW226115   2.953   0.460   5.803
 8406SOL     OW26116   5.376   6.897   0.574
 8406SOL    HW126117   5.459   6.953   0.576
 8406SOL    HW226118   5.400   6.801   0.559
 8407SOL     OW26119   3.769   6.384   3.996
 8407SOL    HW126120   3.695   6.318   3.983
 8407SOL    HW226121   3.758   6.460   3.932
 8408SOL     OW26122   5.510   3.527   2.184
 8408SOL    HW126123   5.557   3.562   2.102
 8408SOL    HW226124   5.427   3.478   2.157
 8409SOL     OW26125   5.858   3.263   3.920
 8409SOL    HW126126   5.787   3.294   3.857
 8409SOL    HW226127   5.816   3.233   4.006
 8410SOL     OW26128   5.123   0.339   1.861
 8410SOL    HW126129   5.120   0.404   1.937
 8410SOL    HW226130   5.045   0.276   1.869
 8411SOL     OW26131   0.853   4.919   0.039
 8411SOL    HW126132   0.771   4.914   0.095
 8411SOL    HW226133   0.828   4.920   6.962
 8412SOL     OW26134   3.587   2.275   1.473
 8412SOL    HW126135   3.533   2.320   1.544
 8412SOL    HW226136   3.607   2.339   1.399
 8413SOL     OW26137   3.791   5.567   0.363
 8413SOL    HW126138   3.801   5.469   0.348
 8413SOL    HW226139   3.881   5.608   0.378
 8414SOL     OW26140   3.600   5.660   3.464
 8414SOL    HW126141   3.503   5.674   3.442
 8414SOL    HW226142   3.654   5.662   3.379
 8415SOL     OW26143   6.750   5.909   3.214
 8415SOL    HW126144   6.667   5.878   3.260
 8415SOL    HW226145   6.792   5.982   3.267
 8416SOL     OW26146   5.737   3.858   2.793
 8416SOL    HW126147   5.763   3.763   2.775
 8416SOL    HW226148   5.758   3.914   2.713
 8417SOL     OW26149   1.269   5.075   5.702
 8417SOL    HW126150   1.195   5.034   5.648
 8417SOL    HW226151   1.270   5.174   5.686
 8418SOL     OW26152   5.771   5.179   0.922
 8418SOL    HW126153   5.865   5.151   0.901
 8418SOL    HW226154   5.737   5.123   0.998
 8419SOL     OW26155   5.430   0.564   2.244
 8419SOL    HW126156   5.332   0.560   2.265
 8419SOL    HW226157   5.481   0.587   2.326
 8420SOL     OW26158   4.394   6.611   0.736
 8420SOL    HW126159   4.415   6.517   0.710
 8420SOL    HW226160   4.450   6.674   0.682
 8421SOL     OW26161   2.651   5.956   7.014
 8421SOL    HW126162   2.583   5.889   6.985
 8421SOL    HW226163   2.615   6.008   0.072
 8422SOL     OW26164   4.473   0.742   1.317
 8422SOL    HW126165   4.464   0.646   1.290
 8422SOL    HW226166   4.440   0.800   1.242
 8423SOL     OW26167   3.869   4.646   5.708
 8423SOL    HW126168   3.930   4.592   5.766
 8423SOL    HW226169   3.803   4.585   5.663
 8424SOL     OW26170   1.909   2.450   2.853
 8424SOL    HW126171   1.907   2.541   2.894
 8424SOL    HW226172   1.964   2.389   2.910
 8425SOL     OW26173   5.279   5.945   0.171
 8425SOL    HW126174   5.372   5.933   0.207
 8425SOL    HW226175   5.212   5.930   0.244
 8426SOL     OW26176   3.302   3.675   3.899
 8426SOL    HW126177   3.235   3.694   3.972
 8426SOL    HW226178   3.384   3.633   3.939
 8427SOL     OW26179   3.416   3.201   4.701
 8427SOL    HW126180   3.343   3.134   4.685
 8427SOL    HW226181   3.426   3.260   4.620
 8428SOL     OW26182   0.405   4.620   1.744
 8428SOL    HW126183   0.449   4.616   1.654
 8428SOL    HW226184   0.469   4.659   1.810
 8429SOL     OW26185   1.662   5.077   3.576
 8429SOL    HW126186   1.601   5.023   3.634
 8429SOL    HW226187   1.616   5.098   3.490
 8430SOL     OW26188   3.407   5.249   4.174
 8430SOL    HW126189   3.501   5.247   4.141
 8430SOL    HW226190   3.399   5.188   4.253
 8431SOL     OW26191   3.041   5.532   0.867
 8431SOL    HW126192   3.132   5.572   0.881
 8431SOL    HW226193   3.017   5.536   0.770
 8432SOL     OW26194   5.722   6.389   6.161
 8432SOL    HW126195   5.759   6.364   6.072
 8432SOL    HW226196   5.737   6.314   6.226
 8433SOL     OW26197   5.274   2.359   0.303
 8433SOL    HW126198   5.284   2.385   0.208
 8433SOL    HW226199   5.260   2.260   0.310
 8434SOL     OW26200   2.971   6.839   4.694
 8434SOL    HW126201   2.961   6.937   4.712
 8434SOL    HW226202   2.904   6.788   4.748
 8435SOL     OW26203   5.837   0.701   1.598
 8435SOL    HW126204   5.897   0.780   1.611
 8435SOL    HW226205   5.829   0.650   1.683
 8436SOL     OW26206   3.387   0.289   4.159
 8436SOL    HW126207   3.336   0.356   4.214
 8436SOL    HW226208   3.357   0.294   4.064
 8437SOL     OW26209   2.331   0.094   4.009
 8437SOL    HW126210   2.358   0.183   4.046
 8437SOL    HW226211   2.320   0.101   3.910
 8438SOL     OW26212   2.733   4.649   2.647
 8438SOL    HW126213   2.710   4.732   2.596
 8438SOL    HW226214   2.829   4.652   2.675
 8439SOL     OW26215   6.347   5.262   2.382
 8439SOL    HW126216   6.315   5.357   2.389
 8439SOL    HW226217   6.269   5.201   2.370
 8440SOL     OW26218   0.696   2.035   3.734
 8440SOL    HW126219   0.753   1.998   3.807
 8440SOL    HW226220   0.711   2.134   3.727
 8441SOL     OW26221   6.226   6.841   0.292
 8441SOL    HW126222   6.302   6.884   0.341
 8441SOL    HW226223   6.153   6.907   0.279
 8442SOL     OW26224   2.783   1.677   5.286
 8442SOL    HW126225   2.730   1.747   5.333
 8442SOL    HW226226   2.852   1.721   5.228
 8443SOL     OW26227   1.778   5.696   3.643
 8443SOL    HW126228   1.843   5.772   3.655
 8443SOL    HW226229   1.689   5.732   3.618
 8444SOL     OW26230   2.590   5.885   3.709
 8444SOL    HW126231   2.586   5.890   3.809
 8444SOL    HW226232   2.685   5.869   3.681
 8445SOL     OW26233   3.938   6.261   0.631
 8445SOL    HW126234   3.996   6.320   0.685
 8445SOL    HW226235   3.880   6.206   0.691
 8446SOL     OW26236   4.543   5.017   6.550
 8446SOL    HW126237   4.522   5.061   6.462
 8446SOL    HW226238   4.475   4.945   6.567
 8447SOL     OW26239   4.551   2.179   2.425
 8447SOL    HW126240   4.463   2.145   2.458
 8447SOL    HW226241   4.624   2.154   2.489
 8448SOL     OW26242   4.863   6.305   4.158
 8448SOL    HW126243   4.829   6.249   4.082
 8448SOL    HW226244   4.790   6.318   4.225
 8449SOL     OW26245   6.862   2.281   4.111
 8449SOL    HW126246   6.802   2.220   4.058
 8449SOL    HW226247   6.833   2.376   4.098
 8450SOL     OW26248   1.102   6.279   1.414
 8450SOL    HW126249   1.144   6.223   1.343
 8450SOL    HW226250   1.004   6.284   1.399
 8451SOL     OW26251   4.178   2.648   0.017
 8451SOL    HW126252   4.206   2.693   6.953
 8451SOL    HW226253   4.255   2.599   0.057
 8452SOL     OW26254   6.500   1.153   3.107
 8452SOL    HW126255   6.513   1.174   3.204
 8452SOL    HW226256   6.419   1.202   3.073
 8453SOL     OW26257   6.832   4.449   5.980
 8453SOL    HW126258   6.865   4.508   6.054
 8453SOL    HW226259   6.907   4.392   5.946
 8454SOL     OW26260   0.125   6.850   1.125
 8454SOL    HW126261   0.140   6.931   1.182
 8454SOL    HW226262   0.184   6.776   1.156
 8455SOL     OW26263   5.899   2.453   1.488
 8455SOL    HW126264   5.921   2.416   1.398
 8455SOL    HW226265   5.844   2.387   1.538
 8456SOL     OW26266   4.431   6.253   2.994
 8456SOL    HW126267   4.526   6.261   3.026
 8456SOL    HW226268   4.429   6.250   2.894
 8457SOL     OW26269   6.653   6.495   4.856
 8457SOL    HW126270   6.739   6.455   4.888
 8457SOL    HW226271   6.606   6.538   4.933
 8458SOL     OW26272   3.205   1.478   0.080
 8458SOL    HW126273   3.265   1.555   0.102
 8458SOL    HW226274   3.140   1.506   0.009
 8459SOL     OW26275   2.934   6.605   2.145
 8459SOL    HW126276   2.980   6.589   2.233
 8459SOL    HW226277   2.915   6.517   2.101
 8460SOL     OW26278   4.659   3.805   5.332
 8460SOL    HW126279   4.675   3.732   5.265
 8460SOL    HW226280   4.696   3.777   5.420
 8461SOL     OW26281   6.906   4.224   3.658
 8461SOL    HW126282   6.949   4.287   3.722
 8461SOL    HW226283   6.904   4.132   3.696
 8462SOL     OW26284   3.122   2.465   0.063
 8462SOL    HW126285   3.188   2.539   0.075
 8462SOL    HW226286   3.159   2.380   0.099
 8463SOL     OW26287   6.821   6.890   0.811
 8463SOL    HW126288   6.845   6.794   0.796
 8463SOL    HW226289   6.723   6.902   0.800
 8464SOL     OW26290   5.583   3.752   5.433
 8464SOL    HW126291   5.615   3.754   5.528
 8464SOL    HW226292   5.484   3.743   5.431
 8465SOL     OW26293   1.345   2.765   1.177
 8465SOL    HW126294   1.285   2.803   1.247
 8465SOL    HW226295   1.305   2.682   1.139
 8466SOL     OW26296   0.825   0.093   5.003
 8466SOL    HW126297   0.834   0.152   5.084
 8466SOL    HW226298   0.887   0.016   5.012
 8467SOL     OW26299   4.379   0.058   1.323
 8467SOL    HW126300   4.287   0.035   1.356
 8467SOL    HW226301   4.384   0.045   1.224
 8468SOL     OW26302   4.393   2.068   6.541
 8468SOL    HW126303   4.327   2.019   6.597
 8468SOL    HW226304   4.421   2.010   6.464
 8469SOL     OW26305   3.917   1.181   6.052
 8469SOL    HW126306   3.958   1.132   5.976
 8469SOL    HW226307   3.930   1.129   6.137
 8470SOL     OW26308   1.878   4.163   0.096
 8470SOL    HW126309   1.829   4.126   0.016
 8470SOL    HW226310   1.933   4.090   0.138
 8471SOL     OW26311   3.894   0.675   4.012
 8471SOL    HW126312   3.931   0.619   4.087
 8471SOL    HW226313   3.839   0.750   4.050
 8472SOL     OW26314   6.724   0.427   5.512
 8472SOL    HW126315   6.681   0.340   5.536
 8472SOL    HW226316   6.670   0.473   5.441
 8473SOL     OW26317   6.953   5.980   0.310
 8473SOL    HW126318   6.952   5.880   0.311
 8473SOL    HW226319   6.862   6.014   0.333
 8474SOL     OW26320   3.639   3.382   2.399
 8474SOL    HW126321   3.557   3.369   2.343
 8474SOL    HW226322   3.720   3.362   2.344
 8475SOL     OW26323   6.562   2.366   3.802
 8475SOL    HW126324   6.535   2.427   3.729
 8475SOL    HW226325   6.661   2.349   3.797
 8476SOL     OW26326   6.813   2.340   0.812
 8476SOL    HW126327   6.792   2.438   0.809
 8476SOL    HW226328   6.783   2.302   0.899
 8477SOL     OW26329   5.006   6.763   1.571
 8477SOL    HW126330   5.036   6.687   1.513
 8477SOL    HW226331   5.029   6.743   1.666
 8478SOL     OW26332   1.924   6.960   6.526
 8478SOL    HW126333   1.835   6.957   6.573
 8478SOL    HW226334   1.960   0.034   6.529
 8479SOL     OW26335   0.902   3.007   0.843
 8479SOL    HW126336   0.922   2.916   0.806
 8479SOL    HW226337   0.951   3.019   0.930
 8480SOL     OW26338   4.232   1.901   6.915
 8480SOL    HW126339   4.149   1.954   6.898
 8480SOL    HW226340   4.211   1.803   6.907
 8481SOL     OW26341   4.482   2.608   5.022
 8481SOL    HW126342   4.515   2.592   4.929
 8481SOL    HW226343   4.387   2.578   5.030
 8482SOL     OW26344   4.368   5.926   1.939
 8482SOL    HW126345   4.383   5.885   1.849
 8482SOL    HW226346   4.436   5.998   1.954
 8483SOL     OW26347   4.519   6.317   2.296
 8483SOL    HW126348   4.582   6.306   2.373
 8483SOL    HW226349   4.545   6.399   2.244
 8484SOL     OW26350   0.035   6.517   3.090
 8484SOL    HW126351   0.039   6.566   3.004
 8484SOL    HW226352   0.036   6.582   3.166
 8485SOL     OW26353   3.790   2.455   6.962
 8485SOL    HW126354   3.873   2.400   6.956
 8485SOL    HW226355   3.784   2.517   6.884
 8486SOL     OW26356   2.678   1.749   2.470
 8486SOL    HW126357   2.706   1.737   2.375
 8486SOL    HW226358   2.659   1.845   2.488
 8487SOL     OW26359   6.065   1.434   5.685
 8487SOL    HW126360   6.129   1.391   5.749
 8487SOL    HW226361   5.972   1.401   5.704
 8488SOL     OW26362   5.219   5.752   0.424
 8488SOL    HW126363   5.158   5.680   0.456
 8488SOL    HW226364   5.175   5.841   0.436
 8489SOL     OW26365   6.215   2.155   1.533
 8489SOL    HW126366   6.263   2.203   1.460
 8489SOL    HW226367   6.156   2.219   1.582
 8490SOL     OW26368   4.525   6.711   3.988
 8490SOL    HW126369   4.468   6.708   4.070
 8490SOL    HW226370   4.583   6.630   3.984
 8491SOL     OW26371   3.381   5.795   1.252
 8491SOL    HW126372   3.431   5.730   1.195
 8491SOL    HW226373   3.292   5.814   1.210
 8492SOL     OW26374   4.864   3.960   5.210
 8492SOL    HW126375   4.765   3.951   5.210
 8492SOL    HW226376   4.907   3.870   5.220
 8493SOL     OW26377   2.212   2.842   6.465
 8493SOL    HW126378   2.268   2.864   6.545
 8493SOL    HW226379   2.253   2.881   6.383
 8494SOL     OW26380   3.617   5.775   1.477
 8494SOL    HW126381   3.683   5.740   1.411
 8494SOL    HW226382   3.524   5.758   1.444
 8495SOL     OW26383   5.647   5.008   2.487
 8495SOL    HW126384   5.591   4.997   2.404
 8495SOL    HW226385   5.619   5.090   2.535
 8496SOL     OW26386   1.159   2.488   1.725
 8496SOL    HW126387   1.194   2.398   1.699
 8496SOL    HW226388   1.187   2.509   1.819
 8497SOL     OW26389   6.453   1.291   3.648
 8497SOL    HW126390   6.366   1.317   3.606
 8497SOL    HW226391   6.435   1.236   3.730
 8498SOL     OW26392   6.529   6.366   3.172
 8498SOL    HW126393   6.444   6.349   3.222
 8498SOL    HW226394   6.585   6.433   3.221
 8499SOL     OW26395   1.920   4.668   6.597
 8499SOL    HW126396   1.966   4.597   6.543
 8499SOL    HW226397   1.928   4.645   6.694
 8500SOL     OW26398   1.768   5.802   5.629
 8500SOL    HW126399   1.707   5.727   5.657
 8500SOL    HW226400   1.730   5.888   5.661
 8501SOL     OW26401   0.246   2.473   0.088
 8501SOL    HW126402   0.152   2.500   0.066
 8501SOL    HW226403   0.252   2.450   0.185
 8502SOL     OW26404   0.960   3.659   1.175
 8502SOL    HW126405   0.922   3.651   1.083
 8502SOL    HW226406   1.027   3.732   1.177
 8503SOL     OW26407   1.047   6.474   4.079
 8503SOL    HW126408   0.967   6.440   4.129
 8503SOL    HW226409   1.130   6.431   4.115
 8504SOL     OW26410   2.706   4.817   2.184
 8504SOL    HW126411   2.780   4.772   2.134
 8504SOL    HW226412   2.737   4.843   2.275
 8505SOL     OW26413   5.656   3.385   3.773
 8505SOL    HW126414   5.709   3.455   3.821
 8505SOL    HW226415   5.571   3.425   3.738
 8506SOL     OW26416   0.172   0.543   6.772
 8506SOL    HW126417   0.174   0.631   6.724
 8506SOL    HW226418   0.078   0.525   6.803
 8507SOL     OW26419   3.940   0.658   5.394
 8507SOL    HW126420   3.948   0.665   5.294
 8507SOL    HW226421   4.016   0.603   5.429
 8508SOL     OW26422   5.681   1.640   4.712
 8508SOL    HW126423   5.656   1.554   4.667
 8508SOL    HW226424   5.778   1.659   4.698
 8509SOL     OW26425   4.357   1.391   4.686
 8509SOL    HW126426   4.319   1.454   4.754
 8509SOL    HW226427   4.416   1.442   4.623
 8510SOL     OW26428   5.971   4.423   2.739
 8510SOL    HW126429   5.895   4.487   2.745
 8510SOL    HW226430   5.980   4.373   2.826
 8511SOL     OW26431   5.854   3.803   2.462
 8511SOL    HW126432   5.878   3.753   2.545
 8511SOL    HW226433   5.929   3.795   2.396
 8512SOL     OW26434   2.985   2.105   1.860
 8512SOL    HW126435   2.939   2.183   1.903
 8512SOL    HW226436   3.080   2.102   1.890
 8513SOL     OW26437   5.624   5.006   1.116
 8513SOL    HW126438   5.673   4.933   1.164
 8513SOL    HW226439   5.533   4.974   1.089
 8514SOL     OW26440   2.810   2.327   3.824
 8514SOL    HW126441   2.739   2.388   3.857
 8514SOL    HW226442   2.769   2.256   3.766
 8515SOL     OW26443   5.216   2.344   0.718
 8515SOL    HW126444   5.117   2.353   0.708
 8515SOL    HW226445   5.237   2.256   0.760
 8516SOL     OW26446   6.047   2.212   1.928
 8516SOL    HW126447   6.120   2.145   1.917
 8516SOL    HW226448   5.958   2.165   1.926
 8517SOL     OW26449   1.518   2.550   5.840
 8517SOL    HW126450   1.461   2.485   5.891
 8517SOL    HW226451   1.553   2.505   5.757
 8518SOL     OW26452   4.529   4.242   0.518
 8518SOL    HW126453   4.441   4.203   0.489
 8518SOL    HW226454   4.512   4.325   0.571
 8519SOL     OW26455   1.376   4.418   1.767
 8519SOL    HW126456   1.405   4.327   1.738
 8519SOL    HW226457   1.456   4.472   1.793
 8520SOL     OW26458   3.242   2.695   0.510
 8520SOL    HW126459   3.253   2.612   0.565
 8520SOL    HW226460   3.185   2.674   0.430
 8521SOL     OW26461   2.154   5.331   6.494
 8521SOL    HW126462   2.196   5.249   6.456
 8521SOL    HW226463   2.128   5.314   6.589
 8522SOL     OW26464   1.570   6.519   1.253
 8522SOL    HW126465   1.502   6.501   1.325
 8522SOL    HW226466   1.531   6.498   1.164
 8523SOL     OW26467   2.605   6.899   6.374
 8523SOL    HW126468   2.698   6.892   6.337
 8523SOL    HW226469   2.594   6.988   6.419
 8524SOL     OW26470   0.402   2.711   4.792
 8524SOL    HW126471   0.370   2.628   4.747
 8524SOL    HW226472   0.496   2.730   4.765
 8525SOL     OW26473   6.465   3.942   2.950
 8525SOL    HW126474   6.432   3.892   3.030
 8525SOL    HW226475   6.538   4.005   2.977
 8526SOL     OW26476   3.535   5.426   0.246
 8526SOL    HW126477   3.571   5.473   0.165
 8526SOL    HW226478   3.559   5.329   0.241
 8527SOL     OW26479   3.173   0.755   6.053
 8527SOL    HW126480   3.178   0.731   6.149
 8527SOL    HW226481   3.186   0.674   5.997
 8528SOL     OW26482   4.263   2.516   6.147
 8528SOL    HW126483   4.326   2.488   6.074
 8528SOL    HW226484   4.315   2.563   6.218
 8529SOL     OW26485   0.305   0.358   1.254
 8529SOL    HW126486   0.387   0.336   1.309
 8529SOL    HW226487   0.235   0.288   1.270
 8530SOL     OW26488   3.449   3.114   5.430
 8530SOL    HW126489   3.472   3.198   5.478
 8530SOL    HW226490   3.515   3.098   5.356
 8531SOL     OW26491   6.870   5.090   2.534
 8531SOL    HW126492   6.793   5.040   2.494
 8531SOL    HW226493   6.926   5.026   2.588
 8532SOL     OW26494   3.849   4.973   4.916
 8532SOL    HW126495   3.793   4.968   4.998
 8532SOL    HW226496   3.791   4.958   4.835
 8533SOL     OW26497   2.038   0.224   5.704
 8533SOL    HW126498   1.978   0.303   5.708
 8533SOL    HW226499   1.991   0.148   5.659
 8534SOL     OW26500   6.433   3.375   4.011
 8534SOL    HW126501   6.421   3.471   3.987
 8534SOL    HW226502   6.442   3.366   4.111
 8535SOL     OW26503   6.891   1.417   4.978
 8535SOL    HW126504   6.872   1.324   4.946
 8535SOL    HW226505   6.847   1.431   5.067
 8536SOL     OW26506   5.571   1.906   4.795
 8536SOL    HW126507   5.491   1.905   4.734
 8536SOL    HW226508   5.633   1.832   4.770
 8537SOL     OW26509   5.636   1.912   2.607
 8537SOL    HW126510   5.618   1.822   2.567
 8537SOL    HW226511   5.690   1.967   2.543
 8538SOL     OW26512   0.673   1.765   6.254
 8538SOL    HW126513   0.603   1.694   6.242
 8538SOL    HW226514   0.762   1.722   6.268
 8539SOL     OW26515   6.061   1.050   2.255
 8539SOL    HW126516   5.981   1.049   2.195
 8539SOL    HW226517   6.144   1.055   2.200
 8540SOL     OW26518   4.650   1.298   0.285
 8540SOL    HW126519   4.600   1.344   0.212
 8540SOL    HW226520   4.746   1.290   0.259
 8541SOL     OW26521   2.867   2.319   4.324
 8541SOL    HW126522   2.782   2.361   4.354
 8541SOL    HW226523   2.914   2.278   4.402
 8542SOL     OW26524   2.824   4.425   0.038
 8542SOL    HW126525   2.892   4.495   0.015
 8542SOL    HW226526   2.832   4.349   6.993
 8543SOL     OW26527   3.475   1.244   7.007
 8543SOL    HW126528   3.541   1.280   0.053
 8543SOL    HW226529   3.387   1.231   0.031
 8544SOL     OW26530   5.268   2.773   4.824
 8544SOL    HW126531   5.250   2.706   4.752
 8544SOL    HW226532   5.339   2.837   4.794
 8545SOL     OW26533   4.525   6.929   4.213
 8545SOL    HW126534   4.454   6.973   4.158
 8545SOL    HW226535   4.535   6.833   4.184
 8546SOL     OW26536   0.761   0.431   2.658
 8546SOL    HW126537   0.667   0.405   2.680
 8546SOL    HW226538   0.823   0.384   2.721
 8547SOL     OW26539   1.386   6.494   6.529
 8547SOL    HW126540   1.291   6.464   6.534
 8547SOL    HW226541   1.433   6.447   6.455
 8548SOL     OW26542   6.763   3.174   5.339
 8548SOL    HW126543   6.774   3.150   5.435
 8548SOL    HW226544   6.700   3.251   5.331
 8549SOL     OW26545   1.073   3.159   5.013
 8549SOL    HW126546   1.140   3.196   4.948
 8549SOL    HW226547   1.107   3.073   5.050
 8550SOL     OW26548   1.335   5.099   0.177
 8550SOL    HW126549   1.410   5.130   0.118
 8550SOL    HW226550   1.293   5.017   0.137
 8551SOL     OW26551   2.375   3.219   6.969
 8551SOL    HW126552   2.459   3.260   6.933
 8551SOL    HW226553   2.399   3.138   0.002
 8552SOL     OW26554   2.166   0.231   3.089
 8552SOL    HW126555   2.091   0.296   3.075
 8552SOL    HW226556   2.141   0.164   3.159
 8553SOL     OW26557   4.420   4.770   6.743
 8553SOL    HW126558   4.474   4.696   6.702
 8553SOL    HW226559   4.460   4.795   6.831
 8554SOL     OW26560   0.594   4.888   0.752
 8554SOL    HW126561   0.688   4.897   0.784
 8554SOL    HW226562   0.558   4.978   0.727
 8555SOL     OW26563   2.516   1.000   3.878
 8555SOL    HW126564   2.508   1.021   3.780
 8555SOL    HW226565   2.595   0.940   3.892
 8556SOL     OW26566   1.866   5.852   5.190
 8556SOL    HW126567   1.778   5.835   5.146
 8556SOL    HW226568   1.940   5.838   5.124
 8557SOL     OW26569   6.935   6.681   2.241
 8557SOL    HW126570   6.959   6.740   2.318
 8557SOL    HW226571   6.920   6.588   2.274
 8558SOL     OW26572   2.527   4.708   3.475
 8558SOL    HW126573   2.459   4.766   3.430
 8558SOL    HW226574   2.612   4.759   3.487
 8559SOL     OW26575   1.634   0.485   2.604
 8559SOL    HW126576   1.637   0.414   2.675
 8559SOL    HW226577   1.572   0.455   2.531
 8560SOL     OW26578   0.466   6.264   1.486
 8560SOL    HW126579   0.534   6.196   1.458
 8560SOL    HW226580   0.466   6.271   1.585
 8561SOL     OW26581   3.028   0.952   2.591
 8561SOL    HW126582   2.965   0.875   2.584
 8561SOL    HW226583   3.045   0.989   2.499
 8562SOL     OW26584   4.098   6.373   6.239
 8562SOL    HW126585   4.172   6.438   6.220
 8562SOL    HW226586   4.134   6.279   6.234
 8563SOL     OW26587   1.681   4.707   1.279
 8563SOL    HW126588   1.651   4.614   1.255
 8563SOL    HW226589   1.749   4.738   1.212
 8564SOL     OW26590   3.149   0.215   5.042
 8564SOL    HW126591   3.092   0.199   5.122
 8564SOL    HW226592   3.137   0.139   4.977
 8565SOL     OW26593   3.505   5.644   1.078
 8565SOL    HW126594   3.453   5.612   1.000
 8565SOL    HW226595   3.580   5.703   1.046
 8566SOL     OW26596   0.995   6.846   1.568
 8566SOL    HW126597   1.012   6.834   1.471
 8566SOL    HW226598   1.051   6.921   1.603
 8567SOL     OW26599   0.651   1.959   3.480
 8567SOL    HW126600   0.656   1.975   3.578
 8567SOL    HW226601   0.570   2.005   3.443
 8568SOL     OW26602   5.950   1.447   6.884
 8568SOL    HW126603   5.894   1.521   6.921
 8568SOL    HW226604   6.010   1.411   6.955
 8569SOL     OW26605   4.469   1.417   6.095
 8569SOL    HW126606   4.450   1.424   6.193
 8569SOL    HW226607   4.385   1.434   6.044
 8570SOL     OW26608   1.677   1.384   4.708
 8570SOL    HW126609   1.760   1.432   4.679
 8570SOL    HW226610   1.610   1.384   4.634
 8571SOL     OW26611   0.319   5.834   5.208
 8571SOL    HW126612   0.289   5.793   5.294
 8571SOL    HW226613   0.405   5.883   5.223
 8572SOL     OW26614   2.440   4.877   6.425
 8572SOL    HW126615   2.510   4.924   6.372
 8572SOL    HW226616   2.474   4.860   6.517
 8573SOL     OW26617   3.677   6.309   6.341
 8573SOL    HW126618   3.666   6.339   6.246
 8573SOL    HW226619   3.721   6.219   6.343
 8574SOL     OW26620   0.152   6.509   6.434
 8574SOL    HW126621   0.233   6.525   6.378
 8574SOL    HW226622   0.129   6.593   6.483
 8575SOL     OW26623   1.736   2.839   3.663
 8575SOL    HW126624   1.688   2.820   3.748
 8575SOL    HW226625   1.817   2.781   3.657
 8576SOL     OW26626   1.399   4.339   5.957
 8576SOL    HW126627   1.354   4.286   5.885
 8576SOL    HW226628   1.370   4.435   5.949
 8577SOL     OW26629   1.266   6.889   4.313
 8577SOL    HW126630   1.329   6.813   4.329
 8577SOL    HW226631   1.318   6.968   4.279
 8578SOL     OW26632   6.158   6.609   4.419
 8578SOL    HW126633   6.168   6.664   4.336
 8578SOL    HW226634   6.110   6.661   4.489
 8579SOL     OW26635   2.436   0.646   2.155
 8579SOL    HW126636   2.503   0.575   2.174
 8579SOL    HW226637   2.358   0.606   2.106
 8580SOL     OW26638   2.388   6.147   1.292
 8580SOL    HW126639   2.317   6.180   1.230
 8580SOL    HW226640   2.478   6.162   1.251
 8581SOL     OW26641   3.364   3.759   1.085
 8581SOL    HW126642   3.365   3.725   0.991
 8581SOL    HW226643   3.368   3.859   1.084
 8582SOL     OW26644   4.790   4.349   4.429
 8582SOL    HW126645   4.775   4.251   4.426
 8582SOL    HW226646   4.724   4.392   4.491
 8583SOL     OW26647   4.713   0.670   4.211
 8583SOL    HW126648   4.679   0.620   4.131
 8583SOL    HW226649   4.779   0.739   4.181
 8584SOL     OW26650   0.554   5.353   6.802
 8584SOL    HW126651   0.561   5.270   6.856
 8584SOL    HW226652   0.459   5.386   6.804
 8585SOL     OW26653   0.244   6.806   6.450
 8585SOL    HW126654   0.253   6.764   6.359
 8585SOL    HW226655   0.333   6.811   6.493
 8586SOL     OW26656   3.238   6.646   1.876
 8586SOL    HW126657   3.312   6.713   1.883
 8586SOL    HW226658   3.193   6.635   1.965
 8587SOL     OW26659   1.539   0.172   4.094
 8587SOL    HW126660   1.589   0.258   4.084
 8587SOL    HW226661   1.467   0.184   4.162
 8588SOL     OW26662   3.401   0.420   0.367
 8588SOL    HW126663   3.364   0.343   0.418
 8588SOL    HW226664   3.326   0.475   0.330
 8589SOL     OW26665   5.189   2.493   5.607
 8589SOL    HW126666   5.144   2.422   5.553
 8589SOL    HW226667   5.274   2.457   5.645
 8590SOL     OW26668   6.791   6.743   2.941
 8590SOL    HW126669   6.834   6.737   3.031
 8590SOL    HW226670   6.693   6.727   2.950
 8591SOL     OW26671   0.549   3.969   0.164
 8591SOL    HW126672   0.457   3.938   0.141
 8591SOL    HW226673   0.570   3.947   0.259
 8592SOL     OW26674   6.353   2.412   6.636
 8592SOL    HW126675   6.268   2.460   6.658
 8592SOL    HW226676   6.417   2.420   6.713
 8593SOL     OW26677   2.272   1.763   0.303
 8593SOL    HW126678   2.248   1.677   0.349
 8593SOL    HW226679   2.370   1.780   0.313
 8594SOL     OW26680   4.450   2.633   5.284
 8594SOL    HW126681   4.460   2.718   5.336
 8594SOL    HW226682   4.452   2.653   5.186
 8595SOL     OW26683   0.656   1.701   3.482
 8595SOL    HW126684   0.673   1.795   3.455
 8595SOL    HW226685   0.610   1.699   3.570
 8596SOL     OW26686   1.367   5.018   2.943
 8596SOL    HW126687   1.267   5.019   2.954
 8596SOL    HW226688   1.389   4.998   2.847
 8597SOL     OW26689   4.571   1.917   0.751
 8597SOL    HW126690   4.655   1.866   0.734
 8597SOL    HW226691   4.550   1.915   0.848
 8598SOL     OW26692   5.955   0.266   0.350
 8598SOL    HW126693   5.863   0.246   0.381
 8598SOL    HW226694   6.006   0.312   0.423
 8599SOL     OW26695   1.503   2.644   4.626
 8599SOL    HW126696   1.444   2.641   4.707
 8599SOL    HW226697   1.599   2.634   4.655
 8600SOL     OW26698   5.605   4.792   5.666
 8600SOL    HW126699   5.534   4.786   5.735
 8600SOL    HW226700   5.626   4.700   5.631
 8601SOL     OW26701   1.370   1.400   4.666
 8601SOL    HW126702   1.280   1.391   4.710
 8601SOL    HW226703   1.427   1.462   4.719
 8602SOL     OW26704   3.262   6.183   2.359
 8602SOL    HW126705   3.197   6.132   2.414
 8602SOL    HW226706   3.213   6.233   2.287
 8603SOL     OW26707   4.996   5.571   0.789
 8603SOL    HW126708   4.927   5.522   0.842
 8603SOL    HW226709   4.956   5.655   0.752
 8604SOL     OW26710   0.071   3.090   4.693
 8604SOL    HW126711   0.116   3.158   4.752
 8604SOL    HW226712   0.107   2.999   4.714
 8605SOL     OW26713   2.507   5.573   4.070
 8605SOL    HW126714   2.587   5.562   4.012
 8605SOL    HW226715   2.431   5.519   4.035
 8606SOL     OW26716   1.671   3.086   6.328
 8606SOL    HW126717   1.669   2.991   6.359
 8606SOL    HW226718   1.653   3.089   6.229
 8607SOL     OW26719   3.439   5.395   6.934
 8607SOL    HW126720   3.412   5.406   6.838
 8607SOL    HW226721   3.486   5.478   6.964
 8608SOL     OW26722   3.246   4.918   2.578
 8608SOL    HW126723   3.160   4.915   2.630
 8608SOL    HW226724   3.226   4.917   2.480
 8609SOL     OW26725   5.214   0.669   2.578
 8609SOL    HW126726   5.119   0.700   2.574
 8609SOL    HW226727   5.217   0.569   2.571
 8610SOL     OW26728   1.103   2.040   2.891
 8610SOL    HW126729   1.087   1.982   2.811
 8610SOL    HW226730   1.048   2.123   2.883
 8611SOL     OW26731   3.464   2.069   4.585
 8611SOL    HW126732   3.384   2.010   4.583
 8611SOL    HW226733   3.498   2.081   4.491
 8612SOL     OW26734   2.791   3.300   0.314
 8612SOL    HW126735   2.692   3.316   0.322
 8612SOL    HW226736   2.824   3.254   0.396
 8613SOL     OW26737   2.726   1.622   1.430
 8613SOL    HW126738   2.723   1.715   1.469
 8613SOL    HW226739   2.634   1.589   1.415
 8614SOL     OW26740   1.190   2.883   3.202
 8614SOL    HW126741   1.276   2.833   3.200
 8614SOL    HW226742   1.202   2.967   3.255
 8615SOL     OW26743   4.080   1.491   5.014
 8615SOL    HW126744   4.127   1.556   4.955
 8615SOL    HW226745   4.145   1.453   5.081
 8616SOL     OW26746   3.135   4.486   1.641
 8616SOL    HW126747   3.075   4.430   1.698
 8616SOL    HW226748   3.122   4.583   1.664
 8617SOL     OW26749   6.692   1.462   5.576
 8617SOL    HW126750   6.785   1.467   5.612
 8617SOL    HW226751   6.627   1.467   5.652
 8618SOL     OW26752   6.321   4.782   0.909
 8618SOL    HW126753   6.314   4.762   0.811
 8618SOL    HW226754   6.230   4.794   0.947
 8619SOL     OW26755   3.770   4.831   2.230
 8619SOL    HW126756   3.754   4.799   2.136
 8619SOL    HW226757   3.683   4.857   2.272
 8620SOL     OW26758   1.150   0.234   3.273
 8620SOL    HW126759   1.170   0.220   3.370
 8620SOL    HW226760   1.186   0.322   3.243
 8621SOL     OW26761   5.581   1.693   3.219
 8621SOL    HW126762   5.594   1.760   3.146
 8621SOL    HW226763   5.650   1.709   3.291
 8622SOL     OW26764   5.525   3.275   1.326
 8622SOL    HW126765   5.465   3.306   1.399
 8622SOL    HW226766   5.618   3.306   1.344
 8623SOL     OW26767   0.506   3.579   4.314
 8623SOL    HW126768   0.562   3.527   4.249
 8623SOL    HW226769   0.490   3.523   4.396
 8624SOL     OW26770   1.877   3.856   4.732
 8624SOL    HW126771   1.967   3.861   4.774
 8624SOL    HW226772   1.877   3.905   4.645
 8625SOL     OW26773   4.520   0.462   6.639
 8625SOL    HW126774   4.511   0.523   6.717
 8625SOL    HW226775   4.441   0.400   6.635
 8626SOL     OW26776   3.364   3.087   6.126
 8626SOL    HW126777   3.406   3.138   6.051
 8626SOL    HW226778   3.382   2.989   6.115
 8627SOL     OW26779   0.857   1.722   3.232
 8627SOL    HW126780   0.783   1.785   3.208
 8627SOL    HW226781   0.925   1.770   3.288
 8628SOL     OW26782   6.487   6.129   0.822
 8628SOL    HW126783   6.517   6.074   0.900
 8628SOL    HW226784   6.510   6.225   0.839
 8629SOL     OW26785   1.613   5.493   5.108
 8629SOL    HW126786   1.521   5.495   5.148
 8629SOL    HW226787   1.673   5.438   5.166
 8630SOL     OW26788   5.320   4.541   4.062
 8630SOL    HW126789   5.239   4.599   4.060
 8630SOL    HW226790   5.340   4.514   4.156
 8631SOL     OW26791   0.666   5.146   6.002
 8631SOL    HW126792   0.658   5.138   6.101
 8631SOL    HW226793   0.708   5.233   5.978
 8632SOL     OW26794   4.102   5.065   5.065
 8632SOL    HW126795   4.154   4.990   5.023
 8632SOL    HW226796   4.032   5.097   5.001
 8633SOL     OW26797   5.423   2.393   5.738
 8633SOL    HW126798   5.402   2.413   5.833
 8633SOL    HW226799   5.470   2.305   5.732
 8634SOL     OW26800   4.672   3.179   0.397
 8634SOL    HW126801   4.643   3.264   0.352
 8634SOL    HW226802   4.721   3.202   0.481
 8635SOL     OW26803   5.208   3.251   6.607
 8635SOL    HW126804   5.304   3.256   6.636
 8635SOL    HW226805   5.160   3.333   6.636
 8636SOL     OW26806   5.839   5.900   0.740
 8636SOL    HW126807   5.878   5.979   0.788
 8636SOL    HW226808   5.740   5.913   0.729
 8637SOL     OW26809   2.509   1.057   6.782
 8637SOL    HW126810   2.492   1.154   6.765
 8637SOL    HW226811   2.595   1.031   6.739
 8638SOL     OW26812   3.380   2.182   5.215
 8638SOL    HW126813   3.375   2.135   5.127
 8638SOL    HW226814   3.332   2.270   5.209
 8639SOL     OW26815   5.390   2.701   0.244
 8639SOL    HW126816   5.311   2.726   0.190
 8639SOL    HW226817   5.389   2.602   0.262
 8640SOL     OW26818   4.071   4.025   6.693
 8640SOL    HW126819   4.094   4.003   6.788
 8640SOL    HW226820   4.152   4.013   6.636
 8641SOL     OW26821   4.549   4.775   3.751
 8641SOL    HW126822   4.516   4.817   3.835
 8641SOL    HW226823   4.480   4.784   3.680
 8642SOL     OW26824   1.206   6.139   3.575
 8642SOL    HW126825   1.300   6.121   3.607
 8642SOL    HW226826   1.183   6.076   3.501
 8643SOL     OW26827   2.748   0.639   6.628
 8643SOL    HW126828   2.663   0.594   6.655
 8643SOL    HW226829   2.805   0.653   6.709
 8644SOL     OW26830   5.100   2.371   5.378
 8644SOL    HW126831   5.033   2.445   5.386
 8644SOL    HW226832   5.143   2.375   5.288
 8645SOL     OW26833   4.357   4.002   1.445
 8645SOL    HW126834   4.355   3.932   1.373
 8645SOL    HW226835   4.451   4.023   1.469
 8646SOL     OW26836   6.887   1.752   0.830
 8646SOL    HW126837   6.806   1.730   0.775
 8646SOL    HW226838   6.969   1.722   0.781
 8647SOL     OW26839   2.631   5.400   6.526
 8647SOL    HW126840   2.722   5.425   6.493
 8647SOL    HW226841   2.563   5.461   6.486
 8648SOL     OW26842   6.505   0.268   2.830
 8648SOL    HW126843   6.582   0.283   2.769
 8648SOL    HW226844   6.536   0.216   2.910
 8649SOL     OW26845   5.803   5.504   5.965
 8649SOL    HW126846   5.751   5.584   5.997
 8649SOL    HW226847   5.758   5.467   5.883
 8650SOL     OW26848   2.175   4.849   4.387
 8650SOL    HW126849   2.267   4.825   4.419
 8650SOL    HW226850   2.176   4.864   4.288
 8651SOL     OW26851   4.214   0.524   0.070
 8651SOL    HW126852   4.146   0.492   0.136
 8651SOL    HW226853   4.292   0.461   0.068
 8652SOL     OW26854   1.731   5.434   3.522
 8652SOL    HW126855   1.750   5.531   3.537
 8652SOL    HW226856   1.728   5.387   3.610
 8653SOL     OW26857   6.517   0.687   6.208
 8653SOL    HW126858   6.540   0.750   6.282
 8653SOL    HW226859   6.418   0.685   6.194
 8654SOL     OW26860   0.843   5.202   2.172
 8654SOL    HW126861   0.867   5.228   2.079
 8654SOL    HW226862   0.895   5.120   2.199
 8655SOL     OW26863   6.353   0.988   4.205
 8655SOL    HW126864   6.390   1.080   4.200
 8655SOL    HW226865   6.379   0.936   4.124
 8656SOL     OW26866   0.014   7.016   0.922
 8656SOL    HW126867   6.943   6.990   0.890
 8656SOL    HW226868   0.041   6.958   0.998
 8657SOL     OW26869   5.277   5.069   0.006
 8657SOL    HW126870   5.203   5.007   7.002
 8657SOL    HW226871   5.335   5.026   0.076
 8658SOL     OW26872   6.503   6.222   0.553
 8658SOL    HW126873   6.566   6.170   0.496
 8658SOL    HW226874   6.493   6.178   0.641
 8659SOL     OW26875   4.731   2.115   2.223
 8659SOL    HW126876   4.653   2.143   2.279
 8659SOL    HW226877   4.701   2.105   2.128
 8660SOL     OW26878   6.836   3.548   1.694
 8660SOL    HW126879   6.808   3.501   1.778
 8660SOL    HW226880   6.846   3.481   1.620
 8661SOL     OW26881   6.237   4.063   1.354
 8661SOL    HW126882   6.308   4.111   1.304
 8661SOL    HW226883   6.238   3.966   1.329
 8662SOL     OW26884   4.417   5.423   1.000
 8662SOL    HW126885   4.377   5.500   1.049
 8662SOL    HW226886   4.485   5.458   0.934
 8663SOL     OW26887   2.731   5.923   2.157
 8663SOL    HW126888   2.676   6.005   2.171
 8663SOL    HW226889   2.737   5.872   2.243
 8664SOL     OW26890   2.003   6.580   1.549
 8664SOL    HW126891   2.004   6.491   1.595
 8664SOL    HW226892   1.963   6.569   1.457
 8665SOL     OW26893   5.679   5.737   5.056
 8665SOL    HW126894   5.586   5.743   5.093
 8665SOL    HW226895   5.675   5.745   4.957
 8666SOL     OW26896   5.924   1.305   3.745
 8666SOL    HW126897   5.921   1.205   3.741
 8666SOL    HW226898   5.930   1.342   3.652
 8667SOL     OW26899   3.954   2.165   3.947
 8667SOL    HW126900   3.916   2.177   3.856
 8667SOL    HW226901   4.046   2.204   3.951
 8668SOL     OW26902   4.860   3.135   3.505
 8668SOL    HW126903   4.846   3.045   3.463
 8668SOL    HW226904   4.884   3.123   3.602
 8669SOL     OW26905   1.487   6.039   6.478
 8669SOL    HW126906   1.579   6.075   6.466
 8669SOL    HW226907   1.477   6.004   6.571
 8670SOL     OW26908   4.280   5.096   5.865
 8670SOL    HW126909   4.180   5.092   5.853
 8670SOL    HW226910   4.323   5.029   5.805
 8671SOL     OW26911   5.303   1.644   2.765
 8671SOL    HW126912   5.276   1.664   2.671
 8671SOL    HW226913   5.257   1.707   2.828
 8672SOL     OW26914   1.359   5.338   4.058
 8672SOL    HW126915   1.324   5.397   4.130
 8672SOL    HW226916   1.297   5.261   4.044
 8673SOL     OW26917   5.169   2.797   0.095
 8673SOL    HW126918   5.104   2.779   0.021
 8673SOL    HW226919   5.149   2.886   0.136
 8674SOL     OW26920   4.861   6.535   3.027
 8674SOL    HW126921   4.764   6.552   3.045
 8674SOL    HW226922   4.898   6.608   2.971
 8675SOL     OW26923   3.750   2.114   4.945
 8675SOL    HW126924   3.801   2.029   4.932
 8675SOL    HW226925   3.799   2.172   5.010
 8676SOL     OW26926   5.432   6.925   3.293
 8676SOL    HW126927   5.344   6.902   3.252
 8676SOL    HW226928   5.506   6.899   3.232
 8677SOL     OW26929   2.174   5.342   6.070
 8677SOL    HW126930   2.257   5.312   6.117
 8677SOL    HW226931   2.097   5.338   6.133
 8678SOL     OW26932   0.254   0.335   2.143
 8678SOL    HW126933   0.337   0.325   2.198
 8678SOL    HW226934   0.274   0.308   2.048
 8679SOL     OW26935   0.164   2.057   3.321
 8679SOL    HW126936   0.230   2.037   3.393
 8679SOL    HW226937   0.178   2.150   3.287
 8680SOL     OW26938   0.084   3.316   6.897
 8680SOL    HW126939   0.129   3.394   6.940
 8680SOL    HW226940   7.005   3.331   6.896
 8681SOL     OW26941   4.823   5.001   1.241
 8681SOL    HW126942   4.786   5.033   1.153
 8681SOL    HW226943   4.821   5.076   1.307
 8682SOL     OW26944   5.312   6.477   2.639
 8682SOL    HW126945   5.412   6.470   2.637
 8682SOL    HW226946   5.279   6.455   2.730
 8683SOL     OW26947   1.938   2.020   4.168
 8683SOL    HW126948   2.011   1.954   4.186
 8683SOL    HW226949   1.901   2.005   4.076
 8684SOL     OW26950   6.019   2.815   4.981
 8684SOL    HW126951   6.085   2.851   5.047
 8684SOL    HW226952   6.011   2.716   4.993
 8685SOL     OW26953   0.089   2.031   6.546
 8685SOL    HW126954   0.077   1.953   6.607
 8685SOL    HW226955   0.001   2.073   6.526
 8686SOL     OW26956   0.375   1.093   3.171
 8686SOL    HW126957   0.340   1.128   3.084
 8686SOL    HW226958   0.389   1.170   3.235
 8687SOL     OW26959   4.907   5.137   1.863
 8687SOL    HW126960   4.837   5.131   1.934
 8687SOL    HW226961   4.994   5.162   1.905
 8688SOL     OW26962   0.812   5.375   5.993
 8688SOL    HW126963   0.818   5.425   5.906
 8688SOL    HW226964   0.854   5.429   6.065
 8689SOL     OW26965   4.018   3.476   0.949
 8689SOL    HW126966   3.953   3.473   1.025
 8689SOL    HW226967   4.003   3.559   0.895
 8690SOL     OW26968   1.579   4.153   3.905
 8690SOL    HW126969   1.574   4.203   3.991
 8690SOL    HW226970   1.654   4.086   3.909
 8691SOL     OW26971   3.891   1.899   5.886
 8691SOL    HW126972   3.879   1.994   5.916
 8691SOL    HW226973   3.928   1.845   5.962
 8692SOL     OW26974   3.069   1.433   4.754
 8692SOL    HW126975   3.014   1.441   4.670
 8692SOL    HW226976   3.009   1.416   4.832
 8693SOL     OW26977   5.122   0.355   0.326
 8693SOL    HW126978   5.171   0.270   0.308
 8693SOL    HW226979   5.180   0.415   0.382
 8694SOL     OW26980   5.029   0.833   4.921
 8694SOL    HW126981   5.104   0.768   4.907
 8694SOL    HW226982   4.942   0.788   4.899
 8695SOL     OW26983   4.119   2.760   6.007
 8695SOL    HW126984   4.182   2.804   6.070
 8695SOL    HW226985   4.167   2.692   5.953
 8696SOL     OW26986   2.165   5.027   5.225
 8696SOL    HW126987   2.194   4.976   5.306
 8696SOL    HW226988   2.154   4.964   5.148
 8697SOL     OW26989   0.012   3.510   6.345
 8697SOL    HW126990   0.084   3.448   6.314
 8697SOL    HW226991   6.947   3.458   6.358
 8698SOL     OW26992   4.460   6.048   5.115
 8698SOL    HW126993   4.431   5.983   5.186
 8698SOL    HW226994   4.445   6.008   5.025
 8699SOL     OW26995   0.674   2.563   5.041
 8699SOL    HW126996   0.690   2.484   5.101
 8699SOL    HW226997   0.671   2.532   4.946
 8700SOL     OW26998   1.146   0.554   4.408
 8700SOL    HW126999   1.232   0.596   4.437
 8700SOL    HW227000   1.086   0.543   4.487
 8701SOL     OW27001   1.215   1.020   6.918
 8701SOL    HW127002   1.192   1.105   6.870
 8701SOL    HW227003   1.289   0.974   6.870
 8702SOL     OW27004   5.422   4.935   1.683
 8702SOL    HW127005   5.520   4.922   1.699
 8702SOL    HW227006   5.407   4.960   1.587
 8703SOL     OW27007   3.067   5.255   0.563
 8703SOL    HW127008   3.000   5.316   0.605
 8703SOL    HW227009   3.026   5.165   0.548
 8704SOL     OW27010   0.539   4.287   3.210
 8704SOL    HW127011   0.484   4.370   3.197
 8704SOL    HW227012   0.587   4.266   3.126
 8705SOL     OW27013   5.153   1.055   6.645
 8705SOL    HW127014   5.138   1.150   6.620
 8705SOL    HW227015   5.223   1.049   6.716
 8706SOL     OW27016   5.166   2.204   6.769
 8706SOL    HW127017   5.079   2.209   6.818
 8706SOL    HW227018   5.157   2.249   6.680
 8707SOL     OW27019   0.177   1.359   5.859
 8707SOL    HW127020   0.141   1.342   5.950
 8707SOL    HW227021   0.103   1.353   5.792
 8708SOL     OW27022   4.188   1.298   2.775
 8708SOL    HW127023   4.207   1.201   2.763
 8708SOL    HW227024   4.089   1.312   2.780
 8709SOL     OW27025   6.833   6.814   0.400
 8709SOL    HW127026   6.817   6.755   0.321
 8709SOL    HW227027   6.864   6.904   0.369
 8710SOL     OW27028   2.176   3.107   3.722
 8710SOL    HW127029   2.135   3.029   3.770
 8710SOL    HW227030   2.198   3.081   3.628
 8711SOL     OW27031   1.931   6.825   2.936
 8711SOL    HW127032   1.988   6.843   3.016
 8711SOL    HW227033   1.852   6.770   2.962
 8712SOL     OW27034   3.825   1.627   4.840
 8712SOL    HW127035   3.727   1.637   4.856
 8712SOL    HW227036   3.851   1.531   4.848
 8713SOL     OW27037   6.438   3.401   3.104
 8713SOL    HW127038   6.345   3.371   3.123
 8713SOL    HW227039   6.450   3.495   3.135
 8714SOL     OW27040   1.064   0.078   5.381
 8714SOL    HW127041   1.141   0.016   5.393
 8714SOL    HW227042   1.050   0.131   5.464
 8715SOL     OW27043   4.121   0.623   1.283
 8715SOL    HW127044   4.164   0.688   1.345
 8715SOL    HW227045   4.079   0.549   1.336
 8716SOL     OW27046   6.978   0.266   1.011
 8716SOL    HW127047   6.994   0.167   1.010
 8716SOL    HW227048   6.918   0.291   0.935
 8717SOL     OW27049   3.003   3.667   4.822
 8717SOL    HW127050   2.989   3.702   4.915
 8717SOL    HW227051   2.950   3.583   4.810
 8718SOL     OW27052   1.380   3.200   5.428
 8718SOL    HW127053   1.374   3.174   5.525
 8718SOL    HW227054   1.476   3.214   5.403
 8719SOL     OW27055   4.548   6.954   6.780
 8719SOL    HW127056   4.570   0.015   6.835
 8719SOL    HW227057   4.620   6.939   6.712
 8720SOL     OW27058   0.209   5.312   6.044
 8720SOL    HW127059   0.269   5.238   6.074
 8720SOL    HW227060   0.263   5.387   6.006
 8721SOL     OW27061   6.564   2.497   1.748
 8721SOL    HW127062   6.607   2.548   1.674
 8721SOL    HW227063   6.474   2.465   1.717
 8722SOL     OW27064   3.477   1.134   0.742
 8722SOL    HW127065   3.464   1.139   0.841
 8722SOL    HW227066   3.393   1.100   0.699
 8723SOL     OW27067   4.787   6.474   2.319
 8723SOL    HW127068   4.791   6.438   2.412
 8723SOL    HW227069   4.796   6.399   2.254
 8724SOL     OW27070   5.217   6.599   4.947
 8724SOL    HW127071   5.246   6.587   4.852
 8724SOL    HW227072   5.123   6.566   4.957
 8725SOL     OW27073   1.688   6.061   5.744
 8725SOL    HW127074   1.658   6.086   5.837
 8725SOL    HW227075   1.629   6.107   5.677
 8726SOL     OW27076   0.421   1.290   3.341
 8726SOL    HW127077   0.447   1.267   3.435
 8726SOL    HW227078   0.358   1.368   3.343
 8727SOL     OW27079   5.110   0.263   2.215
 8727SOL    HW127080   5.205   0.269   2.184
 8727SOL    HW227081   5.080   0.352   2.247
 8728SOL     OW27082   6.427   0.993   2.417
 8728SOL    HW127083   6.411   1.002   2.516
 8728SOL    HW227084   6.377   0.914   2.382
 8729SOL     OW27085   3.742   4.991   5.695
 8729SOL    HW127086   3.707   4.901   5.722
 8729SOL    HW227087   3.830   4.979   5.649
 8730SOL     OW27088   5.254   4.439   2.559
 8730SOL    HW127089   5.345   4.421   2.596
 8730SOL    HW227090   5.229   4.535   2.577
 8731SOL     OW27091   1.542   2.887   2.887
 8731SOL    HW127092   1.518   2.948   2.812
 8731SOL    HW227093   1.520   2.931   2.974
 8732SOL     OW27094   5.639   4.918   1.892
 8732SOL    HW127095   5.709   4.941   1.959
 8732SOL    HW227096   5.623   4.820   1.892
 8733SOL     OW27097   2.133   5.917   1.300
 8733SOL    HW127098   2.101   6.002   1.260
 8733SOL    HW227099   2.129   5.922   1.400
 8734SOL     OW27100   1.105   4.004   2.074
 8734SOL    HW127101   1.150   4.076   2.022
 8734SOL    HW227102   1.107   3.919   2.022
 8735SOL     OW27103   0.599   2.701   0.251
 8735SOL    HW127104   0.591   2.798   0.228
 8735SOL    HW227105   0.611   2.647   0.168
 8736SOL     OW27106   0.299   5.639   0.490
 8736SOL    HW127107   0.276   5.736   0.495
 8736SOL    HW227108   0.384   5.627   0.438
 8737SOL     OW27109   1.757   6.320   0.212
 8737SOL    HW127110   1.732   6.305   0.308
 8737SOL    HW227111   1.857   6.327   0.204
 8738SOL     OW27112   3.102   5.702   4.046
 8738SOL    HW127113   3.199   5.678   4.052
 8738SOL    HW227114   3.089   5.770   3.973
 8739SOL     OW27115   5.904   5.778   6.590
 8739SOL    HW127116   5.921   5.834   6.671
 8739SOL    HW227117   5.898   5.682   6.616
 8740SOL     OW27118   4.132   1.145   4.784
 8740SOL    HW127119   4.039   1.122   4.812
 8740SOL    HW227120   4.131   1.177   4.690
 8741SOL     OW27121   2.431   1.445   2.255
 8741SOL    HW127122   2.461   1.354   2.225
 8741SOL    HW227123   2.405   1.441   2.352
 8742SOL     OW27124   4.745   6.346   1.876
 8742SOL    HW127125   4.812   6.312   1.811
 8742SOL    HW227126   4.763   6.306   1.966
 8743SOL     OW27127   1.504   0.019   2.351
 8743SOL    HW127128   1.455   0.042   2.267
 8743SOL    HW227129   1.550   6.951   2.340
 8744SOL     OW27130   3.783   2.895   6.809
 8744SOL    HW127131   3.683   2.895   6.809
 8744SOL    HW227132   3.817   2.801   6.818
 8745SOL     OW27133   6.451   1.702   5.918
 8745SOL    HW127134   6.391   1.780   5.901
 8745SOL    HW227135   6.546   1.731   5.913
 8746SOL     OW27136   4.797   5.741   4.501
 8746SOL    HW127137   4.713   5.777   4.460
 8746SOL    HW227138   4.778   5.705   4.592
 8747SOL     OW27139   0.395   2.158   3.449
 8747SOL    HW127140   0.430   2.246   3.419
 8747SOL    HW227141   0.381   2.160   3.548
 8748SOL     OW27142   0.058   1.308   4.333
 8748SOL    HW127143   0.078   1.262   4.420
 8748SOL    HW227144   0.108   1.264   4.259
 8749SOL     OW27145   2.466   0.569   5.176
 8749SOL    HW127146   2.409   0.557   5.095
 8749SOL    HW227147   2.468   0.484   5.229
 8750SOL     OW27148   3.155   3.911   4.744
 8750SOL    HW127149   3.250   3.896   4.716
 8750SOL    HW227150   3.111   3.823   4.760
 8751SOL     OW27151   6.235   1.979   1.978
 8751SOL    HW127152   6.289   2.014   1.902
 8751SOL    HW227153   6.288   1.983   2.063
 8752SOL     OW27154   3.728   2.992   6.129
 8752SOL    HW127155   3.640   2.967   6.090
 8752SOL    HW227156   3.717   3.068   6.193
 8753SOL     OW27157   3.135   1.641   6.304
 8753SOL    HW127158   3.067   1.711   6.284
 8753SOL    HW227159   3.221   1.684   6.331
 8754SOL     OW27160   1.482   3.532   5.754
 8754SOL    HW127161   1.578   3.557   5.743
 8754SOL    HW227162   1.427   3.576   5.683
 8755SOL     OW27163   2.640   1.230   0.832
 8755SOL    HW127164   2.646   1.326   0.803
 8755SOL    HW227165   2.706   1.214   0.905
 8756SOL     OW27166   1.258   3.191   4.234
 8756SOL    HW127167   1.295   3.110   4.187
 8756SOL    HW227168   1.189   3.234   4.176
 8757SOL     OW27169   3.756   5.731   6.375
 8757SOL    HW127170   3.682   5.668   6.397
 8757SOL    HW227171   3.827   5.726   6.445
 8758SOL     OW27172   4.706   6.302   3.060
 8758SOL    HW127173   4.791   6.351   3.042
 8758SOL    HW227174   4.691   6.296   3.158
 8759SOL     OW27175   4.489   2.909   6.399
 8759SOL    HW127176   4.455   2.869   6.314
 8759SOL    HW227177   4.557   2.980   6.378
 8760SOL     OW27178   2.692   0.742   5.330
 8760SOL    HW127179   2.725   0.666   5.274
 8760SOL    HW227180   2.769   0.799   5.358
 8761SOL     OW27181   6.058   2.322   1.682
 8761SOL    HW127182   6.071   2.280   1.772
 8761SOL    HW227183   5.988   2.393   1.689
 8762SOL     OW27184   0.950   4.486   3.412
 8762SOL    HW127185   0.953   4.583   3.386
 8762SOL    HW227186   0.859   4.464   3.449
 8763SOL     OW27187   6.363   6.704   6.353
 8763SOL    HW127188   6.277   6.653   6.342
 8763SOL    HW227189   6.412   6.668   6.432
 8764SOL     OW27190   5.444   0.261   5.106
 8764SOL    HW127191   5.463   0.358   5.097
 8764SOL    HW227192   5.460   0.233   5.201
 8765SOL     OW27193   5.175   0.026   3.698
 8765SOL    HW127194   5.257   0.083   3.705
 8765SOL    HW227195   5.199   6.956   3.662
 8766SOL     OW27196   4.424   4.768   4.705
 8766SOL    HW127197   4.338   4.799   4.747
 8766SOL    HW227198   4.489   4.744   4.777
 8767SOL     OW27199   5.082   5.812   3.079
 8767SOL    HW127200   5.058   5.877   3.006
 8767SOL    HW227201   5.069   5.719   3.046
 8768SOL     OW27202   1.272   2.465   0.056
 8768SOL    HW127203   1.298   2.402   7.003
 8768SOL    HW227204   1.196   2.521   0.026
 8769SOL     OW27205   6.882   0.748   3.522
 8769SOL    HW127206   6.853   0.658   3.555
 8769SOL    HW227207   6.840   0.766   3.433
 8770SOL     OW27208   4.528   4.558   2.004
 8770SOL    HW127209   4.528   4.473   1.951
 8770SOL    HW227210   4.517   4.537   2.101
 8771SOL     OW27211   0.864   1.583   6.327
 8771SOL    HW127212   0.855   1.597   6.425
 8771SOL    HW227213   0.817   1.498   6.301
 8772SOL     OW27214   4.754   0.382   6.776
 8772SOL    HW127215   4.685   0.391   6.704
 8772SOL    HW227216   4.809   0.465   6.779
 8773SOL     OW27217   5.482   2.855   3.471
 8773SOL    HW127218   5.530   2.836   3.557
 8773SOL    HW227219   5.458   2.952   3.467
 8774SOL     OW27220   1.256   1.047   0.148
 8774SOL    HW127221   1.256   1.051   0.048
 8774SOL    HW227222   1.270   1.139   0.185
 8775SOL     OW27223   5.452   0.192   5.650
 8775SOL    HW127224   5.536   0.174   5.700
 8775SOL    HW227225   5.378   0.211   5.714
 8776SOL     OW27226   4.723   2.917   0.511
 8776SOL    HW127227   4.655   2.845   0.497
 8776SOL    HW227228   4.702   2.995   0.452
 8777SOL     OW27229   6.447   4.143   3.435
 8777SOL    HW127230   6.441   4.067   3.500
 8777SOL    HW227231   6.501   4.217   3.475
 8778SOL     OW27232   5.879   2.991   5.865
 8778SOL    HW127233   5.892   2.941   5.778
 8778SOL    HW227234   5.968   3.015   5.903
 8779SOL     OW27235   2.955   5.025   2.547
 8779SOL    HW127236   2.961   4.939   2.497
 8779SOL    HW227237   3.025   5.089   2.513
 8780SOL     OW27238   0.518   6.636   2.764
 8780SOL    HW127239   0.530   6.564   2.696
 8780SOL    HW227240   0.477   6.716   2.722
 8781SOL     OW27241   4.971   0.691   4.012
 8781SOL    HW127242   4.958   0.788   3.994
 8781SOL    HW227243   4.888   0.641   3.987
 8782SOL     OW27244   6.575   6.848   1.745
 8782SOL    HW127245   6.598   6.775   1.809
 8782SOL    HW227246   6.605   6.822   1.653
 8783SOL     OW27247   6.468   4.356   4.032
 8783SOL    HW127248   6.471   4.440   4.086
 8783SOL    HW227249   6.558   4.339   3.991
 8784SOL     OW27250   6.851   5.020   5.581
 8784SOL    HW127251   6.855   5.075   5.665
 8784SOL    HW227252   6.832   4.925   5.605
 8785SOL     OW27253   5.620   4.622   0.439
 8785SOL    HW127254   5.593   4.583   0.527
 8785SOL    HW227255   5.690   4.565   0.397
 8786SOL     OW27256   3.043   0.968   0.378
 8786SOL    HW127257   3.049   1.015   0.466
 8786SOL    HW227258   2.956   0.990   0.334
 8787SOL     OW27259   3.044   1.071   1.572
 8787SOL    HW127260   3.134   1.108   1.594
 8787SOL    HW227261   3.030   1.075   1.473
 8788SOL     OW27262   6.179   0.027   5.412
 8788SOL    HW127263   6.102   0.079   5.375
 8788SOL    HW227264   6.224   6.997   5.338
 8789SOL     OW27265   6.066   6.284   4.097
 8789SOL    HW127266   6.134   6.211   4.094
 8789SOL    HW227267   5.985   6.257   4.046
 8790SOL     OW27268   6.930   7.007   6.212
 8790SOL    HW127269   7.004   0.055   6.213
 8790SOL    HW227270   6.853   0.022   6.159
 8791SOL     OW27271   5.294   6.434   5.271
 8791SOL    HW127272   5.247   6.392   5.194
 8791SOL    HW227273   5.243   6.415   5.355
 8792SOL     OW27274   2.843   5.756   3.245
 8792SOL    HW127275   2.852   5.701   3.162
 8792SOL    HW227276   2.771   5.824   3.232
 8793SOL     OW27277   1.249   4.435   2.420
 8793SOL    HW127278   1.280   4.381   2.342
 8793SOL    HW227279   1.157   4.406   2.445
 8794SOL     OW27280   4.839   0.036   2.665
 8794SOL    HW127281   4.792   0.006   2.748
 8794SOL    HW227282   4.938   0.035   2.681
 8795SOL     OW27283   1.296   4.196   5.646
 8795SOL    HW127284   1.275   4.240   5.559
 8795SOL    HW227285   1.232   4.229   5.716
 8796SOL     OW27286   4.430   1.835   4.374
 8796SOL    HW127287   4.494   1.869   4.443
 8796SOL    HW227288   4.369   1.768   4.415
 8797SOL     OW27289   0.326   0.382   0.051
 8797SOL    HW127290   0.236   0.341   0.068
 8797SOL    HW227291   0.344   0.384   6.973
 8798SOL     OW27292   5.180   5.720   6.640
 8798SOL    HW127293   5.222   5.711   6.550
 8798SOL    HW227294   5.081   5.731   6.630
 8799SOL     OW27295   2.773   4.812   3.513
 8799SOL    HW127296   2.796   4.764   3.429
 8799SOL    HW227297   2.794   4.910   3.502
 8800SOL     OW27298   6.366   4.446   5.915
 8800SOL    HW127299   6.317   4.361   5.930
 8800SOL    HW227300   6.306   4.523   5.937
 8801SOL     OW27301   6.822   0.830   4.819
 8801SOL    HW127302   6.782   0.885   4.746
 8801SOL    HW227303   6.899   0.778   4.783
 8802SOL     OW27304   2.262   0.042   6.741
 8802SOL    HW127305   2.278   0.068   6.646
 8802SOL    HW227306   2.205   0.111   6.785
 8803SOL     OW27307   0.122   6.320   0.024
 8803SOL    HW127308   0.119   6.221   0.038
 8803SOL    HW227309   0.212   6.345   7.009
 8804SOL     OW27310   2.673   6.772   1.874
 8804SOL    HW127311   2.575   6.754   1.875
 8804SOL    HW227312   2.689   6.870   1.864
 8805SOL     OW27313   3.260   6.505   3.584
 8805SOL    HW127314   3.346   6.544   3.552
 8805SOL    HW227315   3.232   6.551   3.669
 8806SOL     OW27316   3.341   4.799   1.792
 8806SOL    HW127317   3.288   4.831   1.713
 8806SOL    HW227318   3.422   4.751   1.759
 8807SOL     OW27319   5.148   0.556   0.160
 8807SOL    HW127320   5.189   0.524   0.075
 8807SOL    HW227321   5.148   0.482   0.227
 8808SOL     OW27322   5.919   2.714   6.704
 8808SOL    HW127323   5.914   2.748   6.610
 8808SOL    HW227324   5.835   2.738   6.753
 8809SOL     OW27325   3.576   5.347   3.174
 8809SOL    HW127326   3.565   5.329   3.272
 8809SOL    HW227327   3.672   5.334   3.149
 8810SOL     OW27328   6.265   0.776   4.844
 8810SOL    HW127329   6.296   0.735   4.931
 8810SOL    HW227330   6.168   0.798   4.850
 8811SOL     OW27331   3.551   1.539   2.341
 8811SOL    HW127332   3.565   1.551   2.242
 8811SOL    HW227333   3.596   1.613   2.390
 8812SOL     OW27334   2.040   0.883   0.464
 8812SOL    HW127335   2.101   0.832   0.525
 8812SOL    HW227336   2.089   0.961   0.426
 8813SOL     OW27337   2.261   5.460   2.820
 8813SOL    HW127338   2.213   5.528   2.765
 8813SOL    HW227339   2.358   5.461   2.796
 8814SOL     OW27340   6.755   0.296   0.828
 8814SOL    HW127341   6.696   0.228   0.785
 8814SOL    HW227342   6.711   0.386   0.823
 8815SOL     OW27343   5.841   0.050   0.895
 8815SOL    HW127344   5.801   0.114   0.960
 8815SOL    HW227345   5.801   6.980   0.908
 8816SOL     OW27346   1.198   6.382   0.653
 8816SOL    HW127347   1.218   6.478   0.632
 8816SOL    HW227348   1.124   6.350   0.594
 8817SOL     OW27349   6.934   4.943   3.525
 8817SOL    HW127350   6.994   5.023   3.529
 8817SOL    HW227351   6.915   4.911   3.618
 8818SOL     OW27352   0.761   4.550   4.600
 8818SOL    HW127353   0.678   4.604   4.614
 8818SOL    HW227354   0.772   4.486   4.675
 8819SOL     OW27355   5.654   4.880   4.899
 8819SOL    HW127356   5.691   4.972   4.890
 8819SOL    HW227357   5.690   4.837   4.981
 8820SOL     OW27358   2.580   0.800   5.578
 8820SOL    HW127359   2.633   0.788   5.494
 8820SOL    HW227360   2.534   0.714   5.602
 8821SOL     OW27361   1.830   6.207   1.033
 8821SOL    HW127362   1.810   6.297   1.071
 8821SOL    HW227363   1.750   6.148   1.043
 8822SOL     OW27364   0.925   0.375   4.334
 8822SOL    HW127365   0.837   0.387   4.380
 8822SOL    HW227366   0.995   0.428   4.382
 8823SOL     OW27367   2.058   0.924   3.095
 8823SOL    HW127368   2.133   0.987   3.075
 8823SOL    HW227369   1.977   0.952   3.043
 8824SOL     OW27370   1.351   2.006   0.055
 8824SOL    HW127371   1.411   1.939   0.012
 8824SOL    HW227372   1.335   1.980   0.150
 8825SOL     OW27373   1.899   0.931   1.904
 8825SOL    HW127374   1.840   0.913   1.984
 8825SOL    HW227375   1.912   1.030   1.895
 8826SOL     OW27376   0.893   3.811   0.474
 8826SOL    HW127377   0.860   3.899   0.438
 8826SOL    HW227378   0.814   3.752   0.494
 8827SOL     OW27379   4.302   0.993   2.526
 8827SOL    HW127380   4.301   1.008   2.427
 8827SOL    HW227381   4.329   0.898   2.544
 8828SOL     OW27382   4.244   5.753   6.137
 8828SOL    HW127383   4.157   5.704   6.132
 8828SOL    HW227384   4.229   5.849   6.112
 8829SOL     OW27385   5.223   2.710   1.109
 8829SOL    HW127386   5.305   2.688   1.055
 8829SOL    HW227387   5.186   2.626   1.148
 8830SOL     OW27388   1.173   1.966   2.617
 8830SOL    HW127389   1.246   2.027   2.649
 8830SOL    HW227390   1.200   1.924   2.530
 8831SOL     OW27391   4.525   2.486   4.043
 8831SOL    HW127392   4.478   2.492   4.130
 8831SOL    HW227393   4.458   2.480   3.969
 8832SOL     OW27394   6.971   6.881   2.763
 8832SOL    HW127395   0.045   6.875   2.798
 8832SOL    HW227396   6.908   6.843   2.831
 8833SOL     OW27397   2.678   5.132   5.660
 8833SOL    HW127398   2.589   5.114   5.616
 8833SOL    HW227399   2.687   5.230   5.678
 8834SOL     OW27400   5.858   3.941   4.973
 8834SOL    HW127401   5.877   3.880   4.896
 8834SOL    HW227402   5.898   3.903   5.056
 8835SOL     OW27403   4.891   0.925   5.857
 8835SOL    HW127404   4.876   0.870   5.775
 8835SOL    HW227405   4.897   0.864   5.937
 8836SOL     OW27406   5.138   1.673   0.428
 8836SOL    HW127407   5.203   1.690   0.354
 8836SOL    HW227408   5.187   1.635   0.507
 8837SOL     OW27409   6.832   6.404   2.255
 8837SOL    HW127410   6.922   6.360   2.254
 8837SOL    HW227411   6.770   6.355   2.195
 8838SOL     OW27412   1.864   5.234   3.374
 8838SOL    HW127413   1.812   5.182   3.306
 8838SOL    HW227414   1.813   5.317   3.397
 8839SOL     OW27415   5.094   5.815   1.714
 8839SOL    HW127416   5.152   5.853   1.642
 8839SOL    HW227417   5.001   5.804   1.679
 8840SOL     OW27418   6.792   1.942   3.496
 8840SOL    HW127419   6.696   1.938   3.467
 8840SOL    HW227420   6.834   2.026   3.461
 8841SOL     OW27421   0.725   0.544   4.402
 8841SOL    HW127422   0.700   0.640   4.394
 8841SOL    HW227423   0.656   0.495   4.454
 8842SOL     OW27424   3.631   3.028   2.706
 8842SOL    HW127425   3.717   3.002   2.750
 8842SOL    HW227426   3.554   2.997   2.762
 8843SOL     OW27427   2.085   3.430   5.801
 8843SOL    HW127428   2.160   3.449   5.864
 8843SOL    HW227429   2.071   3.509   5.741
 8844SOL     OW27430   0.701   1.489   5.756
 8844SOL    HW127431   0.762   1.412   5.775
 8844SOL    HW227432   0.626   1.457   5.697
 8845SOL     OW27433   3.728   3.644   0.801
 8845SOL    HW127434   3.669   3.658   0.721
 8845SOL    HW227435   3.746   3.732   0.845
 8846SOL     OW27436   3.543   5.105   4.462
 8846SOL    HW127437   3.448   5.074   4.466
 8846SOL    HW227438   3.546   5.195   4.417
 8847SOL     OW27439   2.600   1.682   2.876
 8847SOL    HW127440   2.534   1.644   2.941
 8847SOL    HW227441   2.576   1.655   2.783
 8848SOL     OW27442   2.355   2.112   1.861
 8848SOL    HW127443   2.450   2.129   1.887
 8848SOL    HW227444   2.297   2.185   1.897
 8849SOL     OW27445   2.889   6.304   3.402
 8849SOL    HW127446   2.896   6.393   3.448
 8849SOL    HW227447   2.920   6.313   3.307
 8850SOL     OW27448   1.684   1.668   6.416
 8850SOL    HW127449   1.649   1.709   6.500
 8850SOL    HW227450   1.685   1.568   6.426
 8851SOL     OW27451   0.908   5.564   1.987
 8851SOL    HW127452   0.889   5.614   2.071
 8851SOL    HW227453   1.007   5.549   1.979
 8852SOL     OW27454   4.864   3.644   5.505
 8852SOL    HW127455   4.860   3.544   5.505
 8852SOL    HW227456   4.897   3.676   5.416
 8853SOL     OW27457   2.590   1.305   7.001
 8853SOL    HW127458   2.575   1.310   6.902
 8853SOL    HW227459   2.688   1.294   7.019
 8854SOL     OW27460   3.674   1.370   6.043
 8854SOL    HW127461   3.744   1.301   6.025
 8854SOL    HW227462   3.694   1.452   5.990
 8855SOL     OW27463   0.372   5.926   1.432
 8855SOL    HW127464   0.422   5.979   1.363
 8855SOL    HW227465   0.281   5.964   1.444
 8856SOL     OW27466   0.438   6.470   6.557
 8856SOL    HW127467   0.402   6.488   6.466
 8856SOL    HW227468   0.531   6.505   6.564
 8857SOL     OW27469   6.912   1.887   4.331
 8857SOL    HW127470   7.012   1.888   4.337
 8857SOL    HW227471   6.877   1.803   4.374
 8858SOL     OW27472   1.011   2.308   4.897
 8858SOL    HW127473   1.108   2.285   4.908
 8858SOL    HW227474   0.998   2.354   4.809
 8859SOL     OW27475   0.006   0.415   3.901
 8859SOL    HW127476   6.967   0.464   3.838
 8859SOL    HW227477   6.971   0.359   3.963
 8860SOL     OW27478   0.541   3.228   2.566
 8860SOL    HW127479   0.556   3.221   2.468
 8860SOL    HW227480   0.624   3.261   2.610
 8861SOL     OW27481   4.502   1.830   6.104
 8861SOL    HW127482   4.407   1.799   6.109
 8861SOL    HW227483   4.530   1.836   6.008
 8862SOL     OW27484   5.620   1.101   4.115
 8862SOL    HW127485   5.656   1.007   4.119
 8862SOL    HW227486   5.695   1.165   4.131
 8863SOL     OW27487   1.336   4.775   4.360
 8863SOL    HW127488   1.301   4.764   4.453
 8863SOL    HW227489   1.422   4.725   4.350
 8864SOL     OW27490   3.262   4.435   5.988
 8864SOL    HW127491   3.253   4.457   6.085
 8864SOL    HW227492   3.171   4.433   5.946
 8865SOL     OW27493   2.888   1.379   6.065
 8865SOL    HW127494   2.876   1.396   5.967
 8865SOL    HW227495   2.918   1.285   6.079
 8866SOL     OW27496   5.426   6.829   2.876
 8866SOL    HW127497   5.372   6.897   2.926
 8866SOL    HW227498   5.368   6.788   2.805
 8867SOL     OW27499   5.838   3.499   2.372
 8867SOL    HW127500   5.762   3.541   2.423
 8867SOL    HW227501   5.818   3.402   2.358
 8868SOL     OW27502   6.786   2.676   0.874
 8868SOL    HW127503   6.852   2.637   0.937
 8868SOL    HW227504   6.693   2.650   0.902
 8869SOL     OW27505   4.209   6.420   4.888
 8869SOL    HW127506   4.235   6.324   4.899
 8869SOL    HW227507   4.186   6.459   4.978
 8870SOL     OW27508   3.411   0.072   0.140
 8870SOL    HW127509   3.456   0.007   0.078
 8870SOL    HW227510   3.343   0.125   0.089
 8871SOL     OW27511   1.819   0.929   4.048
 8871SOL    HW127512   1.870   1.005   4.007
 8871SOL    HW227513   1.855   0.910   4.139
 8872SOL     OW27514   1.739   4.231   4.863
 8872SOL    HW127515   1.688   4.285   4.795
 8872SOL    HW227516   1.708   4.136   4.860
 8873SOL     OW27517   1.123   6.438   1.657
 8873SOL    HW127518   1.098   6.376   1.582
 8873SOL    HW227519   1.198   6.497   1.628
 8874SOL     OW27520   2.151   5.660   2.675
 8874SOL    HW127521   2.077   5.664   2.608
 8874SOL    HW227522   2.186   5.753   2.692
 8875SOL     OW27523   6.629   3.396   5.334
 8875SOL    HW127524   6.657   3.492   5.331
 8875SOL    HW227525   6.529   3.390   5.329
 8876SOL     OW27526   2.020   6.874   4.633
 8876SOL    HW127527   2.041   6.776   4.636
 8876SOL    HW227528   1.930   6.889   4.675
 8877SOL     OW27529   3.083   1.420   4.028
 8877SOL    HW127530   3.085   1.508   4.077
 8877SOL    HW227531   3.144   1.356   4.074
 8878SOL     OW27532   6.483   4.873   6.963
 8878SOL    HW127533   6.484   4.905   6.869
 8878SOL    HW227534   6.576   4.847   6.991
 8879SOL     OW27535   4.766   4.855   2.132
 8879SOL    HW127536   4.770   4.785   2.203
 8879SOL    HW227537   4.703   4.927   2.160
 8880SOL     OW27538   4.911   5.699   4.945
 8880SOL    HW127539   4.927   5.611   4.902
 8880SOL    HW227540   4.829   5.693   5.003
 8881SOL     OW27541   5.759   6.748   3.657
 8881SOL    HW127542   5.824   6.814   3.694
 8881SOL    HW227543   5.666   6.781   3.673
 8882SOL     OW27544   5.607   1.068   1.258
 8882SOL    HW127545   5.671   0.992   1.269
 8882SOL    HW227546   5.548   1.074   1.339
 8883SOL     OW27547   1.228   6.031   6.686
 8883SOL    HW127548   1.244   5.965   6.612
 8883SOL    HW227549   1.290   6.011   6.762
 8884SOL     OW27550   6.269   4.154   6.534
 8884SOL    HW127551   6.324   4.237   6.535
 8884SOL    HW227552   6.322   4.079   6.494
 8885SOL     OW27553   6.875   3.279   0.781
 8885SOL    HW127554   6.791   3.246   0.737
 8885SOL    HW227555   6.855   3.362   0.833
 8886SOL     OW27556   3.395   7.007   4.877
 8886SOL    HW127557   3.311   6.981   4.924
 8886SOL    HW227558   3.463   0.018   4.944
 8887SOL     OW27559   3.322   1.580   0.955
 8887SOL    HW127560   3.351   1.579   0.859
 8887SOL    HW227561   3.400   1.605   1.013
 8888SOL     OW27562   1.935   1.629   5.867
 8888SOL    HW127563   1.892   1.712   5.831
 8888SOL    HW227564   1.962   1.570   5.791
 8889SOL     OW27565   6.709   0.441   5.937
 8889SOL    HW127566   6.785   0.422   5.874
 8889SOL    HW227567   6.740   0.506   6.007
 8890SOL     OW27568   6.332   5.734   3.545
 8890SOL    HW127569   6.315   5.709   3.640
 8890SOL    HW227570   6.283   5.817   3.522
 8891SOL     OW27571   4.934   3.604   6.534
 8891SOL    HW127572   4.873   3.525   6.520
 8891SOL    HW227573   4.969   3.635   6.446
 8892SOL     OW27574   3.379   5.881   3.558
 8892SOL    HW127575   3.407   5.977   3.557
 8892SOL    HW227576   3.346   5.855   3.467
 8893SOL     OW27577   0.442   5.979   3.598
 8893SOL    HW127578   0.438   6.071   3.558
 8893SOL    HW227579   0.521   5.973   3.658
 8894SOL     OW27580   4.106   2.750   6.403
 8894SOL    HW127581   4.036   2.798   6.351
 8894SOL    HW227582   4.171   2.708   6.339
 8895SOL     OW27583   6.523   2.533   2.472
 8895SOL    HW127584   6.551   2.628   2.453
 8895SOL    HW227585   6.483   2.528   2.564
 8896SOL     OW27586   2.357   3.192   5.323
 8896SOL    HW127587   2.386   3.107   5.279
 8896SOL    HW227588   2.332   3.174   5.418
 8897SOL     OW27589   2.040   2.503   3.256
 8897SOL    HW127590   2.104   2.484   3.331
 8897SOL    HW227591   2.013   2.599   3.258
 8898SOL     OW27592   4.917   2.824   2.611
 8898SOL    HW127593   4.867   2.738   2.610
 8898SOL    HW227594   4.950   2.843   2.704
 8899SOL     OW27595   2.029   5.685   1.193
 8899SOL    HW127596   1.944   5.700   1.143
 8899SOL    HW227597   2.054   5.769   1.242
 8900SOL     OW27598   6.123   2.945   2.819
 8900SOL    HW127599   6.033   2.938   2.775
 8900SOL    HW227600   6.169   2.857   2.815
 8901SOL     OW27601   2.445   0.864   5.018
 8901SOL    HW127602   2.515   0.829   4.956
 8901SOL    HW227603   2.416   0.955   4.988
 8902SOL     OW27604   2.041   0.227   0.527
 8902SOL    HW127605   1.972   0.157   0.507
 8902SOL    HW227606   2.090   0.202   0.611
 8903SOL     OW27607   0.935   1.357   4.967
 8903SOL    HW127608   1.017   1.375   4.912
 8903SOL    HW227609   0.940   1.265   5.004
 8904SOL     OW27610   5.950   6.530   4.019
 8904SOL    HW127611   5.861   6.527   3.973
 8904SOL    HW227612   5.936   6.525   4.118
 8905SOL     OW27613   0.824   4.549   3.998
 8905SOL    HW127614   0.867   4.489   4.066
 8905SOL    HW227615   0.757   4.608   4.043
 8906SOL     OW27616   0.601   5.760   0.011
 8906SOL    HW127617   0.634   5.684   0.068
 8906SOL    HW227618   0.609   5.735   6.935
 8907SOL     OW27619   2.710   2.398   5.024
 8907SOL    HW127620   2.737   2.403   5.120
 8907SOL    HW227621   2.776   2.342   4.973
 8908SOL     OW27622   1.093   4.308   6.633
 8908SOL    HW127623   1.165   4.249   6.668
 8908SOL    HW227624   1.132   4.375   6.570
 8909SOL     OW27625   2.621   0.991   6.310
 8909SOL    HW127626   2.633   0.925   6.236
 8909SOL    HW227627   2.547   1.054   6.288
 8910SOL     OW27628   0.238   2.461   6.075
 8910SOL    HW127629   0.303   2.515   6.129
 8910SOL    HW227630   0.220   2.507   5.988
 8911SOL     OW27631   4.054   2.159   4.736
 8911SOL    HW127632   3.971   2.176   4.683
 8911SOL    HW227633   4.036   2.177   4.833
 8912SOL     OW27634   3.267   3.519   6.478
 8912SOL    HW127635   3.196   3.496   6.544
 8912SOL    HW227636   3.298   3.436   6.431
 8913SOL     OW27637   5.138   4.761   5.835
 8913SOL    HW127638   5.042   4.735   5.820
 8913SOL    HW227639   5.151   4.781   5.932
 8914SOL     OW27640   4.583   0.177   4.810
 8914SOL    HW127641   4.569   0.216   4.719
 8914SOL    HW227642   4.681   0.171   4.829
 8915SOL     OW27643   0.670   3.044   3.592
 8915SOL    HW127644   0.658   2.965   3.651
 8915SOL    HW227645   0.598   3.111   3.611
 8916SOL     OW27646   6.729   3.737   0.720
 8916SOL    HW127647   6.796   3.749   0.794
 8916SOL    HW227648   6.778   3.723   0.634
 8917SOL     OW27649   6.373   3.524   0.191
 8917SOL    HW127650   6.310   3.458   0.231
 8917SOL    HW227651   6.381   3.507   0.093
 8918SOL     OW27652   6.493   4.244   0.983
 8918SOL    HW127653   6.416   4.296   0.944
 8918SOL    HW227654   6.478   4.146   0.968
 8919SOL     OW27655   3.592   3.952   0.773
 8919SOL    HW127656   3.524   3.895   0.819
 8919SOL    HW227657   3.574   3.951   0.674
 8920SOL     OW27658   0.633   0.530   6.807
 8920SOL    HW127659   0.644   0.594   6.883
 8920SOL    HW227660   0.625   0.580   6.721
 8921SOL     OW27661   2.229   2.509   2.573
 8921SOL    HW127662   2.307   2.548   2.523
 8921SOL    HW227663   2.225   2.549   2.664
 8922SOL     OW27664   3.905   4.904   1.596
 8922SOL    HW127665   3.810   4.880   1.578
 8922SOL    HW227666   3.910   4.998   1.628
 8923SOL     OW27667   1.615   2.765   6.203
 8923SOL    HW127668   1.537   2.760   6.140
 8923SOL    HW227669   1.583   2.799   6.292
 8924SOL     OW27670   3.660   5.224   5.498
 8924SOL    HW127671   3.650   5.280   5.581
 8924SOL    HW227672   3.711   5.141   5.521
 8925SOL     OW27673   0.867   1.720   2.680
 8925SOL    HW127674   0.949   1.694   2.630
 8925SOL    HW227675   0.791   1.732   2.617
 8926SOL     OW27676   6.799   3.062   6.188
 8926SOL    HW127677   6.708   3.046   6.150
 8926SOL    HW227678   6.826   2.984   6.244
 8927SOL     OW27679   0.090   1.222   4.627
 8927SOL    HW127680   0.185   1.192   4.618
 8927SOL    HW227681   0.087   1.307   4.679
 8928SOL     OW27682   0.368   0.142   6.483
 8928SOL    HW127683   0.419   0.057   6.484
 8928SOL    HW227684   0.414   0.208   6.424
 8929SOL     OW27685   6.184   2.582   4.275
 8929SOL    HW127686   6.230   2.497   4.299
 8929SOL    HW227687   6.127   2.568   4.194
 8930SOL     OW27688   1.631   3.737   3.914
 8930SOL    HW127689   1.680   3.710   3.997
 8930SOL    HW227690   1.690   3.793   3.856
 8931SOL     OW27691   2.528   3.143   0.386
 8931SOL    HW127692   2.511   3.202   0.466
 8931SOL    HW227693   2.514   3.048   0.412
 8932SOL     OW27694   6.471   1.377   0.974
 8932SOL    HW127695   6.457   1.335   1.064
 8932SOL    HW227696   6.445   1.474   0.978
 8933SOL     OW27697   2.171   3.064   5.856
 8933SOL    HW127698   2.240   2.993   5.867
 8933SOL    HW227699   2.187   3.113   5.770
 8934SOL     OW27700   3.404   5.045   4.784
 8934SOL    HW127701   3.319   5.023   4.736
 8934SOL    HW227702   3.417   4.980   4.859
 8935SOL     OW27703   6.685   4.439   1.035
 8935SOL    HW127704   6.617   4.366   1.026
 8935SOL    HW227705   6.655   4.503   1.106
 8936SOL     OW27706   1.230   3.306   2.693
 8936SOL    HW127707   1.161   3.348   2.752
 8936SOL    HW227708   1.218   3.339   2.599
 8937SOL     OW27709   6.961   6.707   4.188
 8937SOL    HW127710   6.995   6.771   4.119
 8937SOL    HW227711   6.964   6.614   4.152
 8938SOL     OW27712   0.534   0.593   0.786
 8938SOL    HW127713   0.538   0.541   0.872
 8938SOL    HW227714   0.518   0.689   0.807
 8939SOL     OW27715   6.103   4.542   4.026
 8939SOL    HW127716   6.121   4.497   4.113
 8939SOL    HW227717   6.033   4.613   4.039
 8940SOL     OW27718   6.132   1.474   2.213
 8940SOL    HW127719   6.085   1.559   2.236
 8940SOL    HW227720   6.170   1.434   2.296
 8941SOL     OW27721   5.738   2.641   4.367
 8941SOL    HW127722   5.786   2.556   4.343
 8941SOL    HW227723   5.804   2.707   4.402
 8942SOL     OW27724   6.535   5.571   5.497
 8942SOL    HW127725   6.505   5.532   5.584
 8942SOL    HW227726   6.591   5.652   5.514
 8943SOL     OW27727   3.993   5.664   0.644
 8943SOL    HW127728   4.050   5.691   0.568
 8943SOL    HW227729   3.905   5.712   0.640
 8944SOL     OW27730   5.492   5.613   4.437
 8944SOL    HW127731   5.588   5.637   4.428
 8944SOL    HW227732   5.449   5.609   4.347
 8945SOL     OW27733   0.959   1.056   3.969
 8945SOL    HW127734   1.020   1.063   4.048
 8945SOL    HW227735   0.958   1.143   3.920
 8946SOL     OW27736   2.856   1.301   3.967
 8946SOL    HW127737   2.868   1.233   3.895
 8946SOL    HW227738   2.938   1.356   3.976
 8947SOL     OW27739   2.337   3.456   5.877
 8947SOL    HW127740   2.399   3.388   5.915
 8947SOL    HW227741   2.343   3.541   5.930
 8948SOL     OW27742   6.095   5.985   3.814
 8948SOL    HW127743   6.167   6.004   3.748
 8948SOL    HW227744   6.008   6.018   3.778
 8949SOL     OW27745   4.057   6.049   0.852
 8949SOL    HW127746   4.104   5.995   0.783
 8949SOL    HW227747   4.056   6.145   0.824
 8950SOL     OW27748   3.840   4.538   6.972
 8950SOL    HW127749   3.900   4.597   0.005
 8950SOL    HW227750   3.817   4.582   6.885
 8951SOL     OW27751   2.411   0.991   4.584
 8951SOL    HW127752   2.456   1.039   4.509
 8951SOL    HW227753   2.479   0.949   4.643
 8952SOL     OW27754   0.610   5.242   3.228
 8952SOL    HW127755   0.608   5.216   3.325
 8952SOL    HW227756   0.593   5.340   3.220
 8953SOL     OW27757   1.266   4.182   0.573
 8953SOL    HW127758   1.337   4.147   0.634
 8953SOL    HW227759   1.188   4.119   0.575
 8954SOL     OW27760   6.778   6.822   4.397
 8954SOL    HW127761   6.836   6.902   4.380
 8954SOL    HW227762   6.813   6.744   4.346
 8955SOL     OW27763   6.896   5.354   2.960
 8955SOL    HW127764   6.842   5.418   3.015
 8955SOL    HW227765   6.941   5.289   3.021
 8956SOL     OW27766   2.041   1.621   6.432
 8956SOL    HW127767   2.098   1.687   6.481
 8956SOL    HW227768   2.026   1.652   6.338
 8957SOL     OW27769   1.910   4.942   1.844
 8957SOL    HW127770   1.929   4.865   1.904
 8957SOL    HW227771   1.996   4.982   1.812
 8958SOL     OW27772   0.243   2.302   4.953
 8958SOL    HW127773   0.273   2.321   4.859
 8958SOL    HW227774   0.319   2.317   5.016
 8959SOL     OW27775   1.845   4.586   1.956
 8959SOL    HW127776   1.929   4.637   1.972
 8959SOL    HW227777   1.791   4.583   2.040
 8960SOL     OW27778   4.234   5.899   3.213
 8960SOL    HW127779   4.239   5.951   3.298
 8960SOL    HW227780   4.209   5.959   3.137
 8961SOL     OW27781   3.211   1.391   3.680
 8961SOL    HW127782   3.125   1.405   3.631
 8961SOL    HW227783   3.251   1.480   3.702
 8962SOL     OW27784   6.005   5.462   2.175
 8962SOL    HW127785   5.986   5.372   2.213
 8962SOL    HW227786   5.931   5.525   2.197
 8963SOL     OW27787   3.747   0.409   5.081
 8963SOL    HW127788   3.769   0.349   5.158
 8963SOL    HW227789   3.803   0.492   5.085
 8964SOL     OW27790   5.494   3.009   3.159
 8964SOL    HW127791   5.404   3.025   3.199
 8964SOL    HW227792   5.565   3.027   3.228
 8965SOL     OW27793   2.131   5.819   0.504
 8965SOL    HW127794   2.190   5.839   0.425
 8965SOL    HW227795   2.168   5.740   0.553
 8966SOL     OW27796   6.921   4.141   6.888
 8966SOL    HW127797   6.944   4.067   6.824
 8966SOL    HW227798   6.825   4.132   6.916
 8967SOL     OW27799   3.993   0.680   1.773
 8967SOL    HW127800   4.002   0.580   1.770
 8967SOL    HW227801   4.080   0.722   1.746
 8968SOL     OW27802   4.230   5.534   3.011
 8968SOL    HW127803   4.246   5.435   3.009
 8968SOL    HW227804   4.187   5.559   3.099
 8969SOL     OW27805   6.722   0.271   3.631
 8969SOL    HW127806   6.732   0.227   3.721
 8969SOL    HW227807   6.801   0.331   3.615
 8970SOL     OW27808   2.563   3.370   6.837
 8970SOL    HW127809   2.573   3.466   6.860
 8970SOL    HW227810   2.653   3.328   6.830
 8971SOL     OW27811   5.519   5.264   1.578
 8971SOL    HW127812   5.473   5.324   1.643
 8971SOL    HW227813   5.456   5.240   1.504
 8972SOL     OW27814   4.612   3.625   6.970
 8972SOL    HW127815   4.570   3.535   6.969
 8972SOL    HW227816   4.703   3.619   7.011
 8973SOL     OW27817   0.301   3.888   3.325
 8973SOL    HW127818   0.285   3.843   3.237
 8973SOL    HW227819   0.312   3.819   3.397
 8974SOL     OW27820   1.272   3.588   4.154
 8974SOL    HW127821   1.339   3.661   4.173
 8974SOL    HW227822   1.249   3.542   4.239
 8975SOL     OW27823   1.344   6.042   0.475
 8975SOL    HW127824   1.338   6.138   0.448
 8975SOL    HW227825   1.278   5.989   0.421
 8976SOL     OW27826   0.651   5.105   0.405
 8976SOL    HW127827   0.555   5.116   0.377
 8976SOL    HW227828   0.654   5.056   0.492
 8977SOL     OW27829   6.828   3.291   6.939
 8977SOL    HW127830   6.769   3.344   6.878
 8977SOL    HW227831   6.800   3.306   0.013
 8978SOL     OW27832   5.280   6.715   4.643
 8978SOL    HW127833   5.276   6.778   4.566
 8978SOL    HW227834   5.375   6.703   4.672
 8979SOL     OW27835   1.028   4.377   5.421
 8979SOL    HW127836   0.936   4.409   5.400
 8979SOL    HW227837   1.065   4.329   5.341
 8980SOL     OW27838   4.500   3.031   5.375
 8980SOL    HW127839   4.456   3.120   5.362
 8980SOL    HW227840   4.477   2.996   5.466
 8981SOL     OW27841   4.121   1.742   5.177
 8981SOL    HW127842   4.170   1.655   5.171
 8981SOL    HW227843   4.027   1.725   5.206
 8982SOL     OW27844   1.793   1.545   1.598
 8982SOL    HW127845   1.722   1.608   1.570
 8982SOL    HW227846   1.861   1.593   1.654
 8983SOL     OW27847   1.335   5.228   0.404
 8983SOL    HW127848   1.331   5.178   0.317
 8983SOL    HW227849   1.324   5.325   0.387
 8984SOL     OW27850   6.311   7.010   3.441
 8984SOL    HW127851   6.347   0.059   3.504
 8984SOL    HW227852   6.241   6.956   3.489
 8985SOL     OW27853   2.380   1.576   0.733
 8985SOL    HW127854   2.330   1.552   0.816
 8985SOL    HW227855   2.397   1.494   0.679
 8986SOL     OW27856   3.921   5.224   1.983
 8986SOL    HW127857   3.876   5.312   1.998
 8986SOL    HW227858   4.011   5.225   2.025
 8987SOL     OW27859   4.851   6.464   0.370
 8987SOL    HW127860   4.931   6.437   0.423
 8987SOL    HW227861   4.786   6.511   0.431
 8988SOL     OW27862   1.543   3.571   0.071
 8988SOL    HW127863   1.488   3.634   0.016
 8988SOL    HW227864   1.489   3.539   0.149
 8989SOL     OW27865   5.003   4.357   1.947
 8989SOL    HW127866   4.907   4.352   1.921
 8989SOL    HW227867   5.045   4.438   1.907
 8990SOL     OW27868   1.963   5.998   2.088
 8990SOL    HW127869   1.996   6.092   2.089
 8990SOL    HW227870   2.040   5.935   2.094
 8991SOL     OW27871   1.601   1.992   6.799
 8991SOL    HW127872   1.557   1.955   6.718
 8991SOL    HW227873   1.694   2.022   6.777
 8992SOL     OW27874   6.518   2.165   6.601
 8992SOL    HW127875   6.576   2.210   6.668
 8992SOL    HW227876   6.462   2.233   6.554
 8993SOL     OW27877   5.187   2.496   2.721
 8993SOL    HW127878   5.179   2.458   2.629
 8993SOL    HW227879   5.096   2.503   2.762
 8994SOL     OW27880   0.674   4.573   4.955
 8994SOL    HW127881   0.633   4.554   4.866
 8994SOL    HW227882   0.687   4.487   5.005
 8995SOL     OW27883   1.228   2.483   6.556
 8995SOL    HW127884   1.184   2.499   6.644
 8995SOL    HW227885   1.165   2.434   6.495
 8996SOL     OW27886   6.807   5.151   1.493
 8996SOL    HW127887   6.719   5.142   1.539
 8996SOL    HW227888   6.881   5.137   1.558
 8997SOL     OW27889   4.369   1.579   6.513
 8997SOL    HW127890   4.409   1.489   6.494
 8997SOL    HW227891   4.276   1.582   6.476
 8998SOL     OW27892   0.019   3.514   4.954
 8998SOL    HW127893   6.967   3.445   4.950
 8998SOL    HW227894   0.033   3.543   5.048
 8999SOL     OW27895   5.204   6.834   0.185
 8999SOL    HW127896   5.277   6.776   0.221
 8999SOL    HW227897   5.117   6.785   0.189
 9000SOL     OW27898   2.580   4.516   6.886
 9000SOL    HW127899   2.613   4.564   6.967
 9000SOL    HW227900   2.483   4.494   6.898
 9001SOL     OW27901   0.800   5.675   2.862
 9001SOL    HW127902   0.845   5.602   2.810
 9001SOL    HW227903   0.706   5.684   2.831
 9002SOL     OW27904   6.583   4.931   4.765
 9002SOL    HW127905   6.624   5.018   4.794
 9002SOL    HW227906   6.647   4.883   4.704
 9003SOL     OW27907   5.657   2.331   1.278
 9003SOL    HW127908   5.641   2.424   1.310
 9003SOL    HW227909   5.587   2.306   1.211
 9004SOL     OW27910   4.966   6.755   1.916
 9004SOL    HW127911   4.987   6.824   1.985
 9004SOL    HW227912   5.018   6.672   1.935
 9005SOL     OW27913   4.816   1.630   5.275
 9005SOL    HW127914   4.891   1.563   5.269
 9005SOL    HW227915   4.853   1.717   5.306
 9006SOL     OW27916   2.714   6.439   0.867
 9006SOL    HW127917   2.638   6.376   0.850
 9006SOL    HW227918   2.771   6.402   0.941
 9007SOL     OW27919   3.909   6.653   4.162
 9007SOL    HW127920   3.876   6.627   4.253
 9007SOL    HW227921   3.970   6.582   4.127
 9008SOL     OW27922   0.092   5.366   2.815
 9008SOL    HW127923   0.016   5.360   2.879
 9008SOL    HW227924   0.177   5.381   2.865
 9009SOL     OW27925   2.807   1.105   0.281
 9009SOL    HW127926   2.781   1.102   0.378
 9009SOL    HW227927   2.726   1.110   0.224
 9010SOL     OW27928   0.767   0.292   4.647
 9010SOL    HW127929   0.858   0.310   4.685
 9010SOL    HW227930   0.716   0.231   4.708
 9011SOL     OW27931   4.288   2.133   1.574
 9011SOL    HW127932   4.322   2.170   1.488
 9011SOL    HW227933   4.202   2.178   1.599
 9012SOL     OW27934   3.261   4.214   1.162
 9012SOL    HW127935   3.224   4.197   1.071
 9012SOL    HW227936   3.353   4.252   1.154
 9013SOL     OW27937   0.239   6.197   4.055
 9013SOL    HW127938   0.279   6.143   4.129
 9013SOL    HW227939   0.309   6.217   3.986
 9014SOL     OW27940   0.666   0.926   0.152
 9014SOL    HW127941   0.592   0.984   0.121
 9014SOL    HW227942   0.655   0.907   0.250
 9015SOL     OW27943   6.060   2.068   1.167
 9015SOL    HW127944   6.085   2.032   1.257
 9015SOL    HW227945   6.026   1.993   1.111
 9016SOL     OW27946   0.673   6.601   6.623
 9016SOL    HW127947   0.669   6.617   6.722
 9016SOL    HW227948   0.769   6.594   6.594
 9017SOL     OW27949   4.211   2.393   1.748
 9017SOL    HW127950   4.146   2.342   1.691
 9017SOL    HW227951   4.187   2.490   1.746
 9018SOL     OW27952   4.722   1.547   5.993
 9018SOL    HW127953   4.782   1.502   5.927
 9018SOL    HW227954   4.645   1.486   6.014
 9019SOL     OW27955   0.262   0.915   1.704
 9019SOL    HW127956   0.303   0.949   1.788
 9019SOL    HW227957   0.334   0.893   1.638
 9020SOL     OW27958   1.446   3.246   1.459
 9020SOL    HW127959   1.450   3.274   1.555
 9020SOL    HW227960   1.394   3.161   1.451
 9021SOL     OW27961   0.117   0.245   3.712
 9021SOL    HW127962   0.063   0.329   3.720
 9021SOL    HW227963   0.124   0.218   3.616
 9022SOL     OW27964   2.676   1.683   0.548
 9022SOL    HW127965   2.682   1.699   0.647
 9022SOL    HW227966   2.736   1.608   0.522
 9023SOL     OW27967   3.408   3.402   2.244
 9023SOL    HW127968   3.378   3.309   2.224
 9023SOL    HW227969   3.416   3.454   2.159
 9024SOL     OW27970   0.296   5.075   5.027
 9024SOL    HW127971   0.385   5.040   4.996
 9024SOL    HW227972   0.257   5.012   5.094
 9025SOL     OW27973   0.746   5.737   0.345
 9025SOL    HW127974   0.731   5.835   0.358
 9025SOL    HW227975   0.660   5.689   0.361
 9026SOL     OW27976   4.115   3.512   2.010
 9026SOL    HW127977   4.168   3.553   1.935
 9026SOL    HW227978   4.142   3.554   2.096
 9027SOL     OW27979   1.357   1.771   4.360
 9027SOL    HW127980   1.414   1.722   4.424
 9027SOL    HW227981   1.262   1.740   4.369
 9028SOL     OW27982   2.401   3.885   6.178
 9028SOL    HW127983   2.417   3.983   6.165
 9028SOL    HW227984   2.487   3.841   6.204
 9029SOL     OW27985   3.151   5.351   4.886
 9029SOL    HW127986   3.187   5.299   4.964
 9029SOL    HW227987   3.066   5.309   4.854
 9030SOL     OW27988   2.065   1.668   3.456
 9030SOL    HW127989   2.029   1.605   3.387
 9030SOL    HW227990   2.159   1.643   3.480
 9031SOL     OW27991   4.511   6.116   4.541
 9031SOL    HW127992   4.579   6.160   4.599
 9031SOL    HW227993   4.554   6.044   4.487
 9032SOL     OW27994   3.624   3.439   0.950
 9032SOL    HW127995   3.616   3.360   0.890
 9032SOL    HW227996   3.689   3.504   0.910
 9033SOL     OW27997   1.740   5.264   3.777
 9033SOL    HW127998   1.741   5.193   3.706
 9033SOL    HW227999   1.647   5.278   3.810
 9034SOL     OW28000   2.889   0.613   5.188
 9034SOL    HW128001   2.973   0.665   5.205
 9034SOL    HW228002   2.878   0.600   5.090
 9035SOL     OW28003   1.265   4.977   5.221
 9035SOL    HW128004   1.205   5.057   5.215
 9035SOL    HW228005   1.280   4.941   5.129
 9036SOL     OW28006   1.744   0.916   5.527
 9036SOL    HW128007   1.745   0.818   5.503
 9036SOL    HW228008   1.691   0.929   5.611
 9037SOL     OW28009   1.280   3.909   5.723
 9037SOL    HW128010   1.306   3.994   5.678
 9037SOL    HW228011   1.187   3.884   5.695
 9038SOL     OW28012   5.299   6.587   6.060
 9038SOL    HW128013   5.357   6.511   6.031
 9038SOL    HW228014   5.302   6.596   6.160
 9039SOL     OW28015   2.688   4.700   4.327
 9039SOL    HW128016   2.747   4.735   4.400
 9039SOL    HW228017   2.640   4.618   4.360
 9040SOL     OW28018   3.033   2.195   2.573
 9040SOL    HW128019   2.965   2.248   2.523
 9040SOL    HW228020   3.011   2.196   2.670
 9041SOL     OW28021   1.102   2.221   2.118
 9041SOL    HW128022   1.138   2.260   2.203
 9041SOL    HW228023   1.178   2.194   2.059
 9042SOL     OW28024   2.282   0.056   3.710
 9042SOL    HW128025   2.367   0.085   3.666
 9042SOL    HW228026   2.215   0.033   3.640
 9043SOL     OW28027   2.511   1.582   6.929
 9043SOL    HW128028   2.585   1.594   6.862
 9043SOL    HW228029   2.509   1.487   6.960
 9044SOL     OW28030   5.678   1.717   2.011
 9044SOL    HW128031   5.768   1.732   1.970
 9044SOL    HW228032   5.663   1.784   2.083
 9045SOL     OW28033   3.095   1.546   2.456
 9045SOL    HW128034   3.170   1.481   2.472
 9045SOL    HW228035   3.018   1.499   2.414
 9046SOL     OW28036   3.495   4.206   4.560
 9046SOL    HW128037   3.402   4.213   4.526
 9046SOL    HW228038   3.494   4.187   4.658
 9047SOL     OW28039   1.017   2.984   5.519
 9047SOL    HW128040   1.040   3.080   5.508
 9047SOL    HW228041   1.071   2.929   5.456
 9048SOL     OW28042   6.371   1.969   5.865
 9048SOL    HW128043   6.304   1.913   5.816
 9048SOL    HW228044   6.332   2.002   5.951
 9049SOL     OW28045   3.984   0.016   6.303
 9049SOL    HW128046   3.946   0.098   6.346
 9049SOL    HW228047   4.005   6.969   6.374
 9050SOL     OW28048   6.753   3.759   6.309
 9050SOL    HW128049   6.832   3.780   6.367
 9050SOL    HW228050   6.701   3.843   6.292
 9051SOL     OW28051   4.622   6.280   0.473
 9051SOL    HW128052   4.605   6.190   0.433
 9051SOL    HW228053   4.587   6.351   0.412
 9052SOL     OW28054   1.495   2.328   3.307
 9052SOL    HW128055   1.399   2.332   3.336
 9052SOL    HW228056   1.527   2.234   3.307
 9053SOL     OW28057   1.594   1.747   3.143
 9053SOL    HW128058   1.503   1.782   3.166
 9053SOL    HW228059   1.585   1.657   3.099
 9054SOL     OW28060   1.465   0.345   2.414
 9054SOL    HW128061   1.466   0.428   2.357
 9054SOL    HW228062   1.491   0.266   2.358
 9055SOL     OW28063   6.307   3.225   3.717
 9055SOL    HW128064   6.386   3.286   3.705
 9055SOL    HW228065   6.247   3.262   3.787
 9056SOL     OW28066   6.612   1.042   1.699
 9056SOL    HW128067   6.601   1.071   1.794
 9056SOL    HW228068   6.610   1.122   1.639
 9057SOL     OW28069   6.208   4.962   5.571
 9057SOL    HW128070   6.225   5.050   5.526
 9057SOL    HW228071   6.290   4.932   5.618
 9058SOL     OW28072   1.921   1.882   3.398
 9058SOL    HW128073   1.961   1.792   3.418
 9058SOL    HW228074   1.890   1.884   3.303
 9059SOL     OW28075   1.170   1.027   5.171
 9059SOL    HW128076   1.226   1.059   5.095
 9059SOL    HW228077   1.228   0.978   5.237
 9060SOL     OW28078   6.708   3.115   2.254
 9060SOL    HW128079   6.618   3.114   2.211
 9060SOL    HW228080   6.698   3.110   2.353
 9061SOL     OW28081   2.795   5.654   2.036
 9061SOL    HW128082   2.893   5.672   2.030
 9061SOL    HW228083   2.746   5.741   2.048
 9062SOL     OW28084   1.728   5.959   2.204
 9062SOL    HW128085   1.670   6.022   2.153
 9062SOL    HW228086   1.823   5.970   2.174
 9063SOL     OW28087   2.431   0.205   2.986
 9063SOL    HW128088   2.452   0.296   2.951
 9063SOL    HW228089   2.336   0.202   3.017
 9064SOL     OW28090   6.197   2.518   5.930
 9064SOL    HW128091   6.228   2.467   5.849
 9064SOL    HW228092   6.126   2.583   5.903
 9065SOL     OW28093   3.000   6.777   6.413
 9065SOL    HW128094   3.002   6.868   6.455
 9065SOL    HW228095   3.082   6.727   6.441
 9066SOL     OW28096   5.760   6.629   0.581
 9066SOL    HW128097   5.827   6.558   0.558
 9066SOL    HW228098   5.800   6.719   0.562
 9067SOL     OW28099   5.967   0.272   4.429
 9067SOL    HW128100   6.063   0.292   4.446
 9067SOL    HW228101   5.955   0.236   4.337
 9068SOL     OW28102   2.821   0.203   5.678
 9068SOL    HW128103   2.740   0.192   5.735
 9068SOL    HW228104   2.834   0.121   5.623
 9069SOL     OW28105   2.549   2.428   1.933
 9069SOL    HW128106   2.545   2.352   1.998
 9069SOL    HW228107   2.643   2.461   1.926
 9070SOL     OW28108   1.164   3.247   6.023
 9070SOL    HW128109   1.209   3.335   6.005
 9070SOL    HW228110   1.211   3.175   5.972
 9071SOL     OW28111   5.603   0.322   0.875
 9071SOL    HW128112   5.576   0.235   0.916
 9071SOL    HW228113   5.645   0.380   0.944
 9072SOL     OW28114   6.321   1.075   2.172
 9072SOL    HW128115   6.335   1.058   2.270
 9072SOL    HW228116   6.369   1.159   2.147
 9073SOL     OW28117   3.338   6.568   0.213
 9073SOL    HW128118   3.312   6.535   0.304
 9073SOL    HW228119   3.322   6.495   0.145
 9074SOL     OW28120   2.217   1.320   1.736
 9074SOL    HW128121   2.259   1.234   1.763
 9074SOL    HW228122   2.119   1.316   1.752
 9075SOL     OW28123   1.145   1.284   2.655
 9075SOL    HW128124   1.117   1.359   2.715
 9075SOL    HW228125   1.067   1.223   2.640
 9076SOL     OW28126   5.865   2.005   5.155
 9076SOL    HW128127   5.887   1.976   5.248
 9076SOL    HW228128   5.789   1.950   5.120
 9077SOL     OW28129   5.503   6.469   6.844
 9077SOL    HW128130   5.436   6.527   6.892
 9077SOL    HW228131   5.508   6.380   6.889
 9078SOL     OW28132   4.629   3.670   6.389
 9078SOL    HW128133   4.540   3.710   6.367
 9078SOL    HW228134   4.618   3.605   6.465
 9079SOL     OW28135   2.521   6.691   3.944
 9079SOL    HW128136   2.455   6.734   4.007
 9079SOL    HW228137   2.600   6.659   3.995
 9080SOL     OW28138   5.229   2.348   0.018
 9080SOL    HW128139   5.133   2.376   0.019
 9080SOL    HW228140   5.258   2.330   6.944
 9081SOL     OW28141   3.646   6.141   3.065
 9081SOL    HW128142   3.715   6.144   2.993
 9081SOL    HW228143   3.662   6.061   3.123
 9082SOL     OW28144   2.554   6.637   5.075
 9082SOL    HW128145   2.508   6.714   5.031
 9082SOL    HW228146   2.543   6.643   5.174
 9083SOL     OW28147   3.478   4.992   5.981
 9083SOL    HW128148   3.523   4.926   5.921
 9083SOL    HW228149   3.401   5.033   5.932
 9084SOL     OW28150   3.209   3.603   5.523
 9084SOL    HW128151   3.195   3.547   5.441
 9084SOL    HW228152   3.287   3.665   5.508
 9085SOL     OW28153   2.282   4.801   1.495
 9085SOL    HW128154   2.360   4.741   1.508
 9085SOL    HW228155   2.303   4.869   1.425
 9086SOL     OW28156   0.889   4.083   0.384
 9086SOL    HW128157   0.868   4.071   0.287
 9086SOL    HW228158   0.929   4.174   0.398
 9087SOL     OW28159   4.879   2.416   1.693
 9087SOL    HW128160   4.940   2.492   1.713
 9087SOL    HW228161   4.786   2.439   1.722
 9088SOL     OW28162   5.386   5.737   0.695
 9088SOL    HW128163   5.312   5.695   0.642
 9088SOL    HW228164   5.350   5.811   0.751
 9089SOL     OW28165   4.843   6.207   5.381
 9089SOL    HW128166   4.869   6.303   5.383
 9089SOL    HW228167   4.850   6.169   5.474
 9090SOL     OW28168   0.351   0.411   3.196
 9090SOL    HW128169   0.330   0.428   3.292
 9090SOL    HW228170   0.422   0.341   3.189
 9091SOL     OW28171   3.244   4.129   0.917
 9091SOL    HW128172   3.333   4.085   0.925
 9091SOL    HW228173   3.184   4.072   0.861
 9092SOL     OW28174   0.366   1.516   0.909
 9092SOL    HW128175   0.358   1.560   0.819
 9092SOL    HW228176   0.403   1.582   0.975
 9093SOL     OW28177   1.456   6.282   6.303
 9093SOL    HW128178   1.529   6.303   6.237
 9093SOL    HW228179   1.479   6.198   6.352
 9094SOL     OW28180   6.230   5.253   2.751
 9094SOL    HW128181   6.315   5.259   2.698
 9094SOL    HW228182   6.176   5.335   2.737
 9095SOL     OW28183   4.983   4.379   5.807
 9095SOL    HW128184   5.010   4.469   5.773
 9095SOL    HW228185   4.903   4.347   5.756
 9096SOL     OW28186   5.939   3.542   1.786
 9096SOL    HW128187   5.929   3.443   1.797
 9096SOL    HW228188   5.932   3.586   1.876
 9097SOL     OW28189   1.055   2.049   0.509
 9097SOL    HW128190   1.029   2.024   0.602
 9097SOL    HW228191   1.077   1.967   0.457
 9098SOL     OW28192   3.779   1.582   5.926
 9098SOL    HW128193   3.865   1.596   5.975
 9098SOL    HW228194   3.798   1.564   5.830
 9099SOL     OW28195   2.906   2.540   5.693
 9099SOL    HW128196   3.002   2.561   5.677
 9099SOL    HW228197   2.849   2.596   5.632
 9100SOL     OW28198   0.621   3.917   3.948
 9100SOL    HW128199   0.588   4.011   3.935
 9100SOL    HW228200   0.646   3.904   4.044
 9101SOL     OW28201   2.074   2.324   3.037
 9101SOL    HW128202   2.136   2.249   3.057
 9101SOL    HW228203   2.085   2.397   3.105
 9102SOL     OW28204   2.797   0.326   1.709
 9102SOL    HW128205   2.891   0.358   1.701
 9102SOL    HW228206   2.737   0.383   1.653
 9103SOL     OW28207   6.477   3.073   6.455
 9103SOL    HW128208   6.433   2.987   6.480
 9103SOL    HW228209   6.535   3.058   6.375
 9104SOL     OW28210   0.561   6.890   1.951
 9104SOL    HW128211   0.467   6.916   1.930
 9104SOL    HW228212   0.561   6.824   2.026
 9105SOL     OW28213   1.308   1.661   6.676
 9105SOL    HW128214   1.367   1.581   6.685
 9105SOL    HW228215   1.243   1.647   6.602
 9106SOL     OW28216   0.134   2.893   0.684
 9106SOL    HW128217   0.228   2.922   0.703
 9106SOL    HW228218   0.071   2.969   0.704
 9107SOL     OW28219   3.716   0.507   6.337
 9107SOL    HW128220   3.735   0.473   6.430
 9107SOL    HW228221   3.617   0.516   6.325
 9108SOL     OW28222   5.153   4.175   5.782
 9108SOL    HW128223   5.114   4.083   5.781
 9108SOL    HW228224   5.079   4.242   5.792
 9109SOL     OW28225   6.529   3.050   3.580
 9109SOL    HW128226   6.524   3.085   3.486
 9109SOL    HW228227   6.454   3.089   3.634
 9110SOL     OW28228   1.501   4.971   4.091
 9110SOL    HW128229   1.600   4.955   4.089
 9110SOL    HW228230   1.475   5.005   4.181
 9111SOL     OW28231   4.899   2.146   0.516
 9111SOL    HW128232   4.884   2.207   0.438
 9111SOL    HW228233   4.922   2.054   0.482
 9112SOL     OW28234   0.515   5.395   2.750
 9112SOL    HW128235   0.603   5.354   2.771
 9112SOL    HW228236   0.528   5.474   2.690
 9113SOL     OW28237   4.755   1.772   3.065
 9113SOL    HW128238   4.684   1.705   3.085
 9113SOL    HW228239   4.746   1.850   3.127
 9114SOL     OW28240   1.061   5.050   2.235
 9114SOL    HW128241   1.110   4.985   2.178
 9114SOL    HW228242   1.124   5.121   2.266
 9115SOL     OW28243   0.053   5.885   4.235
 9115SOL    HW128244   6.998   5.950   4.223
 9115SOL    HW228245   0.046   5.814   4.165
 9116SOL     OW28246   6.723   1.003   2.039
 9116SOL    HW128247   6.700   0.934   2.108
 9116SOL    HW228248   6.796   0.968   1.980
 9117SOL     OW28249   4.977   2.518   0.104
 9117SOL    HW128250   5.007   2.577   0.028
 9117SOL    HW228251   4.928   2.573   0.171
 9118SOL     OW28252   6.864   3.629   0.298
 9118SOL    HW128253   6.935   3.601   0.234
 9118SOL    HW228254   6.907   3.654   0.385
 9119SOL     OW28255   3.900   0.448   2.470
 9119SOL    HW128256   3.804   0.476   2.461
 9119SOL    HW228257   3.955   0.494   2.401
 9120SOL     OW28258   6.188   1.793   5.747
 9120SOL    HW128259   6.191   1.697   5.718
 9120SOL    HW228260   6.159   1.850   5.670
 9121SOL     OW28261   4.393   0.212   5.671
 9121SOL    HW128262   4.333   0.237   5.747
 9121SOL    HW228263   4.419   0.116   5.679
 9122SOL     OW28264   2.493   4.622   2.191
 9122SOL    HW128265   2.521   4.588   2.281
 9122SOL    HW228266   2.515   4.720   2.185
 9123SOL     OW28267   2.236   0.911   3.898
 9123SOL    HW128268   2.321   0.963   3.908
 9123SOL    HW228269   2.251   0.831   3.839
 9124SOL     OW28270   5.428   5.560   0.343
 9124SOL    HW128271   5.426   5.500   0.423
 9124SOL    HW228272   5.351   5.623   0.346
 9125SOL     OW28273   4.777   4.323   0.436
 9125SOL    HW128274   4.759   4.419   0.455
 9125SOL    HW228275   4.698   4.268   0.464
 9126SOL     OW28276   5.832   3.322   1.296
 9126SOL    HW128277   5.879   3.240   1.265
 9126SOL    HW228278   5.884   3.403   1.267
 9127SOL     OW28279   6.560   1.343   6.436
 9127SOL    HW128280   6.554   1.364   6.339
 9127SOL    HW228281   6.652   1.312   6.458
 9128SOL     OW28282   6.174   2.539   5.468
 9128SOL    HW128283   6.090   2.556   5.417
 9128SOL    HW228284   6.251   2.531   5.404
 9129SOL     OW28285   0.212   2.820   6.953
 9129SOL    HW128286   0.179   2.809   0.027
 9129SOL    HW228287   0.151   2.881   6.903
 9130SOL     OW28288   0.618   2.786   5.935
 9130SOL    HW128289   0.647   2.863   5.879
 9130SOL    HW228290   0.615   2.813   6.031
 9131SOL     OW28291   5.590   2.603   5.984
 9131SOL    HW128292   5.679   2.568   6.010
 9131SOL    HW228293   5.555   2.663   6.055
 9132SOL     OW28294   0.203   5.087   4.417
 9132SOL    HW128295   0.122   5.146   4.418
 9132SOL    HW228296   0.231   5.067   4.511
 9133SOL     OW28297   4.240   6.197   1.429
 9133SOL    HW128298   4.248   6.294   1.403
 9133SOL    HW228299   4.244   6.141   1.346
 9134SOL     OW28300   3.645   5.757   1.739
 9134SOL    HW128301   3.630   5.749   1.640
 9134SOL    HW228302   3.729   5.808   1.756
 9135SOL     OW28303   6.614   0.323   1.520
 9135SOL    HW128304   6.519   0.306   1.496
 9135SOL    HW228305   6.624   0.326   1.620
 9136SOL     OW28306   5.277   6.316   0.001
 9136SOL    HW128307   5.270   6.220   6.992
 9136SOL    HW228308   5.255   6.376   6.944
 9137SOL     OW28309   4.939   1.045   0.383
 9137SOL    HW128310   4.924   1.129   0.331
 9137SOL    HW228311   5.035   1.040   0.410
 9138SOL     OW28312   0.185   5.446   6.696
 9138SOL    HW128313   0.126   5.373   6.728
 9138SOL    HW228314   0.170   5.461   6.598
 9139SOL     OW28315   1.922   2.247   3.291
 9139SOL    HW128316   1.878   2.207   3.211
 9139SOL    HW228317   1.948   2.342   3.271
 9140SOL     OW28318   6.886   3.676   2.228
 9140SOL    HW128319   6.804   3.675   2.171
 9140SOL    HW228320   6.889   3.593   2.283
 9141SOL     OW28321   5.552   6.635   1.462
 9141SOL    HW128322   5.570   6.689   1.544
 9141SOL    HW228323   5.597   6.546   1.469
 9142SOL     OW28324   0.946   3.297   1.074
 9142SOL    HW128325   0.987   3.333   0.990
 9142SOL    HW228326   0.873   3.233   1.051
 9143SOL     OW28327   6.334   2.620   0.008
 9143SOL    HW128328   6.390   2.597   0.087
 9143SOL    HW228329   6.376   2.582   6.945
 9144SOL     OW28330   2.523   4.641   4.740
 9144SOL    HW128331   2.479   4.552   4.733
 9144SOL    HW228332   2.473   4.698   4.804
 9145SOL     OW28333   0.375   5.462   0.038
 9145SOL    HW128334   0.454   5.500   0.086
 9145SOL    HW228335   0.357   5.517   6.976
 9146SOL     OW28336   5.424   3.134   3.414
 9146SOL    HW128337   5.417   3.221   3.365
 9146SOL    HW228338   5.513   3.127   3.458
 9147SOL     OW28339   5.814   6.915   5.052
 9147SOL    HW128340   5.723   6.892   5.018
 9147SOL    HW228341   5.852   6.838   5.103
 9148SOL     OW28342   5.069   6.127   2.450
 9148SOL    HW128343   5.156   6.079   2.444
 9148SOL    HW228344   5.061   6.191   2.374
 9149SOL     OW28345   5.087   3.447   2.713
 9149SOL    HW128346   5.013   3.496   2.665
 9149SOL    HW228347   5.116   3.369   2.658
 9150SOL     OW28348   3.073   5.286   1.257
 9150SOL    HW128349   3.053   5.248   1.166
 9150SOL    HW228350   2.988   5.295   1.308
 9151SOL     OW28351   1.227   4.169   3.421
 9151SOL    HW128352   1.155   4.168   3.352
 9151SOL    HW228353   1.266   4.078   3.431
 9152SOL     OW28354   2.178   3.966   4.286
 9152SOL    HW128355   2.185   3.916   4.372
 9152SOL    HW228356   2.182   3.901   4.210
 9153SOL     OW28357   0.614   2.968   0.520
 9153SOL    HW128358   0.620   2.949   0.422
 9153SOL    HW228359   0.584   2.886   0.568
 9154SOL     OW28360   5.980   4.580   5.193
 9154SOL    HW128361   6.008   4.645   5.263
 9154SOL    HW228362   6.039   4.591   5.113
 9155SOL     OW28363   1.842   4.447   2.488
 9155SOL    HW128364   1.895   4.459   2.572
 9155SOL    HW228365   1.814   4.351   2.479
 9156SOL     OW28366   0.562   2.102   0.523
 9156SOL    HW128367   0.618   2.118   0.604
 9156SOL    HW228368   0.485   2.167   0.522
 9157SOL     OW28369   2.708   4.254   6.862
 9157SOL    HW128370   2.680   4.349   6.879
 9157SOL    HW228371   2.650   4.193   6.917
 9158SOL     OW28372   6.651   4.338   4.826
 9158SOL    HW128373   6.714   4.350   4.750
 9158SOL    HW228374   6.578   4.275   4.800
 9159SOL     OW28375   1.324   0.409   3.000
 9159SOL    HW128376   1.270   0.478   3.050
 9159SOL    HW228377   1.263   0.347   2.952
 9160SOL     OW28378   0.373   6.415   5.994
 9160SOL    HW128379   0.430   6.341   5.958
 9160SOL    HW228380   0.301   6.437   5.928
 9161SOL     OW28381   5.503   5.296   3.327
 9161SOL    HW128382   5.490   5.260   3.420
 9161SOL    HW228383   5.563   5.235   3.276
 9162SOL     OW28384   3.961   0.538   3.239
 9162SOL    HW128385   3.880   0.496   3.279
 9162SOL    HW228386   3.934   0.612   3.178
 9163SOL     OW28387   6.918   2.612   4.254
 9163SOL    HW128388   6.869   2.696   4.279
 9163SOL    HW228389   6.989   2.593   4.321
 9164SOL     OW28390   1.866   0.607   6.799
 9164SOL    HW128391   1.803   0.641   6.869
 9164SOL    HW228392   1.960   0.620   6.830
 9165SOL     OW28393   5.703   1.595   6.157
 9165SOL    HW128394   5.678   1.614   6.251
 9165SOL    HW228395   5.662   1.509   6.128
 9166SOL     OW28396   4.532   5.425   0.744
 9166SOL    HW128397   4.567   5.455   0.656
 9166SOL    HW228398   4.496   5.332   0.736
 9167SOL     OW28399   1.939   2.062   6.017
 9167SOL    HW128400   1.970   2.131   5.952
 9167SOL    HW228401   2.015   2.000   6.038
 9168SOL     OW28402   6.721   6.119   6.833
 9168SOL    HW128403   6.778   6.195   6.801
 9168SOL    HW228404   6.779   6.047   6.870
 9169SOL     OW28405   6.863   6.674   6.622
 9169SOL    HW128406   6.828   6.621   6.545
 9169SOL    HW228407   6.896   6.762   6.588
 9170SOL     OW28408   2.028   0.233   6.809
 9170SOL    HW128409   1.959   0.260   6.742
 9170SOL    HW228410   1.988   0.235   6.900
 9171SOL     OW28411   3.691   6.094   0.741
 9171SOL    HW128412   3.641   6.096   0.828
 9171SOL    HW228413   3.760   6.022   0.745
 9172SOL     OW28414   4.961   0.965   3.940
 9172SOL    HW128415   5.043   0.977   3.884
 9172SOL    HW228416   4.963   1.031   4.015
 9173SOL     OW28417   6.376   4.175   5.279
 9173SOL    HW128418   6.318   4.230   5.339
 9173SOL    HW228419   6.472   4.189   5.304
 9174SOL     OW28420   0.769   5.412   0.539
 9174SOL    HW128421   0.728   5.370   0.620
 9174SOL    HW228422   0.801   5.341   0.477
 9175SOL     OW28423   1.133   0.035   6.477
 9175SOL    HW128424   1.083   0.118   6.454
 9175SOL    HW228425   1.176   0.046   6.567
 9176SOL     OW28426   3.066   0.340   1.876
 9176SOL    HW128427   3.118   0.341   1.962
 9176SOL    HW228428   3.047   0.246   1.849
 9177SOL     OW28429   0.903   3.471   4.322
 9177SOL    HW128430   0.818   3.418   4.331
 9177SOL    HW228431   0.924   3.485   4.225
 9178SOL     OW28432   1.977   5.063   6.689
 9178SOL    HW128433   2.034   5.068   6.608
 9178SOL    HW228434   2.022   5.006   6.758
 9179SOL     OW28435   1.593   5.465   4.341
 9179SOL    HW128436   1.620   5.374   4.311
 9179SOL    HW228437   1.663   5.531   4.313
 9180SOL     OW28438   5.786   2.506   3.326
 9180SOL    HW128439   5.772   2.438   3.254
 9180SOL    HW228440   5.722   2.582   3.314
 9181SOL     OW28441   5.903   2.169   4.319
 9181SOL    HW128442   5.903   2.083   4.267
 9181SOL    HW228443   5.812   2.210   4.316
 9182SOL     OW28444   2.711   0.016   3.282
 9182SOL    HW128445   2.742   6.945   3.311
 9182SOL    HW228446   2.712   0.022   3.183
 9183SOL     OW28447   4.487   4.727   6.381
 9183SOL    HW128448   4.499   4.665   6.459
 9183SOL    HW228449   4.574   4.772   6.360
 9184SOL     OW28450   4.409   2.314   1.009
 9184SOL    HW128451   4.350   2.287   0.932
 9184SOL    HW228452   4.457   2.398   0.985
 9185SOL     OW28453   0.066   6.618   4.776
 9185SOL    HW128454   0.076   6.701   4.722
 9185SOL    HW228455   0.102   6.633   4.868
 9186SOL     OW28456   5.413   0.509   4.992
 9186SOL    HW128457   5.413   0.502   4.892
 9186SOL    HW228458   5.433   0.604   5.018
 9187SOL     OW28459   3.849   1.975   0.006
 9187SOL    HW128460   3.807   1.885   7.014
 9187SOL    HW228461   3.876   1.987   0.102
 9188SOL     OW28462   2.195   0.696   1.245
 9188SOL    HW128463   2.146   0.763   1.189
 9188SOL    HW228464   2.261   0.743   1.303
 9189SOL     OW28465   3.497   6.003   2.304
 9189SOL    HW128466   3.408   6.048   2.317
 9189SOL    HW228467   3.559   6.065   2.255
 9190SOL     OW28468   0.527   3.187   5.712
 9190SOL    HW128469   0.475   3.272   5.718
 9190SOL    HW228470   0.479   3.122   5.654
 9191SOL     OW28471   5.853   1.098   6.736
 9191SOL    HW128472   5.767   1.048   6.728
 9191SOL    HW228473   5.887   1.091   6.830
 9192SOL     OW28474   6.767   2.195   6.248
 9192SOL    HW128475   6.728   2.191   6.156
 9192SOL    HW228476   6.713   2.258   6.303
 9193SOL     OW28477   4.087   3.408   4.909
 9193SOL    HW128478   4.163   3.349   4.881
 9193SOL    HW228479   4.002   3.356   4.906
 9194SOL     OW28480   2.877   0.032   2.479
 9194SOL    HW128481   2.797   0.090   2.492
 9194SOL    HW228482   2.914   0.047   2.388
 9195SOL     OW28483   1.964   3.283   2.820
 9195SOL    HW128484   1.950   3.274   2.721
 9195SOL    HW228485   1.878   3.310   2.863
 9196SOL     OW28486   5.064   6.655   3.521
 9196SOL    HW128487   4.974   6.697   3.514
 9196SOL    HW228488   5.082   6.600   3.440
 9197SOL     OW28489   3.344   5.223   1.169
 9197SOL    HW128490   3.258   5.244   1.216
 9197SOL    HW228491   3.412   5.191   1.235
 9198SOL     OW28492   6.171   4.037   0.085
 9198SOL    HW128493   6.244   4.105   0.090
 9198SOL    HW228494   6.103   4.055   0.157
 9199SOL     OW28495   0.473   2.561   5.884
 9199SOL    HW128496   0.534   2.483   5.898
 9199SOL    HW228497   0.516   2.644   5.920
 9200SOL     OW28498   2.641   5.939   5.815
 9200SOL    HW128499   2.670   6.031   5.788
 9200SOL    HW228500   2.575   5.904   5.748
 9201SOL     OW28501   0.388   3.117   0.526
 9201SOL    HW128502   0.482   3.084   0.532
 9201SOL    HW228503   0.337   3.087   0.607
 9202SOL     OW28504   0.593   5.655   3.740
 9202SOL    HW128505   0.554   5.603   3.816
 9202SOL    HW228506   0.593   5.753   3.762
 9203SOL     OW28507   5.815   3.176   6.155
 9203SOL    HW128508   5.747   3.194   6.227
 9203SOL    HW228509   5.770   3.133   6.077
 9204SOL     OW28510   5.065   3.689   4.188
 9204SOL    HW128511   4.998   3.714   4.258
 9204SOL    HW228512   5.089   3.593   4.197
 9205SOL     OW28513   5.016   5.975   3.313
 9205SOL    HW128514   5.039   5.906   3.244
 9205SOL    HW228515   4.917   5.985   3.318
 9206SOL     OW28516   2.937   6.812   3.495
 9206SOL    HW128517   3.001   6.852   3.430
 9206SOL    HW228518   2.893   6.884   3.549
 9207SOL     OW28519   3.785   4.880   6.993
 9207SOL    HW128520   3.880   4.893   6.966
 9207SOL    HW228521   3.725   4.917   6.923
 9208SOL     OW28522   5.741   3.862   2.039
 9208SOL    HW128523   5.836   3.836   2.021
 9208SOL    HW228524   5.712   3.823   2.126
 9209SOL     OW28525   4.685   0.500   1.451
 9209SOL    HW128526   4.762   0.436   1.455
 9209SOL    HW228527   4.599   0.449   1.450
 9210SOL     OW28528   0.774   0.892   1.312
 9210SOL    HW128529   0.738   0.896   1.219
 9210SOL    HW228530   0.850   0.827   1.316
 9211SOL     OW28531   5.453   3.311   6.719
 9211SOL    HW128532   5.482   3.323   6.814
 9211SOL    HW228533   5.514   3.246   6.674
 9212SOL     OW28534   5.055   4.424   4.484
 9212SOL    HW128535   4.960   4.394   4.474
 9212SOL    HW228536   5.057   4.518   4.519
 9213SOL     OW28537   4.515   5.854   4.855
 9213SOL    HW128538   4.599   5.908   4.866
 9213SOL    HW228539   4.466   5.885   4.774
 9214SOL     OW28540   0.032   2.771   5.069
 9214SOL    HW128541   6.984   2.698   5.058
 9214SOL    HW228542   7.008   2.860   5.057
 9215SOL     OW28543   1.339   4.447   2.813
 9215SOL    HW128544   1.261   4.475   2.868
 9215SOL    HW228545   1.343   4.502   2.730
 9216SOL     OW28546   2.360   6.734   3.631
 9216SOL    HW128547   2.424   6.801   3.668
 9216SOL    HW228548   2.396   6.642   3.646
 9217SOL     OW28549   6.274   2.355   0.413
 9217SOL    HW128550   6.340   2.355   0.338
 9217SOL    HW228551   6.201   2.420   0.394
 9218SOL     OW28552   4.425   0.326   6.990
 9218SOL    HW128553   4.337   0.301   6.949
 9218SOL    HW228554   4.453   0.416   6.955
 9219SOL     OW28555   4.726   3.517   6.118
 9219SOL    HW128556   4.725   3.515   6.218
 9219SOL    HW228557   4.633   3.526   6.083
 9220SOL     OW28558   1.460   6.633   2.184
 9220SOL    HW128559   1.436   6.561   2.249
 9220SOL    HW228560   1.414   6.617   2.097
 9221SOL     OW28561   2.599   0.184   3.832
 9221SOL    HW128562   2.537   0.221   3.762
 9221SOL    HW228563   2.665   0.254   3.857
 9222SOL     OW28564   2.727   5.602   4.881
 9222SOL    HW128565   2.716   5.695   4.846
 9222SOL    HW228566   2.789   5.551   4.821
 9223SOL     OW28567   1.375   3.034   3.972
 9223SOL    HW128568   1.302   2.967   3.957
 9223SOL    HW228569   1.347   3.123   3.936
 9224SOL     OW28570   1.338   4.646   3.547
 9224SOL    HW128571   1.356   4.550   3.528
 9224SOL    HW228572   1.424   4.695   3.557
 9225SOL     OW28573   3.605   6.417   5.659
 9225SOL    HW128574   3.677   6.419   5.590
 9225SOL    HW228575   3.629   6.350   5.729
 9226SOL     OW28576   0.291   6.694   1.255
 9226SOL    HW128577   0.350   6.623   1.294
 9226SOL    HW228578   0.313   6.783   1.295
 9227SOL     OW28579   1.864   6.368   1.689
 9227SOL    HW128580   1.765   6.357   1.698
 9227SOL    HW228581   1.896   6.437   1.755
 9228SOL     OW28582   2.218   2.386   0.210
 9228SOL    HW128583   2.128   2.350   0.186
 9228SOL    HW228584   2.207   2.476   0.252
 9229SOL     OW28585   1.126   4.597   5.728
 9229SOL    HW128586   1.185   4.625   5.652
 9229SOL    HW228587   1.045   4.655   5.731
 9230SOL     OW28588   4.849   3.116   3.141
 9230SOL    HW128589   4.919   3.173   3.183
 9230SOL    HW228590   4.856   3.120   3.041
 9231SOL     OW28591   1.547   2.856   5.262
 9231SOL    HW128592   1.534   2.950   5.230
 9231SOL    HW228593   1.636   2.823   5.233
 9232SOL     OW28594   3.040   5.519   0.329
 9232SOL    HW128595   2.958   5.513   0.272
 9232SOL    HW228596   3.045   5.440   0.390
 9233SOL     OW28597   0.144   6.508   0.864
 9233SOL    HW128598   0.178   6.423   0.906
 9233SOL    HW228599   0.124   6.492   0.768
 9234SOL     OW28600   2.792   5.680   0.938
 9234SOL    HW128601   2.730   5.638   1.004
 9234SOL    HW228602   2.884   5.645   0.952
 9235SOL     OW28603   1.902   2.951   3.085
 9235SOL    HW128604   1.943   3.020   3.144
 9235SOL    HW228605   1.867   2.995   3.001
 9236SOL     OW28606   1.661   3.861   0.281
 9236SOL    HW128607   1.755   3.831   0.265
 9236SOL    HW228608   1.617   3.797   0.344
 9237SOL     OW28609   0.353   5.593   3.151
 9237SOL    HW128610   0.307   5.513   3.191
 9237SOL    HW228611   0.311   5.676   3.187
 9238SOL     OW28612   2.658   3.009   6.171
 9238SOL    HW128613   2.751   3.012   6.134
 9238SOL    HW228614   2.659   3.038   6.266
 9239SOL     OW28615   0.132   4.285   6.386
 9239SOL    HW128616   0.174   4.376   6.395
 9239SOL    HW228617   0.174   4.237   6.310
 9240SOL     OW28618   4.824   2.942   1.750
 9240SOL    HW128619   4.779   2.973   1.834
 9240SOL    HW228620   4.882   3.015   1.715
 9241SOL     OW28621   0.277   5.203   0.299
 9241SOL    HW128622   0.177   5.200   0.299
 9241SOL    HW228623   0.311   5.214   0.206
 9242SOL     OW28624   1.478   3.806   1.451
 9242SOL    HW128625   1.530   3.842   1.529
 9242SOL    HW228626   1.387   3.847   1.449
 9243SOL     OW28627   6.656   0.571   1.340
 9243SOL    HW128628   6.633   0.655   1.391
 9243SOL    HW228629   6.621   0.492   1.390
 9244SOL     OW28630   2.838   5.593   5.925
 9244SOL    HW128631   2.931   5.629   5.936
 9244SOL    HW228632   2.808   5.607   5.830
 9245SOL     OW28633   0.789   5.076   3.723
 9245SOL    HW128634   0.846   5.065   3.642
 9245SOL    HW228635   0.808   5.002   3.788
 9246SOL     OW28636   5.964   0.273   2.816
 9246SOL    HW128637   5.977   0.241   2.722
 9246SOL    HW228638   5.866   0.285   2.834
 9247SOL     OW28639   2.435   6.112   3.171
 9247SOL    HW128640   2.409   6.086   3.078
 9247SOL    HW228641   2.463   6.031   3.222
 9248SOL     OW28642   2.998   1.931   4.352
 9248SOL    HW128643   2.905   1.896   4.343
 9248SOL    HW228644   2.996   2.019   4.400
 9249SOL     OW28645   4.154   4.852   1.094
 9249SOL    HW128646   4.117   4.759   1.089
 9249SOL    HW228647   4.133   4.892   1.183
 9250SOL     OW28648   5.899   3.301   4.608
 9250SOL    HW128649   5.994   3.280   4.629
 9250SOL    HW228650   5.894   3.354   4.524
 9251SOL     OW28651   4.282   1.533   2.353
 9251SOL    HW128652   4.312   1.486   2.437
 9251SOL    HW228653   4.320   1.625   2.351
 9252SOL     OW28654   5.518   0.730   4.531
 9252SOL    HW128655   5.544   0.652   4.474
 9252SOL    HW228656   5.522   0.703   4.628
 9253SOL     OW28657   5.465   5.165   5.561
 9253SOL    HW128658   5.418   5.147   5.647
 9253SOL    HW228659   5.419   5.240   5.513
 9254SOL     OW28660   4.462   4.911   3.415
 9254SOL    HW128661   4.395   4.906   3.489
 9254SOL    HW228662   4.415   4.916   3.327
 9255SOL     OW28663   4.901   3.755   6.757
 9255SOL    HW128664   4.843   3.834   6.736
 9255SOL    HW228665   4.905   3.695   6.676
 9256SOL     OW28666   2.763   0.783   2.640
 9256SOL    HW128667   2.677   0.813   2.682
 9256SOL    HW228668   2.808   0.717   2.700
 9257SOL     OW28669   6.444   5.225   3.254
 9257SOL    HW128670   6.428   5.228   3.156
 9257SOL    HW228671   6.539   5.198   3.272
 9258SOL     OW28672   4.118   3.142   1.959
 9258SOL    HW128673   4.169   3.125   2.043
 9258SOL    HW228674   4.181   3.145   1.882
 9259SOL     OW28675   0.553   1.808   0.857
 9259SOL    HW128676   0.511   1.898   0.841
 9259SOL    HW228677   0.541   1.782   0.953
 9260SOL     OW28678   5.934   2.057   5.447
 9260SOL    HW128679   5.855   2.021   5.497
 9260SOL    HW228680   5.907   2.139   5.398
 9261SOL     OW28681   3.885   1.238   0.359
 9261SOL    HW128682   3.876   1.183   0.276
 9261SOL    HW228683   3.802   1.229   0.414
 9262SOL     OW28684   0.231   5.582   5.132
 9262SOL    HW128685   0.252   5.674   5.163
 9262SOL    HW228686   0.308   5.522   5.150
 9263SOL     OW28687   3.727   6.438   2.516
 9263SOL    HW128688   3.656   6.498   2.478
 9263SOL    HW228689   3.707   6.343   2.491
 9264SOL     OW28690   4.854   3.894   0.768
 9264SOL    HW128691   4.940   3.869   0.724
 9264SOL    HW228692   4.794   3.939   0.702
 9265SOL     OW28693   3.445   2.333   0.046
 9265SOL    HW128694   3.509   2.273   7.018
 9265SOL    HW228695   3.371   2.279   0.085
 9266SOL     OW28696   1.154   6.131   0.805
 9266SOL    HW128697   1.194   6.040   0.789
 9266SOL    HW228698   1.201   6.198   0.748
 9267SOL     OW28699   6.958   1.779   4.761
 9267SOL    HW128700   0.020   1.832   4.742
 9267SOL    HW228701   6.879   1.841   4.761
 9268SOL     OW28702   1.616   6.873   2.640
 9268SOL    HW128703   1.553   6.946   2.616
 9268SOL    HW228704   1.624   6.809   2.564
 9269SOL     OW28705   4.641   1.122   6.310
 9269SOL    HW128706   4.685   1.158   6.393
 9269SOL    HW228707   4.699   1.053   6.269
 9270SOL     OW28708   4.586   6.545   6.228
 9270SOL    HW128709   4.646   6.594   6.164
 9270SOL    HW228710   4.603   6.576   6.321
 9271SOL     OW28711   6.119   6.965   0.625
 9271SOL    HW128712   6.181   7.010   0.561
 9271SOL    HW228713   6.172   6.925   0.699
 9272SOL     OW28714   1.355   5.581   5.576
 9272SOL    HW128715   1.440   5.585   5.630
 9272SOL    HW228716   1.283   5.632   5.623
 9273SOL     OW28717   5.752   6.014   3.012
 9273SOL    HW128718   5.775   5.982   2.920
 9273SOL    HW228719   5.709   5.939   3.063
 9274SOL     OW28720   6.878   1.588   0.562
 9274SOL    HW128721   6.855   1.656   0.492
 9274SOL    HW228722   6.971   1.605   0.596
 9275SOL     OW28723   6.570   0.635   6.896
 9275SOL    HW128724   6.522   0.581   6.828
 9275SOL    HW228725   6.505   0.694   6.945
 9276SOL     OW28726   2.109   4.641   1.168
 9276SOL    HW128727   2.048   4.665   1.244
 9276SOL    HW228728   2.081   4.689   1.085
 9277SOL     OW28729   4.584   4.289   1.652
 9277SOL    HW128730   4.558   4.385   1.646
 9277SOL    HW228731   4.533   4.244   1.725
 9278SOL     OW28732   1.898   0.041   5.591
 9278SOL    HW128733   1.823   0.038   5.656
 9278SOL    HW228734   1.873   7.011   5.508
 9279SOL     OW28735   3.132   0.099   1.689
 9279SOL    HW128736   3.080   0.066   1.768
 9279SOL    HW228737   3.173   0.021   1.642
 9280SOL     OW28738   2.202   2.092   2.292
 9280SOL    HW128739   2.205   2.142   2.378
 9280SOL    HW228740   2.244   2.002   2.304
 9281SOL     OW28741   2.982   4.029   6.633
 9281SOL    HW128742   2.962   4.047   6.730
 9281SOL    HW228743   3.067   4.075   6.608
 9282SOL     OW28744   5.283   1.331   3.478
 9282SOL    HW128745   5.301   1.332   3.577
 9282SOL    HW228746   5.360   1.375   3.430
 9283SOL     OW28747   4.761   0.375   4.237
 9283SOL    HW128748   4.834   0.409   4.178
 9283SOL    HW228749   4.770   0.414   4.329
 9284SOL     OW28750   3.170   2.741   5.435
 9284SOL    HW128751   3.084   2.787   5.415
 9284SOL    HW228752   3.159   2.680   5.513
 9285SOL     OW28753   4.981   3.380   1.483
 9285SOL    HW128754   5.051   3.444   1.514
 9285SOL    HW228755   4.928   3.420   1.408
 9286SOL     OW28756   5.563   5.839   1.047
 9286SOL    HW128757   5.620   5.813   0.969
 9286SOL    HW228758   5.611   5.815   1.132
 9287SOL     OW28759   3.584   5.125   6.744
 9287SOL    HW128760   3.607   5.031   6.719
 9287SOL    HW228761   3.487   5.131   6.766
 9288SOL     OW28762   4.600   1.358   2.751
 9288SOL    HW128763   4.656   1.276   2.764
 9288SOL    HW228764   4.652   1.438   2.780
 9289SOL     OW28765   4.474   0.120   1.659
 9289SOL    HW128766   4.543   0.113   1.587
 9289SOL    HW228767   4.392   0.165   1.622
 9290SOL     OW28768   5.187   0.687   3.700
 9290SOL    HW128769   5.119   0.759   3.687
 9290SOL    HW228770   5.242   0.677   3.617
 9291SOL     OW28771   1.240   5.335   5.622
 9291SOL    HW128772   1.199   5.290   5.543
 9291SOL    HW228773   1.299   5.409   5.590
 9292SOL     OW28774   2.400   2.583   6.242
 9292SOL    HW128775   2.373   2.529   6.162
 9292SOL    HW228776   2.319   2.627   6.282
 9293SOL     OW28777   6.131   3.622   6.705
 9293SOL    HW128778   6.062   3.684   6.741
 9293SOL    HW228779   6.105   3.528   6.726
 9294SOL     OW28780   5.276   0.780   6.083
 9294SOL    HW128781   5.206   0.836   6.127
 9294SOL    HW228782   5.289   0.811   5.989
 9295SOL     OW28783   5.016   0.508   5.469
 9295SOL    HW128784   5.077   0.576   5.428
 9295SOL    HW228785   4.989   0.441   5.399
 9296SOL     OW28786   2.074   5.437   6.823
 9296SOL    HW128787   2.086   5.536   6.836
 9296SOL    HW228788   1.977   5.416   6.818
 9297SOL     OW28789   0.913   6.918   2.968
 9297SOL    HW128790   0.861   6.835   2.951
 9297SOL    HW228791   1.011   6.899   2.960
 9298SOL     OW28792   0.936   6.594   6.595
 9298SOL    HW128793   0.982   6.677   6.562
 9298SOL    HW228794   0.938   6.592   6.694
 9299SOL     OW28795   0.581   2.055   4.130
 9299SOL    HW128796   0.616   2.135   4.081
 9299SOL    HW228797   0.503   2.082   4.187
 9300SOL     OW28798   0.787   4.463   5.888
 9300SOL    HW128799   0.796   4.405   5.969
 9300SOL    HW228800   0.849   4.542   5.897
 9301SOL     OW28801   5.437   5.341   4.510
 9301SOL    HW128802   5.462   5.427   4.464
 9301SOL    HW228803   5.512   5.312   4.569
 9302SOL     OW28804   2.129   3.470   3.927
 9302SOL    HW128805   2.166   3.513   4.009
 9302SOL    HW228806   2.103   3.376   3.948
 9303SOL     OW28807   3.376   3.882   0.513
 9303SOL    HW128808   3.355   3.884   0.416
 9303SOL    HW228809   3.292   3.886   0.566
 9304SOL     OW28810   4.266   4.465   0.968
 9304SOL    HW128811   4.250   4.382   1.021
 9304SOL    HW228812   4.182   4.488   0.917
 9305SOL     OW28813   3.952   0.938   0.840
 9305SOL    HW128814   4.033   0.923   0.783
 9305SOL    HW228815   3.972   0.911   0.934
 9306SOL     OW28816   1.102   3.589   5.597
 9306SOL    HW128817   1.161   3.569   5.519
 9306SOL    HW228818   1.024   3.526   5.596
 9307SOL     OW28819   1.476   4.124   1.129
 9307SOL    HW128820   1.467   4.219   1.098
 9307SOL    HW228821   1.390   4.076   1.117
 9308SOL     OW28822   1.682   3.410   1.471
 9308SOL    HW128823   1.672   3.480   1.401
 9308SOL    HW228824   1.602   3.350   1.470
 9309SOL     OW28825   3.327   5.583   5.788
 9309SOL    HW128826   3.325   5.488   5.757
 9309SOL    HW228827   3.250   5.599   5.851
 9310SOL     OW28828   5.896   5.715   5.741
 9310SOL    HW128829   5.813   5.736   5.793
 9310SOL    HW228830   5.875   5.646   5.672
 9311SOL     OW28831   4.958   4.588   1.012
 9311SOL    HW128832   4.893   4.531   0.962
 9311SOL    HW228833   5.018   4.530   1.068
 9312SOL     OW28834   1.573   3.023   0.887
 9312SOL    HW128835   1.600   3.117   0.909
 9312SOL    HW228836   1.487   3.001   0.933
 9313SOL     OW28837   0.083   0.545   1.398
 9313SOL    HW128838   0.007   0.482   1.411
 9313SOL    HW228839   0.085   0.611   1.473
 9314SOL     OW28840   6.640   3.438   6.786
 9314SOL    HW128841   6.713   3.454   6.719
 9314SOL    HW228842   6.574   3.373   6.748
 9315SOL     OW28843   6.767   6.979   5.716
 9315SOL    HW128844   6.690   6.938   5.766
 9315SOL    HW228845   6.750   0.056   5.701
 9316SOL     OW28846   6.108   6.210   5.396
 9316SOL    HW128847   6.018   6.170   5.412
 9316SOL    HW228848   6.101   6.310   5.402
 9317SOL     OW28849   4.568   5.682   4.120
 9317SOL    HW128850   4.535   5.776   4.113
 9317SOL    HW228851   4.657   5.675   4.075
 9318SOL     OW28852   6.463   0.480   6.701
 9318SOL    HW128853   6.416   0.395   6.723
 9318SOL    HW228854   6.484   0.481   6.603
 9319SOL     OW28855   2.570   3.193   1.306
 9319SOL    HW128856   2.630   3.192   1.386
 9319SOL    HW228857   2.481   3.154   1.331
 9320SOL     OW28858   4.169   0.566   5.488
 9320SOL    HW128859   4.155   0.589   5.584
 9320SOL    HW228860   4.197   0.471   5.480
 9321SOL     OW28861   0.976   0.515   4.619
 9321SOL    HW128862   0.892   0.551   4.578
 9321SOL    HW228863   1.000   0.571   4.699
 9322SOL     OW28864   0.163   3.922   6.868
 9322SOL    HW128865   0.232   3.913   6.796
 9322SOL    HW228866   0.204   3.900   6.956
 9323SOL     OW28867   0.977   1.057   4.778
 9323SOL    HW128868   0.878   1.059   4.795
 9323SOL    HW228869   0.999   1.119   4.703
 9324SOL     OW28870   2.034   4.288   2.247
 9324SOL    HW128871   1.938   4.291   2.275
 9324SOL    HW228872   2.043   4.235   2.163
 9325SOL     OW28873   6.673   0.140   6.719
 9325SOL    HW128874   6.608   0.213   6.744
 9325SOL    HW228875   6.662   0.117   6.623
 9326SOL     OW28876   2.915   4.973   0.252
 9326SOL    HW128877   2.837   4.967   0.190
 9326SOL    HW228878   2.989   4.915   0.218
 9327SOL     OW28879   4.109   6.983   2.403
 9327SOL    HW128880   4.189   6.952   2.352
 9327SOL    HW228881   4.128   0.054   2.441
 9328SOL     OW28882   2.164   0.879   4.788
 9328SOL    HW128883   2.248   0.858   4.839
 9328SOL    HW228884   2.155   0.978   4.777
 9329SOL     OW28885   6.041   4.307   0.806
 9329SOL    HW128886   6.064   4.220   0.849
 9329SOL    HW228887   5.984   4.291   0.725
 9330SOL     OW28888   6.474   0.399   5.799
 9330SOL    HW128889   6.561   0.409   5.848
 9330SOL    HW228890   6.435   0.309   5.820
 9331SOL     OW28891   2.675   1.198   6.523
 9331SOL    HW128892   2.584   1.205   6.482
 9331SOL    HW228893   2.692   1.103   6.550
 9332SOL     OW28894   3.262   5.261   0.374
 9332SOL    HW128895   3.186   5.241   0.436
 9332SOL    HW228896   3.337   5.301   0.426
 9333SOL     OW28897   3.334   5.429   6.667
 9333SOL    HW128898   3.367   5.488   6.593
 9333SOL    HW228899   3.273   5.359   6.629
 9334SOL     OW28900   4.403   6.432   5.234
 9334SOL    HW128901   4.438   6.357   5.289
 9334SOL    HW228902   4.479   6.489   5.203
 9335SOL     OW28903   1.504   1.491   6.681
 9335SOL    HW128904   1.602   1.503   6.664
 9335SOL    HW228905   1.457   1.472   6.594
 9336SOL     OW28906   4.278   6.898   4.617
 9336SOL    HW128907   4.287   6.805   4.653
 9336SOL    HW228908   4.225   6.954   4.681
 9337SOL     OW28909   4.606   0.844   5.595
 9337SOL    HW128910   4.590   0.771   5.530
 9337SOL    HW228911   4.526   0.854   5.655
 9338SOL     OW28912   5.953   0.182   1.264
 9338SOL    HW128913   5.984   0.197   1.357
 9338SOL    HW228914   6.008   0.236   1.201
 9339SOL     OW28915   6.285   6.119   0.414
 9339SOL    HW128916   6.370   6.148   0.458
 9339SOL    HW228917   6.264   6.181   0.338
 9340SOL     OW28918   3.603   5.012   3.186
 9340SOL    HW128919   3.514   5.031   3.228
 9340SOL    HW228920   3.673   5.009   3.257
 9341SOL     OW28921   5.339   4.976   1.108
 9341SOL    HW128922   5.312   5.049   1.046
 9341SOL    HW228923   5.366   4.895   1.056
 9342SOL     OW28924   2.440   0.097   4.601
 9342SOL    HW128925   2.373   0.164   4.632
 9342SOL    HW228926   2.415   0.065   4.510
 9343SOL     OW28927   4.705   4.277   2.178
 9343SOL    HW128928   4.651   4.312   2.255
 9343SOL    HW228929   4.651   4.282   2.094
 9344SOL     OW28930   5.340   6.286   1.731
 9344SOL    HW128931   5.402   6.231   1.675
 9344SOL    HW228932   5.276   6.335   1.672
 9345SOL     OW28933   6.431   5.115   1.184
 9345SOL    HW128934   6.406   5.104   1.280
 9345SOL    HW228935   6.436   5.213   1.163
 9346SOL     OW28936   4.505   0.401   2.087
 9346SOL    HW128937   4.520   0.319   2.032
 9346SOL    HW228938   4.583   0.416   2.146
 9347SOL     OW28939   3.186   5.867   0.702
 9347SOL    HW128940   3.252   5.899   0.634
 9347SOL    HW228941   3.165   5.942   0.765
 9348SOL     OW28942   3.077   5.466   2.801
 9348SOL    HW128943   3.082   5.535   2.873
 9348SOL    HW228944   3.055   5.510   2.714
 9349SOL     OW28945   6.272   5.050   2.065
 9349SOL    HW128946   6.261   5.038   2.163
 9349SOL    HW228947   6.188   5.022   2.018
 9350SOL     OW28948   6.544   1.705   4.743
 9350SOL    HW128949   6.507   1.791   4.709
 9350SOL    HW228950   6.641   1.717   4.766
 9351SOL     OW28951   3.593   6.846   6.216
 9351SOL    HW128952   3.636   6.840   6.126
 9351SOL    HW228953   3.664   6.851   6.287
 9352SOL     OW28954   3.800   2.222   6.640
 9352SOL    HW128955   3.850   2.138   6.662
 9352SOL    HW228956   3.850   2.273   6.570
 9353SOL     OW28957   1.227   4.634   1.454
 9353SOL    HW128958   1.127   4.638   1.456
 9353SOL    HW228959   1.263   4.654   1.545
 9354SOL     OW28960   0.171   1.716   6.006
 9354SOL    HW128961   0.227   1.695   5.925
 9354SOL    HW228962   0.231   1.730   6.084
 9355SOL     OW28963   0.136   1.542   4.542
 9355SOL    HW128964   0.108   1.500   4.456
 9355SOL    HW228965   0.059   1.541   4.606
 9356SOL     OW28966   4.800   6.001   2.088
 9356SOL    HW128967   4.749   5.915   2.099
 9356SOL    HW228968   4.898   5.984   2.096
 9357SOL     OW28969   2.369   3.516   6.365
 9357SOL    HW128970   2.390   3.485   6.458
 9357SOL    HW228971   2.407   3.452   6.299
 9358SOL     OW28972   6.260   2.858   2.542
 9358SOL    HW128973   6.165   2.830   2.556
 9358SOL    HW228974   6.264   2.956   2.524
 9359SOL     OW28975   0.853   3.455   5.536
 9359SOL    HW128976   0.791   3.501   5.473
 9359SOL    HW228977   0.806   3.438   5.622
 9360SOL     OW28978   1.479   5.899   6.747
 9360SOL    HW128979   1.490   5.846   6.831
 9360SOL    HW228980   1.480   5.838   6.668
 9361SOL     OW28981   1.330   6.448   3.119
 9361SOL    HW128982   1.375   6.481   3.036
 9361SOL    HW228983   1.240   6.489   3.127
 9362SOL     OW28984   2.188   3.111   2.842
 9362SOL    HW128985   2.101   3.158   2.826
 9362SOL    HW228986   2.264   3.176   2.830
 9363SOL     OW28987   4.254   6.595   2.156
 9363SOL    HW128988   4.186   6.651   2.203
 9363SOL    HW228989   4.322   6.564   2.223
 9364SOL     OW28990   3.902   2.784   6.176
 9364SOL    HW128991   3.822   2.841   6.161
 9364SOL    HW228992   3.967   2.797   6.101
 9365SOL     OW28993   2.233   2.009   4.442
 9365SOL    HW128994   2.313   2.064   4.418
 9365SOL    HW228995   2.204   1.956   4.362
 9366SOL     OW28996   3.418   6.294   6.751
 9366SOL    HW128997   3.342   6.230   6.761
 9366SOL    HW228998   3.445   6.298   6.654
 9367SOL     OW28999   6.484   6.352   2.070
 9367SOL    HW129000   6.502   6.434   2.124
 9367SOL    HW229001   6.565   6.292   2.072
 9368SOL     OW29002   2.983   1.459   3.500
 9368SOL    HW129003   2.899   1.419   3.537
 9368SOL    HW229004   2.982   1.557   3.516
 9369SOL     OW29005   6.659   6.777   4.761
 9369SOL    HW129006   6.750   6.813   4.745
 9369SOL    HW229007   6.665   6.684   4.797
 9370SOL     OW29008   4.937   0.707   2.544
 9370SOL    HW129009   4.904   0.768   2.473
 9370SOL    HW229010   4.868   0.637   2.562
 9371SOL     OW29011   2.358   4.853   0.508
 9371SOL    HW129012   2.427   4.801   0.457
 9371SOL    HW229013   2.268   4.812   0.493
 9372SOL     OW29014   5.149   5.868   2.813
 9372SOL    HW129015   5.087   5.946   2.815
 9372SOL    HW229016   5.243   5.900   2.823
 9373SOL     OW29017   4.770   2.127   2.549
 9373SOL    HW129018   4.836   2.054   2.565
 9373SOL    HW229019   4.814   2.202   2.501
 9374SOL     OW29020   0.677   3.670   0.297
 9374SOL    HW129021   0.586   3.630   0.308
 9374SOL    HW229022   0.680   3.724   0.214
 9375SOL     OW29023   0.108   1.482   2.928
 9375SOL    HW129024   0.132   1.528   3.014
 9375SOL    HW229025   0.043   1.538   2.877
 9376SOL     OW29026   2.646   4.653   1.300
 9376SOL    HW129027   2.666   4.699   1.386
 9376SOL    HW229028   2.592   4.571   1.318
 9377SOL     OW29029   2.241   5.160   4.175
 9377SOL    HW129030   2.156   5.202   4.143
 9377SOL    HW229031   2.234   5.061   4.170
 9378SOL     OW29032   1.881   1.111   4.819
 9378SOL    HW129033   1.822   1.086   4.742
 9378SOL    HW229034   1.883   1.037   4.886
 9379SOL     OW29035   4.143   5.603   5.506
 9379SOL    HW129036   4.232   5.591   5.462
 9379SOL    HW229037   4.146   5.684   5.564
 9380SOL     OW29038   5.440   4.906   4.401
 9380SOL    HW129039   5.422   4.877   4.307
 9380SOL    HW229040   5.539   4.912   4.415
 9381SOL     OW29041   3.506   2.549   6.172
 9381SOL    HW129042   3.539   2.499   6.252
 9381SOL    HW229043   3.531   2.499   6.089
 9382SOL     OW29044   3.429   0.755   3.550
 9382SOL    HW129045   3.475   0.694   3.486
 9382SOL    HW229046   3.395   0.835   3.501
 9383SOL     OW29047   0.975   5.854   4.423
 9383SOL    HW129048   1.030   5.787   4.373
 9383SOL    HW229049   1.007   5.859   4.517
 9384SOL     OW29050   4.269   0.359   1.856
 9384SOL    HW129051   4.286   0.443   1.907
 9384SOL    HW229052   4.286   0.280   1.914
 9385SOL     OW29053   4.424   1.140   3.986
 9385SOL    HW129054   4.431   1.232   3.946
 9385SOL    HW229055   4.501   1.084   3.956
 9386SOL     OW29056   2.245   6.036   4.883
 9386SOL    HW129057   2.211   6.042   4.789
 9386SOL    HW229058   2.184   6.088   4.943
 9387SOL     OW29059   3.004   1.576   6.945
 9387SOL    HW129060   3.004   1.612   6.852
 9387SOL    HW229061   3.003   1.652   7.010
 9388SOL     OW29062   2.722   5.752   2.384
 9388SOL    HW129063   2.763   5.678   2.436
 9388SOL    HW229064   2.625   5.733   2.369
 9389SOL     OW29065   1.940   0.061   3.840
 9389SOL    HW129066   2.027   0.014   3.857
 9389SOL    HW229067   1.958   0.158   3.824
 9390SOL     OW29068   5.091   4.753   5.283
 9390SOL    HW129069   5.123   4.659   5.269
 9390SOL    HW229070   5.098   4.777   5.380
 9391SOL     OW29071   2.629   1.506   5.085
 9391SOL    HW129072   2.691   1.544   5.154
 9391SOL    HW229073   2.630   1.565   5.004
 9392SOL     OW29074   6.555   6.641   5.072
 9392SOL    HW129075   6.541   6.737   5.096
 9392SOL    HW229076   6.512   6.583   5.142
 9393SOL     OW29077   3.179   6.366   6.417
 9393SOL    HW129078   3.130   6.373   6.330
 9393SOL    HW229079   3.188   6.458   6.457
 9394SOL     OW29080   0.135   1.507   2.240
 9394SOL    HW129081   0.222   1.470   2.272
 9394SOL    HW229082   0.070   1.509   2.316
 9395SOL     OW29083   2.915   1.375   1.235
 9395SOL    HW129084   3.004   1.412   1.262
 9395SOL    HW229085   2.843   1.423   1.283
 9396SOL     OW29086   1.880   4.952   3.785
 9396SOL    HW129087   1.884   4.852   3.789
 9396SOL    HW229088   1.952   4.990   3.842
 9397SOL     OW29089   5.061   6.908   6.527
 9397SOL    HW129090   5.120   6.914   6.446
 9397SOL    HW229091   5.104   6.848   6.595
 9398SOL     OW29092   6.324   0.708   5.127
 9398SOL    HW129093   6.340   0.617   5.164
 9398SOL    HW229094   6.356   0.777   5.192
 9399SOL     OW29095   0.745   1.763   5.887
 9399SOL    HW129096   0.728   1.666   5.868
 9399SOL    HW229097   0.831   1.773   5.937
 9400SOL     OW29098   4.507   0.487   1.772
 9400SOL    HW129099   4.412   0.456   1.770
 9400SOL    HW229100   4.552   0.462   1.686
 9401SOL     OW29101   6.106   1.038   3.397
 9401SOL    HW129102   6.149   1.125   3.420
 9401SOL    HW229103   6.025   1.054   3.341
 9402SOL     OW29104   1.025   5.262   2.968
 9402SOL    HW129105   0.944   5.314   2.995
 9402SOL    HW229106   1.099   5.325   2.944
 9403SOL     OW29107   6.227   1.275   3.116
 9403SOL    HW129108   6.163   1.207   3.151
 9403SOL    HW229109   6.200   1.366   3.149
 9404SOL     OW29110   1.517   3.093   0.211
 9404SOL    HW129111   1.611   3.126   0.216
 9404SOL    HW229112   1.512   3.018   0.146
 9405SOL     OW29113   2.144   4.826   3.405
 9405SOL    HW129114   2.125   4.742   3.456
 9405SOL    HW229115   2.097   4.902   3.449
 9406SOL     OW29116   6.747   3.056   5.583
 9406SOL    HW129117   6.649   3.039   5.573
 9406SOL    HW229118   6.788   2.985   5.641
 9407SOL     OW29119   2.580   5.228   3.297
 9407SOL    HW129120   2.628   5.312   3.320
 9407SOL    HW229121   2.482   5.246   3.289
 9408SOL     OW29122   6.415   2.537   6.222
 9408SOL    HW129123   6.458   2.540   6.132
 9408SOL    HW229124   6.478   2.497   6.288
 9409SOL     OW29125   5.863   5.976   0.393
 9409SOL    HW129126   5.766   5.963   0.413
 9409SOL    HW229127   5.918   5.922   0.456
 9410SOL     OW29128   3.076   0.502   1.401
 9410SOL    HW129129   3.057   0.550   1.487
 9410SOL    HW229130   3.107   0.409   1.421
 9411SOL     OW29131   3.301   2.857   2.211
 9411SOL    HW129132   3.321   2.841   2.114
 9411SOL    HW229133   3.246   2.782   2.246
 9412SOL     OW29134   0.082   1.868   2.946
 9412SOL    HW129135   0.175   1.847   2.916
 9412SOL    HW229136   0.075   1.857   3.045
 9413SOL     OW29137   3.663   5.873   3.643
 9413SOL    HW129138   3.669   5.802   3.572
 9413SOL    HW229139   3.570   5.877   3.678
 9414SOL     OW29140   2.673   0.759   3.231
 9414SOL    HW129141   2.755   0.816   3.231
 9414SOL    HW229142   2.620   0.776   3.314
 9415SOL     OW29143   2.840   6.769   1.624
 9415SOL    HW129144   2.816   6.865   1.609
 9415SOL    HW229145   2.792   6.735   1.705
 9416SOL     OW29146   0.351   2.692   0.413
 9416SOL    HW129147   0.436   2.706   0.362
 9416SOL    HW229148   0.356   2.606   0.464
 9417SOL     OW29149   4.906   0.823   0.657
 9417SOL    HW129150   4.814   0.803   0.622
 9417SOL    HW229151   4.906   0.912   0.702
 9418SOL     OW29152   4.299   7.003   1.061
 9418SOL    HW129153   4.269   0.035   0.981
 9418SOL    HW229154   4.233   6.931   1.082
 9419SOL     OW29155   2.972   4.754   5.907
 9419SOL    HW129156   3.054   4.769   5.853
 9419SOL    HW229157   2.936   4.842   5.939
 9420SOL     OW29158   6.381   3.762   5.416
 9420SOL    HW129159   6.307   3.829   5.406
 9420SOL    HW229160   6.425   3.747   5.328
 9421SOL     OW29161   2.054   6.282   4.369
 9421SOL    HW129162   2.057   6.291   4.468
 9421SOL    HW229163   2.075   6.187   4.344
 9422SOL     OW29164   3.273   5.335   3.256
 9422SOL    HW129165   3.230   5.394   3.324
 9422SOL    HW229166   3.292   5.388   3.173
 9423SOL     OW29167   2.547   6.895   3.760
 9423SOL    HW129168   2.524   6.983   3.803
 9423SOL    HW229169   2.542   6.822   3.828
 9424SOL     OW29170   4.810   1.348   4.834
 9424SOL    HW129171   4.729   1.405   4.825
 9424SOL    HW229172   4.786   1.263   4.881
 9425SOL     OW29173   6.045   3.382   0.774
 9425SOL    HW129174   6.068   3.457   0.836
 9425SOL    HW229175   6.026   3.419   0.683
 9426SOL     OW29176   3.922   1.760   6.107
 9426SOL    HW129177   3.966   1.829   6.165
 9426SOL    HW229178   3.855   1.709   6.160
 9427SOL     OW29179   2.655   4.937   3.200
 9427SOL    HW129180   2.640   5.002   3.275
 9427SOL    HW229181   2.568   4.894   3.177
 9428SOL     OW29182   6.950   1.109   1.283
 9428SOL    HW129183   6.923   1.014   1.269
 9428SOL    HW229184   7.010   1.115   1.363
 9429SOL     OW29185   2.062   3.561   2.721
 9429SOL    HW129186   2.056   3.483   2.783
 9429SOL    HW229187   2.079   3.529   2.628
 9430SOL     OW29188   0.595   4.180   3.461
 9430SOL    HW129189   0.597   4.089   3.421
 9430SOL    HW229190   0.542   4.241   3.402
 9431SOL     OW29191   6.520   3.897   0.785
 9431SOL    HW129192   6.606   3.848   0.768
 9431SOL    HW229193   6.535   3.995   0.771
 9432SOL     OW29194   5.388   0.240   3.384
 9432SOL    HW129195   5.345   0.329   3.373
 9432SOL    HW229196   5.317   0.170   3.390
 9433SOL     OW29197   2.888   6.133   2.916
 9433SOL    HW129198   2.941   6.129   2.831
 9433SOL    HW229199   2.945   6.171   2.989
 9434SOL     OW29200   4.948   5.550   2.964
 9434SOL    HW129201   4.903   5.569   2.877
 9434SOL    HW229202   5.023   5.485   2.949
 9435SOL     OW29203   0.189   2.515   4.722
 9435SOL    HW129204   0.178   2.503   4.623
 9435SOL    HW229205   0.111   2.475   4.769
 9436SOL     OW29206   1.558   2.626   1.273
 9436SOL    HW129207   1.623   2.609   1.199
 9436SOL    HW229208   1.509   2.711   1.256
 9437SOL     OW29209   1.007   5.975   2.848
 9437SOL    HW129210   1.015   6.073   2.834
 9437SOL    HW229211   1.072   5.927   2.790
 9438SOL     OW29212   0.120   0.252   1.574
 9438SOL    HW129213   0.112   0.240   1.475
 9438SOL    HW229214   0.115   0.350   1.596
 9439SOL     OW29215   0.637   3.567   1.146
 9439SOL    HW129216   0.673   3.626   1.219
 9439SOL    HW229217   0.712   3.541   1.086
 9440SOL     OW29218   3.791   5.006   3.369
 9440SOL    HW129219   3.887   5.030   3.352
 9440SOL    HW229220   3.775   4.999   3.467
 9441SOL     OW29221   6.604   3.994   5.338
 9441SOL    HW129222   6.559   4.021   5.423
 9441SOL    HW229223   6.698   4.029   5.337
 9442SOL     OW29224   4.984   3.353   1.061
 9442SOL    HW129225   4.940   3.419   0.999
 9442SOL    HW229226   5.053   3.302   1.010
 9443SOL     OW29227   2.621   5.412   0.941
 9443SOL    HW129228   2.539   5.360   0.916
 9443SOL    HW229229   2.601   5.471   1.019
 9444SOL     OW29230   1.564   3.042   0.497
 9444SOL    HW129231   1.495   3.090   0.552
 9444SOL    HW229232   1.528   3.028   0.405
 9445SOL     OW29233   6.083   3.153   3.282
 9445SOL    HW129234   6.086   3.073   3.223
 9445SOL    HW229235   6.115   3.233   3.232
 9446SOL     OW29236   6.223   5.406   3.664
 9446SOL    HW129237   6.285   5.410   3.585
 9446SOL    HW229238   6.275   5.421   3.748
 9447SOL     OW29239   5.953   4.162   3.499
 9447SOL    HW129240   5.968   4.115   3.412
 9447SOL    HW229241   6.040   4.171   3.547
 9448SOL     OW29242   0.612   0.151   6.893
 9448SOL    HW129243   0.577   0.099   6.971
 9448SOL    HW229244   0.583   0.107   6.808
 9449SOL     OW29245   6.577   6.632   0.661
 9449SOL    HW129246   6.676   6.621   0.659
 9449SOL    HW229247   6.541   6.627   0.567
 9450SOL     OW29248   2.187   5.141   4.490
 9450SOL    HW129249   2.164   5.163   4.584
 9450SOL    HW229250   2.259   5.071   4.489
 9451SOL     OW29251   4.230   0.044   6.026
 9451SOL    HW129252   4.318   0.078   6.060
 9451SOL    HW229253   4.196   6.992   6.086
 9452SOL     OW29254   1.611   3.589   0.407
 9452SOL    HW129255   1.620   3.532   0.489
 9452SOL    HW229256   1.515   3.610   0.392
 9453SOL     OW29257   2.385   4.942   3.381
 9453SOL    HW129258   2.366   5.038   3.362
 9453SOL    HW229259   2.301   4.889   3.369
 9454SOL     OW29260   3.501   3.651   6.308
 9454SOL    HW129261   3.561   3.706   6.366
 9454SOL    HW229262   3.452   3.584   6.364
 9455SOL     OW29263   2.689   1.501   3.678
 9455SOL    HW129264   2.744   1.522   3.759
 9455SOL    HW229265   2.685   1.582   3.619
 9456SOL     OW29266   0.050   3.463   1.072
 9456SOL    HW129267   6.970   3.458   1.067
 9456SOL    HW229268   0.086   3.371   1.090
 9457SOL     OW29269   1.769   3.509   5.197
 9457SOL    HW129270   1.736   3.602   5.182
 9457SOL    HW229271   1.718   3.467   5.272
 9458SOL     OW29272   1.142   3.079   0.186
 9458SOL    HW129273   1.111   3.174   0.182
 9458SOL    HW229274   1.180   3.053   0.097
 9459SOL     OW29275   5.375   4.492   3.644
 9459SOL    HW129276   5.407   4.440   3.723
 9459SOL    HW229277   5.346   4.429   3.573
 9460SOL     OW29278   1.161   3.538   3.741
 9460SOL    HW129279   1.235   3.594   3.779
 9460SOL    HW229280   1.088   3.598   3.707
 9461SOL     OW29281   0.001   1.742   1.420
 9461SOL    HW129282   0.028   1.740   1.516
 9461SOL    HW229283   6.923   1.762   1.414
 9462SOL     OW29284   2.177   3.913   3.153
 9462SOL    HW129285   2.146   3.982   3.088
 9462SOL    HW229286   2.179   3.823   3.109
 9463SOL     OW29287   6.132   0.536   2.031
 9463SOL    HW129288   6.121   0.470   2.105
 9463SOL    HW229289   6.044   0.553   1.988
 9464SOL     OW29290   5.860   0.593   0.599
 9464SOL    HW129291   5.954   0.571   0.627
 9464SOL    HW229292   5.819   0.654   0.666
 9465SOL     OW29293   1.689   4.530   2.165
 9465SOL    HW129294   1.608   4.471   2.158
 9465SOL    HW229295   1.696   4.565   2.259
 9466SOL     OW29296   3.668   4.483   5.886
 9466SOL    HW129297   3.577   4.523   5.874
 9466SOL    HW229298   3.674   4.397   5.835
 9467SOL     OW29299   1.589   2.367   2.650
 9467SOL    HW129300   1.517   2.413   2.598
 9467SOL    HW229301   1.677   2.381   2.605
 9468SOL     OW29302   5.838   3.985   6.330
 9468SOL    HW129303   5.900   3.992   6.408
 9468SOL    HW229304   5.890   3.982   6.245
 9469SOL     OW29305   6.534   5.121   1.644
 9469SOL    HW129306   6.496   5.051   1.584
 9469SOL    HW229307   6.513   5.212   1.606
 9470SOL     OW29308   5.073   3.125   5.947
 9470SOL    HW129309   5.153   3.095   6.000
 9470SOL    HW229310   5.013   3.047   5.930
 9471SOL     OW29311   6.742   1.947   4.748
 9471SOL    HW129312   6.712   1.994   4.665
 9471SOL    HW229313   6.751   2.012   4.823
 9472SOL     OW29314   6.535   2.879   5.331
 9472SOL    HW129315   6.498   2.966   5.363
 9472SOL    HW229316   6.621   2.894   5.283
 9473SOL     OW29317   2.346   5.507   6.973
 9473SOL    HW129318   2.340   5.417   6.931
 9473SOL    HW229319   2.331   5.499   0.052
 9474SOL     OW29320   0.179   2.760   0.213
 9474SOL    HW129321   0.115   2.771   0.289
 9474SOL    HW229322   0.265   2.721   0.247
 9475SOL     OW29323   3.636   3.467   6.655
 9475SOL    HW129324   3.581   3.385   6.641
 9475SOL    HW229325   3.631   3.494   6.752
 9476SOL     OW29326   3.623   4.228   5.010
 9476SOL    HW129327   3.588   4.321   5.016
 9476SOL    HW229328   3.558   4.172   4.957
 9477SOL     OW29329   0.654   3.307   1.263
 9477SOL    HW129330   0.565   3.275   1.231
 9477SOL    HW229331   0.670   3.399   1.228
 9478SOL     OW29332   4.859   3.190   0.604
 9478SOL    HW129333   4.907   3.252   0.666
 9478SOL    HW229334   4.903   3.101   0.606
 9479SOL     OW29335   4.020   6.223   6.661
 9479SOL    HW129336   3.971   6.255   6.579
 9479SOL    HW229337   3.961   6.163   6.714
 9480SOL     OW29338   5.674   4.847   0.675
 9480SOL    HW129339   5.609   4.922   0.659
 9480SOL    HW229340   5.657   4.774   0.609
 9481SOL     OW29341   4.796   2.734   2.033
 9481SOL    HW129342   4.757   2.728   1.941
 9481SOL    HW229343   4.788   2.829   2.066
 9482SOL     OW29344   0.218   1.482   3.354
 9482SOL    HW129345   0.137   1.460   3.409
 9482SOL    HW229346   0.268   1.558   3.397
 9483SOL     OW29347   2.050   1.405   1.178
 9483SOL    HW129348   2.109   1.484   1.161
 9483SOL    HW229349   1.963   1.436   1.215
 9484SOL     OW29350   4.405   0.600   3.986
 9484SOL    HW129351   4.361   0.657   4.055
 9484SOL    HW229352   4.433   0.513   4.027
 9485SOL     OW29353   0.540   0.868   0.805
 9485SOL    HW129354   0.577   0.925   0.878
 9485SOL    HW229355   0.468   0.917   0.757
 9486SOL     OW29356   3.936   6.697   1.228
 9486SOL    HW129357   3.954   6.693   1.326
 9486SOL    HW229358   3.840   6.723   1.213
 9487SOL     OW29359   3.685   3.603   3.790
 9487SOL    HW129360   3.762   3.545   3.763
 9487SOL    HW229361   3.703   3.643   3.880
 9488SOL     OW29362   2.529   6.437   1.129
 9488SOL    HW129363   2.512   6.380   1.049
 9488SOL    HW229364   2.603   6.502   1.110
 9489SOL     OW29365   4.606   4.129   1.430
 9489SOL    HW129366   4.602   4.197   1.503
 9489SOL    HW229367   4.694   4.083   1.432
 9490SOL     OW29368   6.425   4.712   2.256
 9490SOL    HW129369   6.490   4.767   2.203
 9490SOL    HW229370   6.388   4.768   2.331
 9491SOL     OW29371   5.980   4.784   4.095
 9491SOL    HW129372   5.881   4.770   4.100
 9491SOL    HW229373   6.001   4.881   4.099
 9492SOL     OW29374   3.706   2.949   3.754
 9492SOL    HW129375   3.621   2.936   3.806
 9492SOL    HW229376   3.780   2.972   3.817
 9493SOL     OW29377   3.319   5.724   4.290
 9493SOL    HW129378   3.223   5.727   4.319
 9493SOL    HW229379   3.332   5.647   4.228
 9494SOL     OW29380   5.015   3.315   2.213
 9494SOL    HW129381   4.973   3.235   2.171
 9494SOL    HW229382   4.971   3.398   2.177
 9495SOL     OW29383   6.465   1.970   3.533
 9495SOL    HW129384   6.429   1.887   3.491
 9495SOL    HW229385   6.506   2.028   3.462
 9496SOL     OW29386   6.470   3.760   1.418
 9496SOL    HW129387   6.501   3.854   1.435
 9496SOL    HW229388   6.375   3.762   1.386
 9497SOL     OW29389   5.800   6.476   5.826
 9497SOL    HW129390   5.702   6.460   5.815
 9497SOL    HW229391   5.849   6.390   5.819
 9498SOL     OW29392   3.983   6.861   4.742
 9498SOL    HW129393   3.982   6.770   4.783
 9498SOL    HW229394   3.898   6.876   4.691
 9499SOL     OW29395   2.373   5.500   6.454
 9499SOL    HW129396   2.327   5.589   6.453
 9499SOL    HW229397   2.305   5.427   6.460
 9500SOL     OW29398   5.343   0.006   0.941
 9500SOL    HW129399   5.258   0.040   0.982
 9500SOL    HW229400   5.345   0.028   0.844
 9501SOL     OW29401   3.051   1.221   4.400
 9501SOL    HW129402   3.018   1.316   4.397
 9501SOL    HW229403   3.110   1.204   4.321
 9502SOL     OW29404   5.134   3.118   4.739
 9502SOL    HW129405   5.059   3.096   4.801
 9502SOL    HW229406   5.124   3.066   4.654
 9503SOL     OW29407   0.439   1.676   1.364
 9503SOL    HW129408   0.356   1.632   1.397
 9503SOL    HW229409   0.457   1.759   1.417
 9504SOL     OW29410   0.244   2.638   0.700
 9504SOL    HW129411   0.192   2.721   0.715
 9504SOL    HW229412   0.191   2.559   0.730
 9505SOL     OW29413   4.726   4.553   3.687
 9505SOL    HW129414   4.703   4.455   3.692
 9505SOL    HW229415   4.642   4.606   3.678
 9506SOL     OW29416   1.115   1.710   6.427
 9506SOL    HW129417   1.038   1.718   6.363
 9506SOL    HW229418   1.165   1.796   6.429
 9507SOL     OW29419   1.259   2.323   3.402
 9507SOL    HW129420   1.224   2.361   3.488
 9507SOL    HW229421   1.183   2.281   3.352
 9508SOL     OW29422   6.277   2.528   1.023
 9508SOL    HW129423   6.216   2.579   1.083
 9508SOL    HW229424   6.255   2.430   1.027
 9509SOL     OW29425   0.925   0.940   4.269
 9509SOL    HW129426   0.940   0.865   4.204
 9509SOL    HW229427   0.845   0.992   4.243
 9510SOL     OW29428   1.411   3.646   3.163
 9510SOL    HW129429   1.344   3.697   3.109
 9510SOL    HW229430   1.477   3.709   3.203
 9511SOL     OW29431   1.307   0.514   0.510
 9511SOL    HW129432   1.284   0.461   0.592
 9511SOL    HW229433   1.265   0.605   0.516
 9512SOL     OW29434   6.068   1.732   1.714
 9512SOL    HW129435   6.083   1.695   1.806
 9512SOL    HW229436   5.969   1.739   1.697
 9513SOL     OW29437   2.234   3.890   6.740
 9513SOL    HW129438   2.291   3.926   6.814
 9513SOL    HW229439   2.245   3.791   6.733
 9514SOL     OW29440   1.961   5.477   5.914
 9514SOL    HW129441   2.032   5.475   5.985
 9514SOL    HW229442   1.883   5.529   5.948
 9515SOL     OW29443   2.311   5.742   1.162
 9515SOL    HW129444   2.372   5.814   1.129
 9515SOL    HW229445   2.230   5.783   1.204
 9516SOL     OW29446   5.633   4.568   5.493
 9516SOL    HW129447   5.573   4.567   5.413
 9516SOL    HW229448   5.640   4.476   5.531
 9517SOL     OW29449   2.277   4.871   0.766
 9517SOL    HW129450   2.355   4.830   0.813
 9517SOL    HW229451   2.299   4.884   0.670
 9518SOL     OW29452   2.260   1.989   0.003
 9518SOL    HW129453   2.280   1.897   6.990
 9518SOL    HW229454   2.312   2.056   6.970
 9519SOL     OW29455   3.813   3.535   4.739
 9519SOL    HW129456   3.822   3.454   4.798
 9519SOL    HW229457   3.854   3.614   4.784
 9520SOL     OW29458   1.588   1.482   3.524
 9520SOL    HW129459   1.660   1.506   3.459
 9520SOL    HW229460   1.582   1.382   3.531
 9521SOL     OW29461   4.858   5.225   1.404
 9521SOL    HW129462   4.777   5.284   1.413
 9521SOL    HW229463   4.925   5.251   1.473
 9522SOL     OW29464   3.234   5.532   1.282
 9522SOL    HW129465   3.245   5.573   1.191
 9522SOL    HW229466   3.189   5.443   1.273
 9523SOL     OW29467   2.565   4.541   5.107
 9523SOL    HW129468   2.577   4.442   5.115
 9523SOL    HW229469   2.647   4.582   5.068
 9524SOL     OW29470   3.650   3.375   1.248
 9524SOL    HW129471   3.638   3.386   1.346
 9524SOL    HW229472   3.565   3.398   1.201
 9525SOL     OW29473   2.497   2.565   5.406
 9525SOL    HW129474   2.398   2.551   5.405
 9525SOL    HW229475   2.522   2.627   5.332
 9526SOL     OW29476   5.852   4.995   1.721
 9526SOL    HW129477   5.769   4.968   1.769
 9526SOL    HW229478   5.907   4.914   1.700
 9527SOL     OW29479   0.701   0.461   4.135
 9527SOL    HW129480   0.727   0.470   4.231
 9527SOL    HW229481   0.643   0.380   4.123
 9528SOL     OW29482   6.839   1.287   0.486
 9528SOL    HW129483   6.842   1.387   0.489
 9528SOL    HW229484   6.756   1.255   0.531
 9529SOL     OW29485   6.573   3.316   5.839
 9529SOL    HW129486   6.529   3.364   5.763
 9529SOL    HW229487   6.672   3.310   5.821
 9530SOL     OW29488   1.362   4.363   2.176
 9530SOL    HW129489   1.418   4.311   2.111
 9530SOL    HW229490   1.303   4.427   2.126
 9531SOL     OW29491   4.354   4.977   2.949
 9531SOL    HW129492   4.454   4.964   2.944
 9531SOL    HW229493   4.309   4.906   2.894
 9532SOL     OW29494   6.258   0.092   1.893
 9532SOL    HW129495   6.168   0.123   1.864
 9532SOL    HW229496   6.277   0.003   1.851
 9533SOL     OW29497   6.920   6.123   5.627
 9533SOL    HW129498   6.920   6.030   5.662
 9533SOL    HW229499   7.014   6.155   5.616
 9534SOL     OW29500   0.400   3.713   4.983
 9534SOL    HW129501   0.343   3.634   4.956
 9534SOL    HW229502   0.455   3.742   4.905
 9535SOL     OW29503   1.936   1.096   6.489
 9535SOL    HW129504   1.951   1.001   6.519
 9535SOL    HW229505   1.912   1.152   6.568
 9536SOL     OW29506   2.509   4.103   5.724
 9536SOL    HW129507   2.525   4.007   5.746
 9536SOL    HW229508   2.447   4.110   5.646
 9537SOL     OW29509   2.884   6.695   3.259
 9537SOL    HW129510   2.820   6.623   3.232
 9537SOL    HW229511   2.851   6.739   3.342
 9538SOL     OW29512   5.921   1.905   3.473
 9538SOL    HW129513   6.006   1.926   3.425
 9538SOL    HW229514   5.898   1.980   3.535
 9539SOL     OW29515   2.876   3.986   5.110
 9539SOL    HW129516   2.880   4.022   5.204
 9539SOL    HW229517   2.804   4.033   5.060
 9540SOL     OW29518   6.133   4.138   4.272
 9540SOL    HW129519   6.081   4.095   4.345
 9540SOL    HW229520   6.075   4.151   4.191
 9541SOL     OW29521   4.229   0.259   5.872
 9541SOL    HW129522   4.224   0.165   5.906
 9541SOL    HW229523   4.145   0.308   5.895
 9542SOL     OW29524   5.248   4.479   4.723
 9542SOL    HW129525   5.150   4.467   4.704
 9542SOL    HW229526   5.260   4.553   4.789
 9543SOL     OW29527   3.759   0.920   5.220
 9543SOL    HW129528   3.856   0.937   5.236
 9543SOL    HW229529   3.705   0.992   5.266
 9544SOL     OW29530   6.995   1.610   3.787
 9544SOL    HW129531   6.948   1.532   3.745
 9544SOL    HW229532   6.936   1.691   3.783
 9545SOL     OW29533   5.943   5.361   4.293
 9545SOL    HW129534   5.889   5.314   4.363
 9545SOL    HW229535   6.035   5.321   4.289
 9546SOL     OW29536   3.695   2.155   5.732
 9546SOL    HW129537   3.634   2.232   5.713
 9546SOL    HW229538   3.692   2.134   5.829
 9547SOL     OW29539   2.021   6.329   4.650
 9547SOL    HW129540   1.924   6.312   4.671
 9547SOL    HW229541   2.077   6.307   4.730
 9548SOL     OW29542   6.593   5.692   6.238
 9548SOL    HW129543   6.499   5.727   6.237
 9548SOL    HW229544   6.657   5.767   6.225
 9549SOL     OW29545   2.811   3.053   0.917
 9549SOL    HW129546   2.803   3.005   1.004
 9549SOL    HW229547   2.906   3.049   0.886
 9550SOL     OW29548   0.778   1.419   0.239
 9550SOL    HW129549   0.856   1.373   0.281
 9550SOL    HW229550   0.788   1.518   0.250
 9551SOL     OW29551   5.962   1.115   4.463
 9551SOL    HW129552   5.963   1.117   4.363
 9551SOL    HW229553   5.947   1.022   4.495
 9552SOL     OW29554   1.648   6.559   3.243
 9552SOL    HW129555   1.557   6.526   3.219
 9552SOL    HW229556   1.670   6.533   3.337
 9553SOL     OW29557   5.796   3.910   6.690
 9553SOL    HW129558   5.747   3.853   6.625
 9553SOL    HW229559   5.885   3.935   6.652
 9554SOL     OW29560   2.380   0.264   1.409
 9554SOL    HW129561   2.451   0.207   1.450
 9554SOL    HW229562   2.344   0.327   1.479
 9555SOL     OW29563   1.068   1.472   2.827
 9555SOL    HW129564   1.061   1.553   2.768
 9555SOL    HW229565   1.083   1.501   2.921
 9556SOL     OW29566   1.673   2.166   1.586
 9556SOL    HW129567   1.686   2.070   1.611
 9556SOL    HW229568   1.673   2.222   1.669
 9557SOL     OW29569   0.279   0.482   2.903
 9557SOL    HW129570   0.292   0.433   2.990
 9557SOL    HW229571   0.260   0.579   2.922
 9558SOL     OW29572   6.190   6.172   4.605
 9558SOL    HW129573   6.288   6.188   4.593
 9558SOL    HW229574   6.138   6.240   4.552
 9559SOL     OW29575   0.668   4.283   0.845
 9559SOL    HW129576   0.696   4.350   0.914
 9559SOL    HW229577   0.647   4.196   0.890
 9560SOL     OW29578   1.437   1.931   3.556
 9560SOL    HW129579   1.419   1.832   3.555
 9560SOL    HW229580   1.352   1.981   3.546
 9561SOL     OW29581   1.640   6.524   0.441
 9561SOL    HW129582   1.663   6.426   0.446
 9561SOL    HW229583   1.685   6.572   0.516
 9562SOL     OW29584   3.423   0.351   5.797
 9562SOL    HW129585   3.420   0.296   5.881
 9562SOL    HW229586   3.487   0.427   5.809
 9563SOL     OW29587   6.553   6.852   0.879
 9563SOL    HW129588   6.576   6.871   0.975
 9563SOL    HW229589   6.536   6.754   0.868
 9564SOL     OW29590   2.937   0.575   0.267
 9564SOL    HW129591   2.890   0.626   0.195
 9564SOL    HW229592   2.985   0.497   0.228
 9565SOL     OW29593   4.026   6.588   4.759
 9565SOL    HW129594   4.074   6.518   4.812
 9565SOL    HW229595   4.073   6.601   4.672
 9566SOL     OW29596   2.802   4.930   0.022
 9566SOL    HW129597   2.753   4.989   6.977
 9566SOL    HW229598   2.853   4.860   6.992
 9567SOL     OW29599   5.809   4.634   6.784
 9567SOL    HW129600   5.827   4.591   6.696
 9567SOL    HW229601   5.819   4.733   6.776
 9568SOL     OW29602   4.579   2.261   6.394
 9568SOL    HW129603   4.568   2.206   6.312
 9568SOL    HW229604   4.544   2.211   6.473
 9569SOL     OW29605   0.140   1.039   2.661
 9569SOL    HW129606   0.073   1.109   2.686
 9569SOL    HW229607   0.153   0.976   2.738
 9570SOL     OW29608   1.180   2.978   2.400
 9570SOL    HW129609   1.194   2.893   2.349
 9570SOL    HW229610   1.094   3.019   2.371
 9571SOL     OW29611   2.794   3.716   6.640
 9571SOL    HW129612   2.702   3.749   6.662
 9571SOL    HW229613   2.839   3.782   6.579
 9572SOL     OW29614   2.017   5.710   1.903
 9572SOL    HW129615   2.084   5.779   1.932
 9572SOL    HW229616   2.036   5.624   1.949
 9573SOL     OW29617   1.384   0.848   6.498
 9573SOL    HW129618   1.408   0.752   6.507
 9573SOL    HW229619   1.360   0.867   6.403
 9574SOL     OW29620   4.100   3.273   4.255
 9574SOL    HW129621   4.188   3.229   4.241
 9574SOL    HW229622   4.027   3.206   4.244
 9575SOL     OW29623   5.820   1.801   0.822
 9575SOL    HW129624   5.806   1.718   0.877
 9575SOL    HW229625   5.830   1.775   0.725
 9576SOL     OW29626   2.440   0.406   2.453
 9576SOL    HW129627   2.346   0.385   2.429
 9576SOL    HW229628   2.497   0.402   2.371
 9577SOL     OW29629   1.406   0.642   4.760
 9577SOL    HW129630   1.329   0.658   4.822
 9577SOL    HW229631   1.390   0.690   4.673
 9578SOL     OW29632   0.667   4.437   3.476
 9578SOL    HW129633   0.646   4.342   3.498
 9578SOL    HW229634   0.678   4.489   3.561
 9579SOL     OW29635   1.821   5.238   2.960
 9579SOL    HW129636   1.783   5.326   2.985
 9579SOL    HW229637   1.915   5.249   2.928
 9580SOL     OW29638   4.329   2.844   1.021
 9580SOL    HW129639   4.405   2.812   1.078
 9580SOL    HW229640   4.260   2.772   1.014
 9581SOL     OW29641   1.033   5.400   6.518
 9581SOL    HW129642   1.088   5.382   6.437
 9581SOL    HW229643   0.936   5.394   6.495
 9582SOL     OW29644   4.858   4.482   4.949
 9582SOL    HW129645   4.787   4.418   4.919
 9582SOL    HW229646   4.948   4.444   4.929
 9583SOL     OW29647   3.624   4.922   1.263
 9583SOL    HW129648   3.558   4.926   1.189
 9583SOL    HW229649   3.709   4.882   1.230
 9584SOL     OW29650   6.835   6.290   0.279
 9584SOL    HW129651   6.771   6.290   0.202
 9584SOL    HW229652   6.923   6.328   0.249
 9585SOL     OW29653   6.208   0.333   3.655
 9585SOL    HW129654   6.128   0.366   3.605
 9585SOL    HW229655   6.261   0.411   3.688
 9586SOL     OW29656   5.510   3.908   2.592
 9586SOL    HW129657   5.523   3.862   2.679
 9586SOL    HW229658   5.594   3.955   2.566
 9587SOL     OW29659   6.591   0.973   2.710
 9587SOL    HW129660   6.532   0.938   2.784
 9587SOL    HW229661   6.535   1.021   2.643
 9588SOL     OW29662   0.191   1.830   2.529
 9588SOL    HW129663   0.274   1.776   2.547
 9588SOL    HW229664   0.213   1.927   2.533
 9589SOL     OW29665   2.665   5.412   5.694
 9589SOL    HW129666   2.644   5.460   5.608
 9589SOL    HW229667   2.606   5.446   5.766
 9590SOL     OW29668   0.542   4.303   2.082
 9590SOL    HW129669   0.462   4.257   2.044
 9590SOL    HW229670   0.602   4.236   2.126
 9591SOL     OW29671   3.171   6.192   6.767
 9591SOL    HW129672   3.146   6.127   6.839
 9591SOL    HW229673   3.132   6.162   6.680
 9592SOL     OW29674   3.791   4.540   1.375
 9592SOL    HW129675   3.747   4.549   1.285
 9592SOL    HW229676   3.747   4.602   1.440
 9593SOL     OW29677   6.667   0.045   4.667
 9593SOL    HW129678   6.576   0.016   4.697
 9593SOL    HW229679   6.728   6.986   4.665
 9594SOL     OW29680   1.324   6.219   2.980
 9594SOL    HW129681   1.356   6.133   3.020
 9594SOL    HW229682   1.305   6.285   3.053
 9595SOL     OW29683   1.748   4.142   5.192
 9595SOL    HW129684   1.777   4.086   5.114
 9595SOL    HW229685   1.706   4.083   5.261
 9596SOL     OW29686   0.315   6.321   0.228
 9596SOL    HW129687   0.352   6.334   0.136
 9596SOL    HW229688   0.299   6.224   0.244
 9597SOL     OW29689   0.429   4.686   0.703
 9597SOL    HW129690   0.356   4.724   0.645
 9597SOL    HW229691   0.489   4.760   0.733
 9598SOL     OW29692   0.875   3.778   5.288
 9598SOL    HW129693   0.792   3.725   5.305
 9598SOL    HW229694   0.955   3.721   5.308
 9599SOL     OW29695   3.457   0.399   5.496
 9599SOL    HW129696   3.458   0.464   5.420
 9599SOL    HW229697   3.548   0.395   5.538
 9600SOL     OW29698   2.555   6.768   0.242
 9600SOL    HW129699   2.573   6.732   0.334
 9600SOL    HW229700   2.458   6.757   0.221
 9601SOL     OW29701   6.236   3.803   6.944
 9601SOL    HW129702   6.222   3.893   6.986
 9601SOL    HW229703   6.148   3.758   6.931
 9602SOL     OW29704   6.631   4.819   6.684
 9602SOL    HW129705   6.612   4.728   6.646
 9602SOL    HW229706   6.719   4.819   6.730
 9603SOL     OW29707   3.501   1.170   4.566
 9603SOL    HW129708   3.413   1.143   4.528
 9603SOL    HW229709   3.487   1.216   4.654
 9604SOL     OW29710   4.843   0.349   0.561
 9604SOL    HW129711   4.786   0.361   0.642
 9604SOL    HW229712   4.921   0.412   0.565
 9605SOL     OW29713   0.491   4.909   4.734
 9605SOL    HW129714   0.486   4.844   4.659
 9605SOL    HW229715   0.575   4.963   4.726
 9606SOL     OW29716   1.790   6.202   5.158
 9606SOL    HW129717   1.753   6.140   5.089
 9606SOL    HW229718   1.772   6.164   5.249
 9607SOL     OW29719   1.343   2.289   1.908
 9607SOL    HW129720   1.324   2.384   1.932
 9607SOL    HW229721   1.432   2.263   1.945
 9608SOL     OW29722   6.250   6.336   1.571
 9608SOL    HW129723   6.322   6.353   1.638
 9608SOL    HW229724   6.288   6.339   1.479
 9609SOL     OW29725   1.800   4.117   5.878
 9609SOL    HW129726   1.817   4.021   5.858
 9609SOL    HW229727   1.725   4.151   5.821
 9610SOL     OW29728   1.564   4.683   3.963
 9610SOL    HW129729   1.621   4.695   4.044
 9610SOL    HW229730   1.618   4.643   3.889
 9611SOL     OW29731   0.460   0.028   0.055
 9611SOL    HW129732   0.426   0.008   6.984
 9611SOL    HW229733   0.384   0.052   0.115
 9612SOL     OW29734   6.716   3.165   1.028
 9612SOL    HW129735   6.657   3.165   0.948
 9612SOL    HW229736   6.668   3.209   1.104
 9613SOL     OW29737   3.891   6.680   3.360
 9613SOL    HW129738   3.856   6.717   3.446
 9613SOL    HW229739   3.963   6.741   3.325
 9614SOL     OW29740   3.866   2.669   1.108
 9614SOL    HW129741   3.790   2.661   1.044
 9614SOL    HW229742   3.946   2.622   1.070
 9615SOL     OW29743   0.968   6.949   2.252
 9615SOL    HW129744   1.046   6.969   2.312
 9615SOL    HW229745   0.895   6.906   2.305
 9616SOL     OW29746   4.553   3.524   0.525
 9616SOL    HW129747   4.578   3.479   0.440
 9616SOL    HW229748   4.456   3.548   0.523
 9617SOL     OW29749   0.935   3.638   4.550
 9617SOL    HW129750   0.881   3.718   4.525
 9617SOL    HW229751   0.935   3.573   4.475
 9618SOL     OW29752   4.805   0.253   6.352
 9618SOL    HW129753   4.815   0.246   6.451
 9618SOL    HW229754   4.892   0.231   6.308
 9619SOL     OW29755   0.972   0.441   0.326
 9619SOL    HW129756   0.932   0.385   0.398
 9619SOL    HW229757   1.065   0.411   0.307
 9620SOL     OW29758   5.596   1.654   6.690
 9620SOL    HW129759   5.641   1.571   6.725
 9620SOL    HW229760   5.650   1.734   6.715
 9621SOL     OW29761   1.734   1.509   2.940
 9621SOL    HW129762   1.667   1.514   2.867
 9621SOL    HW229763   1.779   1.419   2.938
 9622SOL     OW29764   6.287   1.196   6.902
 9622SOL    HW129765   6.292   1.245   6.815
 9622SOL    HW229766   6.199   1.215   6.945
 9623SOL     OW29767   4.016   5.386   5.587
 9623SOL    HW129768   4.005   5.332   5.503
 9623SOL    HW229769   4.080   5.461   5.571
 9624SOL     OW29770   5.576   4.141   3.733
 9624SOL    HW129771   5.505   4.109   3.670
 9624SOL    HW229772   5.550   4.229   3.772
 9625SOL     OW29773   5.456   4.567   6.792
 9625SOL    HW129774   5.437   4.588   6.888
 9625SOL    HW229775   5.379   4.516   6.753
 9626SOL     OW29776   1.952   5.883   5.845
 9626SOL    HW129777   1.906   5.971   5.857
 9626SOL    HW229778   1.907   5.831   5.773
 9627SOL     OW29779   6.902   4.122   4.506
 9627SOL    HW129780   6.929   4.048   4.443
 9627SOL    HW229781   6.896   4.085   4.599
 9628SOL     OW29782   6.116   4.354   0.433
 9628SOL    HW129783   6.120   4.341   0.532
 9628SOL    HW229784   6.209   4.359   0.396
 9629SOL     OW29785   6.548   5.928   2.422
 9629SOL    HW129786   6.577   5.896   2.513
 9629SOL    HW229787   6.615   5.898   2.354
 9630SOL     OW29788   6.618   6.109   5.613
 9630SOL    HW129789   6.602   6.118   5.712
 9630SOL    HW229790   6.716   6.110   5.594
 9631SOL     OW29791   4.814   1.803   0.739
 9631SOL    HW129792   4.878   1.854   0.797
 9631SOL    HW229793   4.841   1.810   0.644
 9632SOL     OW29794   2.362   5.736   1.633
 9632SOL    HW129795   2.297   5.660   1.640
 9632SOL    HW229796   2.434   5.725   1.702
 9633SOL     OW29797   4.035   4.197   0.425
 9633SOL    HW129798   3.959   4.225   0.482
 9633SOL    HW229799   4.011   4.208   0.328
 9634SOL     OW29800   0.042   6.072   3.783
 9634SOL    HW129801   0.076   6.113   3.868
 9634SOL    HW229802   0.105   6.001   3.753
 9635SOL     OW29803   2.112   4.365   5.281
 9635SOL    HW129804   2.158   4.348   5.368
 9635SOL    HW229805   2.174   4.341   5.206
 9636SOL     OW29806   4.786   1.682   6.204
 9636SOL    HW129807   4.748   1.634   6.125
 9636SOL    HW229808   4.713   1.732   6.251
 9637SOL     OW29809   3.728   2.789   0.738
 9637SOL    HW129810   3.708   2.883   0.708
 9637SOL    HW229811   3.759   2.735   0.659
 9638SOL     OW29812   0.246   3.175   5.611
 9638SOL    HW129813   0.261   3.142   5.518
 9638SOL    HW229814   0.167   3.128   5.650
 9639SOL     OW29815   4.367   2.305   2.183
 9639SOL    HW129816   4.356   2.207   2.168
 9639SOL    HW229817   4.362   2.324   2.281
 9640SOL     OW29818   3.273   0.821   2.675
 9640SOL    HW129819   3.293   0.848   2.770
 9640SOL    HW229820   3.198   0.877   2.641
 9641SOL     OW29821   5.725   5.484   1.524
 9641SOL    HW129822   5.674   5.408   1.564
 9641SOL    HW229823   5.662   5.558   1.500
 9642SOL     OW29824   1.377   5.841   4.601
 9642SOL    HW129825   1.326   5.920   4.567
 9642SOL    HW229826   1.445   5.813   4.533
 9643SOL     OW29827   4.967   4.306   3.587
 9643SOL    HW129828   4.939   4.383   3.530
 9643SOL    HW229829   5.059   4.321   3.621
 9644SOL     OW29830   1.085   5.773   5.657
 9644SOL    HW129831   1.161   5.829   5.690
 9644SOL    HW229832   1.089   5.767   5.557
 9645SOL     OW29833   3.003   4.829   4.025
 9645SOL    HW129834   2.965   4.907   4.075
 9645SOL    HW229835   2.951   4.815   3.941
 9646SOL     OW29836   2.730   4.993   1.826
 9646SOL    HW129837   2.703   4.898   1.812
 9646SOL    HW229838   2.674   5.034   1.897
 9647SOL     OW29839   0.032   6.223   2.300
 9647SOL    HW129840   0.070   6.236   2.208
 9647SOL    HW229841   0.100   6.252   2.368
 9648SOL     OW29842   3.848   2.634   6.766
 9648SOL    HW129843   3.782   2.619   6.692
 9648SOL    HW229844   3.936   2.594   6.741
 9649SOL     OW29845   2.122   4.266   6.974
 9649SOL    HW129846   2.077   4.355   6.970
 9649SOL    HW229847   2.083   4.206   6.904
 9650SOL     OW29848   4.728   4.942   3.305
 9650SOL    HW129849   4.653   4.967   3.367
 9650SOL    HW229850   4.746   5.017   3.242
 9651SOL     OW29851   5.393   1.604   1.008
 9651SOL    HW129852   5.374   1.515   1.049
 9651SOL    HW229853   5.315   1.665   1.023
 9652SOL     OW29854   1.448   4.811   1.971
 9652SOL    HW129855   1.412   4.755   2.046
 9652SOL    HW229856   1.472   4.752   1.894
 9653SOL     OW29857   5.124   5.400   4.878
 9653SOL    HW129858   5.218   5.429   4.895
 9653SOL    HW229859   5.123   5.333   4.804
 9654SOL     OW29860   3.328   2.987   3.041
 9654SOL    HW129861   3.229   3.002   3.041
 9654SOL    HW229862   3.375   3.074   3.056
 9655SOL     OW29863   0.200   1.649   0.358
 9655SOL    HW129864   0.261   1.708   0.411
 9655SOL    HW229865   0.174   1.570   0.414
 9656SOL     OW29866   4.164   2.611   1.010
 9656SOL    HW129867   4.151   2.632   0.913
 9656SOL    HW229868   4.177   2.512   1.021
 9657SOL     OW29869   5.273   3.604   2.863
 9657SOL    HW129870   5.208   3.537   2.827
 9657SOL    HW229871   5.348   3.616   2.799
 9658SOL     OW29872   4.905   1.708   2.387
 9658SOL    HW129873   4.974   1.779   2.376
 9658SOL    HW229874   4.949   1.620   2.407
 9659SOL     OW29875   0.436   3.563   6.861
 9659SOL    HW129876   0.508   3.545   6.928
 9659SOL    HW229877   0.477   3.573   6.770
 9660SOL     OW29878   0.632   6.961   2.988
 9660SOL    HW129879   0.718   6.971   3.038
 9660SOL    HW229880   0.601   6.867   2.995
 9661SOL     OW29881   3.774   6.194   1.408
 9661SOL    HW129882   3.839   6.229   1.476
 9661SOL    HW229883   3.704   6.139   1.455
 9662SOL     OW29884   3.875   3.035   5.845
 9662SOL    HW129885   3.817   3.048   5.926
 9662SOL    HW229886   3.875   2.938   5.820
 9663SOL     OW29887   6.228   6.311   2.003
 9663SOL    HW129888   6.161   6.379   2.032
 9663SOL    HW229889   6.319   6.340   2.031
 9664SOL     OW29890   5.794   5.138   4.531
 9664SOL    HW129891   5.728   5.166   4.601
 9664SOL    HW229892   5.758   5.061   4.479
 9665SOL     OW29893   6.053   6.255   6.416
 9665SOL    HW129894   5.960   6.227   6.394
 9665SOL    HW229895   6.055   6.353   6.432
 9666SOL     OW29896   6.613   4.056   2.193
 9666SOL    HW129897   6.634   3.989   2.122
 9666SOL    HW229898   6.533   4.109   2.166
 9667SOL     OW29899   4.158   3.259   6.751
 9667SOL    HW129900   4.208   3.194   6.694
 9667SOL    HW229901   4.072   3.283   6.706
 9668SOL     OW29902   0.200   0.746   6.198
 9668SOL    HW129903   0.203   0.662   6.253
 9668SOL    HW229904   0.234   0.823   6.252
 9669SOL     OW29905   2.104   0.211   1.738
 9669SOL    HW129906   2.155   0.150   1.799
 9669SOL    HW229907   2.027   0.251   1.788
 9670SOL     OW29908   0.104   4.945   5.772
 9670SOL    HW129909   0.186   4.957   5.827
 9670SOL    HW229910   0.050   5.029   5.773
 9671SOL     OW29911   0.148   4.297   6.866
 9671SOL    HW129912   0.096   4.211   6.872
 9671SOL    HW229913   0.245   4.276   6.861
 9672SOL     OW29914   1.512   5.429   3.323
 9672SOL    HW129915   1.420   5.394   3.343
 9672SOL    HW229916   1.571   5.417   3.402
 9673SOL     OW29917   4.243   3.669   1.499
 9673SOL    HW129918   4.269   3.619   1.417
 9673SOL    HW229919   4.195   3.753   1.473
 9674SOL     OW29920   3.218   0.037   3.505
 9674SOL    HW129921   3.277   6.981   3.533
 9674SOL    HW229922   3.172   0.013   3.419
 9675SOL     OW29923   5.615   2.589   6.588
 9675SOL    HW129924   5.668   2.671   6.563
 9675SOL    HW229925   5.678   2.517   6.618
 9676SOL     OW29926   1.531   3.245   5.717
 9676SOL    HW129927   1.618   3.226   5.670
 9676SOL    HW229928   1.532   3.339   5.752
 9677SOL     OW29929   6.854   5.567   4.701
 9677SOL    HW129930   6.860   5.582   4.602
 9677SOL    HW229931   6.767   5.523   4.723
 9678SOL     OW29932   2.949   3.805   3.839
 9678SOL    HW129933   2.965   3.879   3.904
 9678SOL    HW229934   2.908   3.727   3.886
 9679SOL     OW29935   3.255   1.171   3.346
 9679SOL    HW129936   3.165   1.137   3.375
 9679SOL    HW229937   3.246   1.266   3.317
 9680SOL     OW29938   4.455   0.829   3.296
 9680SOL    HW129939   4.549   0.816   3.326
 9680SOL    HW229940   4.448   0.911   3.241
 9681SOL     OW29941   2.981   1.684   0.833
 9681SOL    HW129942   3.030   1.666   0.919
 9681SOL    HW229943   3.046   1.678   0.757
 9682SOL     OW29944   4.658   4.277   3.664
 9682SOL    HW129945   4.609   4.287   3.751
 9682SOL    HW229946   4.601   4.314   3.590
 9683SOL     OW29947   3.344   6.383   1.918
 9683SOL    HW129948   3.287   6.464   1.904
 9683SOL    HW229949   3.319   6.313   1.851
 9684SOL     OW29950   0.663   3.245   6.187
 9684SOL    HW129951   0.739   3.265   6.250
 9684SOL    HW229952   0.630   3.330   6.147
 9685SOL     OW29953   3.758   4.257   0.972
 9685SOL    HW129954   3.706   4.227   1.052
 9685SOL    HW229955   3.851   4.221   0.977
 9686SOL     OW29956   0.460   2.968   6.741
 9686SOL    HW129957   0.489   2.910   6.816
 9686SOL    HW229958   0.388   3.030   6.773
 9687SOL     OW29959   1.146   0.820   4.041
 9687SOL    HW129960   1.104   0.817   3.951
 9687SOL    HW229961   1.095   0.761   4.104
 9688SOL     OW29962   1.161   2.882   1.348
 9688SOL    HW129963   1.095   2.836   1.407
 9688SOL    HW229964   1.138   2.979   1.342
 9689SOL     OW29965   0.874   4.413   6.199
 9689SOL    HW129966   0.858   4.342   6.267
 9689SOL    HW229967   0.962   4.397   6.153
 9690SOL     OW29968   6.164   5.513   6.468
 9690SOL    HW129969   6.112   5.599   6.465
 9690SOL    HW229970   6.102   5.436   6.450
 9691SOL     OW29971   3.552   5.179   1.357
 9691SOL    HW129972   3.526   5.159   1.451
 9691SOL    HW229973   3.603   5.102   1.319
 9692SOL     OW29974   4.112   6.128   2.049
 9692SOL    HW129975   4.094   6.037   2.010
 9692SOL    HW229976   4.050   6.194   2.007
 9693SOL     OW29977   5.338   4.136   2.650
 9693SOL    HW129978   5.304   4.170   2.562
 9693SOL    HW229979   5.385   4.050   2.636
 9694SOL     OW29980   3.023   1.711   1.158
 9694SOL    HW129981   3.002   1.788   1.219
 9694SOL    HW229982   3.047   1.631   1.213
 9695SOL     OW29983   0.100   3.131   3.183
 9695SOL    HW129984   0.153   3.177   3.111
 9695SOL    HW229985   0.010   3.106   3.146
 9696SOL     OW29986   5.355   3.006   1.444
 9696SOL    HW129987   5.451   3.015   1.418
 9696SOL    HW229988   5.298   3.015   1.362
 9697SOL     OW29989   0.521   5.091   6.883
 9697SOL    HW129990   0.535   5.062   6.789
 9697SOL    HW229991   0.546   5.017   6.945
 9698SOL     OW29992   5.342   2.065   5.986
 9698SOL    HW129993   5.283   2.113   5.921
 9698SOL    HW229994   5.411   2.013   5.937
 9699SOL     OW29995   6.393   5.679   6.491
 9699SOL    HW129996   6.310   5.628   6.512
 9699SOL    HW229997   6.387   5.716   6.398
 9700SOL     OW29998   4.661   5.607   5.053
 9700SOL    HW129999   4.565   5.634   5.050
 9700SOL    HW230000   4.669   5.509   5.031
 9701SOL     OW30001   4.177   4.767   5.736
 9701SOL    HW130002   4.193   4.680   5.783
 9701SOL    HW230003   4.263   4.799   5.695
 9702SOL     OW30004   4.464   0.831   6.746
 9702SOL    HW130005   4.484   0.797   6.838
 9702SOL    HW230006   4.372   0.803   6.720
 9703SOL     OW30007   4.807   3.903   3.750
 9703SOL    HW130008   4.767   3.828   3.697
 9703SOL    HW230009   4.855   3.866   3.830
 9704SOL     OW30010   3.627   6.873   1.665
 9704SOL    HW130011   3.653   6.824   1.749
 9704SOL    HW230012   3.677   6.835   1.587
 9705SOL     OW30013   5.637   4.290   5.565
 9705SOL    HW130014   5.547   4.265   5.599
 9705SOL    HW230015   5.705   4.224   5.597
 9706SOL     OW30016   2.347   2.880   0.967
 9706SOL    HW130017   2.256   2.921   0.969
 9706SOL    HW230018   2.415   2.949   0.994
 9707SOL     OW30019   6.060   4.489   2.264
 9707SOL    HW130020   5.978   4.546   2.264
 9707SOL    HW230021   6.132   4.534   2.211
 9708SOL     OW30022   1.440   1.769   4.099
 9708SOL    HW130023   1.386   1.694   4.060
 9708SOL    HW230024   1.432   1.767   4.198
 9709SOL     OW30025   5.293   6.083   2.962
 9709SOL    HW130026   5.293   6.104   2.864
 9709SOL    HW230027   5.246   6.155   3.012
 9710SOL     OW30028   6.904   1.430   1.429
 9710SOL    HW130029   6.893   1.452   1.332
 9710SOL    HW230030   6.826   1.465   1.481
 9711SOL     OW30031   3.901   5.324   6.123
 9711SOL    HW130032   3.883   5.226   6.116
 9711SOL    HW230033   3.859   5.371   6.046
 9712SOL     OW30034   5.489   4.050   6.137
 9712SOL    HW130035   5.501   4.040   6.236
 9712SOL    HW230036   5.572   4.087   6.096
 9713SOL     OW30037   1.670   4.372   3.211
 9713SOL    HW130038   1.657   4.441   3.140
 9713SOL    HW230039   1.610   4.394   3.289
 9714SOL     OW30040   4.359   6.218   6.560
 9714SOL    HW130041   4.316   6.212   6.650
 9714SOL    HW230042   4.315   6.289   6.506
 9715SOL     OW30043   5.806   4.372   0.238
 9715SOL    HW130044   5.733   4.429   0.200
 9715SOL    HW230045   5.845   4.316   0.166
 9716SOL     OW30046   3.623   4.857   6.762
 9716SOL    HW130047   3.697   4.790   6.758
 9716SOL    HW230048   3.536   4.811   6.779
 9717SOL     OW30049   5.552   6.061   5.851
 9717SOL    HW130050   5.454   6.051   5.836
 9717SOL    HW230051   5.593   6.115   5.777
 9718SOL     OW30052   5.025   3.366   0.739
 9718SOL    HW130053   5.108   3.419   0.758
 9718SOL    HW230054   4.946   3.427   0.738
 9719SOL     OW30055   6.523   1.029   5.656
 9719SOL    HW130056   6.573   1.096   5.602
 9719SOL    HW230057   6.424   1.044   5.645
 9720SOL     OW30058   0.454   5.175   2.262
 9720SOL    HW130059   0.469   5.272   2.283
 9720SOL    HW230060   0.358   5.152   2.278
 9721SOL     OW30061   0.402   1.849   0.486
 9721SOL    HW130062   0.476   1.915   0.494
 9721SOL    HW230063   0.315   1.898   0.478
 9722SOL     OW30064   4.361   0.904   4.724
 9722SOL    HW130065   4.355   0.952   4.637
 9722SOL    HW230066   4.412   0.959   4.790
 9723SOL     OW30067   3.123   6.756   3.076
 9723SOL    HW130068   3.031   6.780   3.044
 9723SOL    HW230069   3.120   6.669   3.124
 9724SOL     OW30070   1.219   4.357   0.234
 9724SOL    HW130071   1.166   4.428   0.188
 9724SOL    HW230072   1.230   4.382   0.331
 9725SOL     OW30073   5.047   5.344   5.756
 9725SOL    HW130074   5.033   5.273   5.687
 9725SOL    HW230075   5.036   5.434   5.714
 9726SOL     OW30076   5.241   1.467   4.081
 9726SOL    HW130077   5.180   1.533   4.126
 9726SOL    HW230078   5.214   1.374   4.106
 9727SOL     OW30079   1.180   2.835   6.994
 9727SOL    HW130080   1.156   2.814   0.068
 9727SOL    HW230081   1.159   2.757   6.935
 9728SOL     OW30082   1.387   0.109   5.494
 9728SOL    HW130083   1.411   0.013   5.478
 9728SOL    HW230084   1.376   0.155   5.406
 9729SOL     OW30085   1.283   4.672   3.208
 9729SOL    HW130086   1.340   4.715   3.278
 9729SOL    HW230087   1.333   4.671   3.121
 9730SOL     OW30088   1.341   4.137   3.767
 9730SOL    HW130089   1.431   4.125   3.808
 9730SOL    HW230090   1.326   4.068   3.697
 9731SOL     OW30091   5.092   4.408   1.168
 9731SOL    HW130092   5.099   4.308   1.175
 9731SOL    HW230093   5.035   4.443   1.242
 9732SOL     OW30094   6.787   5.369   2.394
 9732SOL    HW130095   6.710   5.387   2.333
 9732SOL    HW230096   6.778   5.278   2.434
 9733SOL     OW30097   5.688   5.235   0.080
 9733SOL    HW130098   5.738   5.149   0.069
 9733SOL    HW230099   5.749   5.312   0.064
 9734SOL     OW30100   6.487   1.928   0.802
 9734SOL    HW130101   6.539   1.908   0.719
 9734SOL    HW230102   6.416   1.858   0.815
 9735SOL     OW30103   2.089   3.720   3.746
 9735SOL    HW130104   2.152   3.645   3.768
 9735SOL    HW230105   2.002   3.682   3.715
 9736SOL     OW30106   6.091   1.802   6.286
 9736SOL    HW130107   6.010   1.834   6.336
 9736SOL    HW230108   6.173   1.822   6.340
 9737SOL     OW30109   5.703   3.008   3.330
 9737SOL    HW130110   5.760   2.926   3.333
 9737SOL    HW230111   5.698   3.048   3.422
 9738SOL     OW30112   2.191   0.580   0.346
 9738SOL    HW130113   2.240   0.501   0.383
 9738SOL    HW230114   2.215   0.662   0.398
 9739SOL     OW30115   5.694   5.116   1.403
 9739SOL    HW130116   5.674   5.163   1.318
 9739SOL    HW230117   5.637   5.154   1.477
 9740SOL     OW30118   6.904   1.406   3.627
 9740SOL    HW130119   6.892   1.483   3.565
 9740SOL    HW230120   6.956   1.334   3.581
 9741SOL     OW30121   3.981   1.609   2.796
 9741SOL    HW130122   3.908   1.674   2.819
 9741SOL    HW230123   4.023   1.575   2.881
 9742SOL     OW30124   4.923   1.178   0.633
 9742SOL    HW130125   4.945   1.119   0.555
 9742SOL    HW230126   4.975   1.263   0.625
 9743SOL     OW30127   6.574   3.044   4.725
 9743SOL    HW130128   6.565   3.070   4.821
 9743SOL    HW230129   6.491   2.997   4.696
 9744SOL     OW30130   2.080   6.943   2.108
 9744SOL    HW130131   2.065   0.006   2.162
 9744SOL    HW230132   2.076   6.863   2.169
 9745SOL     OW30133   5.517   2.542   6.312
 9745SOL    HW130134   5.548   2.562   6.405
 9745SOL    HW230135   5.482   2.448   6.308
 9746SOL     OW30136   6.351   0.390   5.184
 9746SOL    HW130137   6.257   0.407   5.212
 9746SOL    HW230138   6.359   0.296   5.148
 9747SOL     OW30139   2.601   1.055   1.736
 9747SOL    HW130140   2.636   1.106   1.657
 9747SOL    HW230141   2.648   0.967   1.743
 9748SOL     OW30142   0.109   0.887   3.393
 9748SOL    HW130143   0.047   0.824   3.440
 9748SOL    HW230144   0.070   0.913   3.305
 9749SOL     OW30145   2.708   0.458   4.374
 9749SOL    HW130146   2.797   0.493   4.403
 9749SOL    HW230147   2.690   0.370   4.419
 9750SOL     OW30148   5.844   3.974   3.032
 9750SOL    HW130149   5.825   3.910   2.958
 9750SOL    HW230150   5.770   3.971   3.099
 9751SOL     OW30151   2.054   1.203   0.420
 9751SOL    HW130152   2.093   1.171   0.506
 9751SOL    HW230153   2.005   1.289   0.437
 9752SOL     OW30154   4.367   2.264   5.036
 9752SOL    HW130155   4.390   2.246   4.940
 9752SOL    HW230156   4.329   2.356   5.044
 9753SOL     OW30157   0.005   5.466   6.131
 9753SOL    HW130158   0.079   5.402   6.113
 9753SOL    HW230159   0.043   5.552   6.165
 9754SOL     OW30160   2.123   0.675   0.105
 9754SOL    HW130161   2.034   0.691   0.147
 9754SOL    HW230162   2.185   0.635   0.173
 9755SOL     OW30163   3.707   3.697   4.491
 9755SOL    HW130164   3.644   3.649   4.552
 9755SOL    HW230165   3.799   3.695   4.531
 9756SOL     OW30166   5.804   3.416   0.107
 9756SOL    HW130167   5.895   3.449   0.131
 9756SOL    HW230168   5.803   3.316   0.110
 9757SOL     OW30169   5.787   3.834   3.460
 9757SOL    HW130170   5.723   3.769   3.420
 9757SOL    HW230171   5.738   3.915   3.491
 9758SOL     OW30172   2.712   0.244   6.730
 9758SOL    HW130173   2.725   0.175   6.801
 9758SOL    HW230174   2.798   0.292   6.714
 9759SOL     OW30175   1.452   0.229   0.166
 9759SOL    HW130176   1.410   0.242   0.076
 9759SOL    HW230177   1.540   0.276   0.168
 9760SOL     OW30178   5.072   2.851   5.416
 9760SOL    HW130179   5.126   2.934   5.405
 9760SOL    HW230180   4.979   2.866   5.382
 9761SOL     OW30181   6.680   1.335   2.214
 9761SOL    HW130182   6.713   1.299   2.301
 9761SOL    HW230183   6.624   1.417   2.230
 9762SOL     OW30184   3.458   1.376   4.369
 9762SOL    HW130185   3.482   1.298   4.427
 9762SOL    HW230186   3.532   1.394   4.304
 9763SOL     OW30187   4.740   1.828   2.189
 9763SOL    HW130188   4.793   1.781   2.260
 9763SOL    HW230189   4.709   1.916   2.224
 9764SOL     OW30190   0.232   2.788   3.268
 9764SOL    HW130191   0.267   2.835   3.186
 9764SOL    HW230192   0.150   2.737   3.244
 9765SOL     OW30193   6.665   0.186   3.342
 9765SOL    HW130194   6.679   0.090   3.321
 9765SOL    HW230195   6.633   0.195   3.437
 9766SOL     OW30196   2.606   6.801   2.318
 9766SOL    HW130197   2.598   6.772   2.413
 9766SOL    HW230198   2.703   6.813   2.295
 9767SOL     OW30199   4.022   0.951   5.229
 9767SOL    HW130200   4.070   0.945   5.317
 9767SOL    HW230201   4.087   0.936   5.155
 9768SOL     OW30202   5.998   1.733   2.278
 9768SOL    HW130203   5.951   1.771   2.357
 9768SOL    HW230204   5.934   1.726   2.201
 9769SOL     OW30205   3.855   1.332   3.163
 9769SOL    HW130206   3.940   1.362   3.207
 9769SOL    HW230207   3.875   1.260   3.096
 9770SOL     OW30208   4.531   0.862   6.445
 9770SOL    HW130209   4.531   0.889   6.541
 9770SOL    HW230210   4.582   0.929   6.391
 9771SOL     OW30211   2.716   6.340   0.228
 9771SOL    HW130212   2.733   6.359   0.131
 9771SOL    HW230213   2.789   6.381   0.283
 9772SOL     OW30214   2.111   6.235   1.771
 9772SOL    HW130215   2.014   6.259   1.763
 9772SOL    HW230216   2.163   6.286   1.703
 9773SOL     OW30217   4.870   5.687   4.046
 9773SOL    HW130218   4.911   5.606   4.089
 9773SOL    HW230219   4.864   5.673   3.947
 9774SOL     OW30220   0.406   5.169   1.797
 9774SOL    HW130221   0.429   5.079   1.760
 9774SOL    HW230222   0.441   5.177   1.891
 9775SOL     OW30223   2.529   0.743   3.468
 9775SOL    HW130224   2.475   0.666   3.434
 9775SOL    HW230225   2.616   0.709   3.503
 9776SOL     OW30226   1.080   4.522   4.837
 9776SOL    HW130227   1.115   4.515   4.930
 9776SOL    HW230228   1.077   4.431   4.796
 9777SOL     OW30229   6.680   5.772   0.047
 9777SOL    HW130230   6.613   5.770   6.993
 9777SOL    HW230231   6.767   5.810   0.013
 9778SOL     OW30232   0.014   0.871   4.239
 9778SOL    HW130233   7.007   0.903   4.148
 9778SOL    HW230234   0.023   0.772   4.239
 9779SOL     OW30235   1.134   1.425   4.331
 9779SOL    HW130236   1.104   1.331   4.348
 9779SOL    HW230237   1.227   1.423   4.294
 9780SOL     OW30238   2.240   2.417   1.238
 9780SOL    HW130239   2.277   2.328   1.213
 9780SOL    HW230240   2.314   2.482   1.252
 9781SOL     OW30241   2.144   3.634   4.334
 9781SOL    HW130242   2.135   3.660   4.430
 9781SOL    HW230243   2.133   3.535   4.325
 9782SOL     OW30244   0.301   1.182   1.063
 9782SOL    HW130245   0.243   1.240   1.121
 9782SOL    HW230246   0.248   1.146   0.987
 9783SOL     OW30247   3.972   2.150   2.883
 9783SOL    HW130248   3.898   2.172   2.946
 9783SOL    HW230249   3.935   2.103   2.803
 9784SOL     OW30250   3.285   1.516   4.925
 9784SOL    HW130251   3.203   1.491   4.875
 9784SOL    HW230252   3.263   1.532   5.021
 9785SOL     OW30253   0.745   2.497   6.220
 9785SOL    HW130254   0.725   2.414   6.168
 9785SOL    HW230255   0.831   2.537   6.187
 9786SOL     OW30256   2.055   4.100   0.388
 9786SOL    HW130257   2.090   4.069   0.477
 9786SOL    HW230258   1.955   4.092   0.388
 9787SOL     OW30259   4.064   3.857   1.883
 9787SOL    HW130260   4.089   3.760   1.888
 9787SOL    HW230261   4.138   3.908   1.838
 9788SOL     OW30262   0.872   0.964   3.559
 9788SOL    HW130263   0.818   0.882   3.539
 9788SOL    HW230264   0.868   1.026   3.481
 9789SOL     OW30265   1.881   5.301   1.019
 9789SOL    HW130266   1.947   5.331   1.088
 9789SOL    HW230267   1.846   5.380   0.970
 9790SOL     OW30268   6.630   4.489   6.841
 9790SOL    HW130269   6.583   4.490   6.930
 9790SOL    HW230270   6.707   4.553   6.844
 9791SOL     OW30271   0.423   1.668   2.167
 9791SOL    HW130272   0.510   1.621   2.147
 9791SOL    HW230273   0.379   1.693   2.080
 9792SOL     OW30274   4.382   4.933   0.454
 9792SOL    HW130275   4.402   4.839   0.479
 9792SOL    HW230276   4.284   4.950   0.462
 9793SOL     OW30277   4.129   6.353   2.727
 9793SOL    HW130278   4.102   6.274   2.672
 9793SOL    HW230279   4.050   6.412   2.743
 9794SOL     OW30280   0.144   4.487   0.113
 9794SOL    HW130281   0.131   4.392   0.084
 9794SOL    HW230282   0.158   4.491   0.212
 9795SOL     OW30283   2.281   1.562   4.336
 9795SOL    HW130284   2.232   1.578   4.250
 9795SOL    HW230285   2.219   1.518   4.402
 9796SOL     OW30286   3.445   2.705   1.573
 9796SOL    HW130287   3.445   2.751   1.661
 9796SOL    HW230288   3.531   2.725   1.525
 9797SOL     OW30289   2.454   5.602   0.281
 9797SOL    HW130290   2.544   5.618   0.240
 9797SOL    HW230291   2.395   5.682   0.265
 9798SOL     OW30292   2.532   0.652   1.857
 9798SOL    HW130293   2.582   0.581   1.906
 9798SOL    HW230294   2.596   0.706   1.802
 9799SOL     OW30295   3.170   3.077   4.698
 9799SOL    HW130296   3.134   2.993   4.658
 9799SOL    HW230297   3.102   3.149   4.691
 9800SOL     OW30298   3.663   5.941   4.956
 9800SOL    HW130299   3.568   5.940   4.989
 9800SOL    HW230300   3.721   5.889   5.019
 9801SOL     OW30301   4.763   4.081   0.065
 9801SOL    HW130302   4.711   4.077   0.151
 9801SOL    HW230303   4.728   4.012   0.002
 9802SOL     OW30304   0.118   3.927   1.344
 9802SOL    HW130305   0.100   4.013   1.391
 9802SOL    HW230306   0.033   3.890   1.307
 9803SOL     OW30307   1.021   2.400   6.725
 9803SOL    HW130308   1.041   2.303   6.712
 9803SOL    HW230309   0.922   2.413   6.722
 9804SOL     OW30310   1.982   6.780   2.499
 9804SOL    HW130311   1.929   6.705   2.540
 9804SOL    HW230312   1.920   6.848   2.462
 9805SOL     OW30313   1.796   6.855   3.812
 9805SOL    HW130314   1.859   6.932   3.801
 9805SOL    HW230315   1.816   6.809   3.899
 9806SOL     OW30316   1.190   0.661   0.172
 9806SOL    HW130317   1.191   0.563   0.191
 9806SOL    HW230318   1.108   0.701   0.211
 9807SOL     OW30319   2.835   4.602   0.272
 9807SOL    HW130320   2.796   4.548   0.198
 9807SOL    HW230321   2.927   4.633   0.246
 9808SOL     OW30322   4.233   0.313   5.452
 9808SOL    HW130323   4.292   0.282   5.377
 9808SOL    HW230324   4.270   0.280   5.539
 9809SOL     OW30325   1.358   2.381   5.989
 9809SOL    HW130326   1.268   2.403   6.028
 9809SOL    HW230327   1.389   2.293   6.024
 9810SOL     OW30328   1.947   2.655   3.753
 9810SOL    HW130329   1.874   2.590   3.731
 9810SOL    HW230330   2.026   2.606   3.788
 9811SOL     OW30331   5.362   4.910   3.191
 9811SOL    HW130332   5.273   4.953   3.209
 9811SOL    HW230333   5.366   4.821   3.237
 9812SOL     OW30334   3.269   2.096   5.751
 9812SOL    HW130335   3.257   2.093   5.652
 9812SOL    HW230336   3.181   2.079   5.795
 9813SOL     OW30337   5.646   1.438   0.690
 9813SOL    HW130338   5.586   1.376   0.740
 9813SOL    HW230339   5.697   1.387   0.621
 9814SOL     OW30340   6.944   0.036   0.337
 9814SOL    HW130341   6.967   0.133   0.335
 9814SOL    HW230342   0.006   7.002   0.317
 9815SOL     OW30343   5.253   4.376   3.432
 9815SOL    HW130344   5.257   4.299   3.369
 9815SOL    HW230345   5.170   4.429   3.415
 9816SOL     OW30346   0.031   1.014   6.185
 9816SOL    HW130347   0.102   1.034   6.252
 9816SOL    HW230348   0.029   0.915   6.168
 9817SOL     OW30349   3.001   0.132   3.030
 9817SOL    HW130350   3.095   0.162   3.020
 9817SOL    HW230351   2.958   0.124   2.940
 9818SOL     OW30352   1.605   0.938   4.598
 9818SOL    HW130353   1.679   0.935   4.531
 9818SOL    HW230354   1.549   1.020   4.583
 9819SOL     OW30355   4.921   3.098   3.764
 9819SOL    HW130356   4.851   3.034   3.796
 9819SOL    HW230357   5.000   3.093   3.825
 9820SOL     OW30358   4.219   3.627   6.412
 9820SOL    HW130359   4.170   3.541   6.396
 9820SOL    HW230360   4.271   3.620   6.497
 9821SOL     OW30361   5.181   0.804   6.990
 9821SOL    HW130362   5.083   0.787   7.006
 9821SOL    HW230363   5.215   0.740   6.922
 9822SOL     OW30364   2.514   6.123   3.595
 9822SOL    HW130365   2.421   6.137   3.561
 9822SOL    HW230366   2.519   6.037   3.645
 9823SOL     OW30367   2.516   1.340   6.742
 9823SOL    HW130368   2.570   1.318   6.661
 9823SOL    HW230369   2.440   1.401   6.715
 9824SOL     OW30370   1.980   4.823   4.583
 9824SOL    HW130371   1.898   4.810   4.527
 9824SOL    HW230372   2.060   4.827   4.523
 9825SOL     OW30373   5.343   5.782   4.237
 9825SOL    HW130374   5.260   5.728   4.250
 9825SOL    HW230375   5.319   5.879   4.231
 9826SOL     OW30376   4.562   5.258   5.414
 9826SOL    HW130377   4.521   5.262   5.505
 9826SOL    HW230378   4.658   5.284   5.420
 9827SOL     OW30379   1.645   4.314   3.688
 9827SOL    HW130380   1.623   4.407   3.719
 9827SOL    HW230381   1.638   4.251   3.765
 9828SOL     OW30382   2.181   2.286   5.480
 9828SOL    HW130383   2.216   2.380   5.477
 9828SOL    HW230384   2.112   2.274   5.409
 9829SOL     OW30385   4.500   5.173   6.330
 9829SOL    HW130386   4.533   5.267   6.327
 9829SOL    HW230387   4.483   5.139   6.237
 9830SOL     OW30388   5.096   2.047   1.604
 9830SOL    HW130389   5.137   2.005   1.684
 9830SOL    HW230390   5.021   2.107   1.632
 9831SOL     OW30391   1.512   5.122   1.929
 9831SOL    HW130392   1.548   5.178   2.004
 9831SOL    HW230393   1.522   5.025   1.952
 9832SOL     OW30394   4.724   5.559   2.456
 9832SOL    HW130395   4.778   5.503   2.393
 9832SOL    HW230396   4.762   5.551   2.548
 9833SOL     OW30397   3.344   3.269   4.305
 9833SOL    HW130398   3.284   3.339   4.267
 9833SOL    HW230399   3.302   3.179   4.290
 9834SOL     OW30400   2.407   4.308   5.242
 9834SOL    HW130401   2.494   4.295   5.289
 9834SOL    HW230402   2.399   4.240   5.169
 9835SOL     OW30403   4.395   3.548   5.262
 9835SOL    HW130404   4.316   3.560   5.201
 9835SOL    HW230405   4.479   3.573   5.213
 9836SOL     OW30406   6.640   4.289   3.574
 9836SOL    HW130407   6.721   4.257   3.624
 9836SOL    HW230408   6.659   4.379   3.534
 9837SOL     OW30409   3.757   7.000   2.114
 9837SOL    HW130410   3.720   6.922   2.165
 9837SOL    HW230411   3.698   0.060   2.128
 9838SOL     OW30412   1.673   6.747   0.850
 9838SOL    HW130413   1.705   6.748   0.755
 9838SOL    HW230414   1.748   6.719   0.910
 9839SOL     OW30415   5.008   6.951   3.961
 9839SOL    HW130416   5.037   6.939   3.867
 9839SOL    HW230417   4.928   7.011   3.963
 9840SOL     OW30418   5.592   2.005   1.041
 9840SOL    HW130419   5.590   1.925   1.101
 9840SOL    HW230420   5.553   1.981   0.952
 9841SOL     OW30421   1.418   4.255   5.330
 9841SOL    HW130422   1.409   4.333   5.392
 9841SOL    HW230423   1.412   4.287   5.235
 9842SOL     OW30424   3.531   3.005   1.646
 9842SOL    HW130425   3.566   3.098   1.657
 9842SOL    HW230426   3.468   3.002   1.567
 9843SOL     OW30427   0.042   0.445   2.011
 9843SOL    HW130428   0.124   0.422   2.064
 9843SOL    HW230429   0.003   0.530   2.046
 9844SOL     OW30430   6.717   1.327   2.964
 9844SOL    HW130431   6.771   1.335   3.048
 9844SOL    HW230432   6.647   1.257   2.976
 9845SOL     OW30433   1.874   3.081   3.345
 9845SOL    HW130434   1.831   2.992   3.357
 9845SOL    HW230435   1.813   3.141   3.294
 9846SOL     OW30436   3.672   2.446   1.269
 9846SOL    HW130437   3.738   2.499   1.322
 9846SOL    HW230438   3.581   2.486   1.280
 9847SOL     OW30439   3.826   2.923   3.215
 9847SOL    HW130440   3.735   2.886   3.196
 9847SOL    HW230441   3.829   2.956   3.310
 9848SOL     OW30442   3.838   3.278   5.154
 9848SOL    HW130443   3.770   3.218   5.197
 9848SOL    HW230444   3.846   3.362   5.206
 9849SOL     OW30445   0.837   6.984   6.158
 9849SOL    HW130446   0.897   6.919   6.110
 9849SOL    HW230447   0.742   6.953   6.150
 9850SOL     OW30448   6.429   6.972   3.768
 9850SOL    HW130449   6.438   6.878   3.736
 9850SOL    HW230450   6.443   0.015   3.691
 9851SOL     OW30451   6.976   0.023   4.420
 9851SOL    HW130452   0.036   6.994   4.385
 9851SOL    HW230453   6.969   0.112   4.375
 9852SOL     OW30454   3.278   1.656   4.308
 9852SOL    HW130455   3.297   1.752   4.331
 9852SOL    HW230456   3.336   1.596   4.363
 9853SOL     OW30457   5.279   4.081   4.901
 9853SOL    HW130458   5.352   4.056   4.965
 9853SOL    HW230459   5.222   4.152   4.942
 9854SOL     OW30460   6.707   5.952   4.541
 9854SOL    HW130461   6.746   6.037   4.575
 9854SOL    HW230462   6.757   5.922   4.460
 9855SOL     OW30463   1.854   3.606   1.148
 9855SOL    HW130464   1.774   3.578   1.201
 9855SOL    HW230465   1.934   3.554   1.178
 9856SOL     OW30466   4.875   4.197   4.848
 9856SOL    HW130467   4.879   4.136   4.768
 9856SOL    HW230468   4.782   4.194   4.886
 9857SOL     OW30469   4.844   3.136   2.576
 9857SOL    HW130470   4.909   3.191   2.524
 9857SOL    HW230471   4.810   3.061   2.519
 9858SOL     OW30472   6.672   0.112   1.355
 9858SOL    HW130473   6.672   0.158   1.266
 9858SOL    HW230474   6.672   0.180   1.428
 9859SOL     OW30475   6.249   6.243   2.558
 9859SOL    HW130476   6.238   6.160   2.612
 9859SOL    HW230477   6.344   6.250   2.526
 9860SOL     OW30478   1.631   2.416   3.933
 9860SOL    HW130479   1.680   2.336   3.969
 9860SOL    HW230480   1.672   2.445   3.847
 9861SOL     OW30481   3.020   0.411   3.160
 9861SOL    HW130482   3.006   0.328   3.106
 9861SOL    HW230483   3.069   0.478   3.105
 9862SOL     OW30484   3.074   2.882   6.891
 9862SOL    HW130485   3.168   2.894   6.925
 9862SOL    HW230486   3.012   2.869   6.969
 9863SOL     OW30487   3.260   6.597   2.199
 9863SOL    HW130488   3.353   6.619   2.170
 9863SOL    HW230489   3.225   6.671   2.257
 9864SOL     OW30490   2.902   0.353   3.734
 9864SOL    HW130491   2.863   0.285   3.672
 9864SOL    HW230492   2.985   0.391   3.693
 9865SOL     OW30493   1.298   6.882   4.628
 9865SOL    HW130494   1.311   6.837   4.716
 9865SOL    HW230495   1.386   6.890   4.582
 9866SOL     OW30496   5.314   4.571   6.121
 9866SOL    HW130497   5.382   4.531   6.060
 9866SOL    HW230498   5.268   4.499   6.172
 9867SOL     OW30499   6.757   1.538   1.182
 9867SOL    HW130500   6.692   1.550   1.257
 9867SOL    HW230501   6.797   1.626   1.157
 9868SOL     OW30502   0.204   3.501   4.512
 9868SOL    HW130503   0.291   3.484   4.465
 9868SOL    HW230504   0.130   3.502   4.445
 9869SOL     OW30505   0.554   2.485   1.384
 9869SOL    HW130506   0.624   2.442   1.328
 9869SOL    HW230507   0.484   2.417   1.408
 9870SOL     OW30508   4.126   5.340   2.788
 9870SOL    HW130509   4.182   5.323   2.870
 9870SOL    HW230510   4.030   5.327   2.810
 9871SOL     OW30511   6.471   4.777   5.813
 9871SOL    HW130512   6.554   4.724   5.824
 9871SOL    HW230513   6.422   4.782   5.900
 9872SOL     OW30514   3.079   5.619   5.240
 9872SOL    HW130515   3.090   5.571   5.154
 9872SOL    HW230516   3.169   5.639   5.279
 9873SOL     OW30517   2.596   2.485   1.058
 9873SOL    HW130518   2.506   2.499   1.017
 9873SOL    HW230519   2.660   2.552   1.023
 9874SOL     OW30520   5.950   3.404   5.235
 9874SOL    HW130521   5.859   3.445   5.227
 9874SOL    HW230522   6.010   3.468   5.283
 9875SOL     OW30523   6.025   5.604   1.953
 9875SOL    HW130524   6.009   5.556   2.039
 9875SOL    HW230525   5.957   5.676   1.941
 9876SOL     OW30526   5.477   0.493   3.861
 9876SOL    HW130527   5.378   0.507   3.860
 9876SOL    HW230528   5.499   0.416   3.921
 9877SOL     OW30529   6.466   4.585   4.171
 9877SOL    HW130530   6.489   4.682   4.170
 9877SOL    HW230531   6.367   4.574   4.176
 9878SOL     OW30532   2.561   3.847   5.756
 9878SOL    HW130533   2.489   3.811   5.815
 9878SOL    HW230534   2.625   3.773   5.734
 9879SOL     OW30535   5.150   5.764   5.543
 9879SOL    HW130536   5.233   5.719   5.512
 9879SOL    HW230537   5.135   5.848   5.489
 9880SOL     OW30538   3.139   1.032   0.625
 9880SOL    HW130539   3.226   0.998   0.659
 9880SOL    HW230540   3.106   1.105   0.685
 9881SOL     OW30541   0.478   1.674   5.190
 9881SOL    HW130542   0.433   1.593   5.152
 9881SOL    HW230543   0.415   1.721   5.252
 9882SOL     OW30544   1.920   3.507   5.493
 9882SOL    HW130545   1.987   3.553   5.436
 9882SOL    HW230546   1.891   3.422   5.449
 9883SOL     OW30547   1.008   6.320   0.991
 9883SOL    HW130548   1.059   6.391   1.040
 9883SOL    HW230549   1.071   6.267   0.935
 9884SOL     OW30550   4.826   1.242   0.901
 9884SOL    HW130551   4.862   1.204   0.816
 9884SOL    HW230552   4.807   1.340   0.888
 9885SOL     OW30553   6.867   2.494   4.597
 9885SOL    HW130554   6.777   2.530   4.572
 9885SOL    HW230555   6.867   2.468   4.693
 9886SOL     OW30556   1.228   5.417   1.274
 9886SOL    HW130557   1.192   5.368   1.354
 9886SOL    HW230558   1.323   5.391   1.259
 9887SOL     OW30559   4.031   6.958   0.267
 9887SOL    HW130560   3.941   6.915   0.259
 9887SOL    HW230561   4.102   6.890   0.247
 9888SOL     OW30562   5.175   5.479   2.783
 9888SOL    HW130563   5.148   5.472   2.687
 9888SOL    HW230564   5.271   5.452   2.793
 9889SOL     OW30565   6.306   4.536   1.106
 9889SOL    HW130566   6.366   4.614   1.091
 9889SOL    HW230567   6.276   4.534   1.201
 9890SOL     OW30568   0.767   2.184   1.408
 9890SOL    HW130569   0.761   2.251   1.335
 9890SOL    HW230570   0.846   2.205   1.466
 9891SOL     OW30571   6.041   3.323   1.516
 9891SOL    HW130572   6.116   3.389   1.524
 9891SOL    HW230573   5.954   3.372   1.511
 9892SOL     OW30574   1.118   5.335   2.540
 9892SOL    HW130575   1.163   5.325   2.451
 9892SOL    HW230576   1.125   5.430   2.571
 9893SOL     OW30577   6.466   0.502   2.335
 9893SOL    HW130578   6.494   0.568   2.405
 9893SOL    HW230579   6.437   0.417   2.379
 9894SOL     OW30580   3.081   2.105   6.517
 9894SOL    HW130581   3.041   2.116   6.608
 9894SOL    HW230582   3.109   2.195   6.483
 9895SOL     OW30583   5.285   2.975   5.299
 9895SOL    HW130584   5.249   2.939   5.213
 9895SOL    HW230585   5.341   3.056   5.280
 9896SOL     OW30586   5.205   1.047   0.443
 9896SOL    HW130587   5.253   1.135   0.447
 9896SOL    HW230588   5.198   1.017   0.348
 9897SOL     OW30589   5.322   6.960   2.222
 9897SOL    HW130590   5.293   0.008   2.289
 9897SOL    HW230591   5.312   6.868   2.261
 9898SOL     OW30592   0.918   4.756   5.747
 9898SOL    HW130593   0.869   4.805   5.819
 9898SOL    HW230594   0.879   4.781   5.658
 9899SOL     OW30595   0.555   5.578   2.552
 9899SOL    HW130596   0.620   5.645   2.516
 9899SOL    HW230597   0.500   5.541   2.477
 9900SOL     OW30598   2.089   3.413   2.489
 9900SOL    HW130599   2.101   3.460   2.401
 9900SOL    HW230600   2.015   3.347   2.481
 9901SOL     OW30601   2.536   1.094   0.156
 9901SOL    HW130602   2.530   1.161   0.082
 9901SOL    HW230603   2.475   1.121   0.231
 9902SOL     OW30604   4.068   4.047   1.185
 9902SOL    HW130605   4.160   4.015   1.162
 9902SOL    HW230606   4.035   3.999   1.266
 9903SOL     OW30607   5.315   1.497   1.559
 9903SOL    HW130608   5.262   1.463   1.637
 9903SOL    HW230609   5.254   1.517   1.483
 9904SOL     OW30610   0.252   3.330   6.267
 9904SOL    HW130611   0.301   3.276   6.199
 9904SOL    HW230612   0.311   3.348   6.345
 9905SOL     OW30613   1.458   0.597   6.535
 9905SOL    HW130614   1.555   0.577   6.526
 9905SOL    HW230615   1.414   0.523   6.587
 9906SOL     OW30616   1.809   3.520   0.236
 9906SOL    HW130617   1.776   3.496   0.144
 9906SOL    HW230618   1.732   3.551   0.292
 9907SOL     OW30619   1.416   1.102   2.268
 9907SOL    HW130620   1.425   1.159   2.349
 9907SOL    HW230621   1.369   1.017   2.292
 9908SOL     OW30622   0.815   2.646   5.794
 9908SOL    HW130623   0.758   2.682   5.868
 9908SOL    HW230624   0.881   2.715   5.766
 9909SOL     OW30625   3.815   0.761   2.765
 9909SOL    HW130626   3.731   0.709   2.751
 9909SOL    HW230627   3.838   0.810   2.682
 9910SOL     OW30628   1.601   5.170   1.504
 9910SOL    HW130629   1.636   5.156   1.597
 9910SOL    HW230630   1.671   5.142   1.438
 9911SOL     OW30631   3.727   5.502   2.335
 9911SOL    HW130632   3.674   5.474   2.255
 9911SOL    HW230633   3.683   5.469   2.418
 9912SOL     OW30634   4.767   1.179   1.886
 9912SOL    HW130635   4.807   1.200   1.976
 9912SOL    HW230636   4.712   1.256   1.855
 9913SOL     OW30637   5.940   3.098   1.171
 9913SOL    HW130638   5.982   3.008   1.160
 9913SOL    HW230639   5.842   3.091   1.151
 9914SOL     OW30640   0.286   6.824   5.303
 9914SOL    HW130641   0.377   6.787   5.283
 9914SOL    HW230642   0.263   6.808   5.399
 9915SOL     OW30643   5.502   2.228   3.549
 9915SOL    HW130644   5.513   2.138   3.508
 9915SOL    HW230645   5.560   2.235   3.631
 9916SOL     OW30646   1.699   2.140   3.832
 9916SOL    HW130647   1.645   2.089   3.899
 9916SOL    HW230648   1.715   2.083   3.752
 9917SOL     OW30649   3.273   3.667   5.213
 9917SOL    HW130650   3.260   3.579   5.168
 9917SOL    HW230651   3.340   3.721   5.162
 9918SOL     OW30652   0.974   2.878   1.956
 9918SOL    HW130653   0.893   2.930   1.981
 9918SOL    HW230654   0.995   2.892   1.859
 9919SOL     OW30655   2.337   5.936   2.347
 9919SOL    HW130656   2.254   5.935   2.403
 9919SOL    HW230657   2.314   5.970   2.255
 9920SOL     OW30658   4.034   0.588   2.722
 9920SOL    HW130659   3.956   0.650   2.722
 9920SOL    HW230660   4.004   0.496   2.697
 9921SOL     OW30661   4.535   0.127   5.092
 9921SOL    HW130662   4.441   0.151   5.116
 9921SOL    HW230663   4.549   0.146   4.995
 9922SOL     OW30664   4.876   4.375   1.341
 9922SOL    HW130665   4.903   4.294   1.289
 9922SOL    HW230666   4.902   4.363   1.437
 9923SOL     OW30667   6.035   3.085   0.124
 9923SOL    HW130668   6.110   3.150   0.134
 9923SOL    HW230669   6.023   3.034   0.210
 9924SOL     OW30670   4.730   1.443   3.008
 9924SOL    HW130671   4.823   1.467   3.037
 9924SOL    HW230672   4.665   1.507   3.049
 9925SOL     OW30673   1.131   4.780   3.604
 9925SOL    HW130674   1.107   4.749   3.696
 9925SOL    HW230675   1.211   4.730   3.571
 9926SOL     OW30676   4.143   2.958   0.645
 9926SOL    HW130677   4.235   2.950   0.606
 9926SOL    HW230678   4.087   3.016   0.586
 9927SOL     OW30679   1.426   1.490   1.218
 9927SOL    HW130680   1.382   1.405   1.190
 9927SOL    HW230681   1.517   1.497   1.176
 9928SOL     OW30682   5.338   3.649   3.110
 9928SOL    HW130683   5.405   3.575   3.123
 9928SOL    HW230684   5.308   3.650   3.015
 9929SOL     OW30685   3.204   4.130   4.544
 9929SOL    HW130686   3.118   4.173   4.516
 9929SOL    HW230687   3.185   4.044   4.590
 9930SOL     OW30688   0.480   0.364   6.135
 9930SOL    HW130689   0.388   0.333   6.111
 9930SOL    HW230690   0.544   0.287   6.129
 9931SOL     OW30691   0.075   5.650   4.066
 9931SOL    HW130692   0.151   5.593   4.098
 9931SOL    HW230693   0.062   5.635   3.968
 9932SOL     OW30694   2.735   1.912   6.083
 9932SOL    HW130695   2.675   1.917   6.003
 9932SOL    HW230696   2.751   2.004   6.118
 9933SOL     OW30697   1.586   0.038   3.832
 9933SOL    HW130698   1.590   0.090   3.918
 9933SOL    HW230699   1.662   6.994   3.829
 9934SOL     OW30700   6.035   1.908   6.611
 9934SOL    HW130701   6.079   1.826   6.650
 9934SOL    HW230702   6.095   1.987   6.625
 9935SOL     OW30703   3.181   0.383   0.964
 9935SOL    HW130704   3.115   0.410   0.894
 9935SOL    HW230705   3.136   0.324   1.031
 9936SOL     OW30706   6.213   4.914   0.559
 9936SOL    HW130707   6.116   4.938   0.567
 9936SOL    HW230708   6.267   4.972   0.619
 9937SOL     OW30709   0.868   1.674   2.188
 9937SOL    HW130710   0.813   1.632   2.115
 9937SOL    HW230711   0.908   1.603   2.245
 9938SOL     OW30712   5.639   6.388   4.259
 9938SOL    HW130713   5.723   6.441   4.250
 9938SOL    HW230714   5.563   6.449   4.282
 9939SOL     OW30715   3.508   3.016   0.569
 9939SOL    HW130716   3.428   2.981   0.618
 9939SOL    HW230717   3.550   2.943   0.516
 9940SOL     OW30718   1.451   0.569   2.280
 9940SOL    HW130719   1.352   0.578   2.263
 9940SOL    HW230720   1.500   0.637   2.226
 9941SOL     OW30721   2.935   5.404   5.652
 9941SOL    HW130722   2.982   5.322   5.683
 9941SOL    HW230723   2.845   5.409   5.696
 9942SOL     OW30724   4.112   5.632   2.551
 9942SOL    HW130725   4.037   5.583   2.508
 9942SOL    HW230726   4.152   5.696   2.486
 9943SOL     OW30727   0.887   4.218   6.435
 9943SOL    HW130728   0.954   4.248   6.502
 9943SOL    HW230729   0.834   4.142   6.472
 9944SOL     OW30730   0.740   4.616   6.280
 9944SOL    HW130731   0.785   4.530   6.259
 9944SOL    HW230732   0.809   4.687   6.294
 9945SOL     OW30733   4.899   4.820   6.593
 9945SOL    HW130734   4.962   4.893   6.620
 9945SOL    HW230735   4.858   4.779   6.675
 9946SOL     OW30736   6.257   0.198   3.252
 9946SOL    HW130737   6.328   0.248   3.203
 9946SOL    HW230738   6.299   0.142   3.324
 9947SOL     OW30739   3.146   2.146   4.776
 9947SOL    HW130740   3.212   2.173   4.846
 9947SOL    HW230741   3.068   2.208   4.778
 9948SOL     OW30742   6.321   5.684   4.988
 9948SOL    HW130743   6.263   5.605   5.010
 9948SOL    HW230744   6.263   5.761   4.963
 9949SOL     OW30745   6.913   4.919   3.253
 9949SOL    HW130746   6.963   4.906   3.339
 9949SOL    HW230747   6.926   4.839   3.195
 9950SOL     OW30748   6.284   5.930   6.735
 9950SOL    HW130749   6.219   5.962   6.804
 9950SOL    HW230750   6.243   5.937   6.645
 9951SOL     OW30751   1.197   2.640   3.401
 9951SOL    HW130752   1.119   2.590   3.365
 9951SOL    HW230753   1.238   2.695   3.327
 9952SOL     OW30754   2.068   3.699   0.975
 9952SOL    HW130755   2.047   3.648   0.892
 9952SOL    HW230756   1.985   3.710   1.030
 9953SOL     OW30757   5.920   2.360   3.786
 9953SOL    HW130758   5.995   2.323   3.842
 9953SOL    HW230759   5.957   2.410   3.708
 9954SOL     OW30760   1.214   7.020   4.935
 9954SOL    HW130761   1.218   6.993   4.839
 9954SOL    HW230762   1.246   0.094   4.945
 9955SOL     OW30763   3.685   3.688   6.500
 9955SOL    HW130764   3.784   3.703   6.513
 9955SOL    HW230765   3.647   3.644   6.581
 9956SOL     OW30766   0.852   4.745   3.606
 9956SOL    HW130767   0.944   4.784   3.611
 9956SOL    HW230768   0.842   4.674   3.677
 9957SOL     OW30769   5.817   0.577   2.172
 9957SOL    HW130770   5.867   0.657   2.205
 9957SOL    HW230771   5.880   0.501   2.157
 9958SOL     OW30772   2.515   6.397   6.789
 9958SOL    HW130773   2.523   6.454   6.707
 9958SOL    HW230774   2.605   6.384   6.831
 9959SOL     OW30775   4.116   3.651   3.455
 9959SOL    HW130776   4.122   3.738   3.505
 9959SOL    HW230777   4.121   3.669   3.357
 9960SOL     OW30778   1.042   6.944   1.982
 9960SOL    HW130779   1.003   6.863   1.939
 9960SOL    HW230780   1.034   6.938   2.081
 9961SOL     OW30781   1.275   5.367   3.630
 9961SOL    HW130782   1.270   5.362   3.530
 9961SOL    HW230783   1.193   5.327   3.669
 9962SOL     OW30784   4.155   0.199   2.471
 9962SOL    HW130785   4.191   0.265   2.404
 9962SOL    HW230786   4.074   0.237   2.514
 9963SOL     OW30787   2.523   2.482   5.658
 9963SOL    HW130788   2.444   2.425   5.678
 9963SOL    HW230789   2.522   2.507   5.561
 9964SOL     OW30790   4.231   5.381   5.828
 9964SOL    HW130791   4.215   5.286   5.856
 9964SOL    HW230792   4.300   5.422   5.888
 9965SOL     OW30793   3.626   4.699   5.399
 9965SOL    HW130794   3.545   4.721   5.345
 9965SOL    HW230795   3.706   4.745   5.360
 9966SOL     OW30796   2.224   5.383   2.479
 9966SOL    HW130797   2.235   5.463   2.537
 9966SOL    HW230798   2.129   5.354   2.479
 9967SOL     OW30799   5.047   5.688   2.225
 9967SOL    HW130800   5.056   5.740   2.140
 9967SOL    HW230801   4.991   5.740   2.290
 9968SOL     OW30802   3.167   5.611   6.792
 9968SOL    HW130803   3.198   5.535   6.734
 9968SOL    HW230804   3.126   5.574   6.875
 9969SOL     OW30805   0.918   3.064   3.699
 9969SOL    HW130806   0.829   3.090   3.660
 9969SOL    HW230807   0.941   2.971   3.669
 9970SOL     OW30808   6.765   4.311   2.173
 9970SOL    HW130809   6.729   4.226   2.133
 9970SOL    HW230810   6.697   4.350   2.234
 9971SOL     OW30811   2.493   4.346   0.434
 9971SOL    HW130812   2.582   4.341   0.389
 9971SOL    HW230813   2.426   4.388   0.373
 9972SOL     OW30814   3.782   4.471   0.371
 9972SOL    HW130815   3.713   4.536   0.405
 9972SOL    HW230816   3.746   4.425   0.290
 9973SOL     OW30817   3.712   1.888   5.162
 9973SOL    HW130818   3.756   1.855   5.246
 9973SOL    HW230819   3.769   1.865   5.083
 9974SOL     OW30820   6.852   3.374   3.123
 9974SOL    HW130821   6.840   3.360   3.221
 9974SOL    HW230822   6.882   3.289   3.080
 9975SOL     OW30823   0.247   4.583   6.892
 9975SOL    HW130824   0.193   4.517   6.945
 9975SOL    HW230825   0.192   4.665   6.875
 9976SOL     OW30826   6.380   5.245   5.236
 9976SOL    HW130827   6.454   5.192   5.279
 9976SOL    HW230828   6.359   5.205   5.147
 9977SOL     OW30829   6.700   5.342   5.455
 9977SOL    HW130830   6.639   5.398   5.399
 9977SOL    HW230831   6.687   5.365   5.551
 9978SOL     OW30832   6.256   2.013   4.389
 9978SOL    HW130833   6.345   2.031   4.349
 9978SOL    HW230834   6.215   1.933   4.346
 9979SOL     OW30835   6.551   4.566   6.235
 9979SOL    HW130836   6.562   4.468   6.222
 9979SOL    HW230837   6.632   4.603   6.281
 9980SOL     OW30838   1.397   0.881   6.773
 9980SOL    HW130839   1.477   0.931   6.808
 9980SOL    HW230840   1.407   0.869   6.674
 9981SOL     OW30841   2.383   2.179   1.193
 9981SOL    HW130842   2.369   2.125   1.110
 9981SOL    HW230843   2.481   2.195   1.205
 9982SOL     OW30844   1.176   1.846   3.060
 9982SOL    HW130845   1.226   1.909   3.119
 9982SOL    HW230846   1.123   1.898   2.993
 9983SOL     OW30847   0.959   1.611   1.662
 9983SOL    HW130848   0.897   1.604   1.585
 9983SOL    HW230849   1.053   1.599   1.631
 9984SOL     OW30850   0.758   0.451   0.934
 9984SOL    HW130851   0.732   0.360   0.900
 9984SOL    HW230852   0.828   0.490   0.874
 9985SOL     OW30853   3.481   0.577   1.387
 9985SOL    HW130854   3.505   0.559   1.483
 9985SOL    HW230855   3.421   0.656   1.382
 9986SOL     OW30856   4.818   4.171   6.095
 9986SOL    HW130857   4.736   4.193   6.042
 9986SOL    HW230858   4.850   4.080   6.068
 9987SOL     OW30859   5.288   2.187   2.295
 9987SOL    HW130860   5.308   2.258   2.228
 9987SOL    HW230861   5.189   2.175   2.302
 9988SOL     OW30862   7.020   5.330   4.675
 9988SOL    HW130863   0.050   5.294   4.753
 9988SOL    HW230864   6.969   5.411   4.703
 9989SOL     OW30865   5.080   3.773   3.094
 9989SOL    HW130866   5.052   3.794   3.000
 9989SOL    HW230867   5.169   3.726   3.092
 9990SOL     OW30868   2.353   6.886   3.190
 9990SOL    HW130869   2.363   6.983   3.165
 9990SOL    HW230870   2.440   6.853   3.228
 9991SOL     OW30871   1.255   3.159   4.519
 9991SOL    HW130872   1.271   3.179   4.423
 9991SOL    HW230873   1.277   3.063   4.537
 9992SOL     OW30874   4.727   3.722   0.491
 9992SOL    HW130875   4.671   3.641   0.502
 9992SOL    HW230876   4.668   3.803   0.481
 9993SOL     OW30877   4.290   6.605   2.682
 9993SOL    HW130878   4.242   6.520   2.661
 9993SOL    HW230879   4.325   6.645   2.598
 9994SOL     OW30880   6.783   4.031   4.087
 9994SOL    HW130881   6.775   3.976   4.170
 9994SOL    HW230882   6.771   4.127   4.109
 9995SOL     OW30883   3.293   0.154   3.002
 9995SOL    HW130884   3.299   0.221   2.928
 9995SOL    HW230885   3.385   0.124   3.028
 9996SOL     OW30886   3.153   2.468   1.258
 9996SOL    HW130887   3.124   2.388   1.311
 9996SOL    HW230888   3.090   2.481   1.181
 9997SOL     OW30889   4.433   1.742   1.026
 9997SOL    HW130890   4.408   1.648   1.052
 9997SOL    HW230891   4.532   1.752   1.029
 9998SOL     OW30892   6.181   3.593   2.057
 9998SOL    HW130893   6.216   3.553   2.142
 9998SOL    HW230894   6.238   3.563   1.981
 9999SOL     OW30895   6.277   4.982   4.802
 9999SOL    HW130896   6.312   4.889   4.788
 9999SOL    HW230897   6.324   5.045   4.739
10000SOL     OW30898   6.587   1.624   6.322
10000SOL    HW130899   6.583   1.567   6.404
10000SOL    HW230900   6.495   1.633   6.284
10001SOL     OW30901   5.324   0.807   1.620
10001SOL    HW130902   5.252   0.744   1.649
10001SOL    HW230903   5.347   0.868   1.696
10002SOL     OW30904   1.359   1.123   1.461
10002SOL    HW130905   1.397   1.136   1.553
10002SOL    HW230906   1.318   1.032   1.455
10003SOL     OW30907   3.823   2.109   3.713
10003SOL    HW130908   3.898   2.098   3.648
10003SOL    HW230909   3.778   2.197   3.699
10004SOL     OW30910   5.391   3.057   4.866
10004SOL    HW130911   5.435   3.029   4.781
10004SOL    HW230912   5.301   3.095   4.846
10005SOL     OW30913   4.650   5.754   3.247
10005SOL    HW130914   4.695   5.843   3.242
10005SOL    HW230915   4.561   5.764   3.291
10006SOL     OW30916   4.986   0.982   4.665
10006SOL    HW130917   5.013   0.921   4.739
10006SOL    HW230918   5.057   0.982   4.594
10007SOL     OW30919   0.847   4.179   5.003
10007SOL    HW130920   0.922   4.212   5.060
10007SOL    HW230921   0.843   4.080   5.005
10008SOL     OW30922   4.156   1.243   3.709
10008SOL    HW130923   4.228   1.203   3.652
10008SOL    HW230924   4.117   1.172   3.767
10009SOL     OW30925   1.880   3.238   1.478
10009SOL    HW130926   1.951   3.307   1.489
10009SOL    HW230927   1.791   3.282   1.476
10010SOL     OW30928   2.075   6.681   0.485
10010SOL    HW130929   2.131   6.600   0.500
10010SOL    HW230930   2.134   6.762   0.486
10011SOL     OW30931   0.437   2.296   5.175
10011SOL    HW130932   0.426   2.215   5.232
10011SOL    HW230933   0.534   2.319   5.168
10012SOL     OW30934   4.850   6.769   2.645
10012SOL    HW130935   4.905   6.822   2.580
10012SOL    HW230936   4.754   6.793   2.635
10013SOL     OW30937   2.142   1.534   4.837
10013SOL    HW130938   2.153   1.440   4.868
10013SOL    HW230939   2.174   1.597   4.908
10014SOL     OW30940   6.933   1.961   0.536
10014SOL    HW130941   6.899   2.054   0.553
10014SOL    HW230942   0.011   1.957   0.555
10015SOL     OW30943   2.920   4.313   0.633
10015SOL    HW130944   2.839   4.284   0.581
10015SOL    HW230945   2.917   4.412   0.647
10016SOL     OW30946   2.193   0.010   4.796
10016SOL    HW130947   2.195   6.982   4.884
10016SOL    HW230948   2.133   6.980   4.733
10017SOL     OW30949   1.949   2.102   2.192
10017SOL    HW130950   2.037   2.111   2.240
10017SOL    HW230951   1.896   2.186   2.205
10018SOL     OW30952   6.288   5.568   6.101
10018SOL    HW130953   6.358   5.519   6.048
10018SOL    HW230954   6.211   5.590   6.042
10019SOL     OW30955   1.091   2.290   3.611
10019SOL    HW130956   1.077   2.240   3.697
10019SOL    HW230957   1.005   2.292   3.560
10020SOL     OW30958   0.136   1.600   1.047
10020SOL    HW130959   0.114   1.521   1.105
10020SOL    HW230960   0.212   1.576   0.986
10021SOL     OW30961   0.798   2.851   1.624
10021SOL    HW130962   0.874   2.802   1.582
10021SOL    HW230963   0.733   2.786   1.663
10022SOL     OW30964   3.570   6.939   1.266
10022SOL    HW130965   3.470   6.945   1.274
10022SOL    HW230966   3.595   6.846   1.239
10023SOL     OW30967   2.017   5.497   5.597
10023SOL    HW130968   2.041   5.594   5.589
10023SOL    HW230969   1.971   5.482   5.685
10024SOL     OW30970   1.958   6.825   1.895
10024SOL    HW130971   1.986   6.875   1.978
10024SOL    HW230972   1.924   6.890   1.828
10025SOL     OW30973   1.687   1.460   1.100
10025SOL    HW130974   1.727   1.550   1.087
10025SOL    HW230975   1.752   1.400   1.146
10026SOL     OW30976   4.723   6.319   3.629
10026SOL    HW130977   4.657   6.274   3.689
10026SOL    HW230978   4.734   6.414   3.658
10027SOL     OW30979   0.763   4.939   5.114
10027SOL    HW130980   0.680   4.920   5.062
10027SOL    HW230981   0.840   4.891   5.072
10028SOL     OW30982   1.233   1.606   1.676
10028SOL    HW130983   1.309   1.576   1.618
10028SOL    HW230984   1.246   1.703   1.699
10029SOL     OW30985   3.248   1.861   3.509
10029SOL    HW130986   3.194   1.802   3.569
10029SOL    HW230987   3.345   1.839   3.519
10030SOL     OW30988   2.333   6.836   4.103
10030SOL    HW130989   2.258   6.809   4.042
10030SOL    HW230990   2.356   6.932   4.087
10031SOL     OW30991   5.796   4.887   3.526
10031SOL    HW130992   5.764   4.981   3.537
10031SOL    HW230993   5.843   4.858   3.610
10032SOL     OW30994   3.426   0.960   5.093
10032SOL    HW130995   3.481   0.883   5.059
10032SOL    HW230996   3.413   0.951   5.191
10033SOL     OW30997   4.630   2.314   4.264
10033SOL    HW130998   4.622   2.255   4.183
10033SOL    HW230999   4.549   2.373   4.270
10034SOL     OW31000   3.050   0.062   4.121
10034SOL    HW131001   3.043   0.158   4.095
10034SOL    HW231002   3.008   0.048   4.211
10035SOL     OW31003   0.153   4.554   2.122
10035SOL    HW131004   0.140   4.602   2.036
10035SOL    HW231005   0.245   4.573   2.158
10036SOL     OW31006   5.590   1.590   1.354
10036SOL    HW131007   5.677   1.543   1.361
10036SOL    HW231008   5.532   1.563   1.432
10037SOL     OW31009   5.741   1.651   1.054
10037SOL    HW131010   5.773   1.698   1.136
10037SOL    HW231011   5.648   1.679   1.033
10038SOL     OW31012   4.445   1.319   6.374
10038SOL    HW131013   4.526   1.265   6.355
10038SOL    HW231014   4.364   1.261   6.367
10039SOL     OW31015   3.174   0.391   4.470
10039SOL    HW131016   3.239   0.395   4.546
10039SOL    HW231017   3.132   0.300   4.466
10040SOL     OW31018   4.100   5.889   6.398
10040SOL    HW131019   4.126   5.978   6.362
10040SOL    HW231020   4.067   5.831   6.323
10041SOL     OW31021   4.475   5.751   5.958
10041SOL    HW131022   4.554   5.786   6.007
10041SOL    HW231023   4.392   5.773   6.009
10042SOL     OW31024   1.113   1.684   4.424
10042SOL    HW131025   1.113   1.588   4.396
10042SOL    HW231026   1.020   1.712   4.447
10043SOL     OW31027   6.597   2.280   4.739
10043SOL    HW131028   6.663   2.243   4.805
10043SOL    HW231029   6.610   2.236   4.650
10044SOL     OW31030   2.941   1.444   5.347
10044SOL    HW131031   2.993   1.435   5.432
10044SOL    HW231032   2.871   1.515   5.359
10045SOL     OW31033   3.822   0.020   3.262
10045SOL    HW131034   3.744   6.989   3.298
10045SOL    HW231035   3.831   0.106   3.311
10046SOL     OW31036   2.359   3.787   0.693
10046SOL    HW131037   2.309   3.874   0.688
10046SOL    HW231038   2.435   3.795   0.758
10047SOL     OW31039   0.598   3.805   5.616
10047SOL    HW131040   0.656   3.765   5.686
10047SOL    HW231041   0.527   3.739   5.589
10048SOL     OW31042   6.011   0.880   2.957
10048SOL    HW131043   6.051   0.929   2.879
10048SOL    HW231044   5.973   0.945   3.022
10049SOL     OW31045   0.324   1.480   6.670
10049SOL    HW131046   0.233   1.443   6.690
10049SOL    HW231047   0.353   1.540   6.744
10050SOL     OW31048   5.429   3.477   5.110
10050SOL    HW131049   5.496   3.521   5.051
10050SOL    HW231050   5.399   3.391   5.067
10051SOL     OW31051   5.936   3.697   5.861
10051SOL    HW131052   5.986   3.698   5.774
10051SOL    HW231053   5.991   3.652   5.931
10052SOL     OW31054   1.855   2.068   3.082
10052SOL    HW131055   1.887   1.973   3.082
10052SOL    HW231056   1.770   2.074   3.029
10053SOL     OW31057   3.771   5.702   3.260
10053SOL    HW131058   3.848   5.718   3.322
10053SOL    HW231059   3.798   5.635   3.191
10054SOL     OW31060   5.611   5.828   6.767
10054SOL    HW131061   5.624   5.735   6.733
10054SOL    HW231062   5.693   5.859   6.815
10055SOL     OW31063   5.604   0.996   4.828
10055SOL    HW131064   5.542   1.075   4.821
10055SOL    HW231065   5.642   0.991   4.920
10056SOL     OW31066   4.994   4.462   2.877
10056SOL    HW131067   5.074   4.467   2.937
10056SOL    HW231068   5.006   4.525   2.801
10057SOL     OW31069   4.277   2.511   5.562
10057SOL    HW131070   4.374   2.533   5.563
10057SOL    HW231071   4.239   2.521   5.654
10058SOL     OW31072   6.723   3.243   5.080
10058SOL    HW131073   6.787   3.219   5.007
10058SOL    HW231074   6.760   3.214   5.168
10059SOL     OW31075   6.624   0.911   0.704
10059SOL    HW131076   6.710   0.907   0.754
10059SOL    HW231077   6.642   0.937   0.609
10060SOL     OW31078   1.967   2.706   2.021
10060SOL    HW131079   1.913   2.789   2.036
10060SOL    HW231080   2.064   2.730   2.016
10061SOL     OW31081   4.470   1.140   4.247
10061SOL    HW131082   4.474   1.222   4.304
10061SOL    HW231083   4.447   1.166   4.153
10062SOL     OW31084   5.617   0.685   3.722
10062SOL    HW131085   5.544   0.630   3.762
10062SOL    HW231086   5.582   0.775   3.696
10063SOL     OW31087   2.849   0.867   4.200
10063SOL    HW131088   2.794   0.859   4.117
10063SOL    HW231089   2.943   0.888   4.175
10064SOL     OW31090   4.973   6.664   0.187
10064SOL    HW131091   4.927   6.603   0.251
10064SOL    HW231092   4.906   6.729   0.150
10065SOL     OW31093   3.345   0.337   2.802
10065SOL    HW131094   3.434   0.339   2.757
10065SOL    HW231095   3.338   0.415   2.865
10066SOL     OW31096   0.230   2.771   4.355
10066SOL    HW131097   0.226   2.863   4.318
10066SOL    HW231098   0.152   2.756   4.416
10067SOL     OW31099   0.431   3.722   5.425
10067SOL    HW131100   0.393   3.668   5.349
10067SOL    HW231101   0.460   3.811   5.391
10068SOL     OW31102   0.333   3.378   3.423
10068SOL    HW131103   0.400   3.404   3.353
10068SOL    HW231104   0.376   3.317   3.489
10069SOL     OW31105   3.165   5.424   2.286
10069SOL    HW131106   3.184   5.327   2.273
10069SOL    HW231107   3.099   5.455   2.217
10070SOL     OW31108   0.733   6.242   5.053
10070SOL    HW131109   0.693   6.213   4.967
10070SOL    HW231110   0.677   6.208   5.129
10071SOL     OW31111   6.676   6.276   4.383
10071SOL    HW131112   6.588   6.228   4.388
10071SOL    HW231113   6.661   6.371   4.354
10072SOL     OW31114   6.560   6.511   4.279
10072SOL    HW131115   6.622   6.573   4.328
10072SOL    HW231116   6.484   6.487   4.339
10073SOL     OW31117   6.309   4.718   3.963
10073SOL    HW131118   6.275   4.736   3.870
10073SOL    HW231119   6.244   4.658   4.010
10074SOL     OW31120   2.115   0.393   5.473
10074SOL    HW131121   2.214   0.374   5.469
10074SOL    HW231122   2.067   0.329   5.413
10075SOL     OW31123   1.721   2.563   2.421
10075SOL    HW131124   1.644   2.615   2.383
10075SOL    HW231125   1.774   2.621   2.482
10076SOL     OW31126   6.049   6.428   3.738
10076SOL    HW131127   6.049   6.382   3.827
10076SOL    HW231128   6.077   6.523   3.749
10077SOL     OW31129   4.450   3.256   0.155
10077SOL    HW131130   4.377   3.215   0.210
10077SOL    HW231131   4.492   3.185   0.098
10078SOL     OW31132   6.420   5.748   4.223
10078SOL    HW131133   6.453   5.796   4.142
10078SOL    HW231134   6.432   5.806   4.303
10079SOL     OW31135   5.986   3.205   3.527
10079SOL    HW131136   6.017   3.293   3.565
10079SOL    HW231137   5.995   3.207   3.428
10080SOL     OW31138   5.112   0.611   5.719
10080SOL    HW131139   5.105   0.561   5.805
10080SOL    HW231140   5.069   0.559   5.646
10081SOL     OW31141   0.085   1.298   0.221
10081SOL    HW131142   0.143   1.358   0.166
10081SOL    HW231143   0.070   1.212   0.171
10082SOL     OW31144   0.551   5.340   1.619
10082SOL    HW131145   0.475   5.304   1.675
10082SOL    HW231146   0.601   5.409   1.672
10083SOL     OW31147   4.125   0.613   3.584
10083SOL    HW131148   4.197   0.648   3.644
10083SOL    HW231149   4.160   0.606   3.491
10084SOL     OW31150   1.842   0.304   5.937
10084SOL    HW131151   1.746   0.294   5.959
10084SOL    HW231152   1.880   0.215   5.910
10085SOL     OW31153   2.969   6.314   0.977
10085SOL    HW131154   3.045   6.298   1.039
10085SOL    HW231155   2.998   6.376   0.904
10086SOL     OW31156   5.506   6.391   2.316
10086SOL    HW131157   5.525   6.394   2.414
10086SOL    HW231158   5.588   6.417   2.265
10087SOL     OW31159   6.525   5.806   3.781
10087SOL    HW131160   6.426   5.816   3.777
10087SOL    HW231161   6.550   5.712   3.760
10088SOL     OW31162   0.094   6.896   2.165
10088SOL    HW131163   0.067   6.800   2.165
10088SOL    HW231164   0.145   6.916   2.081
10089SOL     OW31165   2.816   1.856   3.725
10089SOL    HW131166   2.769   1.820   3.805
10089SOL    HW231167   2.772   1.941   3.696
10090SOL     OW31168   0.554   5.174   2.009
10090SOL    HW131169   0.644   5.207   2.038
10090SOL    HW231170   0.506   5.136   2.088
10091SOL     OW31171   6.868   5.351   6.450
10091SOL    HW131172   6.815   5.436   6.457
10091SOL    HW231173   6.834   5.285   6.516
10092SOL     OW31174   2.614   2.983   5.702
10092SOL    HW131175   2.587   2.889   5.721
10092SOL    HW231176   2.599   3.002   5.604
10093SOL     OW31177   4.751   3.358   5.295
10093SOL    HW131178   4.754   3.370   5.395
10093SOL    HW231179   4.698   3.432   5.254
10094SOL     OW31180   3.092   5.450   1.842
10094SOL    HW131181   3.037   5.458   1.925
10094SOL    HW231182   3.056   5.512   1.772
10095SOL     OW31183   5.294   1.742   4.400
10095SOL    HW131184   5.298   1.840   4.383
10095SOL    HW231185   5.387   1.705   4.407
10096SOL     OW31186   3.966   5.812   2.930
10096SOL    HW131187   3.944   5.715   2.936
10096SOL    HW231188   4.056   5.823   2.887
10097SOL     OW31189   1.685   1.905   0.023
10097SOL    HW131190   1.674   1.805   0.020
10097SOL    HW231191   1.648   1.944   6.959
10098SOL     OW31192   2.974   0.165   5.228
10098SOL    HW131193   2.983   0.086   5.289
10098SOL    HW231194   2.999   0.248   5.277
10099SOL     OW31195   0.907   5.040   1.869
10099SOL    HW131196   0.928   5.137   1.877
10099SOL    HW231197   0.917   5.012   1.773
10100SOL     OW31198   5.127   5.876   5.913
10100SOL    HW131199   5.045   5.819   5.901
10100SOL    HW231200   5.101   5.959   5.963
10101SOL     OW31201   6.488   3.134   2.078
10101SOL    HW131202   6.488   3.123   1.979
10101SOL    HW231203   6.433   3.061   2.119
10102SOL     OW31204   6.926   1.419   2.078
10102SOL    HW131205   6.844   1.395   2.130
10102SOL    HW231206   6.995   1.455   2.140
10103SOL     OW31207   2.950   0.638   5.794
10103SOL    HW131208   2.901   0.723   5.814
10103SOL    HW231209   3.032   0.659   5.740
10104SOL     OW31210   1.301   1.994   5.054
10104SOL    HW131211   1.367   2.034   4.991
10104SOL    HW231212   1.223   1.959   5.001
10105SOL     OW31213   1.956   0.334   6.211
10105SOL    HW131214   1.858   0.322   6.230
10105SOL    HW231215   1.975   0.309   6.116
10106SOL     OW31216   4.122   6.706   0.790
10106SOL    HW131217   4.049   6.667   0.735
10106SOL    HW231218   4.207   6.706   0.738
10107SOL     OW31219   5.344   1.515   5.551
10107SOL    HW131220   5.296   1.428   5.540
10107SOL    HW231221   5.401   1.511   5.633
10108SOL     OW31222   6.705   0.925   0.457
10108SOL    HW131223   6.802   0.949   0.452
10108SOL    HW231224   6.687   0.843   0.402
10109SOL     OW31225   6.960   1.028   0.442
10109SOL    HW131226   0.028   1.022   0.396
10109SOL    HW231227   6.941   1.123   0.466
10110SOL     OW31228   4.804   4.875   3.939
10110SOL    HW131229   4.712   4.890   3.976
10110SOL    HW231230   4.825   4.778   3.940
10111SOL     OW31231   6.519   3.538   3.550
10111SOL    HW131232   6.544   3.634   3.555
10111SOL    HW231233   6.562   3.488   3.625
10112SOL     OW31234   6.013   3.585   3.082
10112SOL    HW131235   6.025   3.660   3.148
10112SOL    HW231236   6.051   3.612   2.994
10113SOL     OW31237   4.503   6.825   0.541
10113SOL    HW131238   4.563   6.809   0.462
10113SOL    HW231239   4.533   6.907   0.589
10114SOL     OW31240   3.960   2.171   2.365
10114SOL    HW131241   3.930   2.259   2.329
10114SOL    HW231242   3.886   2.104   2.355
10115SOL     OW31243   4.716   1.898   5.397
10115SOL    HW131244   4.719   1.993   5.367
10115SOL    HW231245   4.650   1.889   5.472
10116SOL     OW31246   1.057   0.696   6.950
10116SOL    HW131247   1.121   0.681   0.005
10116SOL    HW231248   0.997   0.773   6.972
10117SOL     OW31249   6.280   6.596   6.037
10117SOL    HW131250   6.186   6.611   6.007
10117SOL    HW231251   6.281   6.529   6.111
10118SOL     OW31252   2.357   4.492   3.567
10118SOL    HW131253   2.413   4.574   3.555
10118SOL    HW231254   2.366   4.433   3.487
10119SOL     OW31255   6.668   5.141   3.940
10119SOL    HW131256   6.747   5.093   3.978
10119SOL    HW231257   6.642   5.100   3.853
10120SOL     OW31258   1.883   3.418   4.573
10120SOL    HW131259   1.839   3.398   4.486
10120SOL    HW231260   1.979   3.390   4.569
10121SOL     OW31261   5.369   4.156   6.620
10121SOL    HW131262   5.465   4.184   6.614
10121SOL    HW231263   5.310   4.229   6.587
10122SOL     OW31264   5.197   2.277   3.057
10122SOL    HW131265   5.123   2.343   3.060
10122SOL    HW231266   5.250   2.290   2.973
10123SOL     OW31267   5.598   5.989   0.742
10123SOL    HW131268   5.542   5.997   0.825
10123SOL    HW231269   5.590   6.073   0.688
10124SOL     OW31270   1.649   4.361   0.804
10124SOL    HW131271   1.663   4.453   0.767
10124SOL    HW231272   1.738   4.317   0.817
10125SOL     OW31273   2.254   1.607   1.181
10125SOL    HW131274   2.215   1.695   1.206
10125SOL    HW231275   2.319   1.578   1.252
10126SOL     OW31276   0.308   0.239   0.583
10126SOL    HW131277   0.219   0.255   0.627
10126SOL    HW231278   0.302   0.159   0.524
10127SOL     OW31279   1.818   3.232   0.226
10127SOL    HW131280   1.781   3.253   0.136
10127SOL    HW231281   1.820   3.316   0.282
10128SOL     OW31282   3.301   0.964   6.281
10128SOL    HW131283   3.220   0.921   6.321
10128SOL    HW231284   3.274   1.045   6.228
10129SOL     OW31285   6.303   1.326   2.863
10129SOL    HW131286   6.282   1.302   2.958
10129SOL    HW231287   6.299   1.425   2.851
10130SOL     OW31288   1.017   3.477   1.359
10130SOL    HW131289   1.107   3.442   1.334
10130SOL    HW231290   0.972   3.514   1.278
10131SOL     OW31291   1.987   0.058   4.452
10131SOL    HW131292   2.051   0.008   4.511
10131SOL    HW231293   1.932   7.013   4.399
10132SOL     OW31294   1.907   0.736   3.256
10132SOL    HW131295   1.825   0.788   3.277
10132SOL    HW231296   1.958   0.781   3.183
10133SOL     OW31297   4.743   6.536   0.750
10133SOL    HW131298   4.656   6.490   0.731
10133SOL    HW231299   4.805   6.474   0.796
10134SOL     OW31300   5.672   1.350   2.462
10134SOL    HW131301   5.577   1.381   2.457
10134SOL    HW231302   5.722   1.407   2.528
10135SOL     OW31303   5.016   2.860   3.449
10135SOL    HW131304   4.928   2.873   3.402
10135SOL    HW231305   5.080   2.931   3.422
10136SOL     OW31306   4.986   2.192   2.282
10136SOL    HW131307   4.912   2.132   2.252
10136SOL    HW231308   4.949   2.265   2.338
10137SOL     OW31309   0.562   4.348   5.165
10137SOL    HW131310   0.547   4.258   5.124
10137SOL    HW231311   0.476   4.380   5.205
10138SOL     OW31312   4.889   3.605   0.665
10138SOL    HW131313   4.840   3.657   0.595
10138SOL    HW231314   4.978   3.648   0.683
10139SOL     OW31315   2.937   3.308   4.201
10139SOL    HW131316   2.927   3.273   4.108
10139SOL    HW231317   2.968   3.235   4.261
10140SOL     OW31318   0.390   6.362   6.953
10140SOL    HW131319   0.459   6.307   6.907
10140SOL    HW231320   0.383   6.451   6.907
10141SOL     OW31321   4.618   1.398   5.626
10141SOL    HW131322   4.555   1.470   5.657
10141SOL    HW231323   4.579   1.309   5.649
10142SOL     OW31324   6.162   6.105   6.065
10142SOL    HW131325   6.254   6.079   6.095
10142SOL    HW231326   6.150   6.081   5.969
10143SOL     OW31327   5.472   2.220   1.115
10143SOL    HW131328   5.418   2.253   1.037
10143SOL    HW231329   5.524   2.139   1.087
10144SOL     OW31330   4.526   6.871   6.260
10144SOL    HW131331   4.506   6.952   6.316
10144SOL    HW231332   4.566   6.901   6.173
10145SOL     OW31333   3.444   5.958   3.214
10145SOL    HW131334   3.405   6.036   3.165
10145SOL    HW231335   3.518   5.919   3.160
10146SOL     OW31336   5.764   4.089   4.475
10146SOL    HW131337   5.761   3.993   4.446
10146SOL    HW231338   5.676   4.132   4.454
10147SOL     OW31339   4.842   3.831   6.327
10147SOL    HW131340   4.768   3.771   6.356
10147SOL    HW231341   4.817   3.926   6.346
10148SOL     OW31342   5.970   5.130   6.909
10148SOL    HW131343   5.959   5.087   6.999
10148SOL    HW231344   5.924   5.219   6.909
10149SOL     OW31345   5.344   3.731   1.458
10149SOL    HW131346   5.366   3.813   1.512
10149SOL    HW231347   5.384   3.740   1.367
10150SOL     OW31348   3.966   2.942   1.786
10150SOL    HW131349   3.878   2.937   1.832
10150SOL    HW231350   4.031   2.994   1.841
10151SOL     OW31351   0.933   6.691   0.098
10151SOL    HW131352   0.902   6.776   0.057
10151SOL    HW231353   1.030   6.678   0.077
10152SOL     OW31354   6.896   6.097   3.343
10152SOL    HW131355   6.894   6.053   3.433
10152SOL    HW231356   6.991   6.107   3.313
10153SOL     OW31357   5.287   6.327   3.794
10153SOL    HW131358   5.275   6.245   3.851
10153SOL    HW231359   5.326   6.300   3.706
10154SOL     OW31360   3.866   6.416   5.207
10154SOL    HW131361   3.775   6.454   5.220
10154SOL    HW231362   3.877   6.386   5.113
10155SOL     OW31363   4.899   2.430   5.921
10155SOL    HW131364   4.989   2.472   5.935
10155SOL    HW231365   4.869   2.387   6.007
10156SOL     OW31366   5.504   0.509   1.862
10156SOL    HW131367   5.451   0.499   1.778
10156SOL    HW231368   5.448   0.553   1.932
10157SOL     OW31369   0.020   2.289   0.515
10157SOL    HW131370   6.950   2.255   0.541
10157SOL    HW231371   0.091   2.239   0.565
10158SOL     OW31372   6.248   5.964   1.184
10158SOL    HW131373   6.191   5.990   1.263
10158SOL    HW231374   6.220   5.874   1.151
10159SOL     OW31375   3.597   2.756   2.054
10159SOL    HW131376   3.597   2.785   2.150
10159SOL    HW231377   3.566   2.661   2.048
10160SOL     OW31378   1.582   3.439   3.119
10160SOL    HW131379   1.658   3.441   3.184
10160SOL    HW231380   1.529   3.524   3.127
10161SOL     OW31381   3.457   4.054   6.900
10161SOL    HW131382   3.466   3.957   6.924
10161SOL    HW231383   3.426   4.105   6.980
10162SOL     OW31384   2.776   5.495   0.636
10162SOL    HW131385   2.821   5.584   0.626
10162SOL    HW231386   2.734   5.489   0.727
10163SOL     OW31387   0.354   3.881   6.669
10163SOL    HW131388   0.342   3.799   6.614
10163SOL    HW231389   0.374   3.959   6.610
10164SOL     OW31390   6.005   3.417   4.949
10164SOL    HW131391   5.960   3.331   4.926
10164SOL    HW231392   5.989   3.437   5.046
10165SOL     OW31393   6.356   2.234   3.401
10165SOL    HW131394   6.301   2.230   3.484
10165SOL    HW231395   6.297   2.255   3.323
10166SOL     OW31396   2.147   1.807   1.392
10166SOL    HW131397   2.183   1.738   1.455
10166SOL    HW231398   2.210   1.885   1.388
10167SOL     OW31399   0.552   5.559   0.391
10167SOL    HW131400   0.579   5.527   0.300
10167SOL    HW231401   0.622   5.533   0.458
10168SOL     OW31402   6.767   2.213   5.801
10168SOL    HW131403   6.738   2.217   5.897
10168SOL    HW231404   6.863   2.188   5.796
10169SOL     OW31405   0.296   3.660   3.508
10169SOL    HW131406   0.216   3.677   3.567
10169SOL    HW231407   0.304   3.563   3.489
10170SOL     OW31408   6.544   5.050   6.330
10170SOL    HW131409   6.462   5.051   6.273
10170SOL    HW231410   6.525   5.096   6.417
10171SOL     OW31411   0.513   2.939   4.322
10171SOL    HW131412   0.606   2.977   4.319
10171SOL    HW231413   0.453   3.003   4.369
10172SOL     OW31414   0.798   6.311   4.132
10172SOL    HW131415   0.780   6.212   4.127
10172SOL    HW231416   0.775   6.344   4.223
10173SOL     OW31417   2.136   3.061   0.536
10173SOL    HW131418   2.216   3.004   0.550
10173SOL    HW231419   2.070   3.045   0.610
10174SOL     OW31420   5.097   4.798   3.666
10174SOL    HW131421   5.061   4.872   3.723
10174SOL    HW231422   5.137   4.727   3.724
10175SOL     OW31423   5.225   2.656   3.481
10175SOL    HW131424   5.133   2.693   3.473
10175SOL    HW231425   5.291   2.731   3.481
10176SOL     OW31426   6.629   2.711   5.515
10176SOL    HW131427   6.573   2.773   5.459
10176SOL    HW231428   6.708   2.681   5.462
10177SOL     OW31429   1.887   0.820   0.243
10177SOL    HW131430   1.948   0.812   0.322
10177SOL    HW231431   1.797   0.851   0.273
10178SOL     OW31432   0.765   0.586   0.596
10178SOL    HW131433   0.737   0.502   0.548
10178SOL    HW231434   0.693   0.612   0.661
10179SOL     OW31435   0.569   3.126   6.544
10179SOL    HW131436   0.606   3.065   6.474
10179SOL    HW231437   0.518   3.071   6.611
10180SOL     OW31438   5.098   0.218   0.869
10180SOL    HW131439   5.114   0.148   0.800
10180SOL    HW231440   5.001   0.238   0.875
10181SOL     OW31441   0.310   2.354   1.187
10181SOL    HW131442   0.222   2.393   1.160
10181SOL    HW231443   0.308   2.331   1.284
10182SOL     OW31444   5.030   0.563   0.615
10182SOL    HW131445   5.002   0.656   0.594
10182SOL    HW231446   5.070   0.560   0.707
10183SOL     OW31447   5.933   2.803   5.655
10183SOL    HW131448   5.904   2.707   5.647
10183SOL    HW231449   5.959   2.837   5.564
10184SOL     OW31450   4.333   2.461   6.613
10184SOL    HW131451   4.377   2.459   6.703
10184SOL    HW231452   4.397   2.495   6.544
10185SOL     OW31453   6.421   5.761   2.062
10185SOL    HW131454   6.347   5.729   2.002
10185SOL    HW231455   6.381   5.804   2.143
10186SOL     OW31456   5.181   3.889   4.449
10186SOL    HW131457   5.141   3.970   4.493
10186SOL    HW231458   5.263   3.915   4.400
10187SOL     OW31459   1.480   3.832   6.670
10187SOL    HW131460   1.554   3.888   6.709
10187SOL    HW231461   1.431   3.885   6.601
10188SOL     OW31462   2.567   5.315   6.763
10188SOL    HW131463   2.580   5.352   6.671
10188SOL    HW231464   2.470   5.295   6.778
10189SOL     OW31465   0.608   0.969   6.326
10189SOL    HW131466   0.705   0.950   6.313
10189SOL    HW231467   0.564   0.983   6.237
10190SOL     OW31468   4.011   2.861   1.527
10190SOL    HW131469   4.059   2.775   1.545
10190SOL    HW231470   3.993   2.908   1.613
10191SOL     OW31471   4.951   5.406   6.602
10191SOL    HW131472   4.980   5.315   6.572
10191SOL    HW231473   4.958   5.411   6.702
10192SOL     OW31474   3.836   1.541   5.202
10192SOL    HW131475   3.872   1.485   5.128
10192SOL    HW231476   3.736   1.540   5.200
10193SOL     OW31477   2.903   3.710   2.417
10193SOL    HW131478   2.826   3.712   2.481
10193SOL    HW231479   2.946   3.620   2.421
10194SOL     OW31480   4.825   0.437   4.666
10194SOL    HW131481   4.773   0.430   4.751
10194SOL    HW231482   4.779   0.501   4.604
10195SOL     OW31483   6.374   6.619   1.314
10195SOL    HW131484   6.324   6.620   1.401
10195SOL    HW231485   6.427   6.704   1.305
10196SOL     OW31486   4.637   2.170   4.042
10196SOL    HW131487   4.659   2.246   3.981
10196SOL    HW231488   4.580   2.104   3.994
10197SOL     OW31489   4.946   2.296   4.205
10197SOL    HW131490   4.903   2.385   4.217
10197SOL    HW231491   4.900   2.228   4.263
10198SOL     OW31492   3.913   0.310   1.629
10198SOL    HW131493   3.829   0.258   1.646
10198SOL    HW231494   3.953   0.337   1.717
10199SOL     OW31495   1.049   2.260   0.051
10199SOL    HW131496   1.072   2.238   0.146
10199SOL    HW231497   1.027   2.357   0.045
10200SOL     OW31498   5.109   3.190   5.571
10200SOL    HW131499   5.202   3.162   5.549
10200SOL    HW231500   5.094   3.284   5.539
10201SOL     OW31501   0.583   6.291   0.533
10201SOL    HW131502   0.676   6.257   0.521
10201SOL    HW231503   0.586   6.387   0.561
10202SOL     OW31504   2.295   4.453   6.866
10202SOL    HW131505   2.286   4.470   6.768
10202SOL    HW231506   2.223   4.389   6.895
10203SOL     OW31507   0.617   2.903   1.993
10203SOL    HW131508   0.609   2.811   2.031
10203SOL    HW231509   0.677   2.958   2.051
10204SOL     OW31510   3.599   5.586   0.042
10204SOL    HW131511   3.531   5.652   0.071
10204SOL    HW231512   3.642   5.618   6.977
10205SOL     OW31513   3.072   1.071   2.315
10205SOL    HW131514   3.118   1.136   2.255
10205SOL    HW231515   2.983   1.107   2.342
10206SOL     OW31516   5.689   6.975   6.540
10206SOL    HW131517   5.643   0.022   6.599
10206SOL    HW231518   5.766   6.934   6.589
10207SOL     OW31519   1.882   1.216   6.752
10207SOL    HW131520   1.978   1.206   6.776
10207SOL    HW231521   1.871   1.291   6.687
10208SOL     OW31522   6.263   4.422   3.368
10208SOL    HW131523   6.346   4.457   3.326
10208SOL    HW231524   6.185   4.479   3.340
10209SOL     OW31525   0.105   0.147   6.305
10209SOL    HW131526   0.052   0.207   6.366
10209SOL    HW231527   0.193   0.126   6.348
10210SOL     OW31528   5.365   6.784   1.228
10210SOL    HW131529   5.400   6.849   1.295
10210SOL    HW231530   5.432   6.773   1.154
10211SOL     OW31531   3.868   6.284   4.966
10211SOL    HW131532   3.778   6.242   4.976
10211SOL    HW231533   3.897   6.278   4.871
10212SOL     OW31534   0.054   7.019   5.258
10212SOL    HW131535   0.135   6.966   5.284
10212SOL    HW231536   0.009   6.976   5.180
10213SOL     OW31537   5.418   3.040   2.642
10213SOL    HW131538   5.334   3.028   2.588
10213SOL    HW231539   5.402   3.008   2.736
10214SOL     OW31540   0.915   2.067   2.220
10214SOL    HW131541   0.991   2.117   2.179
10214SOL    HW231542   0.945   2.028   2.307
10215SOL     OW31543   3.153   3.064   3.811
10215SOL    HW131544   3.161   3.105   3.721
10215SOL    HW231545   3.105   3.127   3.872
10216SOL     OW31546   0.647   6.886   1.110
10216SOL    HW131547   0.572   6.824   1.090
10216SOL    HW231548   0.611   6.974   1.141
10217SOL     OW31549   2.112   1.947   2.972
10217SOL    HW131550   2.164   1.904   2.898
10217SOL    HW231551   2.035   1.999   2.934
10218SOL     OW31552   1.573   0.768   1.648
10218SOL    HW131553   1.532   0.711   1.577
10218SOL    HW231554   1.672   0.766   1.639
10219SOL     OW31555   0.135   3.349   2.318
10219SOL    HW131556   0.160   3.362   2.414
10219SOL    HW231557   0.118   3.253   2.300
10220SOL     OW31558   4.231   1.880   1.139
10220SOL    HW131559   4.180   1.833   1.212
10220SOL    HW231560   4.304   1.821   1.106
10221SOL     OW31561   1.770   3.181   4.716
10221SOL    HW131562   1.794   3.260   4.659
10221SOL    HW231563   1.715   3.211   4.794
10222SOL     OW31564   2.582   3.939   5.421
10222SOL    HW131565   2.672   3.945   5.378
10222SOL    HW231566   2.583   3.867   5.490
10223SOL     OW31567   2.149   6.311   6.760
10223SOL    HW131568   2.167   6.268   6.672
10223SOL    HW231569   2.080   6.383   6.749
10224SOL     OW31570   0.295   1.552   4.960
10224SOL    HW131571   0.210   1.593   4.927
10224SOL    HW231572   0.318   1.474   4.903
10225SOL     OW31573   2.325   6.168   5.878
10225SOL    HW131574   2.287   6.232   5.945
10225SOL    HW231575   2.388   6.106   5.924
10226SOL     OW31576   2.390   0.678   6.291
10226SOL    HW131577   2.454   0.709   6.220
10226SOL    HW231578   2.380   0.750   6.360
10227SOL     OW31579   5.286   4.434   0.987
10227SOL    HW131580   5.265   4.505   0.919
10227SOL    HW231581   5.210   4.425   1.050
10228SOL     OW31582   1.052   6.255   1.865
10228SOL    HW131583   1.082   6.311   1.787
10228SOL    HW231584   0.964   6.213   1.844
10229SOL     OW31585   1.536   1.554   4.430
10229SOL    HW131586   1.491   1.469   4.403
10229SOL    HW231587   1.621   1.564   4.379
10230SOL     OW31588   6.510   6.756   2.947
10230SOL    HW131589   6.477   6.837   2.995
10230SOL    HW231590   6.485   6.762   2.850
10231SOL     OW31591   6.182   5.411   4.870
10231SOL    HW131592   6.088   5.446   4.867
10231SOL    HW231593   6.215   5.397   4.777
10232SOL     OW31594   2.848   1.119   4.620
10232SOL    HW131595   2.933   1.142   4.572
10232SOL    HW231596   2.786   1.197   4.618
10233SOL     OW31597   4.930   3.375   5.102
10233SOL    HW131598   4.911   3.466   5.065
10233SOL    HW231599   4.870   3.357   5.179
10234SOL     OW31600   5.512   0.184   0.244
10234SOL    HW131601   5.505   0.258   0.177
10234SOL    HW231602   5.577   0.210   0.315
10235SOL     OW31603   3.987   3.036   0.259
10235SOL    HW131604   3.936   3.017   0.343
10235SOL    HW231605   3.929   3.086   0.195
10236SOL     OW31606   2.118   0.734   1.864
10236SOL    HW131607   2.053   0.659   1.872
10236SOL    HW231608   2.069   0.818   1.842
10237SOL     OW31609   6.902   4.386   0.448
10237SOL    HW131610   6.808   4.356   0.467
10237SOL    HW231611   6.954   4.308   0.412
10238SOL     OW31612   3.154   3.994   3.186
10238SOL    HW131613   3.137   4.036   3.276
10238SOL    HW231614   3.078   3.934   3.162
10239SOL     OW31615   2.097   4.197   5.532
10239SOL    HW131616   2.192   4.212   5.558
10239SOL    HW231617   2.091   4.124   5.465
10240SOL     OW31618   1.630   4.528   2.997
10240SOL    HW131619   1.635   4.621   2.962
10240SOL    HW231620   1.547   4.484   2.962
10241SOL     OW31621   6.597   0.651   2.503
10241SOL    HW131622   6.655   0.695   2.434
10241SOL    HW231623   6.655   0.611   2.574
10242SOL     OW31624   6.896   1.477   0.189
10242SOL    HW131625   6.806   1.446   0.220
10242SOL    HW231626   6.967   1.423   0.234
10243SOL     OW31627   1.714   5.123   1.726
10243SOL    HW131628   1.652   5.165   1.792
10243SOL    HW231629   1.788   5.077   1.775
10244SOL     OW31630   1.281   3.866   0.692
10244SOL    HW131631   1.244   3.885   0.601
10244SOL    HW231632   1.365   3.919   0.705
10245SOL     OW31633   3.065   4.735   0.155
10245SOL    HW131634   3.157   4.713   0.185
10245SOL    HW231635   3.052   4.704   0.061
10246SOL     OW31636   3.415   4.132   3.510
10246SOL    HW131637   3.435   4.122   3.608
10246SOL    HW231638   3.317   4.118   3.494
10247SOL     OW31639   6.798   5.083   5.899
10247SOL    HW131640   6.895   5.107   5.899
10247SOL    HW231641   6.752   5.128   5.976
10248SOL     OW31642   2.524   0.043   2.205
10248SOL    HW131643   2.529   6.967   2.233
10248SOL    HW231644   2.613   0.086   2.217
10249SOL     OW31645   3.397   0.311   6.371
10249SOL    HW131646   3.434   0.401   6.350
10249SOL    HW231647   3.308   0.300   6.326
10250SOL     OW31648   6.631   3.091   1.362
10250SOL    HW131649   6.722   3.125   1.339
10250SOL    HW231650   6.605   3.124   1.453
10251SOL     OW31651   3.109   1.498   5.133
10251SOL    HW131652   3.083   1.418   5.080
10251SOL    HW231653   3.098   1.479   5.231
10252SOL     OW31654   4.490   4.662   0.309
10252SOL    HW131655   4.483   4.738   0.244
10252SOL    HW231656   4.433   4.586   0.278
10253SOL     OW31657   3.145   6.168   0.200
10253SOL    HW131658   3.106   6.112   0.126
10253SOL    HW231659   3.096   6.149   0.285
10254SOL     OW31660   4.613   0.748   4.708
10254SOL    HW131661   4.519   0.783   4.711
10254SOL    HW231662   4.671   0.811   4.657
10255SOL     OW31663   2.320   6.881   1.498
10255SOL    HW131664   2.256   6.852   1.569
10255SOL    HW231665   2.270   6.928   1.425
10256SOL     OW31666   6.047   0.936   1.645
10256SOL    HW131667   6.146   0.929   1.636
10256SOL    HW231668   6.025   1.001   1.717
10257SOL     OW31669   1.910   5.197   4.862
10257SOL    HW131670   1.880   5.102   4.864
10257SOL    HW231671   1.853   5.249   4.799
10258SOL     OW31672   3.680   0.758   4.172
10258SOL    HW131673   3.674   0.763   4.272
10258SOL    HW231674   3.665   0.849   4.133
10259SOL     OW31675   0.145   4.319   2.911
10259SOL    HW131676   0.092   4.285   2.833
10259SOL    HW231677   0.093   4.305   2.996
10260SOL     OW31678   0.459   0.719   4.209
10260SOL    HW131679   0.442   0.663   4.290
10260SOL    HW231680   0.402   0.687   4.134
10261SOL     OW31681   6.967   5.963   3.040
10261SOL    HW131682   6.980   6.061   3.028
10261SOL    HW231683   6.885   5.946   3.094
10262SOL     OW31684   1.816   6.853   4.235
10262SOL    HW131685   1.849   6.767   4.274
10262SOL    HW231686   1.894   6.909   4.208
10263SOL     OW31687   5.243   0.841   6.449
10263SOL    HW131688   5.180   0.851   6.372
10263SOL    HW231689   5.253   0.929   6.496
10264SOL     OW31690   5.885   2.324   5.309
10264SOL    HW131691   5.874   2.347   5.405
10264SOL    HW231692   5.816   2.371   5.254
10265SOL     OW31693   2.455   2.184   3.208
10265SOL    HW131694   2.356   2.185   3.220
10265SOL    HW231695   2.482   2.097   3.166
10266SOL     OW31696   3.271   3.025   4.315
10266SOL    HW131697   3.293   3.004   4.220
10266SOL    HW231698   3.352   3.013   4.372
10267SOL     OW31699   6.992   1.730   0.242
10267SOL    HW131700   0.053   1.715   0.299
10267SOL    HW231701   6.961   1.642   0.205
10268SOL     OW31702   5.721   5.108   2.115
10268SOL    HW131703   5.643   5.074   2.166
10268SOL    HW231704   5.695   5.122   2.019
10269SOL     OW31705   0.223   3.394   6.637
10269SOL    HW131706   0.205   3.492   6.639
10269SOL    HW231707   0.181   3.350   6.716
10270SOL     OW31708   2.791   5.081   3.411
10270SOL    HW131709   2.729   5.158   3.394
10270SOL    HW231710   2.885   5.115   3.414
10271SOL     OW31711   3.657   2.161   0.129
10271SOL    HW131712   3.710   2.119   0.056
10271SOL    HW231713   3.683   2.257   0.139
10272SOL     OW31714   0.619   0.703   4.865
10272SOL    HW131715   0.570   0.755   4.935
10272SOL    HW231716   0.554   0.652   4.809
10273SOL     OW31717   3.341   5.758   2.575
10273SOL    HW131718   3.420   5.810   2.542
10273SOL    HW231719   3.326   5.679   2.515
10274SOL     OW31720   6.901   5.443   3.640
10274SOL    HW131721   6.958   5.525   3.635
10274SOL    HW231722   6.914   5.400   3.729
10275SOL     OW31723   0.987   0.233   1.644
10275SOL    HW131724   0.944   0.322   1.627
10275SOL    HW231725   0.962   0.201   1.735
10276SOL     OW31726   5.614   5.073   5.187
10276SOL    HW131727   5.592   5.034   5.276
10276SOL    HW231728   5.671   5.008   5.135
10277SOL     OW31729   2.167   5.408   4.395
10277SOL    HW131730   2.156   5.310   4.409
10277SOL    HW231731   2.188   5.426   4.299
10278SOL     OW31732   0.021   0.425   4.656
10278SOL    HW131733   6.941   0.435   4.649
10278SOL    HW231734   0.059   0.413   4.564
10279SOL     OW31735   3.122   5.257   4.159
10279SOL    HW131736   3.103   5.352   4.183
10279SOL    HW231737   3.216   5.234   4.187
10280SOL     OW31738   0.990   4.233   1.163
10280SOL    HW131739   1.014   4.220   1.066
10280SOL    HW231740   1.006   4.328   1.188
10281SOL     OW31741   5.876   1.394   3.044
10281SOL    HW131742   5.930   1.448   2.979
10281SOL    HW231743   5.780   1.397   3.019
10282SOL     OW31744   5.690   4.395   4.067
10282SOL    HW131745   5.757   4.427   4.000
10282SOL    HW231746   5.689   4.458   4.145
10283SOL     OW31747   1.309   3.841   1.144
10283SOL    HW131748   1.301   3.888   1.232
10283SOL    HW231749   1.268   3.897   1.072
10284SOL     OW31750   5.468   2.954   5.565
10284SOL    HW131751   5.427   3.004   5.488
10284SOL    HW231752   5.410   2.964   5.646
10285SOL     OW31753   5.501   1.308   1.438
10285SOL    HW131754   5.442   1.377   1.479
10285SOL    HW231755   5.468   1.217   1.463
10286SOL     OW31756   3.125   1.813   3.746
10286SOL    HW131757   3.030   1.819   3.713
10286SOL    HW231758   3.125   1.821   3.846
10287SOL     OW31759   2.262   6.202   1.041
10287SOL    HW131760   2.323   6.127   1.015
10287SOL    HW231761   2.286   6.285   0.989
10288SOL     OW31762   4.761   6.020   3.332
10288SOL    HW131763   4.739   6.112   3.300
10288SOL    HW231764   4.764   6.019   3.432
10289SOL     OW31765   2.802   0.032   2.173
10289SOL    HW131766   2.783   0.069   2.083
10289SOL    HW231767   2.843   6.961   2.164
10290SOL     OW31768   2.830   3.655   1.883
10290SOL    HW131769   2.929   3.643   1.884
10290SOL    HW231770   2.801   3.709   1.962
10291SOL     OW31771   3.572   1.957   3.687
10291SOL    HW131772   3.535   2.010   3.610
10291SOL    HW231773   3.663   1.992   3.710
10292SOL     OW31774   1.575   0.266   4.952
10292SOL    HW131775   1.591   0.364   4.944
10292SOL    HW231776   1.476   0.249   4.952
10293SOL     OW31777   2.135   5.060   3.054
10293SOL    HW131778   2.104   5.105   3.138
10293SOL    HW231779   2.083   4.976   3.041
10294SOL     OW31780   5.607   3.270   2.288
10294SOL    HW131781   5.545   3.209   2.238
10294SOL    HW231782   5.588   3.365   2.264
10295SOL     OW31783   5.798   4.357   6.395
10295SOL    HW131784   5.752   4.444   6.377
10295SOL    HW231785   5.821   4.313   6.309
10296SOL     OW31786   4.488   2.667   6.970
10296SOL    HW131787   4.570   2.708   7.011
10296SOL    HW231788   4.445   2.733   6.909
10297SOL     OW31789   2.344   7.018   7.000
10297SOL    HW131790   2.332   6.920   7.019
10297SOL    HW231791   2.327   0.015   6.903
10298SOL     OW31792   3.545   5.008   1.834
10298SOL    HW131793   3.557   4.915   1.867
10298SOL    HW231794   3.627   5.036   1.784
10299SOL     OW31795   4.705   5.559   3.069
10299SOL    HW131796   4.693   5.624   3.144
10299SOL    HW231797   4.802   5.556   3.043
10300SOL     OW31798   1.161   4.167   3.123
10300SOL    HW131799   1.061   4.166   3.125
10300SOL    HW231800   1.194   4.261   3.131
10301SOL     OW31801   5.312   2.199   4.538
10301SOL    HW131802   5.316   2.263   4.615
10301SOL    HW231803   5.304   2.106   4.572
10302SOL     OW31804   0.928   5.807   3.689
10302SOL    HW131805   0.947   5.893   3.642
10302SOL    HW231806   0.998   5.791   3.760
10303SOL     OW31807   1.713   5.802   2.578
10303SOL    HW131808   1.678   5.752   2.657
10303SOL    HW231809   1.643   5.808   2.508
10304SOL     OW31810   5.132   0.570   2.278
10304SOL    HW131811   5.099   0.565   2.183
10304SOL    HW231812   5.069   0.626   2.332
10305SOL     OW31813   0.584   4.324   6.953
10305SOL    HW131814   0.633   4.323   6.866
10305SOL    HW231815   0.609   4.244   7.007
10306SOL     OW31816   4.253   6.359   6.961
10306SOL    HW131817   4.182   6.354   0.011
10306SOL    HW231818   4.257   6.272   6.911
10307SOL     OW31819   2.393   1.962   4.788
10307SOL    HW131820   2.442   2.049   4.788
10307SOL    HW231821   2.435   1.900   4.721
10308SOL     OW31822   2.250   4.446   4.216
10308SOL    HW131823   2.160   4.480   4.187
10308SOL    HW231824   2.239   4.375   4.284
10309SOL     OW31825   5.750   1.189   4.686
10309SOL    HW131826   5.692   1.126   4.738
10309SOL    HW231827   5.819   1.136   4.636
10310SOL     OW31828   3.597   3.292   1.741
10310SOL    HW131829   3.659   3.304   1.818
10310SOL    HW231830   3.502   3.291   1.775
10311SOL     OW31831   0.878   6.564   0.873
10311SOL    HW131832   0.795   6.566   0.930
10311SOL    HW231833   0.934   6.486   0.900
10312SOL     OW31834   2.503   6.506   1.649
10312SOL    HW131835   2.466   6.448   1.721
10312SOL    HW231836   2.599   6.525   1.667
10313SOL     OW31837   4.570   0.263   1.120
10313SOL    HW131838   4.591   0.360   1.124
10313SOL    HW231839   4.478   0.247   1.156
10314SOL     OW31840   6.846   0.284   2.293
10314SOL    HW131841   6.808   0.300   2.202
10314SOL    HW231842   6.922   0.347   2.309
10315SOL     OW31843   6.186   5.946   4.408
10315SOL    HW131844   6.164   5.998   4.490
10315SOL    HW231845   6.285   5.936   4.400
10316SOL     OW31846   6.354   2.546   4.652
10316SOL    HW131847   6.328   2.462   4.699
10316SOL    HW231848   6.340   2.624   4.713
10317SOL     OW31849   3.688   5.973   5.756
10317SOL    HW131850   3.593   5.987   5.726
10317SOL    HW231851   3.732   6.062   5.770
10318SOL     OW31852   5.383   5.823   6.393
10318SOL    HW131853   5.414   5.911   6.429
10318SOL    HW231854   5.333   5.838   6.307
10319SOL     OW31855   2.042   2.206   5.775
10319SOL    HW131856   2.012   2.161   5.692
10319SOL    HW231857   2.037   2.305   5.763
10320SOL     OW31858   0.780   0.703   2.608
10320SOL    HW131859   0.707   0.751   2.657
10320SOL    HW231860   0.783   0.608   2.639
10321SOL     OW31861   4.243   0.700   2.581
10321SOL    HW131862   4.212   0.693   2.487
10321SOL    HW231863   4.172   0.666   2.643
10322SOL     OW31864   6.894   5.797   6.503
10322SOL    HW131865   6.800   5.769   6.522
10322SOL    HW231866   6.897   5.894   6.481
10323SOL     OW31867   6.130   3.577   6.016
10323SOL    HW131868   6.128   3.478   6.005
10323SOL    HW231869   6.213   3.604   6.064
10324SOL     OW31870   3.073   3.058   3.149
10324SOL    HW131871   3.150   3.012   3.194
10324SOL    HW231872   2.993   3.056   3.209
10325SOL     OW31873   0.303   3.684   3.082
10325SOL    HW131874   0.222   3.628   3.060
10325SOL    HW231875   0.370   3.628   3.130
10326SOL     OW31876   3.957   4.176   0.185
10326SOL    HW131877   3.922   4.204   0.096
10326SOL    HW231878   4.028   4.107   0.173
10327SOL     OW31879   2.646   2.145   1.857
10327SOL    HW131880   2.620   2.185   1.770
10327SOL    HW231881   2.710   2.205   1.904
10328SOL     OW31882   5.974   2.816   1.136
10328SOL    HW131883   5.923   2.823   1.050
10328SOL    HW231884   6.018   2.727   1.141
10329SOL     OW31885   3.471   0.510   3.718
10329SOL    HW131886   3.545   0.448   3.695
10329SOL    HW231887   3.420   0.535   3.636
10330SOL     OW31888   3.413   5.819   1.911
10330SOL    HW131889   3.381   5.782   1.998
10330SOL    HW231890   3.436   5.744   1.849
10331SOL     OW31891   6.711   0.824   4.351
10331SOL    HW131892   6.793   0.875   4.377
10331SOL    HW231893   6.733   0.759   4.278
10332SOL     OW31894   5.828   1.717   0.570
10332SOL    HW131895   5.781   1.635   0.537
10332SOL    HW231896   5.850   1.776   0.492
10333SOL     OW31897   6.756   4.734   4.118
10333SOL    HW131898   6.717   4.690   4.038
10333SOL    HW231899   6.695   4.806   4.150
10334SOL     OW31900   2.255   6.102   4.156
10334SOL    HW131901   2.252   6.037   4.079
10334SOL    HW231902   2.263   6.195   4.120
10335SOL     OW31903   2.498   4.851   6.677
10335SOL    HW131904   2.578   4.798   6.650
10335SOL    HW231905   2.527   4.928   6.733
10336SOL     OW31906   5.745   0.313   3.143
10336SOL    HW131907   5.831   0.284   3.185
10336SOL    HW231908   5.718   0.402   3.179
10337SOL     OW31909   6.765   6.506   5.749
10337SOL    HW131910   6.747   6.407   5.745
10337SOL    HW231911   6.754   6.538   5.843
10338SOL     OW31912   2.301   6.257   2.277
10338SOL    HW131913   2.385   6.260   2.223
10338SOL    HW231914   2.286   6.345   2.321
10339SOL     OW31915   2.544   6.039   0.414
10339SOL    HW131916   2.547   6.111   0.345
10339SOL    HW231917   2.509   6.076   0.500
10340SOL     OW31918   0.929   5.400   0.817
10340SOL    HW131919   0.929   5.328   0.747
10340SOL    HW231920   0.915   5.358   0.907
10341SOL     OW31921   2.054   3.548   1.756
10341SOL    HW131922   2.092   3.541   1.848
10341SOL    HW231923   2.093   3.477   1.698
10342SOL     OW31924   1.250   6.201   5.677
10342SOL    HW131925   1.188   6.259   5.730
10342SOL    HW231926   1.239   6.220   5.580
10343SOL     OW31927   1.897   3.998   0.906
10343SOL    HW131928   1.895   3.945   0.990
10343SOL    HW231929   1.867   3.941   0.830
10344SOL     OW31930   4.318   3.340   1.618
10344SOL    HW131931   4.300   3.362   1.522
10344SOL    HW231932   4.235   3.352   1.671
10345SOL     OW31933   1.406   0.657   6.110
10345SOL    HW131934   1.439   0.748   6.136
10345SOL    HW231935   1.310   0.663   6.081
10346SOL     OW31936   6.004   0.799   0.938
10346SOL    HW131937   5.915   0.791   0.892
10346SOL    HW231938   6.057   0.872   0.895
10347SOL     OW31939   4.988   2.636   2.416
10347SOL    HW131940   4.997   2.686   2.330
10347SOL    HW231941   5.000   2.700   2.493
10348SOL     OW31942   6.509   1.657   0.108
10348SOL    HW131943   6.466   1.679   0.196
10348SOL    HW231944   6.459   1.583   0.064
10349SOL     OW31945   6.383   0.926   0.836
10349SOL    HW131946   6.369   1.024   0.852
10349SOL    HW231947   6.464   0.914   0.778
10350SOL     OW31948   2.131   6.131   5.649
10350SOL    HW131949   2.146   6.099   5.743
10350SOL    HW231950   2.053   6.193   5.647
10351SOL     OW31951   5.559   4.850   6.121
10351SOL    HW131952   5.640   4.829   6.176
10351SOL    HW231953   5.583   4.910   6.046
10352SOL     OW31954   5.527   1.890   0.156
10352SOL    HW131955   5.586   1.831   0.211
10352SOL    HW231956   5.558   1.890   0.061
10353SOL     OW31957   5.872   1.861   4.486
10353SOL    HW131958   5.890   1.788   4.552
10353SOL    HW231959   5.835   1.941   4.534
10354SOL     OW31960   0.004   2.281   1.812
10354SOL    HW131961   6.927   2.262   1.828
10354SOL    HW231962   0.028   2.370   1.851
10355SOL     OW31963   1.329   1.061   0.970
10355SOL    HW131964   1.397   1.134   0.976
10355SOL    HW231965   1.351   1.000   0.894
10356SOL     OW31966   6.785   3.612   5.292
10356SOL    HW131967   6.838   3.696   5.285
10356SOL    HW231968   6.814   3.547   5.222
10357SOL     OW31969   3.218   2.477   6.052
10357SOL    HW131970   3.161   2.558   6.036
10357SOL    HW231971   3.286   2.496   6.122
10358SOL     OW31972   0.403   3.193   3.586
10358SOL    HW131973   0.375   3.247   3.665
10358SOL    HW231974   0.323   3.148   3.546
10359SOL     OW31975   5.351   1.521   1.916
10359SOL    HW131976   5.338   1.471   1.830
10359SOL    HW231977   5.350   1.619   1.897
10360SOL     OW31978   4.671   5.726   1.857
10360SOL    HW131979   4.697   5.768   1.944
10360SOL    HW231980   4.651   5.629   1.871
10361SOL     OW31981   2.836   1.311   3.196
10361SOL    HW131982   2.895   1.367   3.138
10361SOL    HW231983   2.757   1.365   3.224
10362SOL     OW31984   0.322   5.437   2.939
10362SOL    HW131985   0.328   5.514   3.002
10362SOL    HW231986   0.406   5.433   2.884
10363SOL     OW31987   5.217   2.954   1.219
10363SOL    HW131988   5.138   3.006   1.189
10363SOL    HW231989   5.210   2.860   1.187
10364SOL     OW31990   3.969   4.316   1.691
10364SOL    HW131991   4.067   4.338   1.685
10364SOL    HW231992   3.951   4.270   1.778
10365SOL     OW31993   5.107   4.011   6.509
10365SOL    HW131994   5.080   4.062   6.427
10365SOL    HW231995   5.192   3.960   6.490
10366SOL     OW31996   3.144   6.920   3.908
10366SOL    HW131997   3.105   6.977   3.980
10366SOL    HW231998   3.076   6.909   3.835
10367SOL     OW31999   6.879   1.810   1.958
10367SOL    HW132000   6.933   1.735   1.920
10367SOL    HW232001   6.886   1.808   2.058
10368SOL     OW32002   2.080   1.198   2.433
10368SOL    HW132003   2.106   1.113   2.387
10368SOL    HW232004   2.161   1.239   2.475
10369SOL     OW32005   3.146   0.027   5.864
10369SOL    HW132006   3.221   7.014   5.806
10369SOL    HW232007   3.072   6.980   5.864
10370SOL     OW32008   6.563   0.788   5.576
10370SOL    HW132009   6.553   0.883   5.607
10370SOL    HW232010   6.657   0.759   5.588
10371SOL     OW32011   1.718   6.364   4.671
10371SOL    HW132012   1.745   6.280   4.719
10371SOL    HW232013   1.621   6.382   4.689
10372SOL     OW32014   2.011   0.848   6.564
10372SOL    HW132015   1.955   0.854   6.647
10372SOL    HW232016   2.089   0.788   6.581
10373SOL     OW32017   1.263   5.923   5.044
10373SOL    HW132018   1.269   6.001   5.106
10373SOL    HW232019   1.296   5.949   4.953
10374SOL     OW32020   3.150   0.620   3.720
10374SOL    HW132021   3.180   0.554   3.651
10374SOL    HW232022   3.221   0.690   3.731
10375SOL     OW32023   2.152   1.946   6.213
10375SOL    HW132024   2.248   1.946   6.185
10375SOL    HW232025   2.128   2.035   6.250
10376SOL     OW32026   1.161   5.903   3.414
10376SOL    HW132027   1.238   5.843   3.438
10376SOL    HW232028   1.076   5.850   3.417
10377SOL     OW32029   0.213   0.913   2.410
10377SOL    HW132030   0.217   0.991   2.347
10377SOL    HW232031   0.167   0.940   2.494
10378SOL     OW32032   6.027   5.928   5.617
10378SOL    HW132033   5.992   5.843   5.656
10378SOL    HW232034   5.951   5.987   5.591
10379SOL     OW32035   2.547   5.953   3.972
10379SOL    HW132036   2.616   6.019   4.004
10379SOL    HW232037   2.500   5.914   4.051
10380SOL     OW32038   0.651   2.823   4.724
10380SOL    HW132039   0.598   2.824   4.640
10380SOL    HW232040   0.684   2.916   4.744
10381SOL     OW32041   4.324   3.871   1.118
10381SOL    HW132042   4.393   3.830   1.179
10381SOL    HW232043   4.371   3.914   1.041
10382SOL     OW32044   2.183   5.546   1.642
10382SOL    HW132045   2.216   5.518   1.732
10382SOL    HW232046   2.152   5.466   1.591
10383SOL     OW32047   1.205   4.083   1.258
10383SOL    HW132048   1.120   4.121   1.222
10383SOL    HW232049   1.215   4.108   1.355
10384SOL     OW32050   6.671   0.222   1.102
10384SOL    HW132051   6.597   0.287   1.119
10384SOL    HW232052   6.722   0.250   1.020
10385SOL     OW32053   4.148   6.044   5.810
10385SOL    HW132054   4.161   6.143   5.806
10385SOL    HW232055   4.055   6.023   5.840
10386SOL     OW32056   6.797   1.423   5.245
10386SOL    HW132057   6.830   1.398   5.336
10386SOL    HW232058   6.700   1.445   5.249
10387SOL     OW32059   4.330   1.520   2.786
10387SOL    HW132060   4.410   1.464   2.809
10387SOL    HW232061   4.248   1.464   2.789
10388SOL     OW32062   2.105   5.522   2.089
10388SOL    HW132063   2.181   5.551   2.147
10388SOL    HW232064   2.026   5.500   2.147
10389SOL     OW32065   6.231   5.242   0.685
10389SOL    HW132066   6.314   5.204   0.727
10389SOL    HW232067   6.227   5.217   0.589
10390SOL     OW32068   1.968   3.248   1.123
10390SOL    HW132069   1.951   3.265   1.026
10390SOL    HW232070   1.881   3.252   1.173
10391SOL     OW32071   0.430   6.392   3.129
10391SOL    HW132072   0.376   6.358   3.052
10391SOL    HW232073   0.526   6.398   3.103
10392SOL     OW32074   6.636   4.632   5.489
10392SOL    HW132075   6.593   4.598   5.405
10392SOL    HW232076   6.565   4.649   5.558
10393SOL     OW32077   2.514   2.501   3.584
10393SOL    HW132078   2.539   2.474   3.492
10393SOL    HW232079   2.510   2.601   3.590
10394SOL     OW32080   2.419   5.686   5.167
10394SOL    HW132081   2.461   5.624   5.100
10394SOL    HW232082   2.324   5.703   5.142
10395SOL     OW32083   0.596   0.784   2.093
10395SOL    HW132084   0.576   0.687   2.105
10395SOL    HW232085   0.606   0.805   1.996
10396SOL     OW32086   3.924   1.016   3.499
10396SOL    HW132087   4.013   1.023   3.454
10396SOL    HW232088   3.938   0.993   3.596
10397SOL     OW32089   2.897   1.423   4.507
10397SOL    HW132090   2.889   1.517   4.474
10397SOL    HW232091   2.806   1.388   4.530
10398SOL     OW32092   5.046   2.667   0.494
10398SOL    HW132093   5.133   2.623   0.515
10398SOL    HW232094   4.975   2.634   0.557
10399SOL     OW32095   4.902   2.608   4.258
10399SOL    HW132096   4.898   2.637   4.354
10399SOL    HW232097   4.996   2.610   4.226
10400SOL     OW32098   4.082   5.894   0.242
10400SOL    HW132099   4.029   5.824   0.195
10400SOL    HW232100   4.122   5.956   0.174
10401SOL     OW32101   0.306   6.987   1.891
10401SOL    HW132102   0.275   0.060   1.872
10401SOL    HW232103   0.267   6.925   1.823
10402SOL     OW32104   0.146   1.510   5.337
10402SOL    HW132105   0.156   1.550   5.246
10402SOL    HW232106   0.174   1.576   5.406
10403SOL     OW32107   4.386   1.740   2.934
10403SOL    HW132108   4.352   1.675   2.866
10403SOL    HW232109   4.336   1.826   2.925
10404SOL     OW32110   6.698   6.585   3.904
10404SOL    HW132111   6.752   6.641   3.841
10404SOL    HW232112   6.635   6.528   3.853
10405SOL     OW32113   1.015   5.792   4.691
10405SOL    HW132114   0.933   5.765   4.741
10405SOL    HW232115   1.076   5.713   4.682
10406SOL     OW32116   2.248   2.865   5.240
10406SOL    HW132117   2.314   2.919   5.188
10406SOL    HW232118   2.290   2.834   5.325
10407SOL     OW32119   2.662   7.000   0.172
10407SOL    HW132120   2.623   6.908   0.183
10407SOL    HW232121   2.590   0.048   0.180
10408SOL     OW32122   4.505   6.645   1.703
10408SOL    HW132123   4.455   6.596   1.775
10408SOL    HW232124   4.602   6.649   1.726
10409SOL     OW32125   0.158   4.376   0.784
10409SOL    HW132126   0.241   4.401   0.833
10409SOL    HW232127   0.139   4.444   0.713
10410SOL     OW32128   5.229   2.708   2.011
10410SOL    HW132129   5.300   2.662   1.958
10410SOL    HW232130   5.207   2.654   2.093
10411SOL     OW32131   2.715   6.142   4.027
10411SOL    HW132132   2.802   6.149   4.076
10411SOL    HW232133   2.711   6.214   3.958
10412SOL     OW32134   0.214   1.396   0.484
10412SOL    HW132135   0.232   1.340   0.565
10412SOL    HW232136   0.160   1.343   0.418
10413SOL     OW32137   6.283   2.920   1.933
10413SOL    HW132138   6.199   2.965   1.903
10413SOL    HW232139   6.354   2.932   1.863
10414SOL     OW32140   3.557   4.728   6.508
10414SOL    HW132141   3.570   4.826   6.526
10414SOL    HW232142   3.486   4.716   6.439
10415SOL     OW32143   1.813   4.741   4.319
10415SOL    HW132144   1.876   4.666   4.298
10415SOL    HW232145   1.721   4.704   4.331
10416SOL     OW32146   5.501   6.869   5.331
10416SOL    HW132147   5.598   6.864   5.352
10416SOL    HW232148   5.478   6.797   5.265
10417SOL     OW32149   4.182   4.913   4.383
10417SOL    HW132150   4.104   4.923   4.444
10417SOL    HW232151   4.214   5.004   4.354
10418SOL     OW32152   6.725   4.055   5.726
10418SOL    HW132153   6.696   4.148   5.704
10418SOL    HW232154   6.729   4.000   5.642
10419SOL     OW32155   3.370   6.808   6.375
10419SOL    HW132156   3.323   6.896   6.367
10419SOL    HW232157   3.444   6.804   6.308
10420SOL     OW32158   0.620   3.821   4.218
10420SOL    HW132159   0.717   3.818   4.239
10420SOL    HW232160   0.572   3.750   4.270
10421SOL     OW32161   1.370   3.635   3.890
10421SOL    HW132162   1.446   3.699   3.893
10421SOL    HW232163   1.380   3.566   3.962
10422SOL     OW32164   6.415   3.409   5.610
10422SOL    HW132165   6.384   3.393   5.516
10422SOL    HW232166   6.399   3.505   5.633
10423SOL     OW32167   5.656   5.045   5.945
10423SOL    HW132168   5.746   5.068   5.909
10423SOL    HW232169   5.595   5.021   5.869
10424SOL     OW32170   4.194   3.295   0.793
10424SOL    HW132171   4.230   3.228   0.857
10424SOL    HW232172   4.095   3.304   0.805
10425SOL     OW32173   1.120   6.388   2.263
10425SOL    HW132174   1.093   6.474   2.306
10425SOL    HW232175   1.074   6.312   2.308
10426SOL     OW32176   5.357   4.696   7.019
10426SOL    HW132177   5.258   4.698   0.013
10426SOL    HW232178   5.404   4.706   0.086
10427SOL     OW32179   4.503   0.844   0.068
10427SOL    HW132180   4.423   0.904   0.079
10427SOL    HW232181   4.505   0.777   0.142
10428SOL     OW32182   3.248   1.302   4.200
10428SOL    HW132183   3.303   1.345   4.271
10428SOL    HW232184   3.306   1.245   4.143
10429SOL     OW32185   0.034   4.280   2.647
10429SOL    HW132186   0.100   4.206   2.630
10429SOL    HW232187   6.991   4.286   2.569
10430SOL     OW32188   4.196   6.750   5.480
10430SOL    HW132189   4.129   6.676   5.484
10430SOL    HW232190   4.282   6.715   5.445
10431SOL     OW32191   2.084   6.477   4.188
10431SOL    HW132192   2.131   6.562   4.213
10431SOL    HW232193   2.079   6.417   4.268
10432SOL     OW32194   6.413   0.200   4.989
10432SOL    HW132195   6.429   0.293   4.958
10432SOL    HW232196   6.334   0.161   4.943
10433SOL     OW32197   0.532   6.291   2.730
10433SOL    HW132198   0.511   6.199   2.696
10433SOL    HW232199   0.532   6.356   2.654
10434SOL     OW32200   3.635   6.187   2.504
10434SOL    HW132201   3.576   6.131   2.447
10434SOL    HW232202   3.696   6.129   2.557
10435SOL     OW32203   1.520   1.985   5.258
10435SOL    HW132204   1.449   1.986   5.187
10435SOL    HW232205   1.539   1.890   5.284
10436SOL     OW32206   6.070   4.779   5.397
10436SOL    HW132207   6.157   4.807   5.438
10436SOL    HW232208   6.034   4.853   5.340
10437SOL     OW32209   5.420   4.737   5.851
10437SOL    HW132210   5.325   4.738   5.821
10437SOL    HW232211   5.424   4.750   5.950
10438SOL     OW32212   0.416   5.850   6.486
10438SOL    HW132213   0.473   5.771   6.463
10438SOL    HW232214   0.424   5.920   6.415
10439SOL     OW32215   4.285   1.257   5.020
10439SOL    HW132216   4.267   1.172   5.069
10439SOL    HW232217   4.228   1.261   4.938
10440SOL     OW32218   0.763   6.932   0.689
10440SOL    HW132219   0.789   6.952   0.783
10440SOL    HW232220   0.683   6.988   0.664
10441SOL     OW32221   3.537   1.866   1.775
10441SOL    HW132222   3.586   1.952   1.757
10441SOL    HW232223   3.539   1.809   1.693
10442SOL     OW32224   4.310   6.516   6.145
10442SOL    HW132225   4.408   6.507   6.164
10442SOL    HW232226   4.285   6.612   6.145
10443SOL     OW32227   4.761   2.602   3.559
10443SOL    HW132228   4.819   2.684   3.557
10443SOL    HW232229   4.817   2.523   3.582
10444SOL     OW32230   3.920   5.565   3.067
10444SOL    HW132231   3.889   5.474   3.097
10444SOL    HW232232   3.995   5.596   3.125
10445SOL     OW32233   0.459   4.905   4.063
10445SOL    HW132234   0.489   4.846   3.988
10445SOL    HW232235   0.511   4.883   4.146
10446SOL     OW32236   1.870   3.131   6.527
10446SOL    HW132237   1.955   3.114   6.477
10446SOL    HW232238   1.792   3.121   6.464
10447SOL     OW32239   0.101   1.049   2.977
10447SOL    HW132240   0.187   1.007   2.948
10447SOL    HW232241   0.100   1.146   2.952
10448SOL     OW32242   4.520   0.348   2.468
10448SOL    HW132243   4.568   0.262   2.453
10448SOL    HW232244   4.477   0.347   2.559
10449SOL     OW32245   1.747   5.316   6.369
10449SOL    HW132246   1.831   5.333   6.316
10449SOL    HW232247   1.668   5.318   6.308
10450SOL     OW32248   0.496   1.307   0.281
10450SOL    HW132249   0.457   1.238   0.342
10450SOL    HW232250   0.583   1.339   0.317
10451SOL     OW32251   1.860   5.671   2.936
10451SOL    HW132252   1.925   5.746   2.918
10451SOL    HW232253   1.770   5.696   2.900
10452SOL     OW32254   6.227   3.226   2.146
10452SOL    HW132255   6.193   3.263   2.060
10452SOL    HW232256   6.325   3.208   2.138
10453SOL     OW32257   5.680   6.840   1.315
10453SOL    HW132258   5.639   6.751   1.334
10453SOL    HW232259   5.713   6.842   1.220
10454SOL     OW32260   4.807   3.025   0.208
10454SOL    HW132261   4.760   3.084   0.274
10454SOL    HW232262   4.787   3.055   0.115
10455SOL     OW32263   6.882   6.749   3.311
10455SOL    HW132264   6.883   6.827   3.373
10455SOL    HW232265   6.955   6.686   3.335
10456SOL     OW32266   1.587   5.135   0.311
10456SOL    HW132267   1.506   5.190   0.329
10456SOL    HW232268   1.634   5.169   0.230
10457SOL     OW32269   3.991   3.043   0.890
10457SOL    HW132270   4.041   3.017   0.807
10457SOL    HW232271   3.892   3.041   0.871
10458SOL     OW32272   6.519   0.212   6.326
10458SOL    HW132273   6.533   0.202   6.227
10458SOL    HW232274   6.510   0.309   6.348
10459SOL     OW32275   4.610   5.875   1.311
10459SOL    HW132276   4.567   5.838   1.228
10459SOL    HW232277   4.642   5.968   1.293
10460SOL     OW32278   0.852   3.896   1.886
10460SOL    HW132279   0.817   3.885   1.793
10460SOL    HW232280   0.892   3.987   1.896
10461SOL     OW32281   5.796   5.126   4.876
10461SOL    HW132282   5.822   5.163   4.965
10461SOL    HW232283   5.874   5.081   4.835
10462SOL     OW32284   5.217   1.732   3.360
10462SOL    HW132285   5.199   1.757   3.265
10462SOL    HW232286   5.289   1.662   3.364
10463SOL     OW32287   4.435   3.059   6.037
10463SOL    HW132288   4.465   3.128   5.972
10463SOL    HW232289   4.493   2.978   6.029
10464SOL     OW32290   6.948   6.573   1.496
10464SOL    HW132291   6.871   6.509   1.490
10464SOL    HW232292   7.013   6.552   1.424
10465SOL     OW32293   6.049   5.837   0.533
10465SOL    HW132294   6.066   5.926   0.575
10465SOL    HW232295   6.136   5.799   0.500
10466SOL     OW32296   4.867   4.986   5.741
10466SOL    HW132297   4.849   5.027   5.831
10466SOL    HW232298   4.901   5.057   5.679
10467SOL     OW32299   2.737   1.728   0.135
10467SOL    HW132300   2.722   1.784   0.053
10467SOL    HW232301   2.832   1.735   0.164
10468SOL     OW32302   3.561   5.302   3.465
10468SOL    HW132303   3.574   5.233   3.536
10468SOL    HW232304   3.486   5.363   3.490
10469SOL     OW32305   4.042   4.574   5.500
10469SOL    HW132306   3.977   4.521   5.445
10469SOL    HW232307   3.995   4.615   5.578
10470SOL     OW32308   2.193   2.475   3.506
10470SOL    HW132309   2.270   2.530   3.473
10470SOL    HW232310   2.185   2.485   3.605
10471SOL     OW32311   3.442   0.847   1.054
10471SOL    HW132312   3.519   0.787   1.033
10471SOL    HW232313   3.474   0.942   1.056
10472SOL     OW32314   3.379   5.983   0.544
10472SOL    HW132315   3.357   6.079   0.563
10472SOL    HW232316   3.462   5.979   0.488
10473SOL     OW32317   6.539   6.890   6.980
10473SOL    HW132318   6.637   6.869   6.970
10473SOL    HW232319   6.492   6.870   6.895
10474SOL     OW32320   3.966   1.559   4.287
10474SOL    HW132321   3.941   1.558   4.191
10474SOL    HW232322   3.960   1.653   4.322
10475SOL     OW32323   4.551   6.537   1.151
10475SOL    HW132324   4.533   6.611   1.087
10475SOL    HW232325   4.553   6.573   1.244
10476SOL     OW32326   6.826   6.660   0.196
10476SOL    HW132327   6.907   6.603   0.209
10476SOL    HW232328   6.815   6.681   0.099
10477SOL     OW32329   6.704   0.670   4.581
10477SOL    HW132330   6.742   0.705   4.496
10477SOL    HW232331   6.607   0.691   4.585
10478SOL     OW32332   6.253   0.726   0.714
10478SOL    HW132333   6.185   0.673   0.764
10478SOL    HW232334   6.282   0.804   0.769
10479SOL     OW32335   6.725   1.744   3.058
10479SOL    HW132336   6.788   1.709   3.127
10479SOL    HW232337   6.641   1.774   3.102
10480SOL     OW32338   6.885   0.418   1.414
10480SOL    HW132339   6.835   0.371   1.486
10480SOL    HW232340   6.833   0.498   1.383
10481SOL     OW32341   2.679   7.014   4.273
10481SOL    HW132342   2.713   0.061   4.208
10481SOL    HW232343   2.596   0.028   4.316
10482SOL     OW32344   6.535   4.868   4.169
10482SOL    HW132345   6.592   4.910   4.240
10482SOL    HW232346   6.469   4.934   4.136
10483SOL     OW32347   6.542   4.629   0.276
10483SOL    HW132348   6.639   4.653   0.284
10483SOL    HW232349   6.486   4.711   0.288
10484SOL     OW32350   6.367   2.061   1.759
10484SOL    HW132351   6.462   2.068   1.726
10484SOL    HW232352   6.305   2.097   1.689
10485SOL     OW32353   3.212   3.547   0.473
10485SOL    HW132354   3.268   3.565   0.393
10485SOL    HW232355   3.116   3.553   0.449
10486SOL     OW32356   0.351   0.539   0.578
10486SOL    HW132357   0.398   0.584   0.654
10486SOL    HW232358   0.314   0.451   0.609
10487SOL     OW32359   4.859   1.328   1.202
10487SOL    HW132360   4.870   1.278   1.115
10487SOL    HW232361   4.882   1.268   1.278
10488SOL     OW32362   3.498   1.458   5.750
10488SOL    HW132363   3.461   1.543   5.786
10488SOL    HW232364   3.598   1.460   5.758
10489SOL     OW32365   0.544   6.731   5.234
10489SOL    HW132366   0.582   6.681   5.156
10489SOL    HW232367   0.577   6.825   5.232
10490SOL     OW32368   5.455   1.624   0.442
10490SOL    HW132369   5.440   1.706   0.387
10490SOL    HW232370   5.502   1.649   0.526
10491SOL     OW32371   2.380   2.446   6.023
10491SOL    HW132372   2.343   2.358   5.994
10491SOL    HW232373   2.373   2.512   5.948
10492SOL     OW32374   5.507   5.012   0.554
10492SOL    HW132375   5.545   5.104   0.555
10492SOL    HW232376   5.456   4.996   0.638
10493SOL     OW32377   3.515   0.336   1.787
10493SOL    HW132378   3.444   0.404   1.806
10493SOL    HW232379   3.592   0.380   1.741
10494SOL     OW32380   5.945   4.011   6.064
10494SOL    HW132381   6.025   3.954   6.048
10494SOL    HW232382   5.881   4.001   5.987
10495SOL     OW32383   1.568   6.946   1.435
10495SOL    HW132384   1.554   6.993   1.348
10495SOL    HW232385   1.507   6.866   1.440
10496SOL     OW32386   6.485   3.942   6.522
10496SOL    HW132387   6.421   3.881   6.569
10496SOL    HW232388   6.552   3.977   6.587
10497SOL     OW32389   2.048   0.149   2.331
10497SOL    HW132390   1.962   0.144   2.383
10497SOL    HW232391   2.107   0.219   2.371
10498SOL     OW32392   4.763   5.109   0.935
10498SOL    HW132393   4.795   5.137   0.845
10498SOL    HW232394   4.666   5.131   0.944
10499SOL     OW32395   4.538   6.612   2.220
10499SOL    HW132396   4.543   6.678   2.145
10499SOL    HW232397   4.630   6.583   2.245
10500SOL     OW32398   6.244   1.294   5.826
10500SOL    HW132399   6.248   1.201   5.788
10500SOL    HW232400   6.283   1.295   5.917
10501SOL     OW32401   2.194   5.837   2.130
10501SOL    HW132402   2.210   5.758   2.189
10501SOL    HW232403   2.281   5.868   2.092
10502SOL     OW32404   2.613   1.539   1.848
10502SOL    HW132405   2.513   1.529   1.850
10502SOL    HW232406   2.636   1.637   1.854
10503SOL     OW32407   4.582   2.714   1.160
10503SOL    HW132408   4.618   2.750   1.073
10503SOL    HW232409   4.655   2.713   1.228
10504SOL     OW32410   1.247   1.923   5.457
10504SOL    HW132411   1.211   1.984   5.386
10504SOL    HW232412   1.189   1.929   5.538
10505SOL     OW32413   5.138   4.919   0.774
10505SOL    HW132414   5.068   4.903   0.705
10505SOL    HW232415   5.097   4.955   0.858
10506SOL     OW32416   0.021   4.576   0.565
10506SOL    HW132417   7.006   4.632   0.640
10506SOL    HW232418   6.981   4.498   0.550
10507SOL     OW32419   1.816   6.636   0.629
10507SOL    HW132420   1.900   6.667   0.584
10507SOL    HW232421   1.829   6.544   0.665
10508SOL     OW32422   6.140   5.760   4.159
10508SOL    HW132423   6.083   5.830   4.203
10508SOL    HW232424   6.236   5.782   4.172
10509SOL     OW32425   6.997   4.971   4.592
10509SOL    HW132426   6.963   5.012   4.677
10509SOL    HW232427   0.071   4.940   4.605
10510SOL     OW32428   4.693   5.737   6.690
10510SOL    HW132429   4.609   5.686   6.707
10510SOL    HW232430   4.758   5.678   6.643
10511SOL     OW32431   3.305   0.933   2.277
10511SOL    HW132432   3.337   0.987   2.199
10511SOL    HW232433   3.214   0.963   2.304
10512SOL     OW32434   4.836   0.161   6.636
10512SOL    HW132435   4.796   0.235   6.690
10512SOL    HW232436   4.794   0.075   6.662
10513SOL     OW32437   5.629   2.237   4.419
10513SOL    HW132438   5.536   2.210   4.447
10513SOL    HW232439   5.696   2.188   4.475
10514SOL     OW32440   0.611   3.257   0.945
10514SOL    HW132441   0.513   3.256   0.968
10514SOL    HW232442   0.646   3.163   0.944
10515SOL     OW32443   0.878   4.228   3.207
10515SOL    HW132444   0.820   4.240   3.127
10515SOL    HW232445   0.832   4.263   3.289
10516SOL     OW32446   4.307   1.477   0.673
10516SOL    HW132447   4.249   1.430   0.606
10516SOL    HW232448   4.396   1.430   0.679
10517SOL     OW32449   0.476   2.889   1.468
10517SOL    HW132450   0.382   2.914   1.489
10517SOL    HW232451   0.515   2.840   1.546
10518SOL     OW32452   0.654   5.990   0.353
10518SOL    HW132453   0.641   5.992   0.452
10518SOL    HW232454   0.566   6.005   0.307
10519SOL     OW32455   3.735   3.422   0.635
10519SOL    HW132456   3.754   3.502   0.690
10519SOL    HW232457   3.691   3.352   0.691
10520SOL     OW32458   0.305   2.174   6.033
10520SOL    HW132459   0.374   2.134   5.972
10520SOL    HW232460   0.307   2.274   6.025
10521SOL     OW32461   6.255   5.700   1.873
10521SOL    HW132462   6.168   5.669   1.912
10521SOL    HW232463   6.312   5.620   1.854
10522SOL     OW32464   0.716   0.309   5.469
10522SOL    HW132465   0.689   0.386   5.527
10522SOL    HW232466   0.755   0.236   5.526
10523SOL     OW32467   0.857   4.686   2.746
10523SOL    HW132468   0.764   4.656   2.766
10523SOL    HW232469   0.859   4.785   2.738
10524SOL     OW32470   1.153   6.820   3.713
10524SOL    HW132471   1.160   6.776   3.803
10524SOL    HW232472   1.226   6.888   3.704
10525SOL     OW32473   4.289   6.808   6.556
10525SOL    HW132474   4.344   6.876   6.507
10525SOL    HW232475   4.346   6.759   6.621
10526SOL     OW32476   1.848   6.749   3.313
10526SOL    HW132477   1.779   6.689   3.272
10526SOL    HW232478   1.838   6.747   3.413
10527SOL     OW32479   0.993   1.210   5.265
10527SOL    HW132480   1.046   1.125   5.260
10527SOL    HW232481   0.940   1.222   5.181
10528SOL     OW32482   1.377   3.074   6.212
10528SOL    HW132483   1.452   3.088   6.148
10528SOL    HW232484   1.295   3.120   6.178
10529SOL     OW32485   2.938   6.182   4.208
10529SOL    HW132486   2.867   6.248   4.230
10529SOL    HW232487   3.003   6.176   4.283
10530SOL     OW32488   1.605   0.061   6.349
10530SOL    HW132489   1.698   0.041   6.320
10530SOL    HW232490   1.606   0.134   6.417
10531SOL     OW32491   0.991   2.742   4.273
10531SOL    HW132492   1.042   2.721   4.189
10531SOL    HW232493   0.942   2.828   4.262
10532SOL     OW32494   1.128   6.550   6.217
10532SOL    HW132495   1.186   6.630   6.204
10532SOL    HW232496   1.159   6.498   6.297
10533SOL     OW32497   2.857   6.943   3.715
10533SOL    HW132498   2.819   7.007   3.649
10533SOL    HW232499   2.803   6.945   3.799
10534SOL     OW32500   6.594   5.639   1.475
10534SOL    HW132501   6.574   5.669   1.569
10534SOL    HW232502   6.583   5.717   1.413
10535SOL     OW32503   1.252   2.200   1.651
10535SOL    HW132504   1.230   2.197   1.748
10535SOL    HW232505   1.256   2.107   1.614
10536SOL     OW32506   4.281   0.717   4.203
10536SOL    HW132507   4.204   0.781   4.200
10536SOL    HW232508   4.361   0.762   4.243
10537SOL     OW32509   3.805   6.023   3.791
10537SOL    HW132510   3.780   5.991   3.882
10537SOL    HW232511   3.754   5.972   3.722
10538SOL     OW32512   5.959   2.805   0.598
10538SOL    HW132513   5.938   2.732   0.663
10538SOL    HW232514   6.050   2.842   0.617
10539SOL     OW32515   0.499   4.625   7.006
10539SOL    HW132516   0.405   4.592   6.996
10539SOL    HW232517   0.541   4.632   6.916
10540SOL     OW32518   1.504   2.007   5.592
10540SOL    HW132519   1.426   2.000   5.530
10540SOL    HW232520   1.587   1.982   5.544
10541SOL     OW32521   3.223   4.019   2.128
10541SOL    HW132522   3.154   3.957   2.165
10541SOL    HW232523   3.289   4.042   2.199
10542SOL     OW32524   0.264   0.103   5.731
10542SOL    HW132525   0.317   0.183   5.704
10542SOL    HW232526   0.179   0.100   5.679
10543SOL     OW32527   6.883   1.514   4.694
10543SOL    HW132528   6.853   1.447   4.762
10543SOL    HW232529   6.895   1.603   4.737
10544SOL     OW32530   2.712   0.054   1.844
10544SOL    HW132531   2.763   0.103   1.773
10544SOL    HW232532   2.616   0.083   1.842
10545SOL     OW32533   0.333   2.308   1.441
10545SOL    HW132534   0.375   2.219   1.454
10545SOL    HW232535   0.250   2.314   1.496
10546SOL     OW32536   1.694   1.014   1.044
10546SOL    HW132537   1.736   1.092   0.998
10546SOL    HW232538   1.631   1.047   1.114
10547SOL     OW32539   4.873   3.360   2.908
10547SOL    HW132540   4.823   3.276   2.886
10547SOL    HW232541   4.911   3.399   2.825
10548SOL     OW32542   5.479   4.372   3.884
10548SOL    HW132543   5.568   4.364   3.929
10548SOL    HW232544   5.409   4.397   3.951
10549SOL     OW32545   0.514   0.276   1.840
10549SOL    HW132546   0.534   0.191   1.792
10549SOL    HW232547   0.569   0.282   1.924
10550SOL     OW32548   4.837   6.813   3.549
10550SOL    HW132549   4.829   6.901   3.594
10550SOL    HW232550   4.792   6.742   3.604
10551SOL     OW32551   1.692   2.278   6.645
10551SOL    HW132552   1.594   2.261   6.636
10551SOL    HW232553   1.739   2.192   6.664
10552SOL     OW32554   3.102   0.970   5.887
10552SOL    HW132555   3.126   0.887   5.937
10552SOL    HW232556   3.167   0.983   5.811
10553SOL     OW32557   0.713   4.594   1.804
10553SOL    HW132558   0.751   4.528   1.869
10553SOL    HW232559   0.715   4.686   1.845
10554SOL     OW32560   6.025   4.807   0.364
10554SOL    HW132561   6.050   4.713   0.387
10554SOL    HW232562   5.927   4.811   0.342
10555SOL     OW32563   1.781   2.432   0.186
10555SOL    HW132564   1.870   2.454   0.147
10555SOL    HW232565   1.762   2.495   0.262
10556SOL     OW32566   1.892   1.524   4.654
10556SOL    HW132567   1.971   1.534   4.713
10556SOL    HW232568   1.868   1.613   4.615
10557SOL     OW32569   2.130   2.996   3.426
10557SOL    HW132570   2.164   3.054   3.353
10557SOL    HW232571   2.032   3.012   3.438
10558SOL     OW32572   4.138   0.226   4.194
10558SOL    HW132573   4.067   0.219   4.265
10558SOL    HW232574   4.214   0.281   4.228
10559SOL     OW32575   4.996   0.550   2.018
10559SOL    HW132576   4.972   0.532   1.923
10559SOL    HW232577   4.912   0.569   2.070
10560SOL     OW32578   4.121   6.126   2.542
10560SOL    HW132579   4.172   6.063   2.600
10560SOL    HW232580   4.165   6.134   2.453
10561SOL     OW32581   3.625   4.106   1.623
10561SOL    HW132582   3.585   4.163   1.695
10561SOL    HW232583   3.703   4.056   1.661
10562SOL     OW32584   4.129   5.455   0.289
10562SOL    HW132585   4.213   5.401   0.289
10562SOL    HW232586   4.064   5.417   0.223
10563SOL     OW32587   0.722   1.410   3.502
10563SOL    HW132588   0.756   1.409   3.408
10563SOL    HW232589   0.690   1.502   3.525
10564SOL     OW32590   5.937   6.159   2.390
10564SOL    HW132591   5.958   6.179   2.294
10564SOL    HW232592   5.968   6.235   2.447
10565SOL     OW32593   0.565   6.997   5.755
10565SOL    HW132594   0.608   6.911   5.781
10565SOL    HW232595   0.577   7.012   5.657
10566SOL     OW32596   3.535   2.019   6.399
10566SOL    HW132597   3.454   1.985   6.446
10566SOL    HW232598   3.598   1.944   6.382
10567SOL     OW32599   2.914   2.184   4.921
10567SOL    HW132600   2.865   2.140   4.996
10567SOL    HW232601   2.999   2.224   4.955
10568SOL     OW32602   6.193   3.227   1.813
10568SOL    HW132603   6.105   3.246   1.769
10568SOL    HW232604   6.250   3.172   1.753
10569SOL     OW32605   5.790   2.055   2.413
10569SOL    HW132606   5.811   2.100   2.326
10569SOL    HW232607   5.839   2.100   2.487
10570SOL     OW32608   1.042   5.234   3.259
10570SOL    HW132609   0.999   5.147   3.282
10570SOL    HW232610   1.109   5.220   3.186
10571SOL     OW32611   0.067   4.239   5.582
10571SOL    HW132612   0.068   4.332   5.620
10571SOL    HW232613   0.050   4.173   5.655
10572SOL     OW32614   6.661   3.853   3.260
10572SOL    HW132615   6.626   3.944   3.282
10572SOL    HW232616   6.747   3.837   3.309
10573SOL     OW32617   5.118   0.515   5.081
10573SOL    HW132618   5.143   0.560   5.167
10573SOL    HW232619   5.180   0.544   5.009
10574SOL     OW32620   1.782   1.621   4.258
10574SOL    HW132621   1.832   1.548   4.304
10574SOL    HW232622   1.741   1.586   4.174
10575SOL     OW32623   6.864   1.600   4.044
10575SOL    HW132624   6.840   1.555   4.130
10575SOL    HW232625   6.846   1.538   3.968
10576SOL     OW32626   0.044   5.475   4.925
10576SOL    HW132627   0.047   5.556   4.865
10576SOL    HW232628   0.105   5.490   5.003
10577SOL     OW32629   1.869   4.425   0.132
10577SOL    HW132630   1.812   4.438   0.051
10577SOL    HW232631   1.888   4.327   0.144
10578SOL     OW32632   4.722   1.133   2.842
10578SOL    HW132633   4.817   1.111   2.819
10578SOL    HW232634   4.720   1.186   2.927
10579SOL     OW32635   4.281   2.992   1.462
10579SOL    HW132636   4.223   3.054   1.408
10579SOL    HW232637   4.261   3.004   1.559
10580SOL     OW32638   6.565   0.476   6.420
10580SOL    HW132639   6.658   0.495   6.453
10580SOL    HW232640   6.540   0.543   6.350
10581SOL     OW32641   6.359   0.003   3.022
10581SOL    HW132642   6.320   0.048   2.941
10581SOL    HW232643   6.287   7.009   3.090
10582SOL     OW32644   4.825   4.734   6.043
10582SOL    HW132645   4.904   4.784   6.076
10582SOL    HW232646   4.836   4.714   5.946
10583SOL     OW32647   4.221   0.936   3.867
10583SOL    HW132648   4.280   1.009   3.900
10583SOL    HW232649   4.276   0.856   3.843
10584SOL     OW32650   6.824   0.304   0.525
10584SOL    HW132651   6.824   0.371   0.599
10584SOL    HW232652   6.815   0.212   0.564
10585SOL     OW32653   2.384   1.616   5.389
10585SOL    HW132654   2.399   1.681   5.315
10585SOL    HW232655   2.349   1.664   5.470
10586SOL     OW32656   6.677   5.296   4.415
10586SOL    HW132657   6.650   5.288   4.511
10586SOL    HW232658   6.729   5.381   4.403
10587SOL     OW32659   6.575   4.376   0.200
10587SOL    HW132660   6.666   4.338   0.182
10587SOL    HW232661   6.585   4.473   0.225
10588SOL     OW32662   1.475   3.305   4.329
10588SOL    HW132663   1.474   3.399   4.363
10588SOL    HW232664   1.382   3.276   4.306
10589SOL     OW32665   6.475   1.139   4.559
10589SOL    HW132666   6.411   1.098   4.495
10589SOL    HW232667   6.425   1.193   4.627
10590SOL     OW32668   0.551   0.419   1.586
10590SOL    HW132669   0.516   0.403   1.678
10590SOL    HW232670   0.508   0.500   1.547
10591SOL     OW32671   1.985   1.994   6.904
10591SOL    HW132672   2.078   2.004   6.940
10591SOL    HW232673   1.934   2.078   6.922
10592SOL     OW32674   5.581   3.509   2.541
10592SOL    HW132675   5.519   3.577   2.582
10592SOL    HW232676   5.562   3.419   2.580
10593SOL     OW32677   2.229   6.437   0.574
10593SOL    HW132678   2.267   6.352   0.537
10593SOL    HW232679   2.302   6.504   0.584
10594SOL     OW32680   5.120   0.571   2.948
10594SOL    HW132681   5.040   0.537   2.898
10594SOL    HW232682   5.175   0.493   2.980
10595SOL     OW32683   4.723   6.263   6.897
10595SOL    HW132684   4.648   6.202   6.871
10595SOL    HW232685   4.807   6.233   6.852
10596SOL     OW32686   4.445   0.200   0.224
10596SOL    HW132687   4.350   0.190   0.252
10596SOL    HW232688   4.450   0.252   0.138
10597SOL     OW32689   3.103   1.453   5.575
10597SOL    HW132690   3.192   1.476   5.535
10597SOL    HW232691   3.112   1.444   5.674
10598SOL     OW32692   3.487   2.991   6.774
10598SOL    HW132693   3.428   2.937   6.714
10598SOL    HW232694   3.434   3.024   6.852
10599SOL     OW32695   5.349   3.290   5.736
10599SOL    HW132696   5.378   3.195   5.726
10599SOL    HW232697   5.342   3.312   5.834
10600SOL     OW32698   2.674   2.768   0.387
10600SOL    HW132699   2.589   2.715   0.381
10600SOL    HW232700   2.751   2.706   0.402
10601SOL     OW32701   1.853   4.559   5.190
10601SOL    HW132702   1.798   4.548   5.107
10601SOL    HW232703   1.899   4.473   5.212
10602SOL     OW32704   2.737   0.717   2.143
10602SOL    HW132705   2.673   0.691   2.071
10602SOL    HW232706   2.830   0.697   2.114
10603SOL     OW32707   3.506   0.567   3.341
10603SOL    HW132708   3.541   0.533   3.254
10603SOL    HW232709   3.415   0.528   3.358
10604SOL     OW32710   5.945   5.674   5.027
10604SOL    HW132711   5.858   5.701   5.068
10604SOL    HW232712   5.930   5.643   4.933
10605SOL     OW32713   1.691   6.147   0.004
10605SOL    HW132714   1.658   6.195   6.943
10605SOL    HW232715   1.708   6.213   0.077
10606SOL     OW32716   6.920   1.123   2.225
10606SOL    HW132717   6.913   1.171   2.313
10606SOL    HW232718   6.844   1.149   2.167
10607SOL     OW32719   4.590   5.029   5.716
10607SOL    HW132720   4.582   5.127   5.736
10607SOL    HW232721   4.686   5.007   5.700
10608SOL     OW32722   5.544   3.007   6.109
10608SOL    HW132723   5.519   3.104   6.110
10608SOL    HW232724   5.503   2.963   6.028
10609SOL     OW32725   2.123   6.789   6.721
10609SOL    HW132726   2.167   6.703   6.747
10609SOL    HW232727   2.192   6.860   6.711
10610SOL     OW32728   1.299   2.079   4.532
10610SOL    HW132729   1.369   2.060   4.464
10610SOL    HW232730   1.209   2.064   4.492
10611SOL     OW32731   2.868   3.927   6.399
10611SOL    HW132732   2.876   4.002   6.334
10611SOL    HW232733   2.893   3.959   6.490
10612SOL     OW32734   3.692   1.458   4.625
10612SOL    HW132735   3.645   1.546   4.630
10612SOL    HW232736   3.691   1.425   4.530
10613SOL     OW32737   5.409   5.887   5.579
10613SOL    HW132738   5.359   5.944   5.644
10613SOL    HW232739   5.389   5.791   5.597
10614SOL     OW32740   5.239   1.492   4.809
10614SOL    HW132741   5.332   1.505   4.845
10614SOL    HW232742   5.234   1.405   4.761
10615SOL     OW32743   4.491   6.965   5.754
10615SOL    HW132744   4.574   6.938   5.704
10615SOL    HW232745   4.506   6.956   5.852
10616SOL     OW32746   2.538   0.020   0.468
10616SOL    HW132747   2.499   0.048   0.380
10616SOL    HW232748   2.517   0.089   0.537
10617SOL     OW32749   3.006   3.174   1.575
10617SOL    HW132750   2.999   3.147   1.479
10617SOL    HW232751   2.923   3.223   1.602
10618SOL     OW32752   1.175   3.700   6.144
10618SOL    HW132753   1.220   3.617   6.113
10618SOL    HW232754   1.242   3.759   6.190
10619SOL     OW32755   7.008   3.554   2.022
10619SOL    HW132756   6.974   3.618   2.091
10619SOL    HW232757   6.931   3.513   1.973
10620SOL     OW32758   1.085   5.711   5.076
10620SOL    HW132759   1.124   5.795   5.114
10620SOL    HW232760   1.058   5.727   4.980
10621SOL     OW32761   0.921   5.322   1.832
10621SOL    HW132762   0.911   5.400   1.894
10621SOL    HW232763   0.987   5.345   1.761
10622SOL     OW32764   4.868   2.230   1.481
10622SOL    HW132765   4.961   2.248   1.449
10622SOL    HW232766   4.855   2.271   1.571
10623SOL     OW32767   0.290   4.524   5.190
10623SOL    HW132768   0.324   4.594   5.252
10623SOL    HW232769   0.194   4.504   5.209
10624SOL     OW32770   0.419   2.410   4.511
10624SOL    HW132771   0.473   2.365   4.581
10624SOL    HW232772   0.427   2.510   4.521
10625SOL     OW32773   0.396   4.353   0.902
10625SOL    HW132774   0.393   4.430   0.965
10625SOL    HW232775   0.488   4.346   0.863
10626SOL     OW32776   2.651   2.974   0.215
10626SOL    HW132777   2.611   3.056   0.257
10626SOL    HW232778   2.662   2.903   0.284
10627SOL     OW32779   5.350   0.198   1.296
10627SOL    HW132780   5.285   0.182   1.221
10627SOL    HW232781   5.374   0.111   1.339
10628SOL     OW32782   5.180   6.480   0.209
10628SOL    HW132783   5.102   6.541   0.194
10628SOL    HW232784   5.208   6.441   0.122
10629SOL     OW32785   2.426   4.802   4.962
10629SOL    HW132786   2.340   4.853   4.971
10629SOL    HW232787   2.421   4.717   5.015
10630SOL     OW32788   5.847   1.563   3.811
10630SOL    HW132789   5.877   1.488   3.752
10630SOL    HW232790   5.924   1.623   3.831
10631SOL     OW32791   3.103   5.180   5.131
10631SOL    HW132792   3.013   5.221   5.116
10631SOL    HW232793   3.149   5.229   5.205
10632SOL     OW32794   5.521   1.231   3.886
10632SOL    HW132795   5.548   1.179   3.966
10632SOL    HW232796   5.592   1.297   3.862
10633SOL     OW32797   2.458   2.733   0.769
10633SOL    HW132798   2.418   2.788   0.842
10633SOL    HW232799   2.441   2.636   0.786
10634SOL     OW32800   3.295   4.757   0.982
10634SOL    HW132801   3.277   4.854   0.997
10634SOL    HW232802   3.247   4.703   1.051
10635SOL     OW32803   1.722   2.881   1.081
10635SOL    HW132804   1.705   2.937   1.000
10635SOL    HW232805   1.707   2.937   1.163
10636SOL     OW32806   1.008   2.160   1.530
10636SOL    HW132807   1.099   2.180   1.565
10636SOL    HW232808   0.954   2.112   1.601
10637SOL     OW32809   2.475   4.498   6.448
10637SOL    HW132810   2.440   4.569   6.388
10637SOL    HW232811   2.437   4.510   6.540
10638SOL     OW32812   6.508   5.339   2.724
10638SOL    HW132813   6.498   5.399   2.645
10638SOL    HW232814   6.602   5.305   2.728
10639SOL     OW32815   1.047   3.183   3.329
10639SOL    HW132816   0.947   3.179   3.324
10639SOL    HW232817   1.074   3.257   3.390
10640SOL     OW32818   3.722   0.149   5.321
10640SOL    HW132819   3.805   0.164   5.267
10640SOL    HW232820   3.700   0.051   5.320
10641SOL     OW32821   2.401   1.917   1.671
10641SOL    HW132822   2.368   1.975   1.745
10641SOL    HW232823   2.377   1.958   1.583
10642SOL     OW32824   6.268   2.561   1.435
10642SOL    HW132825   6.239   2.497   1.506
10642SOL    HW232826   6.342   2.618   1.469
10643SOL     OW32827   1.927   5.147   5.143
10643SOL    HW132828   1.937   5.197   5.057
10643SOL    HW232829   2.015   5.106   5.168
10644SOL     OW32830   5.820   2.884   2.806
10644SOL    HW132831   5.753   2.927   2.745
10644SOL    HW232832   5.778   2.867   2.895
10645SOL     OW32833   1.763   2.570   4.696
10645SOL    HW132834   1.783   2.607   4.787
10645SOL    HW232835   1.832   2.501   4.672
10646SOL     OW32836   0.394   0.391   6.804
10646SOL    HW132837   0.475   0.451   6.800
10646SOL    HW232838   0.313   0.445   6.782
10647SOL     OW32839   2.877   5.488   4.642
10647SOL    HW132840   2.817   5.486   4.562
10647SOL    HW232841   2.932   5.404   4.644
10648SOL     OW32842   6.136   4.299   6.084
10648SOL    HW132843   6.195   4.265   6.157
10648SOL    HW232844   6.041   4.293   6.113
10649SOL     OW32845   0.043   4.674   2.518
10649SOL    HW132846   6.976   4.696   2.472
10649SOL    HW232847   0.094   4.759   2.532
10650SOL     OW32848   0.972   0.136   3.865
10650SOL    HW132849   0.933   0.226   3.885
10650SOL    HW232850   0.899   0.074   3.835
10651SOL     OW32851   5.338   5.852   6.806
10651SOL    HW132852   5.434   5.845   6.782
10651SOL    HW232853   5.282   5.829   6.727
10652SOL     OW32854   3.419   7.018   5.725
10652SOL    HW132855   3.506   0.014   5.772
10652SOL    HW232856   3.428   6.936   5.668
10653SOL     OW32857   4.055   4.792   3.794
10653SOL    HW132858   4.051   4.794   3.893
10653SOL    HW232859   3.962   4.783   3.757
10654SOL     OW32860   5.348   0.909   0.657
10654SOL    HW132861   5.284   0.960   0.599
10654SOL    HW232862   5.297   0.855   0.724
10655SOL     OW32863   2.167   5.569   0.956
10655SOL    HW132864   2.141   5.497   1.020
10655SOL    HW232865   2.204   5.647   1.006
10656SOL     OW32866   6.561   2.311   2.985
10656SOL    HW132867   6.658   2.306   2.960
10656SOL    HW232868   6.505   2.300   2.903
10657SOL     OW32869   6.742   0.077   6.023
10657SOL    HW132870   6.694   0.164   6.032
10657SOL    HW232871   6.675   0.003   6.018
10658SOL     OW32872   6.374   4.487   4.841
10658SOL    HW132873   6.385   4.433   4.925
10658SOL    HW232874   6.452   4.471   4.780
10659SOL     OW32875   6.852   5.475   0.948
10659SOL    HW132876   6.787   5.484   1.023
10659SOL    HW232877   6.942   5.453   0.984
10660SOL     OW32878   4.714   4.406   6.543
10660SOL    HW132879   4.778   4.455   6.602
10660SOL    HW232880   4.747   4.410   6.448
10661SOL     OW32881   1.696   0.240   2.155
10661SOL    HW132882   1.736   0.187   2.080
10661SOL    HW232883   1.675   0.332   2.124
10662SOL     OW32884   5.705   6.768   2.885
10662SOL    HW132885   5.751   6.715   2.814
10662SOL    HW232886   5.607   6.775   2.863
10663SOL     OW32887   0.370   1.653   1.654
10663SOL    HW132888   0.339   1.746   1.633
10663SOL    HW232889   0.329   1.589   1.589
10664SOL     OW32890   0.175   4.228   5.326
10664SOL    HW132891   0.106   4.285   5.281
10664SOL    HW232892   0.155   4.224   5.424
10665SOL     OW32893   1.159   1.041   0.445
10665SOL    HW132894   1.156   1.049   0.345
10665SOL    HW232895   1.224   1.107   0.482
10666SOL     OW32896   3.024   3.506   1.284
10666SOL    HW132897   3.063   3.598   1.294
10666SOL    HW232898   2.950   3.494   1.351
10667SOL     OW32899   3.950   3.317   5.498
10667SOL    HW132900   3.930   3.361   5.411
10667SOL    HW232901   4.048   3.299   5.505
10668SOL     OW32902   2.230   0.278   4.743
10668SOL    HW132903   2.236   0.182   4.771
10668SOL    HW232904   2.139   0.313   4.765
10669SOL     OW32905   5.906   6.651   1.016
10669SOL    HW132906   5.959   6.719   0.964
10669SOL    HW232907   5.968   6.601   1.077
10670SOL     OW32908   5.248   3.281   5.010
10670SOL    HW132909   5.324   3.230   5.052
10670SOL    HW232910   5.162   3.240   5.038
10671SOL     OW32911   2.505   2.393   3.040
10671SOL    HW132912   2.501   2.470   3.104
10671SOL    HW232913   2.475   2.310   3.086
10672SOL     OW32914   6.147   2.967   0.697
10672SOL    HW132915   6.132   3.038   0.767
10672SOL    HW232916   6.213   2.900   0.732
10673SOL     OW32917   1.116   1.226   6.220
10673SOL    HW132918   1.107   1.159   6.295
10673SOL    HW232919   1.103   1.179   6.133
10674SOL     OW32920   3.737   3.687   1.812
10674SOL    HW132921   3.740   3.658   1.716
10674SOL    HW232922   3.783   3.619   1.869
10675SOL     OW32923   1.742   6.526   0.031
10675SOL    HW132924   1.752   6.595   0.103
10675SOL    HW232925   1.716   6.439   0.073
10676SOL     OW32926   6.610   6.334   6.215
10676SOL    HW132927   6.631   6.336   6.313
10676SOL    HW232928   6.577   6.242   6.190
10677SOL     OW32929   0.931   1.110   2.470
10677SOL    HW132930   0.948   1.013   2.449
10677SOL    HW232931   0.972   1.167   2.399
10678SOL     OW32932   3.244   6.233   4.093
10678SOL    HW132933   3.287   6.144   4.109
10678SOL    HW232934   3.155   6.236   4.141
10679SOL     OW32935   4.332   5.684   6.429
10679SOL    HW132936   4.275   5.749   6.378
10679SOL    HW232937   4.320   5.592   6.391
10680SOL     OW32938   2.756   1.866   3.014
10680SOL    HW132939   2.733   1.958   2.982
10680SOL    HW232940   2.694   1.800   2.972
10681SOL     OW32941   1.050   3.244   6.839
10681SOL    HW132942   1.124   3.183   6.868
10681SOL    HW232943   0.967   3.191   6.822
10682SOL     OW32944   2.118   1.250   4.845
10682SOL    HW132945   2.114   1.280   4.940
10682SOL    HW232946   2.027   1.220   4.816
10683SOL     OW32947   3.262   2.088   3.706
10683SOL    HW132948   3.209   2.004   3.702
10683SOL    HW232949   3.353   2.073   3.668
10684SOL     OW32950   5.128   4.134   1.144
10684SOL    HW132951   5.194   4.081   1.196
10684SOL    HW232952   5.055   4.074   1.111
10685SOL     OW32953   0.499   5.698   2.802
10685SOL    HW132954   0.406   5.709   2.836
10685SOL    HW232955   0.497   5.644   2.717
10686SOL     OW32956   1.472   4.944   6.265
10686SOL    HW132957   1.474   5.034   6.221
10686SOL    HW232958   1.489   4.873   6.196
10687SOL     OW32959   6.705   5.194   1.847
10687SOL    HW132960   6.679   5.215   1.941
10687SOL    HW232961   6.626   5.157   1.798
10688SOL     OW32962   6.056   4.402   3.101
10688SOL    HW132963   5.976   4.385   3.158
10688SOL    HW232964   6.060   4.334   3.027
10689SOL     OW32965   0.447   6.518   3.378
10689SOL    HW132966   0.434   6.422   3.399
10689SOL    HW232967   0.431   6.534   3.280
10690SOL     OW32968   0.002   6.322   2.628
10690SOL    HW132969   6.981   6.395   2.683
10690SOL    HW232970   6.950   6.263   2.592
10691SOL     OW32971   0.366   1.979   2.014
10691SOL    HW132972   0.463   1.964   1.995
10691SOL    HW232973   0.355   2.062   2.069
10692SOL     OW32974   2.716   5.164   3.049
10692SOL    HW132975   2.798   5.109   3.063
10692SOL    HW232976   2.667   5.174   3.136
10693SOL     OW32977   2.724   0.369   0.084
10693SOL    HW132978   2.755   0.462   0.069
10693SOL    HW232979   2.797   0.316   0.127
10694SOL     OW32980   5.225   6.636   1.741
10694SOL    HW132981   5.291   6.606   1.809
10694SOL    HW232982   5.239   6.733   1.720
10695SOL     OW32983   5.244   1.921   2.612
10695SOL    HW132984   5.192   1.998   2.574
10695SOL    HW232985   5.227   1.840   2.557
10696SOL     OW32986   6.963   3.910   3.790
10696SOL    HW132987   0.002   3.966   3.848
10696SOL    HW232988   6.886   3.875   3.844
10697SOL     OW32989   0.772   5.642   4.518
10697SOL    HW132990   0.827   5.599   4.590
10697SOL    HW232991   0.804   5.736   4.504
10698SOL     OW32992   4.240   5.674   4.737
10698SOL    HW132993   4.292   5.752   4.772
10698SOL    HW232994   4.301   5.610   4.691
10699SOL     OW32995   3.664   2.960   1.876
10699SOL    HW132996   3.625   2.945   1.786
10699SOL    HW232997   3.629   2.891   1.940
10700SOL     OW32998   0.520   6.560   0.663
10700SOL    HW132999   0.589   6.604   0.606
10700SOL    HW233000   0.451   6.628   0.689
10701SOL     OW33001   3.380   5.749   6.996
10701SOL    HW133002   3.392   5.846   6.975
10701SOL    HW233003   3.282   5.730   7.011
10702SOL     OW33004   5.971   2.718   2.228
10702SOL    HW133005   5.999   2.637   2.176
10702SOL    HW233006   5.988   2.800   2.174
10703SOL     OW33007   2.982   3.283   4.639
10703SOL    HW133008   2.893   3.253   4.604
10703SOL    HW233009   2.969   3.341   4.719
10704SOL     OW33010   6.173   5.621   1.395
10704SOL    HW133011   6.087   5.664   1.420
10704SOL    HW233012   6.249   5.675   1.431
10705SOL     OW33013   6.474   4.305   2.254
10705SOL    HW133014   6.450   4.284   2.159
10705SOL    HW233015   6.399   4.277   2.314
10706SOL     OW33016   4.914   6.496   2.643
10706SOL    HW133017   4.836   6.439   2.669
10706SOL    HW233018   4.893   6.592   2.663
10707SOL     OW33019   0.408   6.764   3.559
10707SOL    HW133020   0.485   6.754   3.622
10707SOL    HW233021   0.398   6.681   3.505
10708SOL     OW33022   4.508   0.705   2.623
10708SOL    HW133023   4.526   0.616   2.665
10708SOL    HW233024   4.413   0.709   2.592
10709SOL     OW33025   6.110   6.669   5.074
10709SOL    HW133026   6.019   6.638   5.100
10709SOL    HW233027   6.159   6.595   5.028
10710SOL     OW33028   0.383   6.922   4.749
10710SOL    HW133029   0.449   6.960   4.684
10710SOL    HW233030   0.416   6.937   4.842
10711SOL     OW33031   1.660   6.196   3.370
10711SOL    HW133032   1.727   6.155   3.309
10711SOL    HW233033   1.691   6.287   3.399
10712SOL     OW33034   2.585   1.045   1.108
10712SOL    HW133035   2.508   1.060   1.171
10712SOL    HW233036   2.569   0.961   1.056
10713SOL     OW33037   0.982   3.292   1.577
10713SOL    HW133038   1.008   3.351   1.500
10713SOL    HW233039   0.961   3.200   1.543
10714SOL     OW33040   6.070   3.715   5.606
10714SOL    HW133041   5.998   3.646   5.606
10714SOL    HW233042   6.158   3.672   5.625
10715SOL     OW33043   4.564   0.056   2.482
10715SOL    HW133044   4.611   7.016   2.547
10715SOL    HW233045   4.469   0.066   2.510
10716SOL     OW33046   5.859   3.110   4.368
10716SOL    HW133047   5.950   3.073   4.390
10716SOL    HW233048   5.831   3.172   4.441
10717SOL     OW33049   0.956   2.690   0.785
10717SOL    HW133050   1.046   2.714   0.820
10717SOL    HW233051   0.936   2.746   0.704
10718SOL     OW33052   0.106   3.172   6.553
10718SOL    HW133053   0.146   3.262   6.571
10718SOL    HW233054   0.165   3.120   6.492
10719SOL     OW33055   5.111   5.735   0.043
10719SOL    HW133056   5.158   5.709   6.978
10719SOL    HW233057   5.179   5.762   0.111
10720SOL     OW33058   6.501   2.974   5.706
10720SOL    HW133059   6.512   2.912   5.784
10720SOL    HW233060   6.427   3.039   5.726
10721SOL     OW33061   6.321   3.961   5.089
10721SOL    HW133062   6.295   4.027   5.159
10721SOL    HW233063   6.395   3.903   5.124
10722SOL     OW33064   0.075   3.933   0.593
10722SOL    HW133065   0.036   4.002   0.655
10722SOL    HW233066   0.172   3.920   0.615
10723SOL     OW33067   0.088   3.618   6.703
10723SOL    HW133068   7.014   3.591   6.681
10723SOL    HW233069   0.131   3.655   6.621
10724SOL     OW33070   4.619   0.387   0.287
10724SOL    HW133071   4.718   0.376   0.297
10724SOL    HW233072   4.579   0.300   0.261
10725SOL     OW33073   0.046   5.184   3.535
10725SOL    HW133074   0.137   5.155   3.503
10725SOL    HW233075   0.036   5.283   3.522
10726SOL     OW33076   5.883   6.163   5.590
10726SOL    HW133077   5.891   6.210   5.678
10726SOL    HW233078   5.799   6.109   5.589
10727SOL     OW33079   0.596   4.976   4.310
10727SOL    HW133080   0.664   4.983   4.383
10727SOL    HW233081   0.584   5.066   4.268
10728SOL     OW33082   6.557   6.015   1.681
10728SOL    HW133083   6.464   6.052   1.679
10728SOL    HW233084   6.557   5.928   1.730
10729SOL     OW33085   5.760   1.060   3.336
10729SOL    HW133086   5.684   1.079   3.399
10729SOL    HW233087   5.741   0.976   3.285
10730SOL     OW33088   2.688   0.347   0.918
10730SOL    HW133089   2.597   0.332   0.957
10730SOL    HW233090   2.697   0.443   0.892
10731SOL     OW33091   2.276   5.996   6.552
10731SOL    HW133092   2.233   5.974   6.640
10731SOL    HW233093   2.317   6.087   6.558
10732SOL     OW33094   5.426   5.834   2.862
10732SOL    HW133095   5.370   5.810   2.941
10732SOL    HW233096   5.503   5.890   2.891
10733SOL     OW33097   5.380   1.996   6.808
10733SOL    HW133098   5.318   2.066   6.773
10733SOL    HW233099   5.449   2.039   6.867
10734SOL     OW33100   1.191   0.114   6.772
10734SOL    HW133101   1.139   0.037   6.809
10734SOL    HW233102   1.250   0.152   6.843
10735SOL     OW33103   1.647   4.768   2.846
10735SOL    HW133104   1.577   4.798   2.781
10735SOL    HW233105   1.731   4.746   2.797
10736SOL     OW33106   0.516   0.947   3.669
10736SOL    HW133107   0.598   0.892   3.683
10736SOL    HW233108   0.537   1.023   3.608
10737SOL     OW33109   1.374   1.887   0.336
10737SOL    HW133110   1.440   1.822   0.373
10737SOL    HW233111   1.283   1.865   0.369
10738SOL     OW33112   2.444   0.781   2.398
10738SOL    HW133113   2.440   0.714   2.323
10738SOL    HW233114   2.537   0.817   2.405
10739SOL     OW33115   0.721   1.590   1.971
10739SOL    HW133116   0.742   1.499   1.936
10739SOL    HW233117   0.685   1.647   1.897
10740SOL     OW33118   1.464   4.323   6.271
10740SOL    HW133119   1.392   4.370   6.323
10740SOL    HW233120   1.432   4.308   6.177
10741SOL     OW33121   0.286   1.073   3.508
10741SOL    HW133122   0.239   0.994   3.468
10741SOL    HW233123   0.376   1.083   3.466
10742SOL     OW33124   5.997   0.202   1.886
10742SOL    HW133125   5.985   0.185   1.984
10742SOL    HW233126   5.930   0.269   1.855
10743SOL     OW33127   2.651   2.098   3.697
10743SOL    HW133128   2.577   2.157   3.729
10743SOL    HW233129   2.646   2.088   3.598
10744SOL     OW33130   3.520   1.776   3.132
10744SOL    HW133131   3.515   1.873   3.155
10744SOL    HW233132   3.448   1.726   3.180
10745SOL     OW33133   0.567   5.225   0.721
10745SOL    HW133134   0.491   5.228   0.656
10745SOL    HW233135   0.562   5.304   0.782
10746SOL     OW33136   1.903   3.781   1.646
10746SOL    HW133137   1.963   3.827   1.581
10746SOL    HW233138   1.949   3.699   1.681
10747SOL     OW33139   4.530   1.269   3.627
10747SOL    HW133140   4.613   1.270   3.571
10747SOL    HW233141   4.470   1.195   3.595
10748SOL     OW33142   4.449   6.732   0.988
10748SOL    HW133143   4.392   6.814   0.987
10748SOL    HW233144   4.418   6.669   0.916
10749SOL     OW33145   6.803   4.244   3.206
10749SOL    HW133146   6.720   4.192   3.187
10749SOL    HW233147   6.789   4.339   3.179
10750SOL     OW33148   3.916   5.886   4.340
10750SOL    HW133149   3.896   5.794   4.307
10750SOL    HW233150   3.966   5.880   4.427
10751SOL     OW33151   0.795   3.978   5.564
10751SOL    HW133152   0.714   3.933   5.601
10751SOL    HW233153   0.791   3.976   5.464
10752SOL     OW33154   6.482   3.765   5.858
10752SOL    HW133155   6.576   3.758   5.892
10752SOL    HW233156   6.418   3.763   5.935
10753SOL     OW33157   5.354   0.638   3.483
10753SOL    HW133158   5.306   0.606   3.401
10753SOL    HW233159   5.453   0.633   3.469
10754SOL     OW33160   1.610   1.673   3.710
10754SOL    HW133161   1.708   1.662   3.690
10754SOL    HW233162   1.557   1.612   3.652
10755SOL     OW33163   0.727   2.013   0.304
10755SOL    HW133164   0.721   2.102   0.259
10755SOL    HW233165   0.698   2.022   0.399
10756SOL     OW33166   6.342   4.229   0.183
10756SOL    HW133167   6.416   4.295   0.195
10756SOL    HW233168   6.343   4.164   0.259
10757SOL     OW33169   0.397   3.606   0.301
10757SOL    HW133170   0.384   3.526   0.359
10757SOL    HW233171   0.379   3.689   0.354
10758SOL     OW33172   1.176   6.491   4.694
10758SOL    HW133173   1.127   6.539   4.767
10758SOL    HW233174   1.147   6.526   4.605
10759SOL     OW33175   1.448   2.569   6.790
10759SOL    HW133176   1.471   2.530   6.701
10759SOL    HW233177   1.522   2.551   6.854
10760SOL     OW33178   0.022   0.633   0.450
10760SOL    HW133179   0.110   0.677   0.433
10760SOL    HW233180   0.009   0.621   0.549
10761SOL     OW33181   1.159   2.113   6.035
10761SOL    HW133182   1.258   2.102   6.028
10761SOL    HW233183   1.116   2.078   5.953
10762SOL     OW33184   3.935   1.910   4.926
10762SOL    HW133185   3.902   1.818   4.906
10762SOL    HW233186   4.030   1.905   4.957
10763SOL     OW33187   4.888   6.362   0.893
10763SOL    HW133188   4.985   6.378   0.913
10763SOL    HW233189   4.880   6.284   0.830
10764SOL     OW33190   5.691   1.711   5.759
10764SOL    HW133191   5.703   1.763   5.674
10764SOL    HW233192   5.780   1.676   5.788
10765SOL     OW33193   5.636   2.957   1.359
10765SOL    HW133194   5.698   2.887   1.393
10765SOL    HW233195   5.649   2.969   1.260
10766SOL     OW33196   3.523   3.169   0.028
10766SOL    HW133197   3.620   3.184   0.048
10766SOL    HW233198   3.473   3.255   0.036
10767SOL     OW33199   1.444   0.666   6.945
10767SOL    HW133200   1.350   0.661   6.980
10767SOL    HW233201   1.445   0.719   6.860
10768SOL     OW33202   5.384   5.352   1.355
10768SOL    HW133203   5.294   5.334   1.315
10768SOL    HW233204   5.455   5.311   1.297
10769SOL     OW33205   1.865   4.915   4.806
10769SOL    HW133206   1.902   4.878   4.720
10769SOL    HW233207   1.892   4.855   4.881
10770SOL     OW33208   5.361   6.824   5.027
10770SOL    HW133209   5.304   6.749   4.993
10770SOL    HW233210   5.326   6.910   4.992
10771SOL     OW33211   4.465   0.428   5.127
10771SOL    HW133212   4.365   0.425   5.117
10771SOL    HW233213   4.490   0.409   5.222
10772SOL     OW33214   6.350   6.666   4.156
10772SOL    HW133215   6.342   6.738   4.225
10772SOL    HW233216   6.433   6.613   4.172
10773SOL     OW33217   6.654   5.209   6.083
10773SOL    HW133218   6.628   5.179   6.175
10773SOL    HW233219   6.689   5.302   6.087
10774SOL     OW33220   1.658   1.340   6.381
10774SOL    HW133221   1.627   1.258   6.430
10774SOL    HW233222   1.736   1.317   6.323
10775SOL     OW33223   0.833   3.928   0.962
10775SOL    HW133224   0.841   3.846   1.019
10775SOL    HW233225   0.896   3.922   0.885
10776SOL     OW33226   1.303   5.925   0.720
10776SOL    HW133227   1.324   5.988   0.645
10776SOL    HW233228   1.389   5.887   0.756
10777SOL     OW33229   4.207   6.090   3.773
10777SOL    HW133230   4.194   6.155   3.698
10777SOL    HW233231   4.161   6.124   3.855
10778SOL     OW33232   5.843   6.204   5.224
10778SOL    HW133233   5.905   6.254   5.164
10778SOL    HW233234   5.820   6.116   5.184
10779SOL     OW33235   5.972   5.030   3.228
10779SOL    HW133236   6.060   5.068   3.257
10779SOL    HW233237   5.985   4.934   3.201
10780SOL     OW33238   1.445   6.757   3.093
10780SOL    HW133239   1.458   6.677   3.034
10780SOL    HW233240   1.531   6.777   3.140
10781SOL     OW33241   3.868   1.296   3.617
10781SOL    HW133242   3.837   1.201   3.618
10781SOL    HW233243   3.967   1.298   3.634
10782SOL     OW33244   6.817   1.841   3.752
10782SOL    HW133245   6.864   1.897   3.820
10782SOL    HW233246   6.813   1.890   3.665
10783SOL     OW33247   1.318   3.343   3.876
10783SOL    HW133248   1.410   3.378   3.896
10783SOL    HW233249   1.259   3.419   3.849
10784SOL     OW33250   2.882   0.582   2.796
10784SOL    HW133251   2.823   0.521   2.849
10784SOL    HW233252   2.958   0.612   2.854
10785SOL     OW33253   0.851   4.960   0.845
10785SOL    HW133254   0.945   4.978   0.817
10785SOL    HW233255   0.837   4.994   0.938
10786SOL     OW33256   5.130   3.240   1.966
10786SOL    HW133257   5.097   3.301   1.894
10786SOL    HW233258   5.133   3.290   2.053
10787SOL     OW33259   3.080   2.183   4.469
10787SOL    HW133260   3.147   2.205   4.398
10787SOL    HW233261   3.121   2.199   4.559
10788SOL     OW33262   2.223   4.513   0.584
10788SOL    HW133263   2.256   4.438   0.527
10788SOL    HW233264   2.215   4.596   0.528
10789SOL     OW33265   6.084   2.569   0.090
10789SOL    HW133266   6.177   2.578   0.053
10789SOL    HW233267   6.029   2.648   0.063
10790SOL     OW33268   1.262   0.694   3.580
10790SOL    HW133269   1.327   0.738   3.642
10790SOL    HW233270   1.238   0.604   3.616
10791SOL     OW33271   0.506   1.345   1.116
10791SOL    HW133272   0.424   1.288   1.116
10791SOL    HW233273   0.483   1.436   1.081
10792SOL     OW33274   3.857   3.474   1.955
10792SOL    HW133275   3.845   3.377   1.937
10792SOL    HW233276   3.955   3.495   1.960
10793SOL     OW33277   5.485   2.706   4.410
10793SOL    HW133278   5.443   2.751   4.332
10793SOL    HW233279   5.572   2.666   4.382
10794SOL     OW33280   3.016   3.788   3.108
10794SOL    HW133281   3.003   3.777   3.010
10794SOL    HW233282   3.036   3.699   3.149
10795SOL     OW33283   6.776   3.519   3.809
10795SOL    HW133284   6.706   3.450   3.791
10795SOL    HW233285   6.736   3.610   3.803
10796SOL     OW33286   4.721   6.505   7.004
10796SOL    HW133287   4.647   6.518   0.050
10796SOL    HW233288   4.715   6.414   6.965
10797SOL     OW33289   4.450   2.351   1.296
10797SOL    HW133290   4.456   2.325   1.200
10797SOL    HW233291   4.494   2.282   1.353
10798SOL     OW33292   1.940   6.769   0.937
10798SOL    HW133293   1.981   6.696   0.883
10798SOL    HW233294   2.004   6.799   1.007
10799SOL     OW33295   3.480   1.058   2.014
10799SOL    HW133296   3.554   1.119   2.044
10799SOL    HW233297   3.517   0.967   1.994
10800SOL     OW33298   1.293   0.271   6.988
10800SOL    HW133299   1.208   0.305   0.007
10800SOL    HW233300   1.315   0.323   6.906
10801SOL     OW33301   1.021   6.932   5.115
10801SOL    HW133302   1.097   6.950   5.053
10801SOL    HW233303   1.041   6.973   5.205
10802SOL     OW33304   1.906   3.165   4.243
10802SOL    HW133305   1.992   3.129   4.207
10802SOL    HW233306   1.858   3.092   4.292
10803SOL     OW33307   4.175   4.239   5.595
10803SOL    HW133308   4.235   4.163   5.619
10803SOL    HW233309   4.175   4.252   5.496
10804SOL     OW33310   6.861   4.081   1.489
10804SOL    HW133311   6.840   4.054   1.395
10804SOL    HW233312   6.865   4.180   1.496
10805SOL     OW33313   3.222   6.623   6.521
10805SOL    HW133314   3.291   6.678   6.475
10805SOL    HW233315   3.251   6.604   6.615
10806SOL     OW33316   5.011   4.598   6.326
10806SOL    HW133317   4.924   4.630   6.364
10806SOL    HW233318   4.994   4.541   6.245
10807SOL     OW33319   2.154   0.020   3.491
10807SOL    HW133320   2.108   6.954   3.509
10807SOL    HW233321   2.172   0.028   3.393
10808SOL     OW33322   6.515   4.268   6.752
10808SOL    HW133323   6.439   4.258   6.815
10808SOL    HW233324   6.570   4.347   6.780
10809SOL     OW33325   2.259   6.194   3.486
10809SOL    HW133326   2.225   6.253   3.560
10809SOL    HW233327   2.295   6.251   3.412
10810SOL     OW33328   1.765   6.908   4.751
10810SOL    HW133329   1.687   6.882   4.693
10810SOL    HW233330   1.744   6.887   4.846
10811SOL     OW33331   4.487   4.608   5.754
10811SOL    HW133332   4.460   4.520   5.715
10811SOL    HW233333   4.465   4.681   5.689
10812SOL     OW33334   1.034   3.419   2.031
10812SOL    HW133335   0.959   3.479   2.003
10812SOL    HW233336   1.073   3.375   1.950
10813SOL     OW33337   1.706   5.612   0.322
10813SOL    HW133338   1.801   5.605   0.351
10813SOL    HW233339   1.674   5.706   0.335
10814SOL     OW33340   1.390   6.472   0.093
10814SOL    HW133341   1.451   6.550   0.086
10814SOL    HW233342   1.392   6.435   0.186
10815SOL     OW33343   4.800   4.690   3.243
10815SOL    HW133344   4.783   4.782   3.277
10815SOL    HW233345   4.850   4.638   3.313
10816SOL     OW33346   1.177   1.927   1.617
10816SOL    HW133347   1.185   1.877   1.531
10816SOL    HW233348   1.081   1.948   1.635
10817SOL     OW33349   5.192   0.069   2.398
10817SOL    HW133350   5.144   0.136   2.341
10817SOL    HW233351   5.209   0.108   2.488
10818SOL     OW33352   4.427   4.265   5.324
10818SOL    HW133353   4.422   4.167   5.342
10818SOL    HW233354   4.359   4.289   5.255
10819SOL     OW33355   6.818   4.223   0.195
10819SOL    HW133356   6.916   4.209   0.210
10819SOL    HW233357   6.787   4.164   0.120
10820SOL     OW33358   5.732   5.679   4.320
10820SOL    HW133359   5.806   5.617   4.293
10820SOL    HW233360   5.762   5.774   4.307
10821SOL     OW33361   5.740   6.420   2.190
10821SOL    HW133362   5.767   6.332   2.151
10821SOL    HW233363   5.755   6.493   2.124
10822SOL     OW33364   0.877   3.030   3.085
10822SOL    HW133365   0.841   3.123   3.081
10822SOL    HW233366   0.971   3.032   3.118
10823SOL     OW33367   1.699   5.136   2.196
10823SOL    HW133368   1.676   5.048   2.153
10823SOL    HW233369   1.793   5.160   2.174
10824SOL     OW33370   5.014   0.234   4.364
10824SOL    HW133371   4.934   0.196   4.317
10824SOL    HW233372   5.048   0.313   4.313
10825SOL     OW33373   3.158   0.565   6.910
10825SOL    HW133374   3.177   0.607   6.998
10825SOL    HW233375   3.188   0.469   6.911
10826SOL     OW33376   0.639   3.525   3.755
10826SOL    HW133377   0.579   3.573   3.818
10826SOL    HW233378   0.671   3.440   3.796
10827SOL     OW33379   6.093   3.932   4.533
10827SOL    HW133380   6.173   3.879   4.563
10827SOL    HW233381   6.101   4.026   4.566
10828SOL     OW33382   1.412   5.588   2.032
10828SOL    HW133383   1.328   5.533   2.029
10828SOL    HW233384   1.426   5.631   1.942
10829SOL     OW33385   3.444   2.654   0.759
10829SOL    HW133386   3.442   2.602   0.844
10829SOL    HW233387   3.473   2.594   0.684
10830SOL     OW33388   5.404   1.938   3.816
10830SOL    HW133389   5.343   2.002   3.862
10830SOL    HW233390   5.356   1.894   3.741
10831SOL     OW33391   4.128   5.808   1.674
10831SOL    HW133392   4.173   5.898   1.679
10831SOL    HW233393   4.183   5.740   1.722
10832SOL     OW33394   0.450   2.376   0.471
10832SOL    HW133395   0.498   2.363   0.384
10832SOL    HW233396   0.502   2.439   0.529
10833SOL     OW33397   1.328   1.285   2.975
10833SOL    HW133398   1.275   1.332   2.904
10833SOL    HW233399   1.343   1.348   3.052
10834SOL     OW33400   1.707   2.179   5.906
10834SOL    HW133401   1.771   2.141   5.972
10834SOL    HW233402   1.631   2.115   5.892
10835SOL     OW33403   6.224   2.066   0.473
10835SOL    HW133404   6.281   1.988   0.448
10835SOL    HW233405   6.264   2.149   0.434
10836SOL     OW33406   6.645   1.203   4.799
10836SOL    HW133407   6.644   1.125   4.737
10836SOL    HW233408   6.641   1.288   4.746
10837SOL     OW33409   0.203   4.887   0.322
10837SOL    HW133410   0.154   4.824   0.261
10837SOL    HW233411   0.138   4.952   0.361
10838SOL     OW33412   5.866   6.707   5.236
10838SOL    HW133413   5.775   6.671   5.222
10838SOL    HW233414   5.867   6.765   5.318
10839SOL     OW33415   3.312   3.179   0.311
10839SOL    HW133416   3.331   3.261   0.366
10839SOL    HW233417   3.388   3.115   0.320
10840SOL     OW33418   3.797   5.670   1.256
10840SOL    HW133419   3.735   5.604   1.213
10840SOL    HW233420   3.891   5.637   1.249
10841SOL     OW33421   3.758   6.751   0.622
10841SOL    HW133422   3.718   6.660   0.620
10841SOL    HW233423   3.852   6.748   0.588
10842SOL     OW33424   5.182   3.278   1.320
10842SOL    HW133425   5.249   3.284   1.393
10842SOL    HW233426   5.090   3.272   1.359
10843SOL     OW33427   0.520   2.209   1.753
10843SOL    HW133428   0.581   2.132   1.768
10843SOL    HW233429   0.506   2.222   1.655
10844SOL     OW33430   0.265   6.849   3.833
10844SOL    HW133431   0.338   6.846   3.901
10844SOL    HW233432   0.305   6.849   3.741
10845SOL     OW33433   3.492   0.798   6.971
10845SOL    HW133434   3.587   0.777   6.945
10845SOL    HW233435   3.435   0.798   6.889
10846SOL     OW33436   4.968   3.077   1.131
10846SOL    HW133437   5.010   3.167   1.128
10846SOL    HW233438   4.950   3.052   1.226
10847SOL     OW33439   3.751   2.854   6.434
10847SOL    HW133440   3.792   2.934   6.478
10847SOL    HW233441   3.799   2.834   6.348
10848SOL     OW33442   2.813   2.595   0.068
10848SOL    HW133443   2.778   2.501   0.074
10848SOL    HW233444   2.912   2.593   0.080
10849SOL     OW33445   2.442   4.392   2.886
10849SOL    HW133446   2.421   4.353   2.797
10849SOL    HW233447   2.448   4.320   2.955
10850SOL     OW33448   3.728   6.008   0.386
10850SOL    HW133449   3.822   6.002   0.420
10850SOL    HW233450   3.717   5.948   0.308
10851SOL     OW33451   2.985   3.009   6.679
10851SOL    HW133452   3.021   2.963   6.760
10851SOL    HW233453   2.928   2.945   6.627
10852SOL     OW33454   0.366   6.558   6.276
10852SOL    HW133455   0.463   6.558   6.255
10852SOL    HW233456   0.319   6.622   6.215
10853SOL     OW33457   3.612   1.825   5.811
10853SOL    HW133458   3.707   1.833   5.841
10853SOL    HW233459   3.573   1.916   5.799
10854SOL     OW33460   5.685   6.395   5.367
10854SOL    HW133461   5.753   6.356   5.305
10854SOL    HW233462   5.721   6.397   5.460
10855SOL     OW33463   2.899   6.113   2.028
10855SOL    HW133464   2.850   6.028   2.050
10855SOL    HW233465   2.840   6.173   1.975
10856SOL     OW33466   6.260   1.792   2.357
10856SOL    HW133467   6.162   1.792   2.340
10856SOL    HW233468   6.301   1.874   2.317
10857SOL     OW33469   5.785   3.490   3.183
10857SOL    HW133470   5.807   3.501   3.280
10857SOL    HW233471   5.857   3.533   3.128
10858SOL     OW33472   0.741   2.198   6.265
10858SOL    HW133473   0.693   2.127   6.317
10858SOL    HW233474   0.839   2.177   6.263
10859SOL     OW33475   2.082   3.818   4.004
10859SOL    HW133476   2.012   3.763   4.049
10859SOL    HW233477   2.096   3.784   3.911
10860SOL     OW33478   6.441   1.148   6.053
10860SOL    HW133479   6.461   1.073   5.989
10860SOL    HW233480   6.437   1.112   6.146
10861SOL     OW33481   3.844   2.955   2.871
10861SOL    HW133482   3.890   2.872   2.902
10861SOL    HW233483   3.870   3.032   2.930
10862SOL     OW33484   3.016   1.635   6.663
10862SOL    HW133485   2.993   1.545   6.627
10862SOL    HW233486   3.110   1.658   6.637
10863SOL     OW33487   4.030   0.537   2.248
10863SOL    HW133488   3.974   0.510   2.169
10863SOL    HW233489   4.115   0.485   2.246
10864SOL     OW33490   3.186   5.068   0.997
10864SOL    HW133491   3.128   5.149   0.988
10864SOL    HW233492   3.278   5.095   1.026
10865SOL     OW33493   5.496   1.611   3.634
10865SOL    HW133494   5.453   1.546   3.697
10865SOL    HW233495   5.540   1.684   3.686
10866SOL     OW33496   5.045   5.050   0.393
10866SOL    HW133497   5.059   4.987   0.317
10866SOL    HW233498   5.050   5.144   0.360
10867SOL     OW33499   3.447   4.184   0.349
10867SOL    HW133500   3.521   4.161   0.413
10867SOL    HW233501   3.406   4.101   0.313
10868SOL     OW33502   1.932   2.262   3.870
10868SOL    HW133503   1.985   2.231   3.791
10868SOL    HW233504   1.840   2.224   3.866
10869NA      NA33505   0.265   2.085   6.235
10870NA      NA33506   4.444   4.570   5.242
10871NA      NA33507   2.323   4.487   2.120
10872NA      NA33508   4.844   4.124   3.652
10873NA      NA33509   4.266   2.497   5.321
10874NA      NA33510   3.292   4.379   1.514
10875NA      NA33511   0.592   4.466   0.130
10876NA      NA33512   3.699   3.830   2.501
10877NA      NA33513   4.891   4.803   1.117
10878NA      NA33514   3.382   0.195   5.604
10879NA      NA33515   5.939   5.684   0.685
10880NA      NA33516   2.479   0.795   5.236
10881NA      NA33517   4.035   4.752   1.702
10882NA      NA33518   3.977   2.785   1.276
   7.02006   7.02006   7.02006
