Generated by trjconv : CNT in water t= 556.00000
33518
    1C        C    1   2.839   2.770   4.750
    1C        C    2   2.897   2.718   4.868
    1C        C    3   2.846   2.775   4.986
    1C        C    4   2.848   2.776   4.262
    1C        C    5   2.902   2.731   4.385
    1C        C    6   2.848   2.775   4.508
    1C        C    7   3.013   2.643   4.627
    1C        C    8   2.897   2.724   4.630
    1C        C    9   3.079   2.607   4.747
    1C        C   10   3.011   2.635   4.867
    1C        C   11   3.183   2.499   4.979
    1C        C   12   3.060   2.567   4.979
    1C        C   13   2.850   2.772   3.773
    1C        C   14   2.902   2.726   3.896
    1C        C   15   2.851   2.777   4.017
    1C        C   16   3.019   2.650   4.140
    1C        C   17   2.901   2.728   4.140
    1C        C   18   3.085   2.624   4.263
    1C        C   19   3.019   2.653   4.384
    1C        C   20   3.209   2.561   4.506
    1C        C   21   3.076   2.609   4.506
    1C        C   22   3.280   2.536   4.625
    1C        C   23   3.211   2.555   4.748
    1C        C   24   3.414   2.490   4.867
    1C        C   25   3.273   2.510   4.868
    1C        C   26   3.493   2.484   4.983
    1C        C   27   2.847   2.766   3.281
    1C        C   28   2.898   2.720   3.405
    1C        C   29   2.849   2.772   3.527
    1C        C   30   3.016   2.643   3.652
    1C        C   31   2.902   2.727   3.650
    1C        C   32   3.078   2.609   3.774
    1C        C   33   3.016   2.642   3.897
    1C        C   34   3.211   2.559   4.018
    1C        C   35   3.079   2.611   4.019
    1C        C   36   3.280   2.537   4.139
    1C        C   37   3.213   2.565   4.261
    1C        C   38   3.419   2.521   4.383
    1C        C   39   3.280   2.547   4.384
    1C        C   40   3.490   2.504   4.504
    1C        C   41   3.419   2.513   4.625
    1C        C   42   3.631   2.486   4.744
    1C        C   43   3.489   2.490   4.746
    1C        C   44   3.708   2.491   4.862
    1C        C   45   3.632   2.482   4.979
    1C        C   46   2.838   2.752   2.792
    1C        C   47   2.894   2.712   2.915
    1C        C   48   2.843   2.759   3.038
    1C        C   49   3.020   2.642   3.162
    1C        C   50   2.900   2.716   3.160
    1C        C   51   3.079   2.608   3.286
    1C        C   52   3.014   2.639   3.407
    1C        C   53   3.210   2.559   3.530
    1C        C   54   3.077   2.608   3.529
    1C        C   55   3.280   2.543   3.652
    1C        C   56   3.211   2.560   3.774
    1C        C   57   3.417   2.512   3.894
    1C        C   58   3.278   2.538   3.896
    1C        C   59   3.488   2.515   4.016
    1C        C   60   3.419   2.517   4.139
    1C        C   61   3.631   2.501   4.264
    1C        C   62   3.490   2.507   4.261
    1C        C   63   3.705   2.507   4.384
    1C        C   64   3.631   2.500   4.505
    1C        C   65   3.839   2.549   4.623
    1C        C   66   3.705   2.506   4.625
    1C        C   67   3.907   2.569   4.745
    1C        C   68   3.843   2.531   4.866
    1C        C   69   4.057   2.584   4.978
    1C        C   70   3.927   2.530   4.978
    1C        C   71   2.827   2.737   2.308
    1C        C   72   2.885   2.694   2.429
    1C        C   73   2.830   2.744   2.549
    1C        C   74   3.005   2.620   2.673
    1C        C   75   2.888   2.700   2.670
    1C        C   76   3.071   2.596   2.795
    1C        C   77   3.013   2.636   2.917
    1C        C   78   3.208   2.549   3.040
    1C        C   79   3.079   2.606   3.039
    1C        C   80   3.277   2.537   3.163
    1C        C   81   3.210   2.554   3.286
    1C        C   82   3.414   2.500   3.404
    1C        C   83   3.276   2.531   3.408
    1C        C   84   3.484   2.496   3.526
    1C        C   85   3.417   2.508   3.650
    1C        C   86   3.628   2.501   3.770
    1C        C   87   3.487   2.497   3.772
    1C        C   88   3.696   2.512   3.894
    1C        C   89   3.629   2.511   4.019
    1C        C   90   3.837   2.546   4.137
    1C        C   91   3.699   2.514   4.141
    1C        C   92   3.906   2.573   4.257
    1C        C   93   3.841   2.545   4.380
    1C        C   94   4.034   2.632   4.501
    1C        C   95   3.909   2.566   4.501
    1C        C   96   4.098   2.670   4.621
    1C        C   97   4.036   2.627   4.741
    1C        C   98   4.193   2.766   4.865
    1C        C   99   4.104   2.654   4.863
    1C        C  100   4.215   2.845   4.978
    1C        C  101   2.823   2.729   2.071
    1C        C  102   2.992   2.591   2.189
    1C        C  103   2.876   2.675   2.189
    1C        C  104   3.066   2.579   2.310
    1C        C  105   3.005   2.619   2.431
    1C        C  106   3.202   2.537   2.553
    1C        C  107   3.069   2.585   2.552
    1C        C  108   3.273   2.527   2.675
    1C        C  109   3.202   2.543   2.796
    1C        C  110   3.413   2.504   2.915
    1C        C  111   3.273   2.522   2.917
    1C        C  112   3.484   2.498   3.037
    1C        C  113   3.416   2.510   3.161
    1C        C  114   3.628   2.504   3.281
    1C        C  115   3.487   2.499   3.282
    1C        C  116   3.696   2.511   3.405
    1C        C  117   3.626   2.504   3.527
    1C        C  118   3.836   2.542   3.648
    1C        C  119   3.698   2.508   3.648
    1C        C  120   3.900   2.570   3.770
    1C        C  121   3.832   2.550   3.892
    1C        C  122   4.026   2.636   4.013
    1C        C  123   3.901   2.572   4.013
    1C        C  124   4.085   2.677   4.135
    1C        C  125   4.032   2.635   4.259
    1C        C  126   4.205   2.761   4.378
    1C        C  127   4.097   2.669   4.380
    1C        C  128   4.248   2.819   4.499
    1C        C  129   4.197   2.770   4.621
    1C        C  130   4.331   2.934   4.742
    1C        C  131   4.246   2.820   4.744
    1C        C  132   4.361   3.004   4.861
    1C        C  133   4.292   2.961   4.975
    1C        C  134   3.175   2.468   2.085
    1C        C  135   3.040   2.507   2.084
    1C        C  136   3.263   2.482   2.193
    1C        C  137   3.197   2.523   2.310
    1C        C  138   3.408   2.491   2.428
    1C        C  139   3.268   2.511   2.432
    1C        C  140   3.482   2.488   2.548
    1C        C  141   3.412   2.503   2.670
    1C        C  142   3.624   2.497   2.793
    1C        C  143   3.482   2.497   2.793
    1C        C  144   3.696   2.506   2.914
    1C        C  145   3.625   2.497   3.036
    1C        C  146   3.835   2.536   3.156
    1C        C  147   3.696   2.510   3.157
    1C        C  148   3.901   2.560   3.279
    1C        C  149   3.834   2.542   3.402
    1C        C  150   4.030   2.621   3.522
    1C        C  151   3.902   2.562   3.524
    1C        C  152   4.086   2.668   3.644
    1C        C  153   4.026   2.636   3.767
    1C        C  154   4.195   2.761   3.888
    1C        C  155   4.086   2.672   3.890
    1C        C  156   4.247   2.810   4.010
    1C        C  157   4.196   2.764   4.134
    1C        C  158   4.338   2.923   4.254
    1C        C  159   4.253   2.811   4.255
    1C        C  160   4.379   2.985   4.375
    1C        C  161   4.337   2.928   4.498
    1C        C  162   4.440   3.114   4.615
    1C        C  163   4.377   2.988   4.619
    1C        C  164   4.470   3.184   4.734
    1C        C  165   4.435   3.124   4.858
    1C        C  166   4.511   3.321   4.973
    1C        C  167   4.479   3.186   4.976
    1C        C  168   3.478   2.439   2.072
    1C        C  169   3.402   2.454   2.189
    1C        C  170   3.619   2.471   2.306
    1C        C  171   3.477   2.464   2.308
    1C        C  172   3.694   2.487   2.425
    1C        C  173   3.623   2.496   2.547
    1C        C  174   3.830   2.533   2.667
    1C        C  175   3.692   2.503   2.670
    1C        C  176   3.898   2.557   2.789
    1C        C  177   3.833   2.539   2.913
    1C        C  178   4.030   2.621   3.031
    1C        C  179   3.903   2.560   3.035
    1C        C  180   4.088   2.658   3.155
    1C        C  181   4.027   2.624   3.277
    1C        C  182   4.199   2.747   3.399
    1C        C  183   4.090   2.657   3.400
    1C        C  184   4.250   2.801   3.519
    1C        C  185   4.197   2.755   3.642
    1C        C  186   4.335   2.917   3.766
    1C        C  187   4.243   2.809   3.764
    1C        C  188   4.376   2.977   3.887
    1C        C  189   4.334   2.921   4.010
    1C        C  190   4.449   3.101   4.130
    1C        C  191   4.380   2.978   4.131
    1C        C  192   4.472   3.172   4.250
    1C        C  193   4.444   3.110   4.374
    1C        C  194   4.508   3.317   4.492
    1C        C  195   4.469   3.181   4.494
    1C        C  196   4.519   3.389   4.612
    1C        C  197   4.513   3.319   4.735
    1C        C  198   4.557   3.533   4.852
    1C        C  199   4.535   3.392   4.855
    1C        C  200   4.580   3.620   4.963
    1C        C  201   3.617   2.420   2.075
    1C        C  202   3.833   2.505   2.184
    1C        C  203   3.695   2.466   2.186
    1C        C  204   3.903   2.535   2.304
    1C        C  205   3.832   2.516   2.425
    1C        C  206   4.025   2.612   2.545
    1C        C  207   3.899   2.548   2.545
    1C        C  208   4.088   2.650   2.666
    1C        C  209   4.026   2.617   2.789
    1C        C  210   4.199   2.747   2.906
    1C        C  211   4.087   2.660   2.908
    1C        C  212   4.247   2.796   3.029
    1C        C  213   4.199   2.746   3.153
    1C        C  214   4.336   2.907   3.273
    1C        C  215   4.247   2.796   3.276
    1C        C  216   4.372   2.969   3.394
    1C        C  217   4.335   2.913   3.518
    1C        C  218   4.435   3.099   3.642
    1C        C  219   4.372   2.972   3.641
    1C        C  220   4.462   3.168   3.762
    1C        C  221   4.440   3.103   3.886
    1C        C  222   4.502   3.305   4.004
    1C        C  223   4.469   3.168   4.007
    1C        C  224   4.516   3.377   4.125
    1C        C  225   4.507   3.309   4.248
    1C        C  226   4.526   3.524   4.366
    1C        C  227   4.523   3.382   4.368
    1C        C  228   4.517   3.597   4.486
    1C        C  229   4.525   3.531   4.610
    1C        C  230   4.500   3.743   4.726
    1C        C  231   4.531   3.604   4.731
    1C        C  232   4.496   3.821   4.844
    1C        C  233   4.549   3.757   4.956
    1C        C  234   4.025   2.605   2.066
    1C        C  235   3.901   2.542   2.067
    1C        C  236   4.091   2.641   2.184
    1C        C  237   4.026   2.607   2.305
    1C        C  238   4.201   2.736   2.421
    1C        C  239   4.087   2.650   2.425
    1C        C  240   4.252   2.788   2.542
    1C        C  241   4.197   2.739   2.663
    1C        C  242   4.338   2.903   2.784
    1C        C  243   4.251   2.791   2.783
    1C        C  244   4.376   2.963   2.906
    1C        C  245   4.335   2.907   3.029
    1C        C  246   4.436   3.093   3.151
    1C        C  247   4.376   2.966   3.151
    1C        C  248   4.458   3.161   3.273
    1C        C  249   4.431   3.098   3.396
    1C        C  250   4.495   3.300   3.515
    1C        C  251   4.459   3.163   3.518
    1C        C  252   4.510   3.371   3.636
    1C        C  253   4.499   3.304   3.760
    1C        C  254   4.515   3.516   3.879
    1C        C  255   4.513   3.375   3.881
    1C        C  256   4.510   3.589   4.001
    1C        C  257   4.513   3.519   4.123
    1C        C  258   4.492   3.732   4.241
    1C        C  259   4.515   3.593   4.244
    1C        C  260   4.470   3.803   4.362
    1C        C  261   4.487   3.735   4.485
    1C        C  262   4.431   3.944   4.604
    1C        C  263   4.476   3.810   4.605
    1C        C  264   4.406   4.014   4.724
    1C        C  265   4.444   3.953   4.845
    1C        C  266   4.324   4.135   4.957
    1C        C  267   4.397   4.017   4.960
    1C        C  268   4.273   2.763   2.063
    1C        C  269   4.205   2.723   2.179
    1C        C  270   4.347   2.887   2.297
    1C        C  271   4.258   2.776   2.298
    1C        C  272   4.382   2.953   2.417
    1C        C  273   4.342   2.897   2.540
    1C        C  274   4.450   3.082   2.660
    1C        C  275   4.378   2.960   2.661
    1C        C  276   4.473   3.150   2.781
    1C        C  277   4.436   3.091   2.904
    1C        C  278   4.500   3.291   3.026
    1C        C  279   4.466   3.154   3.027
    1C        C  280   4.513   3.365   3.146
    1C        C  281   4.497   3.297   3.269
    1C        C  282   4.511   3.508   3.393
    1C        C  283   4.508   3.367   3.391
    1C        C  284   4.507   3.583   3.513
    1C        C  285   4.512   3.512   3.635
    1C        C  286   4.493   3.725   3.752
    1C        C  287   4.512   3.585   3.756
    1C        C  288   4.477   3.796   3.873
    1C        C  289   4.489   3.728   3.997
    1C        C  290   4.428   3.932   4.117
    1C        C  291   4.479   3.800   4.118
    1C        C  292   4.398   3.999   4.237
    1C        C  293   4.427   3.937   4.361
    1C        C  294   4.333   4.130   4.478
    1C        C  295   4.401   4.007   4.481
    1C        C  296   4.293   4.194   4.598
    1C        C  297   4.330   4.135   4.720
    1C        C  298   4.206   4.318   4.840
    1C        C  299   4.288   4.201   4.839
    1C        C  300   4.171   4.405   4.948
    1C        C  301   4.358   2.874   2.064
    1C        C  302   4.468   3.070   2.176
    1C        C  303   4.394   2.947   2.177
    1C        C  304   4.482   3.143   2.298
    1C        C  305   4.454   3.075   2.418
    1C        C  306   4.506   3.284   2.540
    1C        C  307   4.480   3.145   2.537
    1C        C  308   4.515   3.359   2.659
    1C        C  309   4.502   3.289   2.781
    1C        C  310   4.521   3.501   2.902
    1C        C  311   4.511   3.360   2.903
    1C        C  312   4.516   3.574   3.023
    1C        C  313   4.521   3.506   3.147
    1C        C  314   4.488   3.715   3.264
    1C        C  315   4.512   3.576   3.269
    1C        C  316   4.475   3.789   3.384
    1C        C  317   4.487   3.722   3.508
    1C        C  318   4.424   3.926   3.629
    1C        C  319   4.469   3.791   3.630
    1C        C  320   4.395   3.992   3.750
    1C        C  321   4.423   3.926   3.872
    1C        C  322   4.323   4.114   3.991
    1C        C  323   4.398   3.994   3.994
    1C        C  324   4.282   4.173   4.113
    1C        C  325   4.325   4.120   4.237
    1C        C  326   4.185   4.284   4.355
    1C        C  327   4.284   4.183   4.356
    1C        C  328   4.138   4.339   4.477
    1C        C  329   4.195   4.296   4.599
    1C        C  330   4.025   4.432   4.715
    1C        C  331   4.143   4.353   4.717
    1C        C  332   3.973   4.491   4.833
    1C        C  333   4.053   4.481   4.947
    1C        C  334   4.555   3.267   2.062
    1C        C  335   4.535   3.128   2.064
    1C        C  336   4.538   3.349   2.174
    1C        C  337   4.513   3.282   2.296
    1C        C  338   4.520   3.495   2.411
    1C        C  339   4.520   3.353   2.418
    1C        C  340   4.523   3.567   2.533
    1C        C  341   4.527   3.499   2.656
    1C        C  342   4.496   3.709   2.775
    1C        C  343   4.519   3.569   2.779
    1C        C  344   4.478   3.779   2.896
    1C        C  345   4.488   3.713   3.020
    1C        C  346   4.427   3.917   3.139
    1C        C  347   4.471   3.783   3.141
    1C        C  348   4.394   3.983   3.259
    1C        C  349   4.425   3.921   3.382
    1C        C  350   4.319   4.105   3.502
    1C        C  351   4.395   3.985   3.504
    1C        C  352   4.276   4.165   3.622
    1C        C  353   4.320   4.112   3.745
    1C        C  354   4.179   4.268   3.869
    1C        C  355   4.278   4.168   3.868
    1C        C  356   4.122   4.314   3.990
    1C        C  357   4.181   4.272   4.111
    1C        C  358   4.013   4.405   4.230
    1C        C  359   4.130   4.326   4.232
    1C        C  360   3.953   4.442   4.352
    1C        C  361   4.019   4.415   4.474
    1C        C  362   3.828   4.512   4.593
    1C        C  363   3.958   4.459   4.594
    1C        C  364   3.763   4.544   4.715
    1C        C  365   3.843   4.546   4.831
    1C        C  366   3.631   4.595   4.950
    1C        C  367   3.769   4.580   4.946
    1C        C  368   4.514   3.564   2.054
    1C        C  369   4.528   3.490   2.172
    1C        C  370   4.511   3.707   2.287
    1C        C  371   4.524   3.567   2.290
    1C        C  372   4.490   3.775   2.409
    1C        C  373   4.505   3.707   2.532
    1C        C  374   4.432   3.910   2.650
    1C        C  375   4.480   3.777   2.652
    1C        C  376   4.395   3.972   2.771
    1C        C  377   4.430   3.912   2.894
    1C        C  378   4.321   4.096   3.013
    1C        C  379   4.399   3.978   3.015
    1C        C  380   4.274   4.154   3.133
    1C        C  381   4.313   4.099   3.257
    1C        C  382   4.179   4.262   3.377
    1C        C  383   4.276   4.160   3.379
    1C        C  384   4.121   4.307   3.498
    1C        C  385   4.174   4.263   3.621
    1C        C  386   4.005   4.385   3.744
    1C        C  387   4.122   4.306   3.745
    1C        C  388   3.944   4.426   3.864
    1C        C  389   4.008   4.396   3.987
    1C        C  390   3.813   4.481   4.109
    1C        C  391   3.946   4.432   4.109
    1C        C  392   3.751   4.511   4.232
    1C        C  393   3.825   4.502   4.352
    1C        C  394   3.618   4.553   4.475
    1C        C  395   3.757   4.531   4.473
    1C        C  396   3.548   4.563   4.597
    1C        C  397   3.623   4.565   4.716
    1C        C  398   3.412   4.552   4.839
    1C        C  399   3.550   4.582   4.836
    1C        C  400   3.341   4.520   4.956
    1C        C  401   4.508   3.703   2.054
    1C        C  402   4.457   3.918   2.169
    1C        C  403   4.500   3.783   2.169
    1C        C  404   4.415   3.977   2.290
    1C        C  405   4.443   3.909   2.410
    1C        C  406   4.329   4.095   2.525
    1C        C  407   4.409   3.979   2.528
    1C        C  408   4.283   4.152   2.646
    1C        C  409   4.321   4.093   2.768
    1C        C  410   4.176   4.249   2.886
    1C        C  411   4.274   4.147   2.890
    1C        C  412   4.120   4.294   3.008
    1C        C  413   4.173   4.252   3.132
    1C        C  414   4.001   4.375   3.253
    1C        C  415   4.122   4.302   3.254
    1C        C  416   3.940   4.409   3.376
    1C        C  417   4.000   4.379   3.500
    1C        C  418   3.812   4.477   3.622
    1C        C  419   3.938   4.415   3.622
    1C        C  420   3.746   4.505   3.744
    1C        C  421   3.814   4.482   3.866
    1C        C  422   3.610   4.539   3.987
    1C        C  423   3.748   4.511   3.987
    1C        C  424   3.540   4.545   4.110
    1C        C  425   3.613   4.540   4.231
    1C        C  426   3.403   4.556   4.356
    1C        C  427   3.544   4.554   4.354
    1C        C  428   3.333   4.556   4.479
    1C        C  429   3.406   4.559   4.600
    1C        C  430   3.195   4.522   4.726
    1C        C  431   3.335   4.547   4.721
    1C        C  432   3.122   4.500   4.846
    1C        C  433   3.204   4.497   4.960
    1C        C  434   4.385   4.120   2.053
    1C        C  435   4.451   3.997   2.053
    1C        C  436   4.305   4.164   2.164
    1C        C  437   4.338   4.096   2.285
    1C        C  438   4.180   4.246   2.403
    1C        C  439   4.282   4.149   2.403
    1C        C  440   4.123   4.291   2.525
    1C        C  441   4.179   4.248   2.647
    1C        C  442   4.003   4.374   2.765
    1C        C  443   4.122   4.299   2.766
    1C        C  444   3.942   4.411   2.887
    1C        C  445   4.003   4.372   3.009
    1C        C  446   3.809   4.463   3.132
    1C        C  447   3.938   4.406   3.130
    1C        C  448   3.743   4.487   3.254
    1C        C  449   3.811   4.465   3.377
    1C        C  450   3.609   4.529   3.499
    1C        C  451   3.746   4.497   3.498
    1C        C  452   3.539   4.543   3.621
    1C        C  453   3.608   4.535   3.744
    1C        C  454   3.397   4.554   3.865
    1C        C  455   3.538   4.549   3.866
    1C        C  456   3.330   4.544   3.989
    1C        C  457   3.399   4.549   4.112
    1C        C  458   3.193   4.511   4.239
    1C        C  459   3.331   4.543   4.235
    1C        C  460   3.130   4.490   4.363
    1C        C  461   3.196   4.523   4.484
    1C        C  462   3.000   4.437   4.605
    1C        C  463   3.126   4.499   4.604
    1C        C  464   2.932   4.403   4.724
    1C        C  465   2.990   4.447   4.847
    1C        C  466   2.800   4.339   4.959
    1C        C  467   2.902   4.435   4.960
    1C        C  468   4.124   4.286   2.044
    1C        C  469   4.194   4.254   2.160
    1C        C  470   4.007   4.366   2.280
    1C        C  471   4.131   4.296   2.280
    1C        C  472   3.938   4.398   2.399
    1C        C  473   4.005   4.368   2.520
    1C        C  474   3.812   4.460   2.644
    1C        C  475   3.941   4.403   2.641
    1C        C  476   3.744   4.486   2.765
    1C        C  477   3.812   4.466   2.887
    1C        C  478   3.606   4.517   3.009
    1C        C  479   3.744   4.490   3.009
    1C        C  480   3.536   4.529   3.132
    1C        C  481   3.606   4.521   3.254
    1C        C  482   3.396   4.538   3.378
    1C        C  483   3.538   4.534   3.377
    1C        C  484   3.327   4.535   3.501
    1C        C  485   3.398   4.543   3.623
    1C        C  486   3.188   4.510   3.747
    1C        C  487   3.325   4.545   3.744
    1C        C  488   3.126   4.480   3.871
    1C        C  489   3.194   4.505   3.992
    1C        C  490   3.002   4.422   4.117
    1C        C  491   3.128   4.487   4.116
    1C        C  492   2.944   4.388   4.241
    1C        C  493   3.003   4.428   4.363
    1C        C  494   2.832   4.302   4.485
    1C        C  495   2.943   4.389   4.484
    1C        C  496   2.774   4.259   4.606
    1C        C  497   2.823   4.311   4.728
    1C        C  498   2.669   4.159   4.845
    1C        C  499   2.758   4.269   4.845
    1C        C  500   2.596   4.117   4.958
    1C        C  501   4.004   4.358   2.040
    1C        C  502   3.815   4.460   2.157
    1C        C  503   3.942   4.398   2.159
    1C        C  504   3.744   4.480   2.277
    1C        C  505   3.805   4.446   2.400
    1C        C  506   3.603   4.506   2.519
    1C        C  507   3.741   4.477   2.522
    1C        C  508   3.536   4.514   2.643
    1C        C  509   3.605   4.514   2.766
    1C        C  510   3.393   4.532   2.887
    1C        C  511   3.534   4.527   2.888
    1C        C  512   3.323   4.528   3.010
    1C        C  513   3.395   4.526   3.132
    1C        C  514   3.188   4.500   3.258
    1C        C  515   3.327   4.527   3.256
    1C        C  516   3.121   4.476   3.380
    1C        C  517   3.189   4.507   3.500
    1C        C  518   3.000   4.417   3.627
    1C        C  519   3.123   4.486   3.624
    1C        C  520   2.942   4.379   3.750
    1C        C  521   3.003   4.411   3.873
    1C        C  522   2.839   4.282   3.997
    1C        C  523   2.944   4.376   3.997
    1C        C  524   2.788   4.239   4.121
    1C        C  525   2.840   4.292   4.241
    1C        C  526   2.702   4.132   4.365
    1C        C  527   2.787   4.245   4.364
    1C        C  528   2.661   4.076   4.488
    1C        C  529   2.692   4.144   4.608
    1C        C  530   2.581   3.959   4.728
    1C        C  531   2.641   4.087   4.727
    1C        C  532   2.541   3.901   4.852
    1C        C  533   2.531   3.993   4.961
    1C        C  534   3.617   4.554   2.038
    1C        C  535   3.750   4.509   2.043
    1C        C  536   3.537   4.539   2.155
    1C        C  537   3.606   4.515   2.277
    1C        C  538   3.392   4.525   2.401
    1C        C  539   3.533   4.522   2.398
    1C        C  540   3.320   4.519   2.523
    1C        C  541   3.395   4.521   2.642
    1C        C  542   3.185   4.494   2.764
    1C        C  543   3.324   4.521   2.765
    1C        C  544   3.120   4.471   2.887
    1C        C  545   3.187   4.492   3.010
    1C        C  546   2.997   4.410   3.135
    1C        C  547   3.123   4.474   3.135
    1C        C  548   2.941   4.370   3.258
    1C        C  549   2.996   4.410   3.382
    1C        C  550   2.831   4.284   3.507
    1C        C  551   2.940   4.373   3.506
    1C        C  552   2.783   4.233   3.630
    1C        C  553   2.834   4.288   3.749
    1C        C  554   2.707   4.120   3.879
    1C        C  555   2.793   4.233   3.873
    1C        C  556   2.665   4.063   4.001
    1C        C  557   2.704   4.125   4.122
    1C        C  558   2.606   3.940   4.246
    1C        C  559   2.666   4.068   4.245
    1C        C  560   2.579   3.875   4.368
    1C        C  561   2.604   3.947   4.488
    1C        C  562   2.531   3.748   4.616
    1C        C  563   2.567   3.884   4.609
    1C        C  564   2.517   3.680   4.739
    1C        C  565   2.525   3.759   4.857
    1C        C  566   2.535   3.548   4.979
    1C        C  567   2.532   3.687   4.977
    1C        C  568   3.331   4.482   2.042
    1C        C  569   3.396   4.517   2.160
    1C        C  570   3.183   4.480   2.278
    1C        C  571   3.320   4.520   2.280
    1C        C  572   3.115   4.465   2.400
    1C        C  573   3.181   4.491   2.522
    1C        C  574   2.990   4.404   2.647
    1C        C  575   3.113   4.473   2.644
    1C        C  576   2.933   4.366   2.771
    1C        C  577   2.994   4.408   2.891
    1C        C  578   2.829   4.278   3.018
    1C        C  579   2.935   4.370   3.014
    1C        C  580   2.782   4.225   3.140
    1C        C  581   2.836   4.276   3.261
    1C        C  582   2.700   4.117   3.388
    1C        C  583   2.784   4.230   3.384
    1C        C  584   2.665   4.058   3.511
    1C        C  585   2.704   4.116   3.634
    1C        C  586   2.604   3.934   3.755
    1C        C  587   2.665   4.061   3.758
    1C        C  588   2.578   3.870   3.879
    1C        C  589   2.606   3.934   4.001
    1C        C  590   2.535   3.737   4.127
    1C        C  591   2.579   3.872   4.125
    1C        C  592   2.518   3.672   4.251
    1C        C  593   2.534   3.742   4.373
    1C        C  594   2.510   3.533   4.498
    1C        C  595   2.517   3.674   4.496
    1C        C  596   2.515   3.464   4.621
    1C        C  597   2.520   3.538   4.741
    1C        C  598   2.541   3.327   4.866
    1C        C  599   2.534   3.468   4.863
    1C        C  600   2.533   3.247   4.981
    1C        C  601   3.198   4.444   2.041
    1C        C  602   2.985   4.390   2.159
    1C        C  603   3.120   4.440   2.157
    1C        C  604   2.926   4.358   2.284
    1C        C  605   2.988   4.403   2.404
    1C        C  606   2.822   4.271   2.532
    1C        C  607   2.930   4.362   2.526
    1C        C  608   2.775   4.221   2.655
    1C        C  609   2.826   4.274   2.775
    1C        C  610   2.690   4.113   2.895
    1C        C  611   2.775   4.226   2.898
    1C        C  612   2.659   4.054   3.019
    1C        C  613   2.698   4.112   3.142
    1C        C  614   2.602   3.928   3.268
    1C        C  615   2.662   4.055   3.266
    1C        C  616   2.575   3.864   3.391
    1C        C  617   2.605   3.930   3.512
    1C        C  618   2.541   3.729   3.639
    1C        C  619   2.577   3.866   3.635
    1C        C  620   2.526   3.661   3.761
    1C        C  621   2.532   3.737   3.880
    1C        C  622   2.515   3.528   4.011
    1C        C  623   2.523   3.669   4.004
    1C        C  624   2.516   3.458   4.134
    1C        C  625   2.515   3.531   4.255
    1C        C  626   2.545   3.322   4.380
    1C        C  627   2.517   3.460   4.377
    1C        C  628   2.559   3.254   4.504
    1C        C  629   2.533   3.324   4.624
    1C        C  630   2.587   3.117   4.745
    1C        C  631   2.549   3.254   4.746
    1C        C  632   2.613   3.048   4.867
    1C        C  633   2.565   3.111   4.986
    1C        C  634   2.788   4.299   2.051
    1C        C  635   2.893   4.391   2.049
    1C        C  636   2.748   4.233   2.168
    1C        C  637   2.812   4.274   2.287
    1C        C  638   2.683   4.110   2.411
    1C        C  639   2.764   4.225   2.411
    1C        C  640   2.646   4.048   2.533
    1C        C  641   2.692   4.106   2.653
    1C        C  642   2.589   3.923   2.779
    1C        C  643   2.649   4.050   2.775
    1C        C  644   2.574   3.856   2.903
    1C        C  645   2.600   3.925   3.023
    1C        C  646   2.537   3.725   3.148
    1C        C  647   2.577   3.860   3.146
    1C        C  648   2.525   3.655   3.271
    1C        C  649   2.537   3.728   3.392
    1C        C  650   2.518   3.520   3.521
    1C        C  651   2.528   3.661   3.516
    1C        C  652   2.514   3.450   3.643
    1C        C  653   2.510   3.520   3.766
    1C        C  654   2.535   3.315   3.890
    1C        C  655   2.514   3.455   3.891
    1C        C  656   2.550   3.248   4.014
    1C        C  657   2.537   3.318   4.135
    1C        C  658   2.605   3.119   4.260
    1C        C  659   2.556   3.251   4.258
    1C        C  660   2.638   3.058   4.383
    1C        C  661   2.602   3.120   4.505
    1C        C  662   2.701   2.933   4.627
    1C        C  663   2.623   3.050   4.626
    1C        C  664   2.744   2.876   4.750
    1C        C  665   2.699   2.934   4.872
    1C        C  666   2.746   2.872   4.989
    1C        C  667   2.679   4.026   2.053
    1C        C  668   2.686   4.106   2.168
    1C        C  669   2.593   3.915   2.294
    1C        C  670   2.650   4.046   2.290
    1C        C  671   2.566   3.847   2.414
    1C        C  672   2.589   3.919   2.534
    1C        C  673   2.525   3.720   2.660
    1C        C  674   2.562   3.856   2.658
    1C        C  675   2.519   3.648   2.781
    1C        C  676   2.539   3.719   2.902
    1C        C  677   2.506   3.514   3.032
    1C        C  678   2.523   3.655   3.026
    1C        C  679   2.507   3.443   3.154
    1C        C  680   2.507   3.515   3.276
    1C        C  681   2.533   3.308   3.401
    1C        C  682   2.510   3.448   3.400
    1C        C  683   2.556   3.241   3.523
    1C        C  684   2.535   3.310   3.644
    1C        C  685   2.596   3.111   3.773
    1C        C  686   2.547   3.244   3.769
    1C        C  687   2.628   3.048   3.895
    1C        C  688   2.596   3.115   4.016
    1C        C  689   2.710   2.936   4.139
    1C        C  690   2.633   3.054   4.138
    1C        C  691   2.757   2.884   4.262
    1C        C  692   2.717   2.940   4.385
    1C        C  693   2.752   2.879   4.507
    1C        C  694   2.638   3.892   2.061
    1C        C  695   2.533   3.705   2.180
    1C        C  696   2.590   3.834   2.178
    1C        C  697   2.513   3.636   2.301
    1C        C  698   2.528   3.711   2.420
    1C        C  699   2.491   3.503   2.544
    1C        C  700   2.507   3.644   2.542
    1C        C  701   2.505   3.434   2.667
    1C        C  702   2.506   3.508   2.788
    1C        C  703   2.526   3.300   2.913
    1C        C  704   2.508   3.440   2.912
    1C        C  705   2.545   3.232   3.035
    1C        C  706   2.532   3.304   3.156
    1C        C  707   2.598   3.105   3.279
    1C        C  708   2.548   3.237   3.280
    1C        C  709   2.632   3.046   3.403
    1C        C  710   2.606   3.109   3.527
    1C        C  711   2.708   2.930   3.649
    1C        C  712   2.629   3.047   3.652
    1C        C  713   2.756   2.878   3.771
    1C        C  714   2.711   2.934   3.893
    1C        C  715   2.753   2.878   4.017
    1C        C  716   2.454   3.501   2.063
    1C        C  717   2.490   3.636   2.065
    1C        C  718   2.473   3.422   2.181
    1C        C  719   2.485   3.496   2.301
    1C        C  720   2.514   3.290   2.425
    1C        C  721   2.485   3.428   2.425
    1C        C  722   2.539   3.225   2.548
    1C        C  723   2.525   3.295   2.671
    1C        C  724   2.594   3.095   2.791
    1C        C  725   2.545   3.227   2.793
    1C        C  726   2.623   3.031   2.914
    1C        C  727   2.598   3.102   3.033
    1C        C  728   2.706   2.922   3.159
    1C        C  729   2.628   3.040   3.157
    1C        C  730   2.749   2.868   3.282
    1C        C  731   2.705   2.926   3.403
    1C        C  732   2.752   2.875   3.527
    1C        C  733   2.491   3.199   2.070
    1C        C  734   2.492   3.280   2.184
    1C        C  735   2.580   3.084   2.304
    1C        C  736   2.522   3.214   2.306
    1C        C  737   2.612   3.022   2.427
    1C        C  738   2.590   3.093   2.546
    1C        C  739   2.698   2.912   2.670
    1C        C  740   2.622   3.031   2.669
    1C        C  741   2.743   2.857   2.792
    1C        C  742   2.697   2.910   2.914
    1C        C  743   2.746   2.862   3.038
    1C        C  744   2.549   3.072   2.072
    1C        C  745   2.686   2.896   2.186
    1C        C  746   2.612   3.017   2.184
    1C        C  747   2.729   2.840   2.307
    1C        C  748   2.688   2.903   2.427
    1C        C  749   2.739   2.852   2.549
    1C        C  750   2.731   2.833   2.069
    1C        C  751   3.651   2.313   1.979
    1C        O  752   3.646   2.190   2.007
    1C        O  753   3.683   2.326   1.843
    1C        C  754   4.623   3.045   1.979
    1C        O  755   4.597   3.035   1.856
    1C        O  756   4.761   3.061   1.993
    1C        C  757   4.432   4.204   1.941
    1C        O  758   4.502   4.307   1.962
    1C        O  759   4.447   4.161   1.808
    1C        C  760   3.606   4.663   1.938
    1C        O  761   3.567   4.776   1.979
    1C        O  762   3.597   4.644   1.800
    1C        C  763   2.881   4.510   1.961
    1C        O  764   2.899   4.495   1.838
    1C        O  765   2.815   4.624   2.008
    1C        C  766   2.354   3.466   1.960
    1C        O  767   2.395   3.480   1.842
    1C        O  768   2.217   3.494   1.965
    1C        C  769   4.673   3.587   5.073
    1C        O  770   4.636   3.584   5.193
    1C        O  771   4.809   3.617   5.053
    1C        C  772   4.260   4.466   5.049
    1C        O  773   4.251   4.432   5.170
    1C        O  774   4.313   4.595   5.036
    1C        C  775   4.157   2.498   5.045
    1C        O  776   4.221   2.405   4.988
    1C        O  777   4.195   2.508   5.179
    1C        C  778   2.872   4.562   5.029
    1C        O  779   2.835   4.668   4.972
    1C        O  780   2.895   4.584   5.166
    1C        C  781   2.493   3.036   5.092
    1C        O  782   2.375   2.993   5.083
    1C        O  783   2.525   3.062   5.225
    1C        C  784   2.421   3.982   5.060
    1C        O  785   2.313   4.042   5.035
    1C        O  786   2.443   3.943   5.193
    1C        C  787   2.950   2.423   2.002
    1C        O  788   2.937   2.433   1.877
    1C        O  789   2.918   2.297   2.050
    1C        C  790   3.189   2.398   5.087
    1C        O  791   3.171   2.274   5.078
    1C        O  792   3.241   2.435   5.212
    1C        H  793   4.314   3.006   5.070
    1C        H  794   4.147   2.826   5.059
    1C        H  795   4.552   3.130   5.031
    1C        H  796   4.571   3.350   5.057
    1C        H  797   4.528   3.804   5.050
    1C        H  798   4.457   4.004   5.047
    1C        H  799   4.267   4.158   5.045
    1C        H  800   4.021   4.531   5.036
    1C        H  801   3.822   4.598   5.037
    1C        H  802   3.586   4.610   5.046
    1C        H  803   3.400   4.486   5.038
    1C        H  804   3.161   4.482   5.057
    1C        H  805   3.875   2.538   5.071
    1C        H  806   3.680   2.470   5.074
    1C        H  807   3.000   2.559   5.067
    1C        H  808   3.451   2.452   5.076
    1C        H  809   2.871   2.736   5.082
    1C        H  810   2.751   2.934   5.076
    1C        H  811   2.511   3.292   5.076
    1C        H  812   2.482   3.502   5.059
    1C        H  813   2.558   3.736   5.068
    1C        H  814   2.552   4.197   5.013
    1C        H  815   2.728   4.348   5.037
    1C        H  816   2.659   2.826   1.990
    1C        H  817   2.877   2.707   1.982
    1C        H  818   3.209   2.423   1.994
    1C        H  819   3.437   2.489   1.988
    1C        H  820   3.847   2.542   1.975
    1C        H  821   4.042   2.668   1.981
    1C        H  822   4.271   2.700   1.976
    1C        H  823   4.415   2.877   1.973
    1C        H  824   4.621   3.301   1.985
    1C        H  825   4.490   3.514   1.962
    1C        H  826   4.531   3.749   1.960
    1C        H  827   3.816   4.544   1.967
    1C        H  828   3.953   4.361   1.947
    1C        H  829   4.154   4.243   1.951
    1C        H  830   4.520   3.972   1.975
    1C        H  831   2.661   3.832   1.975
    1C        H  832   2.723   4.063   1.963
    1C        H  833   2.719   4.298   1.968
    1C        H  834   3.387   4.430   1.967
    1C        H  835   3.156   4.440   1.943
    1C        H  836   2.551   3.022   1.977
    1C        H  837   2.427   3.219   1.987
    1C        H  838   2.497   3.683   1.970
    2V3OU   H29  839   2.813   3.553   6.128
    2V3OU   C27  840   2.786   3.503   6.225
    2V3OU   H27  841   2.731   3.574   6.292
    2V3OU   H28  842   2.722   3.412   6.216
    2V3OU   O11  843   2.905   3.467   6.296
    2V3OU   C15  844   2.918   3.400   6.416
    2V3OU   C13  845   3.048   3.379   6.468
    2V3OU   C14  846   3.080   3.272   6.552
    2V3OU   C16  847   2.972   3.194   6.591
    2V3OU    H6  848   2.990   3.106   6.654
    2V3OU   C12  849   3.220   3.237   6.586
    2V3OU    O2  850   3.237   3.128   6.644
    2V3OU   C10  851   3.328   3.309   6.517
    2V3OU    C8  852   3.459   3.276   6.549
    2V3OU   O10  853   3.494   3.153   6.597
    2V3OU   H26  854   3.407   3.109   6.603
    2V3OU    C6  855   3.567   3.358   6.503
    2V3OU    C5  856   3.534   3.473   6.433
    2V3OU    C4  857   3.704   3.300   6.497
    2V3OU    H4  858   3.723   3.231   6.584
    2V3OU    H5  859   3.710   3.231   6.407
    2V3OU    C2  860   3.819   3.401   6.490
    2V3OU    O6  861   3.806   3.477   6.610
    2V3OU   H21  862   3.767   3.557   6.572
    2V3OU    C3  863   3.780   3.494   6.375
    2V3OU    H2  864   3.857   3.575   6.373
    2V3OU    H3  865   3.784   3.441   6.276
    2V3OU   C25  866   3.955   3.332   6.472
    2V3OU    O7  867   4.000   3.299   6.363
    2V3OU   C26  868   4.028   3.292   6.599
    2V3OU   H22  869   4.062   3.384   6.654
    2V3OU   H23  870   4.119   3.232   6.573
    2V3OU    O8  871   3.958   3.217   6.695
    2V3OU   H24  872   3.926   3.269   6.771
    2V3OU    C1  873   3.645   3.563   6.388
    2V3OU    H1  874   3.624   3.614   6.289
    2V3OU    O3  875   3.661   3.653   6.497
    2V3OU   C19  876   3.619   3.789   6.482
    2V3OU    H9  877   3.524   3.800   6.422
    2V3OU    O4  878   3.718   3.846   6.398
    2V3OU   C20  879   3.848   3.877   6.451
    2V3OU   H10  880   3.894   3.774   6.463
    2V3OU   C24  881   3.610   3.856   6.619
    2V3OU   H16  882   3.547   3.794   6.687
    2V3OU   H17  883   3.565   3.957   6.604
    2V3OU   C23  884   3.749   3.872   6.680
    2V3OU   H15  885   3.789   3.770   6.711
    2V3OU    N1  886   3.737   3.956   6.798
    2V3OU   H19  887   3.804   3.926   6.866
    2V3OU   H20  888   3.653   3.932   6.847
    2V3OU   C21  889   3.849   3.947   6.586
    2V3OU   H11  890   3.949   3.935   6.638
    2V3OU    O5  891   3.836   4.088   6.579
    2V3OU   H18  892   3.780   4.108   6.655
    2V3OU   C22  893   3.913   3.953   6.337
    2V3OU   H12  894   3.864   4.053   6.321
    2V3OU   H13  895   3.908   3.896   6.241
    2V3OU   H14  896   4.024   3.960   6.350
    2V3OU   C11  897   3.157   3.473   6.436
    2V3OU    O1  898   3.127   3.583   6.384
    2V3OU    C9  899   3.297   3.426   6.443
    2V3OU    C7  900   3.400   3.505   6.393
    2V3OU    O9  901   3.388   3.620   6.318
    2V3OU   H25  902   3.292   3.630   6.317
    2V3OU   C17  903   2.815   3.314   6.461
    2V3OU    H7  904   2.712   3.343   6.439
    2V3OU   C18  905   2.840   3.212   6.552
    2V3OU    H8  906   2.752   3.157   6.588
    3SOL     OW  907   2.951   3.223   4.412
    3SOL    HW1  908   2.859   3.193   4.438
    3SOL    HW2  909   2.987   3.284   4.483
    4SOL     OW  910   1.025   6.545   0.948
    4SOL    HW1  911   1.117   6.512   0.930
    4SOL    HW2  912   1.030   6.629   1.003
    5SOL     OW  913   3.754   2.397   0.635
    5SOL    HW1  914   3.769   2.494   0.652
    5SOL    HW2  915   3.738   2.350   0.722
    6SOL     OW  916   4.029   1.851   2.412
    6SOL    HW1  917   3.992   1.943   2.398
    6SOL    HW2  918   3.957   1.784   2.394
    7SOL     OW  919   2.231   2.790   4.742
    7SOL    HW1  920   2.288   2.808   4.661
    7SOL    HW2  921   2.136   2.776   4.714
    8SOL     OW  922   0.697   2.336   5.980
    8SOL    HW1  923   0.710   2.256   6.039
    8SOL    HW2  924   0.786   2.364   5.943
    9SOL     OW  925   1.712   2.610   6.454
    9SOL    HW1  926   1.616   2.588   6.436
    9SOL    HW2  927   1.768   2.529   6.435
   10SOL     OW  928   5.825   5.015   1.253
   10SOL    HW1  929   5.762   5.043   1.325
   10SOL    HW2  930   5.842   4.917   1.260
   11SOL     OW  931   3.150   1.609   0.663
   11SOL    HW1  932   3.093   1.600   0.744
   11SOL    HW2  933   3.190   1.520   0.640
   12SOL     OW  934   5.353   5.058   1.755
   12SOL    HW1  935   5.258   5.045   1.726
   12SOL    HW2  936   5.365   5.153   1.785
   13SOL     OW  937   5.314   5.813   1.861
   13SOL    HW1  938   5.249   5.807   1.936
   13SOL    HW2  939   5.403   5.776   1.890
   14SOL     OW  940   3.895   6.060   1.206
   14SOL    HW1  941   3.936   6.071   1.115
   14SOL    HW2  942   3.911   6.142   1.260
   15SOL     OW  943   0.838   6.765   7.017
   15SOL    HW1  944   0.859   6.691   6.952
   15SOL    HW2  945   0.874   6.742   0.081
   16SOL     OW  946   1.816   5.545   5.036
   16SOL    HW1  947   1.778   5.635   5.058
   16SOL    HW2  948   1.864   5.508   5.116
   17SOL     OW  949   0.350   2.181   3.584
   17SOL    HW1  950   0.433   2.194   3.638
   17SOL    HW2  951   0.368   2.115   3.511
   18SOL     OW  952   2.735   1.662   5.535
   18SOL    HW1  953   2.777   1.700   5.453
   18SOL    HW2  954   2.785   1.580   5.563
   19SOL     OW  955   2.645   5.260   2.731
   19SOL    HW1  956   2.721   5.270   2.668
   19SOL    HW2  957   2.568   5.315   2.700
   20SOL     OW  958   6.945   1.619   5.445
   20SOL    HW1  959   6.928   1.528   5.485
   20SOL    HW2  960   6.880   1.684   5.484
   21SOL     OW  961   1.311   3.828   1.639
   21SOL    HW1  962   1.229   3.851   1.692
   21SOL    HW2  963   1.347   3.910   1.596
   22SOL     OW  964   0.996   1.231   0.206
   22SOL    HW1  965   0.949   1.144   0.223
   22SOL    HW2  966   0.951   1.304   0.258
   23SOL     OW  967   6.943   5.081   6.891
   23SOL    HW1  968   6.929   5.140   6.812
   23SOL    HW2  969   6.894   4.995   6.877
   24SOL     OW  970   5.232   1.247   0.012
   24SOL    HW1  971   5.200   1.342   0.014
   24SOL    HW2  972   5.297   1.235   6.963
   25SOL     OW  973   1.392   0.832   4.883
   25SOL    HW1  974   1.480   0.875   4.866
   25SOL    HW2  975   1.319   0.895   4.856
   26SOL     OW  976   2.235   0.023   5.664
   26SOL    HW1  977   2.213   0.086   5.738
   26SOL    HW2  978   2.151   7.022   5.616
   27SOL     OW  979   7.023   0.063   2.559
   27SOL    HW1  980   7.003   6.991   2.553
   27SOL    HW2  981   7.006   0.095   2.653
   28SOL     OW  982   1.793   0.749   5.938
   28SOL    HW1  983   1.745   0.835   5.923
   28SOL    HW2  984   1.761   0.681   5.871
   29SOL     OW  985   5.477   1.010   1.355
   29SOL    HW1  986   5.467   1.103   1.318
   29SOL    HW2  987   5.388   0.976   1.386
   30SOL     OW  988   4.467   0.150   4.733
   30SOL    HW1  989   4.441   0.236   4.777
   30SOL    HW2  990   4.482   0.080   4.802
   31SOL     OW  991   6.484   4.839   4.786
   31SOL    HW1  992   6.515   4.852   4.692
   31SOL    HW2  993   6.398   4.887   4.800
   32SOL     OW  994   3.362   1.008   1.218
   32SOL    HW1  995   3.340   1.093   1.265
   32SOL    HW2  996   3.371   0.933   1.284
   33SOL     OW  997   2.135   4.874   5.981
   33SOL    HW1  998   2.051   4.929   5.979
   33SOL    HW2  999   2.122   4.793   5.924
   34SOL     OW 1000   2.382   6.433   5.032
   34SOL    HW1 1001   2.287   6.420   5.060
   34SOL    HW2 1002   2.437   6.454   5.113
   35SOL     OW 1003   1.501   2.385   4.390
   35SOL    HW1 1004   1.543   2.396   4.480
   35SOL    HW2 1005   1.558   2.432   4.322
   36SOL     OW 1006   5.572   1.187   4.201
   36SOL    HW1 1007   5.499   1.252   4.218
   36SOL    HW2 1008   5.650   1.234   4.159
   37SOL     OW 1009   1.764   6.530   4.487
   37SOL    HW1 1010   1.856   6.495   4.504
   37SOL    HW2 1011   1.767   6.629   4.479
   38SOL     OW 1012   0.730   3.542   1.116
   38SOL    HW1 1013   0.744   3.450   1.079
   38SOL    HW2 1014   0.704   3.604   1.042
   39SOL     OW 1015   6.687   5.163   1.040
   39SOL    HW1 1016   6.617   5.234   1.049
   39SOL    HW2 1017   6.688   5.107   1.123
   40SOL     OW 1018   4.179   0.728   0.110
   40SOL    HW1 1019   4.262   0.716   0.164
   40SOL    HW2 1020   4.203   0.737   0.013
   41SOL     OW 1021   5.862   4.069   1.769
   41SOL    HW1 1022   5.875   4.166   1.753
   41SOL    HW2 1023   5.873   4.019   1.683
   42SOL     OW 1024   2.552   3.599   0.317
   42SOL    HW1 1025   2.480   3.547   0.271
   42SOL    HW2 1026   2.526   3.695   0.321
   43SOL     OW 1027   4.892   0.105   4.344
   43SOL    HW1 1028   4.854   0.191   4.377
   43SOL    HW2 1029   4.931   0.119   4.252
   44SOL     OW 1030   6.721   0.646   0.013
   44SOL    HW1 1031   6.746   0.727   0.066
   44SOL    HW2 1032   6.763   0.652   6.948
   45SOL     OW 1033   2.730   3.956   5.751
   45SOL    HW1 1034   2.823   3.955   5.789
   45SOL    HW2 1035   2.712   3.870   5.704
   46SOL     OW 1036   1.280   4.618   4.298
   46SOL    HW1 1037   1.225   4.688   4.253
   46SOL    HW2 1038   1.337   4.572   4.229
   47SOL     OW 1039   6.162   4.198   6.958
   47SOL    HW1 1040   6.136   4.135   0.006
   47SOL    HW2 1041   6.243   4.162   6.911
   48SOL     OW 1042   0.398   4.439   0.070
   48SOL    HW1 1043   0.441   4.366   0.016
   48SOL    HW2 1044   0.404   4.415   0.167
   49SOL     OW 1045   2.911   1.503   6.839
   49SOL    HW1 1046   2.936   1.574   6.905
   49SOL    HW2 1047   2.875   1.545   6.756
   50SOL     OW 1048   5.038   2.118   6.679
   50SOL    HW1 1049   5.037   2.107   6.778
   50SOL    HW2 1050   5.110   2.182   6.653
   51SOL     OW 1051   1.393   6.276   1.919
   51SOL    HW1 1052   1.424   6.354   1.864
   51SOL    HW2 1053   1.390   6.302   2.016
   52SOL     OW 1054   5.952   2.247   2.661
   52SOL    HW1 1055   5.915   2.222   2.572
   52SOL    HW2 1056   5.878   2.272   2.723
   53SOL     OW 1057   4.415   0.422   0.698
   53SOL    HW1 1058   4.343   0.459   0.757
   53SOL    HW2 1059   4.485   0.379   0.755
   54SOL     OW 1060   6.915   1.214   6.397
   54SOL    HW1 1061   6.957   1.248   6.313
   54SOL    HW2 1062   6.882   1.290   6.452
   55SOL     OW 1063   2.355   3.285   5.900
   55SOL    HW1 1064   2.363   3.185   5.900
   55SOL    HW2 1065   2.336   3.318   5.808
   56SOL     OW 1066   0.596   2.702   6.265
   56SOL    HW1 1067   0.626   2.742   6.179
   56SOL    HW2 1068   0.511   2.652   6.251
   57SOL     OW 1069   4.199   5.333   1.412
   57SOL    HW1 1070   4.271   5.266   1.393
   57SOL    HW2 1071   4.146   5.303   1.491
   58SOL     OW 1072   0.739   1.090   7.007
   58SOL    HW1 1073   0.757   1.167   0.044
   58SOL    HW2 1074   0.768   1.005   0.025
   59SOL     OW 1075   3.571   2.917   0.195
   59SOL    HW1 1076   3.642   2.902   0.264
   59SOL    HW2 1077   3.613   2.950   0.111
   60SOL     OW 1078   6.639   2.693   2.797
   60SOL    HW1 1079   6.621   2.654   2.887
   60SOL    HW2 1080   6.574   2.766   2.779
   61SOL     OW 1081   1.506   5.590   2.717
   61SOL    HW1 1082   1.412   5.556   2.717
   61SOL    HW2 1083   1.524   5.639   2.632
   62SOL     OW 1084   5.273   2.963   3.383
   62SOL    HW1 1085   5.252   2.957   3.480
   62SOL    HW2 1086   5.333   2.887   3.357
   63SOL     OW 1087   4.083   6.815   6.716
   63SOL    HW1 1088   4.070   6.814   6.815
   63SOL    HW2 1089   4.003   6.776   6.671
   64SOL     OW 1090   1.895   2.398   6.784
   64SOL    HW1 1091   1.821   2.380   6.719
   64SOL    HW2 1092   1.976   2.346   6.757
   65SOL     OW 1093   0.933   5.278   5.412
   65SOL    HW1 1094   0.970   5.257   5.322
   65SOL    HW2 1095   1.003   5.325   5.466
   66SOL     OW 1096   4.603   1.061   1.162
   66SOL    HW1 1097   4.695   1.083   1.128
   66SOL    HW2 1098   4.575   0.972   1.125
   67SOL     OW 1099   0.183   3.655   1.219
   67SOL    HW1 1100   0.161   3.568   1.262
   67SOL    HW2 1101   0.282   3.663   1.208
   68SOL     OW 1102   0.630   1.377   6.448
   68SOL    HW1 1103   0.555   1.378   6.515
   68SOL    HW2 1104   0.641   1.285   6.412
   69SOL     OW 1105   1.824   0.237   6.186
   69SOL    HW1 1106   1.748   0.199   6.239
   69SOL    HW2 1107   1.818   0.337   6.187
   70SOL     OW 1108   4.387   5.085   3.471
   70SOL    HW1 1109   4.289   5.076   3.458
   70SOL    HW2 1110   4.435   5.052   3.390
   71SOL     OW 1111   5.386   1.248   5.014
   71SOL    HW1 1112   5.484   1.256   5.033
   71SOL    HW2 1113   5.366   1.287   4.924
   72SOL     OW 1114   6.508   0.878   2.469
   72SOL    HW1 1115   6.550   0.959   2.510
   72SOL    HW2 1116   6.435   0.844   2.528
   73SOL     OW 1117   3.079   0.979   1.205
   73SOL    HW1 1118   3.177   1.002   1.199
   73SOL    HW2 1119   3.066   0.886   1.170
   74SOL     OW 1120   2.590   0.837   0.286
   74SOL    HW1 1121   2.533   0.819   0.206
   74SOL    HW2 1122   2.550   0.912   0.339
   75SOL     OW 1123   2.982   2.874   1.718
   75SOL    HW1 1124   2.998   2.775   1.716
   75SOL    HW2 1125   2.900   2.896   1.664
   76SOL     OW 1126   3.564   5.255   6.311
   76SOL    HW1 1127   3.511   5.332   6.347
   76SOL    HW2 1128   3.634   5.290   6.248
   77SOL     OW 1129   6.506   5.179   4.625
   77SOL    HW1 1130   6.588   5.210   4.672
   77SOL    HW2 1131   6.510   5.080   4.611
   78SOL     OW 1132   5.397   1.664   1.532
   78SOL    HW1 1133   5.317   1.703   1.485
   78SOL    HW2 1134   5.416   1.716   1.614
   79SOL     OW 1135   1.532   4.227   4.448
   79SOL    HW1 1136   1.619   4.259   4.486
   79SOL    HW2 1137   1.464   4.300   4.454
   80SOL     OW 1138   4.024   2.434   5.361
   80SOL    HW1 1139   4.008   2.510   5.424
   80SOL    HW2 1140   4.095   2.461   5.295
   81SOL     OW 1141   2.595   4.975   3.413
   81SOL    HW1 1142   2.591   4.953   3.510
   81SOL    HW2 1143   2.521   4.927   3.365
   82SOL     OW 1144   3.137   0.490   1.765
   82SOL    HW1 1145   3.135   0.473   1.666
   82SOL    HW2 1146   3.175   0.581   1.781
   83SOL     OW 1147   5.935   2.107   3.702
   83SOL    HW1 1148   5.848   2.060   3.688
   83SOL    HW2 1149   5.920   2.187   3.761
   84SOL     OW 1150   5.143   2.399   2.852
   84SOL    HW1 1151   5.129   2.300   2.851
   84SOL    HW2 1152   5.220   2.421   2.792
   85SOL     OW 1153   2.217   5.556   3.725
   85SOL    HW1 1154   2.184   5.462   3.716
   85SOL    HW2 1155   2.303   5.557   3.775
   86SOL     OW 1156   5.170   0.853   0.646
   86SOL    HW1 1157   5.077   0.890   0.650
   86SOL    HW2 1158   5.179   0.795   0.565
   87SOL     OW 1159   2.870   2.958   0.083
   87SOL    HW1 1160   2.967   2.963   0.107
   87SOL    HW2 1161   2.815   2.969   0.166
   88SOL     OW 1162   1.700   1.860   1.129
   88SOL    HW1 1163   1.633   1.935   1.131
   88SOL    HW2 1164   1.687   1.803   1.211
   89SOL     OW 1165   3.894   3.888   4.728
   89SOL    HW1 1166   3.923   3.891   4.824
   89SOL    HW2 1167   3.818   3.952   4.715
   90SOL     OW 1168   0.048   3.451   2.432
   90SOL    HW1 1169   0.054   3.400   2.517
   90SOL    HW2 1170   6.979   3.452   2.400
   91SOL     OW 1171   4.653   5.182   0.491
   91SOL    HW1 1172   4.745   5.220   0.490
   91SOL    HW2 1173   4.611   5.198   0.581
   92SOL     OW 1174   6.032   5.841   6.787
   92SOL    HW1 1175   5.970   5.785   6.732
   92SOL    HW2 1176   6.124   5.802   6.782
   93SOL     OW 1177   3.075   3.513   1.698
   93SOL    HW1 1178   3.149   3.580   1.691
   93SOL    HW2 1179   3.080   3.450   1.620
   94SOL     OW 1180   3.184   1.378   4.229
   94SOL    HW1 1181   3.102   1.426   4.262
   94SOL    HW2 1182   3.222   1.428   4.151
   95SOL     OW 1183   0.998   6.032   4.583
   95SOL    HW1 1184   1.027   5.991   4.496
   95SOL    HW2 1185   0.899   6.022   4.593
   96SOL     OW 1186   6.962   6.447   6.848
   96SOL    HW1 1187   0.004   6.388   6.805
   96SOL    HW2 1188   6.927   6.512   6.780
   97SOL     OW 1189   3.880   4.978   4.893
   97SOL    HW1 1190   3.942   5.038   4.842
   97SOL    HW2 1191   3.835   4.915   4.829
   98SOL     OW 1192   0.720   3.032   4.957
   98SOL    HW1 1193   0.741   3.024   5.054
   98SOL    HW2 1194   0.657   2.959   4.930
   99SOL     OW 1195   4.707   4.645   4.781
   99SOL    HW1 1196   4.748   4.704   4.711
   99SOL    HW2 1197   4.766   4.565   4.796
  100SOL     OW 1198   1.651   1.599   5.193
  100SOL    HW1 1199   1.637   1.522   5.131
  100SOL    HW2 1200   1.670   1.682   5.140
  101SOL     OW 1201   5.511   2.745   2.310
  101SOL    HW1 1202   5.521   2.820   2.244
  101SOL    HW2 1203   5.509   2.783   2.402
  102SOL     OW 1204   3.887   6.640   0.413
  102SOL    HW1 1205   3.981   6.606   0.407
  102SOL    HW2 1206   3.854   6.633   0.507
  103SOL     OW 1207   1.934   2.292   1.563
  103SOL    HW1 1208   1.915   2.206   1.609
  103SOL    HW2 1209   2.032   2.297   1.541
  104SOL     OW 1210   0.648   4.547   1.243
  104SOL    HW1 1211   0.681   4.626   1.294
  104SOL    HW2 1212   0.720   4.479   1.234
  105SOL     OW 1213   6.464   1.611   4.976
  105SOL    HW1 1214   6.377   1.636   5.018
  105SOL    HW2 1215   6.475   1.512   4.979
  106SOL     OW 1216   4.903   3.291   1.640
  106SOL    HW1 1217   4.899   3.191   1.640
  106SOL    HW2 1218   4.811   3.328   1.626
  107SOL     OW 1219   4.257   6.440   2.490
  107SOL    HW1 1220   4.196   6.406   2.562
  107SOL    HW2 1221   4.341   6.475   2.531
  108SOL     OW 1222   3.447   1.389   4.534
  108SOL    HW1 1223   3.462   1.364   4.630
  108SOL    HW2 1224   3.401   1.314   4.487
  109SOL     OW 1225   2.021   2.020   5.220
  109SOL    HW1 1226   1.997   2.080   5.297
  109SOL    HW2 1227   2.011   1.925   5.248
  110SOL     OW 1228   4.259   4.738   5.448
  110SOL    HW1 1229   4.178   4.747   5.505
  110SOL    HW2 1230   4.340   4.762   5.501
  111SOL     OW 1231   6.564   3.067   1.309
  111SOL    HW1 1232   6.534   3.098   1.219
  111SOL    HW2 1233   6.613   3.141   1.355
  112SOL     OW 1234   4.268   6.485   5.096
  112SOL    HW1 1235   4.192   6.422   5.078
  112SOL    HW2 1236   4.348   6.433   5.127
  113SOL     OW 1237   0.741   5.285   1.906
  113SOL    HW1 1238   0.804   5.333   1.966
  113SOL    HW2 1239   0.712   5.199   1.949
  114SOL     OW 1240   6.932   1.951   1.786
  114SOL    HW1 1241   6.885   1.874   1.743
  114SOL    HW2 1242   6.906   1.956   1.883
  115SOL     OW 1243   4.673   1.288   3.231
  115SOL    HW1 1244   4.747   1.225   3.253
  115SOL    HW2 1245   4.611   1.296   3.309
  116SOL     OW 1246   5.930   5.528   0.351
  116SOL    HW1 1247   5.943   5.626   0.334
  116SOL    HW2 1248   5.897   5.515   0.445
  117SOL     OW 1249   2.573   1.283   0.724
  117SOL    HW1 1250   2.524   1.343   0.660
  117SOL    HW2 1251   2.654   1.330   0.759
  118SOL     OW 1252   0.454   2.118   2.116
  118SOL    HW1 1253   0.371   2.165   2.086
  118SOL    HW2 1254   0.492   2.166   2.196
  119SOL     OW 1255   5.662   5.662   4.629
  119SOL    HW1 1256   5.627   5.661   4.722
  119SOL    HW2 1257   5.760   5.643   4.629
  120SOL     OW 1258   4.527   1.800   4.856
  120SOL    HW1 1259   4.601   1.734   4.870
  120SOL    HW2 1260   4.557   1.870   4.791
  121SOL     OW 1261   0.089   5.322   5.928
  121SOL    HW1 1262   0.002   5.370   5.917
  121SOL    HW2 1263   0.116   5.280   5.841
  122SOL     OW 1264   0.440   4.678   5.463
  122SOL    HW1 1265   0.458   4.719   5.551
  122SOL    HW2 1266   0.493   4.724   5.392
  123SOL     OW 1267   0.918   2.710   1.095
  123SOL    HW1 1268   0.829   2.691   1.053
  123SOL    HW2 1269   0.904   2.744   1.189
  124SOL     OW 1270   2.214   3.697   6.496
  124SOL    HW1 1271   2.257   3.607   6.508
  124SOL    HW2 1272   2.118   3.685   6.470
  125SOL     OW 1273   4.239   2.485   0.538
  125SOL    HW1 1274   4.168   2.421   0.568
  125SOL    HW2 1275   4.287   2.521   0.618
  126SOL     OW 1276   3.760   3.309   4.961
  126SOL    HW1 1277   3.679   3.255   4.981
  126SOL    HW2 1278   3.842   3.254   4.977
  127SOL     OW 1279   0.150   4.718   5.705
  127SOL    HW1 1280   0.100   4.680   5.627
  127SOL    HW2 1281   0.242   4.745   5.675
  128SOL     OW 1282   5.031   4.328   5.707
  128SOL    HW1 1283   5.108   4.288   5.757
  128SOL    HW2 1284   4.978   4.255   5.663
  129SOL     OW 1285   0.508   4.915   1.441
  129SOL    HW1 1286   0.473   4.839   1.387
  129SOL    HW2 1287   0.580   4.962   1.389
  130SOL     OW 1288   6.411   3.523   4.947
  130SOL    HW1 1289   6.330   3.468   4.928
  130SOL    HW2 1290   6.409   3.606   4.891
  131SOL     OW 1291   0.679   3.633   2.587
  131SOL    HW1 1292   0.699   3.730   2.602
  131SOL    HW2 1293   0.718   3.604   2.499
  132SOL     OW 1294   3.970   2.836   1.585
  132SOL    HW1 1295   3.960   2.923   1.634
  132SOL    HW2 1296   3.881   2.806   1.552
  133SOL     OW 1297   4.298   4.475   5.743
  133SOL    HW1 1298   4.351   4.556   5.770
  133SOL    HW2 1299   4.248   4.440   5.823
  134SOL     OW 1300   6.744   1.757   6.719
  134SOL    HW1 1301   6.722   1.797   6.630
  134SOL    HW2 1302   6.660   1.737   6.769
  135SOL     OW 1303   4.387   4.604   3.725
  135SOL    HW1 1304   4.289   4.620   3.713
  135SOL    HW2 1305   4.416   4.639   3.815
  136SOL     OW 1306   3.837   6.541   6.068
  136SOL    HW1 1307   3.797   6.584   6.149
  136SOL    HW2 1308   3.850   6.444   6.085
  137SOL     OW 1309   1.976   3.886   0.584
  137SOL    HW1 1310   2.068   3.903   0.619
  137SOL    HW2 1311   1.915   3.863   0.659
  138SOL     OW 1312   0.817   5.362   0.931
  138SOL    HW1 1313   0.913   5.371   0.956
  138SOL    HW2 1314   0.802   5.403   0.841
  139SOL     OW 1315   0.901   1.056   1.203
  139SOL    HW1 1316   0.907   1.070   1.104
  139SOL    HW2 1317   0.932   1.138   1.250
  140SOL     OW 1318   3.096   6.670   2.050
  140SOL    HW1 1319   3.171   6.683   2.115
  140SOL    HW2 1320   3.116   6.592   1.991
  141SOL     OW 1321   1.192   2.329   0.113
  141SOL    HW1 1322   1.203   2.403   0.046
  141SOL    HW2 1323   1.275   2.274   0.114
  142SOL     OW 1324   2.017   3.683   6.919
  142SOL    HW1 1325   2.051   3.655   7.009
  142SOL    HW2 1326   1.955   3.613   6.884
  143SOL     OW 1327   5.554   5.691   1.930
  143SOL    HW1 1328   5.570   5.760   1.859
  143SOL    HW2 1329   5.625   5.698   2.000
  144SOL     OW 1330   2.459   5.400   3.106
  144SOL    HW1 1331   2.443   5.472   3.173
  144SOL    HW2 1332   2.382   5.336   3.106
  145SOL     OW 1333   6.894   5.793   3.367
  145SOL    HW1 1334   6.985   5.778   3.327
  145SOL    HW2 1335   6.834   5.717   3.341
  146SOL     OW 1336   0.314   0.563   5.337
  146SOL    HW1 1337   0.240   0.574   5.404
  146SOL    HW2 1338   0.382   0.499   5.373
  147SOL     OW 1339   5.980   0.203   4.796
  147SOL    HW1 1340   5.957   0.263   4.719
  147SOL    HW2 1341   5.929   0.232   4.877
  148SOL     OW 1342   1.388   6.637   2.486
  148SOL    HW1 1343   1.315   6.701   2.461
  148SOL    HW2 1344   1.438   6.672   2.564
  149SOL     OW 1345   1.670   2.531   4.893
  149SOL    HW1 1346   1.708   2.469   4.961
  149SOL    HW2 1347   1.675   2.625   4.927
  150SOL     OW 1348   5.448   3.214   5.676
  150SOL    HW1 1349   5.444   3.224   5.577
  150SOL    HW2 1350   5.357   3.228   5.715
  151SOL     OW 1351   6.211   2.751   2.024
  151SOL    HW1 1352   6.248   2.819   2.088
  151SOL    HW2 1353   6.274   2.740   1.947
  152SOL     OW 1354   6.930   2.996   0.522
  152SOL    HW1 1355   6.890   2.904   0.525
  152SOL    HW2 1356   6.940   3.026   0.427
  153SOL     OW 1357   1.717   1.763   3.993
  153SOL    HW1 1358   1.692   1.783   3.898
  153SOL    HW2 1359   1.693   1.841   4.051
  154SOL     OW 1360   0.188   1.086   4.083
  154SOL    HW1 1361   0.265   1.040   4.039
  154SOL    HW2 1362   0.145   1.150   4.018
  155SOL     OW 1363   5.691   4.732   3.046
  155SOL    HW1 1364   5.608   4.693   3.086
  155SOL    HW2 1365   5.686   4.728   2.947
  156SOL     OW 1366   4.276   6.918   1.453
  156SOL    HW1 1367   4.263   7.003   1.504
  156SOL    HW2 1368   4.234   6.926   1.363
  157SOL     OW 1369   5.389   0.138   0.665
  157SOL    HW1 1370   5.398   0.038   0.667
  157SOL    HW2 1371   5.480   0.179   0.666
  158SOL     OW 1372   0.724   3.158   4.668
  158SOL    HW1 1373   0.768   3.070   4.653
  158SOL    HW2 1374   0.675   3.157   4.755
  159SOL     OW 1375   6.441   5.080   6.497
  159SOL    HW1 1376   6.390   5.059   6.580
  159SOL    HW2 1377   6.534   5.043   6.505
  160SOL     OW 1378   3.763   0.249   1.252
  160SOL    HW1 1379   3.773   0.336   1.300
  160SOL    HW2 1380   3.666   0.226   1.245
  161SOL     OW 1381   6.547   0.061   0.664
  161SOL    HW1 1382   6.621   7.020   0.658
  161SOL    HW2 1383   6.576   0.148   0.623
  162SOL     OW 1384   4.415   6.998   5.371
  162SOL    HW1 1385   4.385   6.983   5.465
  162SOL    HW2 1386   4.364   6.938   5.310
  163SOL     OW 1387   1.089   4.002   2.355
  163SOL    HW1 1388   1.012   3.949   2.390
  163SOL    HW2 1389   1.135   3.951   2.284
  164SOL     OW 1390   2.222   2.438   3.032
  164SOL    HW1 1391   2.309   2.439   2.981
  164SOL    HW2 1392   2.181   2.529   3.028
  165SOL     OW 1393   0.183   6.250   4.397
  165SOL    HW1 1394   0.142   6.297   4.475
  165SOL    HW2 1395   0.141   6.284   4.312
  166SOL     OW 1396   0.547   5.006   4.065
  166SOL    HW1 1397   0.612   5.011   4.141
  166SOL    HW2 1398   0.545   4.913   4.028
  167SOL     OW 1399   0.459   1.160   3.132
  167SOL    HW1 1400   0.507   1.211   3.061
  167SOL    HW2 1401   0.505   1.072   3.147
  168SOL     OW 1402   3.362   3.864   3.241
  168SOL    HW1 1403   3.264   3.884   3.233
  168SOL    HW2 1404   3.409   3.942   3.282
  169SOL     OW 1405   4.955   2.600   6.105
  169SOL    HW1 1406   4.875   2.640   6.149
  169SOL    HW2 1407   5.028   2.587   6.173
  170SOL     OW 1408   7.021   5.134   2.100
  170SOL    HW1 1409   0.086   5.095   2.119
  170SOL    HW2 1410   6.951   5.066   2.120
  171SOL     OW 1411   3.072   2.597   0.906
  171SOL    HW1 1412   3.087   2.656   0.985
  171SOL    HW2 1413   2.976   2.569   0.903
  172SOL     OW 1414   1.762   1.103   0.263
  172SOL    HW1 1415   1.685   1.083   0.323
  172SOL    HW2 1416   1.756   1.198   0.232
  173SOL     OW 1417   6.007   0.528   5.049
  173SOL    HW1 1418   5.960   0.616   5.050
  173SOL    HW2 1419   6.061   0.518   5.133
  174SOL     OW 1420   6.454   4.121   5.142
  174SOL    HW1 1421   6.478   4.127   5.046
  174SOL    HW2 1422   6.505   4.189   5.194
  175SOL     OW 1423   1.035   5.843   2.879
  175SOL    HW1 1424   0.940   5.847   2.847
  175SOL    HW2 1425   1.057   5.927   2.929
  176SOL     OW 1426   6.258   4.179   0.865
  176SOL    HW1 1427   6.273   4.105   0.800
  176SOL    HW2 1428   6.248   4.266   0.816
  177SOL     OW 1429   6.421   2.794   4.068
  177SOL    HW1 1430   6.443   2.888   4.045
  177SOL    HW2 1431   6.327   2.774   4.040
  178SOL     OW 1432   1.407   6.022   5.141
  178SOL    HW1 1433   1.388   5.926   5.121
  178SOL    HW2 1434   1.322   6.075   5.136
  179SOL     OW 1435   3.583   4.188   1.821
  179SOL    HW1 1436   3.520   4.186   1.744
  179SOL    HW2 1437   3.536   4.153   1.903
  180SOL     OW 1438   4.656   1.099   6.305
  180SOL    HW1 1439   4.699   1.158   6.374
  180SOL    HW2 1440   4.634   1.153   6.224
  181SOL     OW 1441   3.789   0.486   5.291
  181SOL    HW1 1442   3.734   0.435   5.225
  181SOL    HW2 1443   3.763   0.458   5.384
  182SOL     OW 1444   3.201   2.830   5.603
  182SOL    HW1 1445   3.113   2.875   5.616
  182SOL    HW2 1446   3.206   2.793   5.510
  183SOL     OW 1447   3.004   1.167   3.632
  183SOL    HW1 1448   3.092   1.212   3.623
  183SOL    HW2 1449   3.007   1.078   3.586
  184SOL     OW 1450   4.951   6.267   3.723
  184SOL    HW1 1451   5.004   6.263   3.638
  184SOL    HW2 1452   4.942   6.175   3.761
  185SOL     OW 1453   0.456   6.441   5.142
  185SOL    HW1 1454   0.408   6.469   5.225
  185SOL    HW2 1455   0.531   6.505   5.124
  186SOL     OW 1456   3.064   5.733   6.430
  186SOL    HW1 1457   2.977   5.697   6.395
  186SOL    HW2 1458   3.089   5.815   6.380
  187SOL     OW 1459   3.635   5.413   0.732
  187SOL    HW1 1460   3.606   5.338   0.791
  187SOL    HW2 1461   3.554   5.457   0.693
  188SOL     OW 1462   1.510   4.155   3.954
  188SOL    HW1 1463   1.564   4.181   3.875
  188SOL    HW2 1464   1.568   4.152   4.035
  189SOL     OW 1465   5.918   4.517   6.012
  189SOL    HW1 1466   5.995   4.573   5.980
  189SOL    HW2 1467   5.904   4.440   5.949
  190SOL     OW 1468   5.923   6.431   0.476
  190SOL    HW1 1469   5.933   6.338   0.511
  190SOL    HW2 1470   6.013   6.473   0.465
  191SOL     OW 1471   2.066   3.620   5.661
  191SOL    HW1 1472   2.021   3.593   5.747
  191SOL    HW2 1473   2.160   3.648   5.679
  192SOL     OW 1474   0.476   0.276   1.265
  192SOL    HW1 1475   0.438   0.323   1.186
  192SOL    HW2 1476   0.505   0.184   1.239
  193SOL     OW 1477   2.998   0.131   1.635
  193SOL    HW1 1478   2.912   0.181   1.645
  193SOL    HW2 1479   3.033   0.109   1.726
  194SOL     OW 1480   4.437   5.446   3.221
  194SOL    HW1 1481   4.362   5.453   3.287
  194SOL    HW2 1482   4.405   5.401   3.138
  195SOL     OW 1483   2.980   0.359   1.240
  195SOL    HW1 1484   2.933   0.408   1.165
  195SOL    HW2 1485   2.948   0.394   1.328
  196SOL     OW 1486   3.949   3.125   1.225
  196SOL    HW1 1487   3.907   3.144   1.137
  196SOL    HW2 1488   3.941   3.205   1.284
  197SOL     OW 1489   1.611   6.061   0.391
  197SOL    HW1 1490   1.644   6.122   0.463
  197SOL    HW2 1491   1.647   5.969   0.405
  198SOL     OW 1492   5.851   0.077   6.057
  198SOL    HW1 1493   5.831   0.012   5.983
  198SOL    HW2 1494   5.893   0.159   6.019
  199SOL     OW 1495   2.234   1.432   3.752
  199SOL    HW1 1496   2.262   1.374   3.828
  199SOL    HW2 1497   2.139   1.412   3.728
  200SOL     OW 1498   1.538   3.957   4.464
  200SOL    HW1 1499   1.540   4.054   4.489
  200SOL    HW2 1500   1.630   3.919   4.474
  201SOL     OW 1501   4.851   1.106   0.136
  201SOL    HW1 1502   4.818   1.181   0.193
  201SOL    HW2 1503   4.843   1.131   0.040
  202SOL     OW 1504   4.033   0.302   3.016
  202SOL    HW1 1505   3.935   0.289   3.003
  202SOL    HW2 1506   4.071   0.345   2.934
  203SOL     OW 1507   5.737   2.860   0.398
  203SOL    HW1 1508   5.741   2.813   0.486
  203SOL    HW2 1509   5.791   2.809   0.331
  204SOL     OW 1510   2.006   6.279   1.068
  204SOL    HW1 1511   1.967   6.313   0.982
  204SOL    HW2 1512   1.935   6.278   1.138
  205SOL     OW 1513   5.468   0.574   1.553
  205SOL    HW1 1514   5.514   0.521   1.482
  205SOL    HW2 1515   5.377   0.600   1.522
  206SOL     OW 1516   7.014   6.173   1.220
  206SOL    HW1 1517   6.983   6.109   1.150
  206SOL    HW2 1518   0.054   6.128   1.280
  207SOL     OW 1519   6.687   2.264   5.416
  207SOL    HW1 1520   6.655   2.173   5.443
  207SOL    HW2 1521   6.775   2.256   5.371
  208SOL     OW 1522   4.099   3.792   6.944
  208SOL    HW1 1523   4.198   3.802   6.931
  208SOL    HW2 1524   4.064   3.871   6.993
  209SOL     OW 1525   6.845   6.851   3.795
  209SOL    HW1 1526   6.802   6.928   3.841
  209SOL    HW2 1527   6.880   6.787   3.863
  210SOL     OW 1528   4.239   1.740   1.143
  210SOL    HW1 1529   4.236   1.775   1.237
  210SOL    HW2 1530   4.178   1.795   1.085
  211SOL     OW 1531   0.713   2.972   2.212
  211SOL    HW1 1532   0.760   2.884   2.206
  211SOL    HW2 1533   0.724   3.009   2.304
  212SOL     OW 1534   0.968   5.146   5.657
  212SOL    HW1 1535   0.900   5.088   5.703
  212SOL    HW2 1536   0.951   5.144   5.559
  213SOL     OW 1537   3.944   2.688   1.312
  213SOL    HW1 1538   4.022   2.739   1.346
  213SOL    HW2 1539   3.863   2.709   1.367
  214SOL     OW 1540   0.889   5.999   3.995
  214SOL    HW1 1541   0.888   6.013   3.896
  214SOL    HW2 1542   0.906   6.087   4.040
  215SOL     OW 1543   3.512   3.851   2.981
  215SOL    HW1 1544   3.596   3.823   3.027
  215SOL    HW2 1545   3.434   3.806   3.025
  216SOL     OW 1546   3.013   0.568   5.431
  216SOL    HW1 1547   2.917   0.585   5.410
  216SOL    HW2 1548   3.047   0.639   5.493
  217SOL     OW 1549   6.932   1.727   5.147
  217SOL    HW1 1550   7.006   1.725   5.079
  217SOL    HW2 1551   6.970   1.712   5.238
  218SOL     OW 1552   2.948   4.263   5.772
  218SOL    HW1 1553   2.975   4.295   5.863
  218SOL    HW2 1554   2.875   4.321   5.737
  219SOL     OW 1555   2.788   5.907   6.527
  219SOL    HW1 1556   2.806   5.809   6.518
  219SOL    HW2 1557   2.844   5.945   6.600
  220SOL     OW 1558   1.252   5.217   0.237
  220SOL    HW1 1559   1.189   5.169   0.177
  220SOL    HW2 1560   1.338   5.233   0.190
  221SOL     OW 1561   5.790   2.952   4.877
  221SOL    HW1 1562   5.740   2.887   4.819
  221SOL    HW2 1563   5.847   2.901   4.942
  222SOL     OW 1564   1.839   0.035   4.536
  222SOL    HW1 1565   1.895   6.978   4.549
  222SOL    HW2 1566   1.896   0.116   4.548
  223SOL     OW 1567   5.607   4.749   2.781
  223SOL    HW1 1568   5.628   4.787   2.691
  223SOL    HW2 1569   5.643   4.656   2.788
  224SOL     OW 1570   5.165   2.948   2.823
  224SOL    HW1 1571   5.099   2.992   2.884
  224SOL    HW2 1572   5.170   2.850   2.845
  225SOL     OW 1573   5.173   6.315   1.551
  225SOL    HW1 1574   5.144   6.236   1.496
  225SOL    HW2 1575   5.266   6.300   1.584
  226SOL     OW 1576   0.870   6.135   2.625
  226SOL    HW1 1577   0.790   6.173   2.579
  226SOL    HW2 1578   0.922   6.208   2.669
  227SOL     OW 1579   1.284   3.622   3.504
  227SOL    HW1 1580   1.292   3.697   3.439
  227SOL    HW2 1581   1.195   3.577   3.491
  228SOL     OW 1582   3.910   5.935   2.743
  228SOL    HW1 1583   4.010   5.931   2.735
  228SOL    HW2 1584   3.883   5.916   2.838
  229SOL     OW 1585   6.362   5.898   2.801
  229SOL    HW1 1586   6.348   5.857   2.891
  229SOL    HW2 1587   6.335   5.994   2.803
  230SOL     OW 1588   0.829   4.922   5.802
  230SOL    HW1 1589   0.850   4.827   5.825
  230SOL    HW2 1590   0.761   4.957   5.866
  231SOL     OW 1591   0.607   1.931   6.549
  231SOL    HW1 1592   0.599   1.994   6.627
  231SOL    HW2 1593   0.523   1.879   6.539
  232SOL     OW 1594   1.235   4.137   5.787
  232SOL    HW1 1595   1.330   4.132   5.757
  232SOL    HW2 1596   1.230   4.109   5.883
  233SOL     OW 1597   3.404   0.290   6.824
  233SOL    HW1 1598   3.450   0.219   6.877
  233SOL    HW2 1599   3.450   0.301   6.736
  234SOL     OW 1600   2.027   4.817   6.580
  234SOL    HW1 1601   1.952   4.837   6.643
  234SOL    HW2 1602   2.115   4.836   6.625
  235SOL     OW 1603   3.846   3.724   5.967
  235SOL    HW1 1604   3.824   3.693   5.874
  235SOL    HW2 1605   3.848   3.824   5.968
  236SOL     OW 1606   6.934   1.304   6.130
  236SOL    HW1 1607   6.963   1.400   6.134
  236SOL    HW2 1608   6.874   1.290   6.051
  237SOL     OW 1609   6.883   6.554   2.113
  237SOL    HW1 1610   6.960   6.560   2.049
  237SOL    HW2 1611   6.904   6.487   2.184
  238SOL     OW 1612   0.126   2.279   2.712
  238SOL    HW1 1613   0.130   2.240   2.804
  238SOL    HW2 1614   0.156   2.210   2.646
  239SOL     OW 1615   6.105   4.930   0.234
  239SOL    HW1 1616   6.127   4.835   0.212
  239SOL    HW2 1617   6.029   4.933   0.299
  240SOL     OW 1618   0.084   1.875   4.571
  240SOL    HW1 1619   0.049   1.930   4.496
  240SOL    HW2 1620   0.009   1.830   4.618
  241SOL     OW 1621   5.994   1.970   4.861
  241SOL    HW1 1622   6.005   2.030   4.782
  241SOL    HW2 1623   6.083   1.955   4.903
  242SOL     OW 1624   2.816   2.246   4.134
  242SOL    HW1 1625   2.858   2.155   4.140
  242SOL    HW2 1626   2.848   2.293   4.052
  243SOL     OW 1627   5.053   1.040   6.964
  243SOL    HW1 1628   5.056   0.976   0.016
  243SOL    HW2 1629   5.117   1.114   6.980
  244SOL     OW 1630   0.664   1.875   6.289
  244SOL    HW1 1631   0.653   1.879   6.388
  244SOL    HW2 1632   0.585   1.829   6.249
  245SOL     OW 1633   5.357   2.173   4.036
  245SOL    HW1 1634   5.402   2.084   4.039
  245SOL    HW2 1635   5.270   2.169   4.085
  246SOL     OW 1636   5.353   3.405   4.861
  246SOL    HW1 1637   5.440   3.446   4.888
  246SOL    HW2 1638   5.353   3.389   4.763
  247SOL     OW 1639   3.103   0.580   2.904
  247SOL    HW1 1640   3.132   0.499   2.955
  247SOL    HW2 1641   3.179   0.646   2.900
  248SOL     OW 1642   0.523   2.407   2.909
  248SOL    HW1 1643   0.545   2.316   2.873
  248SOL    HW2 1644   0.470   2.458   2.841
  249SOL     OW 1645   2.557   5.717   5.508
  249SOL    HW1 1646   2.482   5.757   5.561
  249SOL    HW2 1647   2.608   5.653   5.565
  250SOL     OW 1648   5.202   2.393   0.179
  250SOL    HW1 1649   5.135   2.463   0.152
  250SOL    HW2 1650   5.220   2.401   0.277
  251SOL     OW 1651   2.170   0.982   1.091
  251SOL    HW1 1652   2.092   0.937   1.048
  251SOL    HW2 1653   2.140   1.069   1.130
  252SOL     OW 1654   0.128   2.326   0.470
  252SOL    HW1 1655   0.032   2.329   0.496
  252SOL    HW2 1656   0.171   2.244   0.509
  253SOL     OW 1657   2.417   4.249   6.276
  253SOL    HW1 1658   2.326   4.281   6.248
  253SOL    HW2 1659   2.459   4.317   6.336
  254SOL     OW 1660   5.055   3.640   6.289
  254SOL    HW1 1661   5.022   3.710   6.352
  254SOL    HW2 1662   5.151   3.658   6.266
  255SOL     OW 1663   4.746   1.999   2.336
  255SOL    HW1 1664   4.659   1.969   2.298
  255SOL    HW2 1665   4.814   1.926   2.324
  256SOL     OW 1666   0.323   6.206   1.359
  256SOL    HW1 1667   0.254   6.150   1.404
  256SOL    HW2 1668   0.410   6.199   1.408
  257SOL     OW 1669   2.915   5.938   6.047
  257SOL    HW1 1670   2.993   5.970   6.101
  257SOL    HW2 1671   2.929   5.841   6.024
  258SOL     OW 1672   4.103   5.348   4.269
  258SOL    HW1 1673   4.057   5.375   4.353
  258SOL    HW2 1674   4.108   5.426   4.207
  259SOL     OW 1675   0.719   1.686   2.146
  259SOL    HW1 1676   0.659   1.759   2.114
  259SOL    HW2 1677   0.806   1.725   2.176
  260SOL     OW 1678   6.406   6.552   5.443
  260SOL    HW1 1679   6.350   6.588   5.369
  260SOL    HW2 1680   6.480   6.497   5.405
  261SOL     OW 1681   0.487   0.575   4.169
  261SOL    HW1 1682   0.400   0.546   4.209
  261SOL    HW2 1683   0.541   0.495   4.144
  262SOL     OW 1684   1.576   5.512   1.290
  262SOL    HW1 1685   1.537   5.557   1.210
  262SOL    HW2 1686   1.502   5.482   1.351
  263SOL     OW 1687   0.762   4.449   4.638
  263SOL    HW1 1688   0.665   4.425   4.648
  263SOL    HW2 1689   0.797   4.482   4.725
  264SOL     OW 1690   3.196   4.198   0.498
  264SOL    HW1 1691   3.204   4.284   0.448
  264SOL    HW2 1692   3.110   4.153   0.472
  265SOL     OW 1693   4.157   5.203   3.716
  265SOL    HW1 1694   4.229   5.162   3.773
  265SOL    HW2 1695   4.070   5.159   3.736
  266SOL     OW 1696   4.210   3.304   0.025
  266SOL    HW1 1697   4.285   3.276   6.989
  266SOL    HW2 1698   4.174   3.224   0.073
  267SOL     OW 1699   2.824   2.549   5.851
  267SOL    HW1 1700   2.901   2.577   5.908
  267SOL    HW2 1701   2.767   2.484   5.901
  268SOL     OW 1702   1.899   4.275   3.971
  268SOL    HW1 1703   1.872   4.365   3.939
  268SOL    HW2 1704   1.920   4.216   3.893
  269SOL     OW 1705   3.474   1.879   5.568
  269SOL    HW1 1706   3.498   1.888   5.472
  269SOL    HW2 1707   3.542   1.927   5.624
  270SOL     OW 1708   5.551   5.975   4.730
  270SOL    HW1 1709   5.650   5.974   4.736
  270SOL    HW2 1710   5.523   5.965   4.634
  271SOL     OW 1711   2.747   1.756   0.255
  271SOL    HW1 1712   2.727   1.697   0.176
  271SOL    HW2 1713   2.669   1.756   0.317
  272SOL     OW 1714   5.190   4.748   0.192
  272SOL    HW1 1715   5.279   4.780   0.225
  272SOL    HW2 1716   5.190   4.749   0.092
  273SOL     OW 1717   1.311   5.877   4.215
  273SOL    HW1 1718   1.220   5.873   4.256
  273SOL    HW2 1719   1.338   5.785   4.186
  274SOL     OW 1720   5.353   2.493   2.701
  274SOL    HW1 1721   5.378   2.547   2.781
  274SOL    HW2 1722   5.432   2.482   2.642
  275SOL     OW 1723   6.056   5.480   5.861
  275SOL    HW1 1724   6.067   5.385   5.890
  275SOL    HW2 1725   6.004   5.531   5.930
  276SOL     OW 1726   0.995   0.411   4.613
  276SOL    HW1 1727   1.052   0.399   4.694
  276SOL    HW2 1728   0.899   0.408   4.640
  277SOL     OW 1729   3.567   3.120   5.479
  277SOL    HW1 1730   3.577   3.024   5.505
  277SOL    HW2 1731   3.618   3.178   5.543
  278SOL     OW 1732   5.648   4.506   2.371
  278SOL    HW1 1733   5.600   4.569   2.432
  278SOL    HW2 1734   5.659   4.548   2.281
  279SOL     OW 1735   0.733   4.333   3.808
  279SOL    HW1 1736   0.790   4.303   3.885
  279SOL    HW2 1737   0.640   4.348   3.839
  280SOL     OW 1738   4.541   1.451   3.724
  280SOL    HW1 1739   4.477   1.524   3.699
  280SOL    HW2 1740   4.607   1.486   3.790
  281SOL     OW 1741   5.226   5.152   5.196
  281SOL    HW1 1742   5.164   5.119   5.268
  281SOL    HW2 1743   5.254   5.245   5.217
  282SOL     OW 1744   0.507   2.550   0.028
  282SOL    HW1 1745   0.520   2.527   6.957
  282SOL    HW2 1746   0.426   2.608   0.037
  283SOL     OW 1747   6.078   4.025   2.356
  283SOL    HW1 1748   6.106   3.959   2.426
  283SOL    HW2 1749   6.029   4.100   2.399
  284SOL     OW 1750   5.992   6.557   3.232
  284SOL    HW1 1751   5.982   6.605   3.145
  284SOL    HW2 1752   5.923   6.590   3.296
  285SOL     OW 1753   4.016   5.635   6.046
  285SOL    HW1 1754   4.092   5.585   6.089
  285SOL    HW2 1755   4.050   5.720   6.006
  286SOL     OW 1756   3.599   4.890   5.698
  286SOL    HW1 1757   3.636   4.951   5.628
  286SOL    HW2 1758   3.505   4.915   5.718
  287SOL     OW 1759   3.639   6.327   0.468
  287SOL    HW1 1760   3.540   6.319   0.460
  287SOL    HW2 1761   3.673   6.394   0.401
  288SOL     OW 1762   4.688   0.908   0.073
  288SOL    HW1 1763   4.734   0.836   0.125
  288SOL    HW2 1764   4.734   0.995   0.087
  289SOL     OW 1765   4.962   5.089   4.349
  289SOL    HW1 1766   5.008   5.177   4.339
  289SOL    HW2 1767   4.892   5.096   4.421
  290SOL     OW 1768   3.587   0.623   5.018
  290SOL    HW1 1769   3.681   0.642   4.988
  290SOL    HW2 1770   3.584   0.533   5.062
  291SOL     OW 1771   5.963   0.779   4.688
  291SOL    HW1 1772   6.025   0.783   4.766
  291SOL    HW2 1773   5.873   0.747   4.718
  292SOL     OW 1774   3.335   0.741   3.648
  292SOL    HW1 1775   3.333   0.646   3.679
  292SOL    HW2 1776   3.421   0.783   3.677
  293SOL     OW 1777   5.307   0.869   2.963
  293SOL    HW1 1778   5.260   0.847   2.878
  293SOL    HW2 1779   5.350   0.960   2.955
  294SOL     OW 1780   6.931   1.355   0.081
  294SOL    HW1 1781   6.907   1.452   0.083
  294SOL    HW2 1782   6.906   1.316   7.018
  295SOL     OW 1783   0.151   0.181   5.119
  295SOL    HW1 1784   0.125   0.084   5.119
  295SOL    HW2 1785   0.229   0.194   5.057
  296SOL     OW 1786   0.662   1.857   1.016
  296SOL    HW1 1787   0.666   1.827   0.921
  296SOL    HW2 1788   0.721   1.798   1.072
  297SOL     OW 1789   5.346   3.201   3.254
  297SOL    HW1 1790   5.342   3.109   3.294
  297SOL    HW2 1791   5.424   3.207   3.193
  298SOL     OW 1792   4.480   0.227   5.308
  298SOL    HW1 1793   4.517   0.264   5.393
  298SOL    HW2 1794   4.454   0.132   5.322
  299SOL     OW 1795   0.660   1.022   6.128
  299SOL    HW1 1796   0.724   0.996   6.201
  299SOL    HW2 1797   0.704   1.088   6.068
  300SOL     OW 1798   4.113   6.177   4.189
  300SOL    HW1 1799   4.081   6.149   4.099
  300SOL    HW2 1800   4.069   6.122   4.259
  301SOL     OW 1801   6.822   6.320   5.148
  301SOL    HW1 1802   6.761   6.241   5.143
  301SOL    HW2 1803   6.912   6.294   5.112
  302SOL     OW 1804   0.494   6.614   2.189
  302SOL    HW1 1805   0.443   6.567   2.260
  302SOL    HW2 1806   0.559   6.551   2.146
  303SOL     OW 1807   5.081   5.709   2.525
  303SOL    HW1 1808   5.156   5.758   2.480
  303SOL    HW2 1809   5.023   5.665   2.456
  304SOL     OW 1810   1.109   0.500   3.629
  304SOL    HW1 1811   1.197   0.484   3.584
  304SOL    HW2 1812   1.109   0.457   3.720
  305SOL     OW 1813   2.292   2.016   1.449
  305SOL    HW1 1814   2.288   2.070   1.533
  305SOL    HW2 1815   2.209   1.961   1.441
  306SOL     OW 1816   0.493   0.194   2.464
  306SOL    HW1 1817   0.553   0.166   2.539
  306SOL    HW2 1818   0.400   0.165   2.482
  307SOL     OW 1819   3.788   3.927   4.038
  307SOL    HW1 1820   3.818   3.958   4.128
  307SOL    HW2 1821   3.853   3.859   4.003
  308SOL     OW 1822   6.485   1.937   2.198
  308SOL    HW1 1823   6.515   1.900   2.286
  308SOL    HW2 1824   6.538   2.018   2.176
  309SOL     OW 1825   1.805   4.635   0.473
  309SOL    HW1 1826   1.731   4.628   0.406
  309SOL    HW2 1827   1.794   4.564   0.543
  310SOL     OW 1828   4.897   6.596   5.114
  310SOL    HW1 1829   4.872   6.671   5.053
  310SOL    HW2 1830   4.856   6.511   5.080
  311SOL     OW 1831   1.753   6.206   2.624
  311SOL    HW1 1832   1.675   6.224   2.564
  311SOL    HW2 1833   1.730   6.231   2.718
  312SOL     OW 1834   3.332   0.467   4.329
  312SOL    HW1 1835   3.330   0.466   4.229
  312SOL    HW2 1836   3.304   0.377   4.363
  313SOL     OW 1837   3.120   3.068   3.082
  313SOL    HW1 1838   3.093   3.164   3.092
  313SOL    HW2 1839   3.171   3.040   3.162
  314SOL     OW 1840   2.621   5.057   6.179
  314SOL    HW1 1841   2.671   5.061   6.266
  314SOL    HW2 1842   2.538   5.112   6.187
  315SOL     OW 1843   6.198   0.515   4.835
  315SOL    HW1 1844   6.121   0.496   4.896
  315SOL    HW2 1845   6.238   0.429   4.804
  316SOL     OW 1846   4.228   0.984   5.370
  316SOL    HW1 1847   4.227   1.074   5.414
  316SOL    HW2 1848   4.161   0.924   5.415
  317SOL     OW 1849   1.029   2.171   1.516
  317SOL    HW1 1850   0.936   2.157   1.550
  317SOL    HW2 1851   1.026   2.213   1.425
  318SOL     OW 1852   0.863   0.605   3.036
  318SOL    HW1 1853   0.877   0.546   3.115
  318SOL    HW2 1854   0.939   0.595   2.972
  319SOL     OW 1855   1.129   1.091   2.265
  319SOL    HW1 1856   1.046   1.037   2.255
  319SOL    HW2 1857   1.183   1.055   2.342
  320SOL     OW 1858   5.200   1.344   0.306
  320SOL    HW1 1859   5.222   1.306   0.216
  320SOL    HW2 1860   5.134   1.285   0.352
  321SOL     OW 1861   4.106   3.412   1.092
  321SOL    HW1 1862   4.047   3.395   1.014
  321SOL    HW2 1863   4.190   3.358   1.083
  322SOL     OW 1864   2.984   1.670   0.026
  322SOL    HW1 1865   2.903   1.623   0.060
  322SOL    HW2 1866   3.066   1.619   0.051
  323SOL     OW 1867   1.244   4.078   2.066
  323SOL    HW1 1868   1.341   4.066   2.088
  323SOL    HW2 1869   1.190   4.006   2.109
  324SOL     OW 1870   6.392   0.630   3.974
  324SOL    HW1 1871   6.484   0.591   3.969
  324SOL    HW2 1872   6.327   0.568   3.929
  325SOL     OW 1873   5.971   3.480   1.097
  325SOL    HW1 1874   6.038   3.452   1.165
  325SOL    HW2 1875   5.894   3.416   1.098
  326SOL     OW 1876   0.072   5.555   6.867
  326SOL    HW1 1877   0.096   5.475   6.922
  326SOL    HW2 1878   0.079   5.532   6.770
  327SOL     OW 1879   4.467   6.304   6.458
  327SOL    HW1 1880   4.501   6.268   6.372
  327SOL    HW2 1881   4.370   6.281   6.468
  328SOL     OW 1882   1.741   4.350   3.468
  328SOL    HW1 1883   1.760   4.441   3.505
  328SOL    HW2 1884   1.760   4.349   3.370
  329SOL     OW 1885   3.414   2.826   2.242
  329SOL    HW1 1886   3.363   2.911   2.231
  329SOL    HW2 1887   3.374   2.756   2.182
  330SOL     OW 1888   2.490   3.433   6.343
  330SOL    HW1 1889   2.439   3.443   6.257
  330SOL    HW2 1890   2.425   3.426   6.419
  331SOL     OW 1891   4.920   5.417   3.625
  331SOL    HW1 1892   4.911   5.444   3.721
  331SOL    HW2 1893   4.889   5.323   3.614
  332SOL     OW 1894   5.704   1.582   2.692
  332SOL    HW1 1895   5.632   1.533   2.643
  332SOL    HW2 1896   5.778   1.519   2.716
  333SOL     OW 1897   4.024   6.258   3.600
  333SOL    HW1 1898   3.952   6.328   3.607
  333SOL    HW2 1899   4.030   6.226   3.505
  334SOL     OW 1900   3.579   3.414   4.014
  334SOL    HW1 1901   3.616   3.324   3.993
  334SOL    HW2 1902   3.641   3.462   4.076
  335SOL     OW 1903   4.245   1.263   0.564
  335SOL    HW1 1904   4.240   1.166   0.540
  335SOL    HW2 1905   4.269   1.272   0.661
  336SOL     OW 1906   4.108   1.892   4.869
  336SOL    HW1 1907   4.039   1.913   4.938
  336SOL    HW2 1908   4.113   1.967   4.803
  337SOL     OW 1909   0.194   1.527   5.465
  337SOL    HW1 1910   0.102   1.547   5.430
  337SOL    HW2 1911   0.201   1.429   5.484
  338SOL     OW 1912   4.891   1.049   1.826
  338SOL    HW1 1913   4.795   1.061   1.849
  338SOL    HW2 1914   4.901   1.040   1.726
  339SOL     OW 1915   4.084   4.871   6.204
  339SOL    HW1 1916   3.997   4.847   6.161
  339SOL    HW2 1917   4.124   4.789   6.245
  340SOL     OW 1918   4.872   3.057   4.956
  340SOL    HW1 1919   4.861   3.079   5.053
  340SOL    HW2 1920   4.922   3.132   4.911
  341SOL     OW 1921   0.175   0.553   1.811
  341SOL    HW1 1922   0.142   0.474   1.760
  341SOL    HW2 1923   0.252   0.594   1.763
  342SOL     OW 1924   4.643   1.148   1.863
  342SOL    HW1 1925   4.549   1.118   1.849
  342SOL    HW2 1926   4.655   1.239   1.823
  343SOL     OW 1927   5.917   6.935   1.606
  343SOL    HW1 1928   5.962   6.945   1.695
  343SOL    HW2 1929   5.827   6.978   1.609
  344SOL     OW 1930   6.841   2.695   1.526
  344SOL    HW1 1931   6.843   2.600   1.494
  344SOL    HW2 1932   6.899   2.751   1.467
  345SOL     OW 1933   6.979   2.558   4.536
  345SOL    HW1 1934   7.015   2.538   4.445
  345SOL    HW2 1935   0.020   2.613   4.587
  346SOL     OW 1936   1.653   5.737   2.518
  346SOL    HW1 1937   1.651   5.645   2.478
  346SOL    HW2 1938   1.724   5.741   2.589
  347SOL     OW 1939   2.219   4.461   1.416
  347SOL    HW1 1940   2.299   4.445   1.474
  347SOL    HW2 1941   2.142   4.490   1.474
  348SOL     OW 1942   5.228   4.736   1.497
  348SOL    HW1 1943   5.152   4.794   1.466
  348SOL    HW2 1944   5.238   4.659   1.435
  349SOL     OW 1945   6.070   5.282   0.813
  349SOL    HW1 1946   5.998   5.250   0.875
  349SOL    HW2 1947   6.051   5.376   0.786
  350SOL     OW 1948   2.615   1.391   1.008
  350SOL    HW1 1949   2.671   1.411   0.928
  350SOL    HW2 1950   2.545   1.324   0.983
  351SOL     OW 1951   3.614   4.387   1.431
  351SOL    HW1 1952   3.641   4.418   1.522
  351SOL    HW2 1953   3.638   4.456   1.364
  352SOL     OW 1954   4.128   6.653   2.326
  352SOL    HW1 1955   4.183   6.591   2.382
  352SOL    HW2 1956   4.088   6.724   2.383
  353SOL     OW 1957   2.156   6.439   0.289
  353SOL    HW1 1958   2.169   6.428   0.387
  353SOL    HW2 1959   2.091   6.370   0.256
  354SOL     OW 1960   1.187   2.277   0.858
  354SOL    HW1 1961   1.221   2.292   0.765
  354SOL    HW2 1962   1.089   2.261   0.855
  355SOL     OW 1963   0.043   2.938   3.352
  355SOL    HW1 1964   0.100   2.889   3.285
  355SOL    HW2 1965   0.043   2.887   3.438
  356SOL     OW 1966   2.607   0.683   5.655
  356SOL    HW1 1967   2.659   0.680   5.740
  356SOL    HW2 1968   2.630   0.603   5.599
  357SOL     OW 1969   5.207   6.049   4.290
  357SOL    HW1 1970   5.296   6.089   4.314
  357SOL    HW2 1971   5.218   5.951   4.273
  358SOL     OW 1972   3.417   6.292   0.146
  358SOL    HW1 1973   3.387   6.197   0.150
  358SOL    HW2 1974   3.503   6.297   0.095
  359SOL     OW 1975   2.183   2.323   1.397
  359SOL    HW1 1976   2.170   2.417   1.364
  359SOL    HW2 1977   2.277   2.312   1.429
  360SOL     OW 1978   2.055   4.152   3.336
  360SOL    HW1 1979   2.126   4.217   3.361
  360SOL    HW2 1980   2.096   4.063   3.314
  361SOL     OW 1981   0.256   2.285   3.044
  361SOL    HW1 1982   0.248   2.286   3.144
  361SOL    HW2 1983   0.345   2.247   3.018
  362SOL     OW 1984   3.801   3.723   2.397
  362SOL    HW1 1985   3.780   3.817   2.368
  362SOL    HW2 1986   3.807   3.720   2.497
  363SOL     OW 1987   4.608   4.914   0.417
  363SOL    HW1 1988   4.623   5.005   0.457
  363SOL    HW2 1989   4.519   4.913   0.371
  364SOL     OW 1990   1.269   0.539   0.222
  364SOL    HW1 1991   1.189   0.555   0.164
  364SOL    HW2 1992   1.352   0.550   0.168
  365SOL     OW 1993   5.551   0.444   3.714
  365SOL    HW1 1994   5.558   0.408   3.807
  365SOL    HW2 1995   5.626   0.508   3.698
  366SOL     OW 1996   5.042   1.462   7.010
  366SOL    HW1 1997   4.965   1.417   0.029
  366SOL    HW2 1998   5.010   1.512   6.930
  367SOL     OW 1999   5.515   0.874   6.990
  367SOL    HW1 2000   5.507   0.863   0.063
  367SOL    HW2 2001   5.461   0.953   6.961
  368SOL     OW 2002   2.831   1.884   6.019
  368SOL    HW1 2003   2.810   1.798   6.066
  368SOL    HW2 2004   2.753   1.912   5.963
  369SOL     OW 2005   4.800   4.479   0.254
  369SOL    HW1 2006   4.719   4.531   0.230
  369SOL    HW2 2007   4.865   4.537   0.303
  370SOL     OW 2008   1.959   2.363   3.148
  370SOL    HW1 2009   1.950   2.268   3.176
  370SOL    HW2 2010   2.049   2.378   3.107
  371SOL     OW 2011   2.450   5.705   0.032
  371SOL    HW1 2012   2.546   5.732   0.033
  371SOL    HW2 2013   2.394   5.781   0.064
  372SOL     OW 2014   2.238   5.871   6.355
  372SOL    HW1 2015   2.331   5.896   6.328
  372SOL    HW2 2016   2.175   5.945   6.331
  373SOL     OW 2017   6.246   4.917   3.034
  373SOL    HW1 2018   6.228   4.823   3.062
  373SOL    HW2 2019   6.159   4.967   3.028
  374SOL     OW 2020   2.848   2.258   2.287
  374SOL    HW1 2021   2.771   2.318   2.308
  374SOL    HW2 2022   2.880   2.277   2.194
  375SOL     OW 2023   0.452   6.050   4.094
  375SOL    HW1 2024   0.444   6.092   4.185
  375SOL    HW2 2025   0.379   6.085   4.035
  376SOL     OW 2026   4.429   0.241   3.818
  376SOL    HW1 2027   4.465   0.205   3.731
  376SOL    HW2 2028   4.437   0.340   3.818
  377SOL     OW 2029   3.052   2.926   6.379
  377SOL    HW1 2030   3.126   2.955   6.318
  377SOL    HW2 2031   2.992   2.863   6.331
  378SOL     OW 2032   4.112   1.216   2.185
  378SOL    HW1 2033   4.135   1.161   2.105
  378SOL    HW2 2034   4.094   1.155   2.263
  379SOL     OW 2035   4.043   2.958   6.639
  379SOL    HW1 2036   3.994   3.000   6.715
  379SOL    HW2 2037   3.997   2.982   6.553
  380SOL     OW 2038   4.780   1.963   0.688
  380SOL    HW1 2039   4.712   1.891   0.699
  380SOL    HW2 2040   4.872   1.925   0.704
  381SOL     OW 2041   1.581   3.753   2.571
  381SOL    HW1 2042   1.615   3.839   2.533
  381SOL    HW2 2043   1.627   3.734   2.657
  382SOL     OW 2044   5.943   6.792   0.447
  382SOL    HW1 2045   5.944   6.849   0.530
  382SOL    HW2 2046   5.859   6.737   0.445
  383SOL     OW 2047   4.931   3.256   0.624
  383SOL    HW1 2048   4.931   3.193   0.546
  383SOL    HW2 2049   4.947   3.349   0.592
  384SOL     OW 2050   0.839   3.090   5.271
  384SOL    HW1 2051   0.904   3.085   5.347
  384SOL    HW2 2052   0.746   3.100   5.308
  385SOL     OW 2053   4.309   1.870   6.807
  385SOL    HW1 2054   4.364   1.954   6.799
  385SOL    HW2 2055   4.223   1.891   6.853
  386SOL     OW 2056   4.292   6.743   5.241
  386SOL    HW1 2057   4.326   6.657   5.204
  386SOL    HW2 2058   4.233   6.788   5.174
  387SOL     OW 2059   2.249   6.339   4.141
  387SOL    HW1 2060   2.178   6.357   4.209
  387SOL    HW2 2061   2.338   6.367   4.176
  388SOL     OW 2062   1.516   5.002   6.060
  388SOL    HW1 2063   1.451   4.929   6.041
  388SOL    HW2 2064   1.488   5.050   6.144
  389SOL     OW 2065   2.771   3.396   0.676
  389SOL    HW1 2066   2.847   3.409   0.613
  389SOL    HW2 2067   2.802   3.343   0.755
  390SOL     OW 2068   2.613   1.516   4.632
  390SOL    HW1 2069   2.615   1.591   4.698
  390SOL    HW2 2070   2.518   1.497   4.606
  391SOL     OW 2071   0.944   2.399   6.973
  391SOL    HW1 2072   1.040   2.428   6.977
  391SOL    HW2 2073   0.891   2.468   6.924
  392SOL     OW 2074   3.063   5.386   4.946
  392SOL    HW1 2075   3.124   5.460   4.976
  392SOL    HW2 2076   3.075   5.306   5.005
  393SOL     OW 2077   6.091   3.911   5.706
  393SOL    HW1 2078   6.023   3.935   5.636
  393SOL    HW2 2079   6.086   3.978   5.781
  394SOL     OW 2080   1.995   1.667   6.127
  394SOL    HW1 2081   1.928   1.651   6.199
  394SOL    HW2 2082   2.080   1.701   6.167
  395SOL     OW 2083   6.949   3.135   1.066
  395SOL    HW1 2084   6.916   3.105   1.155
  395SOL    HW2 2085   6.909   3.078   0.994
  396SOL     OW 2086   3.232   2.685   5.832
  396SOL    HW1 2087   3.191   2.733   5.754
  396SOL    HW2 2088   3.256   2.592   5.805
  397SOL     OW 2089   4.393   1.161   6.797
  397SOL    HW1 2090   4.329   1.095   6.837
  397SOL    HW2 2091   4.446   1.203   6.870
  398SOL     OW 2092   0.393   4.275   2.317
  398SOL    HW1 2093   0.414   4.181   2.345
  398SOL    HW2 2094   0.469   4.335   2.344
  399SOL     OW 2095   4.929   5.374   1.861
  399SOL    HW1 2096   4.910   5.446   1.928
  399SOL    HW2 2097   4.945   5.416   1.772
  400SOL     OW 2098   2.137   4.523   4.829
  400SOL    HW1 2099   2.235   4.521   4.851
  400SOL    HW2 2100   2.091   4.447   4.873
  401SOL     OW 2101   5.997   1.514   1.256
  401SOL    HW1 2102   5.918   1.460   1.285
  401SOL    HW2 2103   6.081   1.472   1.290
  402SOL     OW 2104   0.034   4.802   0.814
  402SOL    HW1 2105   7.010   4.788   0.900
  402SOL    HW2 2106   6.999   4.847   0.748
  403SOL     OW 2107   4.697   4.805   0.991
  403SOL    HW1 2108   4.705   4.760   1.080
  403SOL    HW2 2109   4.609   4.780   0.949
  404SOL     OW 2110   6.927   5.851   4.961
  404SOL    HW1 2111   6.963   5.941   4.936
  404SOL    HW2 2112   6.993   5.804   5.019
  405SOL     OW 2113   1.266   2.309   1.515
  405SOL    HW1 2114   1.280   2.397   1.468
  405SOL    HW2 2115   1.168   2.295   1.530
  406SOL     OW 2116   0.876   2.719   3.564
  406SOL    HW1 2117   0.815   2.708   3.643
  406SOL    HW2 2118   0.953   2.656   3.574
  407SOL     OW 2119   3.679   2.169   4.095
  407SOL    HW1 2120   3.670   2.164   4.195
  407SOL    HW2 2121   3.754   2.230   4.072
  408SOL     OW 2122   2.537   0.438   3.762
  408SOL    HW1 2123   2.557   0.472   3.853
  408SOL    HW2 2124   2.574   0.345   3.752
  409SOL     OW 2125   6.874   3.737   3.940
  409SOL    HW1 2126   6.965   3.777   3.950
  409SOL    HW2 2127   6.820   3.757   4.021
  410SOL     OW 2128   3.098   6.684   6.223
  410SOL    HW1 2129   3.036   6.719   6.153
  410SOL    HW2 2130   3.046   6.629   6.289
  411SOL     OW 2131   0.615   4.242   5.447
  411SOL    HW1 2132   0.659   4.261   5.359
  411SOL    HW2 2133   0.537   4.303   5.459
  412SOL     OW 2134   4.033   6.851   2.483
  412SOL    HW1 2135   4.075   6.935   2.450
  412SOL    HW2 2136   3.955   6.873   2.542
  413SOL     OW 2137   2.476   1.266   2.784
  413SOL    HW1 2138   2.418   1.292   2.862
  413SOL    HW2 2139   2.490   1.167   2.784
  414SOL     OW 2140   5.040   4.763   0.612
  414SOL    HW1 2141   4.974   4.728   0.678
  414SOL    HW2 2142   5.092   4.838   0.652
  415SOL     OW 2143   4.016   6.980   2.060
  415SOL    HW1 2144   4.039   6.888   2.092
  415SOL    HW2 2145   4.080   7.008   1.989
  416SOL     OW 2146   4.017   5.954   7.017
  416SOL    HW1 2147   4.032   5.857   0.008
  416SOL    HW2 2148   3.970   5.966   6.929
  417SOL     OW 2149   5.313   4.993   1.278
  417SOL    HW1 2150   5.395   4.937   1.295
  417SOL    HW2 2151   5.309   5.066   1.346
  418SOL     OW 2152   6.198   4.744   6.511
  418SOL    HW1 2153   6.201   4.773   6.415
  418SOL    HW2 2154   6.193   4.824   6.570
  419SOL     OW 2155   5.366   5.689   0.438
  419SOL    HW1 2156   5.286   5.665   0.384
  419SOL    HW2 2157   5.378   5.623   0.512
  420SOL     OW 2158   5.042   4.006   6.683
  420SOL    HW1 2159   4.968   4.016   6.618
  420SOL    HW2 2160   5.014   4.043   6.772
  421SOL     OW 2161   1.620   6.753   6.512
  421SOL    HW1 2162   1.709   6.709   6.524
  421SOL    HW2 2163   1.548   6.686   6.532
  422SOL     OW 2164   6.129   3.989   0.129
  422SOL    HW1 2165   6.189   3.925   0.082
  422SOL    HW2 2166   6.099   3.949   0.216
  423SOL     OW 2167   1.023   3.666   6.259
  423SOL    HW1 2168   1.077   3.582   6.259
  423SOL    HW2 2169   1.012   3.699   6.352
  424SOL     OW 2170   1.617   4.381   6.990
  424SOL    HW1 2171   1.717   4.388   6.994
  424SOL    HW2 2172   1.590   4.343   6.901
  425SOL     OW 2173   3.506   0.089   6.964
  425SOL    HW1 2174   3.592   0.047   6.934
  425SOL    HW2 2175   3.505   0.094   0.039
  426SOL     OW 2176   6.974   3.832   6.119
  426SOL    HW1 2177   6.912   3.850   6.042
  426SOL    HW2 2178   0.024   3.773   6.088
  427SOL     OW 2179   4.321   3.365   0.285
  427SOL    HW1 2180   4.302   3.360   0.187
  427SOL    HW2 2181   4.274   3.444   0.324
  428SOL     OW 2182   3.896   1.506   5.325
  428SOL    HW1 2183   3.937   1.418   5.303
  428SOL    HW2 2184   3.903   1.566   5.246
  429SOL     OW 2185   2.904   6.892   0.338
  429SOL    HW1 2186   2.865   6.953   0.270
  429SOL    HW2 2187   2.890   6.929   0.429
  430SOL     OW 2188   3.051   0.265   4.149
  430SOL    HW1 2189   2.973   0.223   4.103
  430SOL    HW2 2190   3.136   0.229   4.110
  431SOL     OW 2191   3.694   0.776   0.019
  431SOL    HW1 2192   3.755   0.826   0.081
  431SOL    HW2 2193   3.731   0.779   6.952
  432SOL     OW 2194   6.860   0.963   0.970
  432SOL    HW1 2195   6.927   0.925   1.034
  432SOL    HW2 2196   6.877   1.061   0.958
  433SOL     OW 2197   3.031   5.951   4.998
  433SOL    HW1 2198   3.107   5.905   4.953
  433SOL    HW2 2199   3.043   5.948   5.097
  434SOL     OW 2200   6.178   3.586   1.340
  434SOL    HW1 2201   6.170   3.489   1.318
  434SOL    HW2 2202   6.104   3.612   1.402
  435SOL     OW 2203   3.707   3.771   0.757
  435SOL    HW1 2204   3.639   3.738   0.821
  435SOL    HW2 2205   3.771   3.697   0.735
  436SOL     OW 2206   3.203   0.763   0.537
  436SOL    HW1 2207   3.145   0.746   0.458
  436SOL    HW2 2208   3.246   0.677   0.565
  437SOL     OW 2209   6.481   6.995   6.010
  437SOL    HW1 2210   6.460   0.064   6.035
  437SOL    HW2 2211   6.535   6.953   6.082
  438SOL     OW 2212   1.674   3.352   1.058
  438SOL    HW1 2213   1.587   3.310   1.031
  438SOL    HW2 2214   1.750   3.292   1.035
  439SOL     OW 2215   6.186   4.746   2.107
  439SOL    HW1 2216   6.182   4.842   2.077
  439SOL    HW2 2217   6.104   4.698   2.075
  440SOL     OW 2218   1.570   2.937   2.979
  440SOL    HW1 2219   1.575   3.019   3.037
  440SOL    HW2 2220   1.504   2.952   2.906
  441SOL     OW 2221   0.713   0.801   2.924
  441SOL    HW1 2222   0.751   0.717   2.963
  441SOL    HW2 2223   0.783   0.847   2.869
  442SOL     OW 2224   0.363   4.817   6.411
  442SOL    HW1 2225   0.274   4.834   6.369
  442SOL    HW2 2226   0.374   4.875   6.492
  443SOL     OW 2227   0.357   4.401   5.439
  443SOL    HW1 2228   0.394   4.494   5.440
  443SOL    HW2 2229   0.342   4.372   5.345
  444SOL     OW 2230   4.903   2.904   6.260
  444SOL    HW1 2231   4.867   2.835   6.323
  444SOL    HW2 2232   4.864   2.993   6.282
  445SOL     OW 2233   1.831   3.783   3.205
  445SOL    HW1 2234   1.775   3.852   3.159
  445SOL    HW2 2235   1.847   3.810   3.300
  446SOL     OW 2236   2.753   5.214   4.160
  446SOL    HW1 2237   2.735   5.155   4.239
  446SOL    HW2 2238   2.816   5.168   4.098
  447SOL     OW 2239   6.933   6.310   0.987
  447SOL    HW1 2240   7.006   6.244   0.967
  447SOL    HW2 2241   6.922   6.319   1.086
  448SOL     OW 2242   4.303   0.140   6.145
  448SOL    HW1 2243   4.300   0.126   6.046
  448SOL    HW2 2244   4.281   0.235   6.167
  449SOL     OW 2245   5.067   0.427   4.081
  449SOL    HW1 2246   5.022   0.351   4.035
  449SOL    HW2 2247   5.056   0.418   4.180
  450SOL     OW 2248   6.634   6.431   3.201
  450SOL    HW1 2249   6.562   6.492   3.234
  450SOL    HW2 2250   6.635   6.431   3.101
  451SOL     OW 2251   6.293   3.060   3.837
  451SOL    HW1 2252   6.205   3.018   3.858
  451SOL    HW2 2253   6.281   3.158   3.823
  452SOL     OW 2254   6.841   5.438   5.658
  452SOL    HW1 2255   6.931   5.421   5.618
  452SOL    HW2 2256   6.851   5.457   5.756
  453SOL     OW 2257   3.279   1.840   5.783
  453SOL    HW1 2258   3.334   1.909   5.830
  453SOL    HW2 2259   3.328   1.807   5.703
  454SOL     OW 2260   1.035   6.315   0.620
  454SOL    HW1 2261   1.135   6.313   0.620
  454SOL    HW2 2262   1.002   6.325   0.714
  455SOL     OW 2263   5.218   1.068   4.695
  455SOL    HW1 2264   5.141   1.126   4.723
  455SOL    HW2 2265   5.207   0.977   4.733
  456SOL     OW 2266   4.008   5.244   0.246
  456SOL    HW1 2267   3.975   5.164   0.295
  456SOL    HW2 2268   3.988   5.235   0.148
  457SOL     OW 2269   0.923   4.806   1.554
  457SOL    HW1 2270   0.896   4.864   1.632
  457SOL    HW2 2271   1.010   4.762   1.575
  458SOL     OW 2272   0.502   6.179   5.472
  458SOL    HW1 2273   0.564   6.167   5.549
  458SOL    HW2 2274   0.443   6.259   5.488
  459SOL     OW 2275   1.983   1.089   3.393
  459SOL    HW1 2276   1.986   1.182   3.356
  459SOL    HW2 2277   1.891   1.069   3.425
  460SOL     OW 2278   6.593   2.139   3.905
  460SOL    HW1 2279   6.530   2.106   3.974
  460SOL    HW2 2280   6.657   2.066   3.880
  461SOL     OW 2281   5.567   5.417   5.481
  461SOL    HW1 2282   5.487   5.442   5.537
  461SOL    HW2 2283   5.631   5.493   5.479
  462SOL     OW 2284   2.452   1.918   0.167
  462SOL    HW1 2285   2.479   1.830   0.207
  462SOL    HW2 2286   2.532   1.962   0.126
  463SOL     OW 2287   6.776   5.866   2.018
  463SOL    HW1 2288   6.751   5.953   1.976
  463SOL    HW2 2289   6.866   5.838   1.985
  464SOL     OW 2290   1.687   1.689   5.727
  464SOL    HW1 2291   1.594   1.690   5.764
  464SOL    HW2 2292   1.748   1.739   5.788
  465SOL     OW 2293   0.303   3.132   5.767
  465SOL    HW1 2294   0.275   3.093   5.680
  465SOL    HW2 2295   0.360   3.212   5.751
  466SOL     OW 2296   2.816   0.996   3.180
  466SOL    HW1 2297   2.868   0.938   3.243
  466SOL    HW2 2298   2.864   1.001   3.092
  467SOL     OW 2299   1.743   2.050   5.435
  467SOL    HW1 2300   1.745   1.952   5.457
  467SOL    HW2 2301   1.803   2.099   5.498
  468SOL     OW 2302   3.201   3.649   2.403
  468SOL    HW1 2303   3.286   3.673   2.357
  468SOL    HW2 2304   3.127   3.706   2.369
  469SOL     OW 2305   3.279   5.832   0.320
  469SOL    HW1 2306   3.319   5.760   0.264
  469SOL    HW2 2307   3.212   5.792   0.383
  470SOL     OW 2308   4.270   6.898   2.995
  470SOL    HW1 2309   4.272   6.828   2.924
  470SOL    HW2 2310   4.329   6.974   2.970
  471SOL     OW 2311   2.909   2.029   4.363
  471SOL    HW1 2312   2.986   2.061   4.306
  471SOL    HW2 2313   2.930   1.939   4.400
  472SOL     OW 2314   4.146   4.352   5.388
  472SOL    HW1 2315   4.063   4.298   5.394
  472SOL    HW2 2316   4.164   4.377   5.293
  473SOL     OW 2317   0.908   4.256   4.037
  473SOL    HW1 2318   0.960   4.339   4.055
  473SOL    HW2 2319   0.960   4.176   4.068
  474SOL     OW 2320   5.117   4.615   4.927
  474SOL    HW1 2321   5.034   4.611   4.983
  474SOL    HW2 2322   5.103   4.680   4.852
  475SOL     OW 2323   1.742   6.986   6.361
  475SOL    HW1 2324   1.723   6.909   6.423
  475SOL    HW2 2325   1.738   6.954   6.267
  476SOL     OW 2326   0.564   5.574   1.869
  476SOL    HW1 2327   0.536   5.479   1.855
  476SOL    HW2 2328   0.607   5.583   1.958
  477SOL     OW 2329   1.501   5.340   3.632
  477SOL    HW1 2330   1.525   5.429   3.672
  477SOL    HW2 2331   1.499   5.348   3.532
  478SOL     OW 2332   1.775   5.674   3.233
  478SOL    HW1 2333   1.686   5.666   3.277
  478SOL    HW2 2334   1.764   5.712   3.141
  479SOL     OW 2335   3.448   1.639   1.653
  479SOL    HW1 2336   3.497   1.691   1.723
  479SOL    HW2 2337   3.420   1.551   1.691
  480SOL     OW 2338   1.801   6.352   3.070
  480SOL    HW1 2339   1.749   6.341   3.155
  480SOL    HW2 2340   1.888   6.397   3.090
  481SOL     OW 2341   2.925   6.784   1.344
  481SOL    HW1 2342   2.826   6.789   1.354
  481SOL    HW2 2343   2.967   6.763   1.432
  482SOL     OW 2344   5.699   5.510   1.229
  482SOL    HW1 2345   5.778   5.473   1.278
  482SOL    HW2 2346   5.615   5.477   1.272
  483SOL     OW 2347   6.080   1.611   1.892
  483SOL    HW1 2348   6.021   1.580   1.966
  483SOL    HW2 2349   6.052   1.702   1.862
  484SOL     OW 2350   0.009   2.387   4.919
  484SOL    HW1 2351   6.949   2.437   4.908
  484SOL    HW2 2352   0.049   2.408   5.008
  485SOL     OW 2353   3.358   6.136   1.736
  485SOL    HW1 2354   3.400   6.045   1.739
  485SOL    HW2 2355   3.262   6.127   1.712
  486SOL     OW 2356   0.267   0.877   6.120
  486SOL    HW1 2357   0.347   0.825   6.089
  486SOL    HW2 2358   0.254   0.862   6.218
  487SOL     OW 2359   6.511   2.636   6.490
  487SOL    HW1 2360   6.484   2.731   6.503
  487SOL    HW2 2361   6.435   2.576   6.514
  488SOL     OW 2362   0.916   3.820   2.479
  488SOL    HW1 2363   0.900   3.732   2.433
  488SOL    HW2 2364   0.829   3.863   2.499
  489SOL     OW 2365   3.106   5.991   6.237
  489SOL    HW1 2366   3.203   5.979   6.216
  489SOL    HW2 2367   3.095   6.071   6.296
  490SOL     OW 2368   5.097   6.845   4.201
  490SOL    HW1 2369   5.040   6.792   4.264
  490SOL    HW2 2370   5.156   6.906   4.253
  491SOL     OW 2371   0.187   2.400   3.630
  491SOL    HW1 2372   0.236   2.481   3.664
  491SOL    HW2 2373   0.252   2.333   3.596
  492SOL     OW 2374   2.048   1.179   4.709
  492SOL    HW1 2375   2.098   1.253   4.664
  492SOL    HW2 2376   2.022   1.207   4.801
  493SOL     OW 2377   6.209   4.084   4.567
  493SOL    HW1 2378   6.299   4.064   4.529
  493SOL    HW2 2379   6.141   4.023   4.525
  494SOL     OW 2380   6.289   1.709   6.741
  494SOL    HW1 2381   6.275   1.783   6.807
  494SOL    HW2 2382   6.300   1.623   6.789
  495SOL     OW 2383   4.170   4.043   0.576
  495SOL    HW1 2384   4.092   3.982   0.557
  495SOL    HW2 2385   4.163   4.076   0.670
  496SOL     OW 2386   5.973   2.714   2.805
  496SOL    HW1 2387   6.054   2.655   2.813
  496SOL    HW2 2388   6.002   2.808   2.789
  497SOL     OW 2389   3.558   6.744   4.632
  497SOL    HW1 2390   3.604   6.812   4.689
  497SOL    HW2 2391   3.493   6.789   4.571
  498SOL     OW 2392   1.096   2.931   2.236
  498SOL    HW1 2393   1.154   2.853   2.261
  498SOL    HW2 2394   1.115   3.008   2.298
  499SOL     OW 2395   3.014   0.798   5.207
  499SOL    HW1 2396   3.033   0.835   5.298
  499SOL    HW2 2397   2.991   0.874   5.145
  500SOL     OW 2398   1.893   4.673   2.027
  500SOL    HW1 2399   1.845   4.652   1.942
  500SOL    HW2 2400   1.866   4.764   2.059
  501SOL     OW 2401   1.325   4.893   6.974
  501SOL    HW1 2402   1.268   4.899   6.893
  501SOL    HW2 2403   1.275   4.929   0.027
  502SOL     OW 2404   3.590   4.999   6.226
  502SOL    HW1 2405   3.597   4.996   6.127
  502SOL    HW2 2406   3.559   5.090   6.254
  503SOL     OW 2407   5.854   5.797   4.868
  503SOL    HW1 2408   5.785   5.800   4.941
  503SOL    HW2 2409   5.909   5.714   4.878
  504SOL     OW 2410   1.875   5.772   4.659
  504SOL    HW1 2411   1.946   5.816   4.605
  504SOL    HW2 2412   1.918   5.720   4.733
  505SOL     OW 2413   3.864   6.505   5.399
  505SOL    HW1 2414   3.904   6.537   5.485
  505SOL    HW2 2415   3.882   6.407   5.388
  506SOL     OW 2416   2.024   3.608   0.151
  506SOL    HW1 2417   1.987   3.519   0.124
  506SOL    HW2 2418   1.960   3.653   0.214
  507SOL     OW 2419   3.933   2.199   3.984
  507SOL    HW1 2420   3.954   2.150   4.069
  507SOL    HW2 2421   3.985   2.284   3.981
  508SOL     OW 2422   5.918   4.289   3.788
  508SOL    HW1 2423   5.956   4.196   3.784
  508SOL    HW2 2424   5.824   4.285   3.821
  509SOL     OW 2425   4.647   2.801   1.070
  509SOL    HW1 2426   4.696   2.788   0.984
  509SOL    HW2 2427   4.677   2.732   1.136
  510SOL     OW 2428   0.916   3.888   4.600
  510SOL    HW1 2429   0.883   3.825   4.671
  510SOL    HW2 2430   0.948   3.835   4.521
  511SOL     OW 2431   0.537   6.728   1.210
  511SOL    HW1 2432   0.514   6.710   1.305
  511SOL    HW2 2433   0.459   6.706   1.152
  512SOL     OW 2434   0.816   3.914   6.316
  512SOL    HW1 2435   0.718   3.910   6.297
  512SOL    HW2 2436   0.851   4.004   6.290
  513SOL     OW 2437   1.072   5.341   4.688
  513SOL    HW1 2438   1.135   5.267   4.711
  513SOL    HW2 2439   1.059   5.400   4.768
  514SOL     OW 2440   6.249   1.952   3.333
  514SOL    HW1 2441   6.278   1.864   3.371
  514SOL    HW2 2442   6.164   1.981   3.377
  515SOL     OW 2443   2.014   5.443   0.155
  515SOL    HW1 2444   2.020   5.345   0.138
  515SOL    HW2 2445   1.961   5.460   0.237
  516SOL     OW 2446   1.356   5.030   2.819
  516SOL    HW1 2447   1.354   5.053   2.917
  516SOL    HW2 2448   1.367   5.114   2.765
  517SOL     OW 2449   4.927   0.420   6.395
  517SOL    HW1 2450   4.975   0.348   6.444
  517SOL    HW2 2451   4.971   0.508   6.414
  518SOL     OW 2452   2.381   1.911   1.065
  518SOL    HW1 2453   2.368   1.995   1.011
  518SOL    HW2 2454   2.311   1.844   1.041
  519SOL     OW 2455   0.799   0.184   0.234
  519SOL    HW1 2456   0.800   0.113   0.163
  519SOL    HW2 2457   0.887   0.185   0.281
  520SOL     OW 2458   6.110   4.221   4.182
  520SOL    HW1 2459   6.108   4.305   4.237
  520SOL    HW2 2460   6.018   4.183   4.177
  521SOL     OW 2461   5.890   0.647   0.698
  521SOL    HW1 2462   5.916   0.718   0.763
  521SOL    HW2 2463   5.941   0.661   0.612
  522SOL     OW 2464   3.738   3.618   5.740
  522SOL    HW1 2465   3.795   3.612   5.659
  522SOL    HW2 2466   3.651   3.571   5.724
  523SOL     OW 2467   6.575   6.966   4.212
  523SOL    HW1 2468   6.636   6.906   4.265
  523SOL    HW2 2469   6.592   6.953   4.115
  524SOL     OW 2470   4.130   1.238   5.564
  524SOL    HW1 2471   4.031   1.239   5.553
  524SOL    HW2 2472   4.155   1.296   5.642
  525SOL     OW 2473   2.620   2.474   6.867
  525SOL    HW1 2474   2.679   2.394   6.872
  525SOL    HW2 2475   2.550   2.468   6.939
  526SOL     OW 2476   4.271   5.397   4.641
  526SOL    HW1 2477   4.340   5.469   4.628
  526SOL    HW2 2478   4.287   5.323   4.576
  527SOL     OW 2479   0.723   2.217   0.046
  527SOL    HW1 2480   0.637   2.243   0.003
  527SOL    HW2 2481   0.799   2.261   7.023
  528SOL     OW 2482   1.953   1.638   5.588
  528SOL    HW1 2483   1.890   1.572   5.546
  528SOL    HW2 2484   1.989   1.600   5.673
  529SOL     OW 2485   6.591   4.873   3.965
  529SOL    HW1 2486   6.662   4.803   3.969
  529SOL    HW2 2487   6.572   4.896   3.869
  530SOL     OW 2488   0.780   2.325   5.170
  530SOL    HW1 2489   0.684   2.303   5.189
  530SOL    HW2 2490   0.808   2.404   5.225
  531SOL     OW 2491   0.018   0.739   0.171
  531SOL    HW1 2492   6.952   0.761   0.206
  531SOL    HW2 2493   0.073   0.823   0.168
  532SOL     OW 2494   2.107   0.342   5.823
  532SOL    HW1 2495   2.145   0.432   5.844
  532SOL    HW2 2496   2.152   0.273   5.879
  533SOL     OW 2497   5.204   0.386   4.715
  533SOL    HW1 2498   5.245   0.361   4.627
  533SOL    HW2 2499   5.157   0.474   4.707
  534SOL     OW 2500   3.186   5.177   3.004
  534SOL    HW1 2501   3.141   5.119   3.072
  534SOL    HW2 2502   3.125   5.190   2.925
  535SOL     OW 2503   6.365   4.154   2.587
  535SOL    HW1 2504   6.378   4.056   2.605
  535SOL    HW2 2505   6.388   4.173   2.491
  536SOL     OW 2506   0.842   6.369   0.886
  536SOL    HW1 2507   0.768   6.384   0.952
  536SOL    HW2 2508   0.920   6.426   0.911
  537SOL     OW 2509   2.137   0.058   3.593
  537SOL    HW1 2510   2.124   6.988   3.620
  537SOL    HW2 2511   2.093   0.074   3.505
  538SOL     OW 2512   1.624   4.722   4.076
  538SOL    HW1 2513   1.551   4.785   4.103
  538SOL    HW2 2514   1.598   4.628   4.100
  539SOL     OW 2515   1.562   6.123   1.297
  539SOL    HW1 2516   1.622   6.048   1.268
  539SOL    HW2 2517   1.473   6.113   1.253
  540SOL     OW 2518   1.465   3.002   1.343
  540SOL    HW1 2519   1.491   3.098   1.357
  540SOL    HW2 2520   1.499   2.947   1.419
  541SOL     OW 2521   3.822   5.137   5.344
  541SOL    HW1 2522   3.866   5.196   5.277
  541SOL    HW2 2523   3.839   5.041   5.320
  542SOL     OW 2524   5.672   6.612   6.252
  542SOL    HW1 2525   5.666   6.519   6.289
  542SOL    HW2 2526   5.705   6.674   6.324
  543SOL     OW 2527   6.435   5.888   0.715
  543SOL    HW1 2528   6.471   5.950   0.645
  543SOL    HW2 2529   6.504   5.877   0.787
  544SOL     OW 2530   0.856   5.600   0.433
  544SOL    HW1 2531   0.895   5.691   0.421
  544SOL    HW2 2532   0.869   5.547   0.349
  545SOL     OW 2533   3.550   1.592   4.197
  545SOL    HW1 2534   3.602   1.560   4.276
  545SOL    HW2 2535   3.565   1.691   4.186
  546SOL     OW 2536   1.636   2.738   0.315
  546SOL    HW1 2537   1.621   2.644   0.344
  546SOL    HW2 2538   1.656   2.796   0.394
  547SOL     OW 2539   2.926   1.647   0.428
  547SOL    HW1 2540   3.019   1.673   0.404
  547SOL    HW2 2541   2.862   1.684   0.360
  548SOL     OW 2542   2.918   3.135   5.248
  548SOL    HW1 2543   2.907   3.228   5.283
  548SOL    HW2 2544   2.857   3.074   5.297
  549SOL     OW 2545   0.843   4.024   1.075
  549SOL    HW1 2546   0.921   4.076   1.111
  549SOL    HW2 2547   0.765   4.085   1.064
  550SOL     OW 2548   6.427   3.319   0.537
  550SOL    HW1 2549   6.392   3.343   0.446
  550SOL    HW2 2550   6.509   3.373   0.557
  551SOL     OW 2551   0.565   1.231   0.364
  551SOL    HW1 2552   0.610   1.320   0.358
  551SOL    HW2 2553   0.505   1.218   0.286
  552SOL     OW 2554   4.591   4.677   0.557
  552SOL    HW1 2555   4.587   4.762   0.505
  552SOL    HW2 2556   4.685   4.643   0.559
  553SOL     OW 2557   1.287   2.516   1.358
  553SOL    HW1 2558   1.258   2.516   1.262
  553SOL    HW2 2559   1.305   2.610   1.387
  554SOL     OW 2560   4.883   5.135   4.903
  554SOL    HW1 2561   4.944   5.125   4.824
  554SOL    HW2 2562   4.796   5.090   4.883
  555SOL     OW 2563   1.279   4.519   5.246
  555SOL    HW1 2564   1.216   4.461   5.298
  555SOL    HW2 2565   1.254   4.516   5.149
  556SOL     OW 2566   5.821   3.491   2.765
  556SOL    HW1 2567   5.743   3.468   2.707
  556SOL    HW2 2568   5.899   3.434   2.739
  557SOL     OW 2569   6.965   5.670   6.023
  557SOL    HW1 2570   0.011   5.654   6.092
  557SOL    HW2 2571   6.931   5.582   5.990
  558SOL     OW 2572   4.424   3.681   5.563
  558SOL    HW1 2573   4.429   3.780   5.572
  558SOL    HW2 2574   4.407   3.657   5.467
  559SOL     OW 2575   6.103   5.502   6.327
  559SOL    HW1 2576   6.029   5.444   6.360
  559SOL    HW2 2577   6.177   5.445   6.292
  560SOL     OW 2578   4.278   6.540   6.935
  560SOL    HW1 2579   4.249   6.450   6.901
  560SOL    HW2 2580   4.199   6.600   6.941
  561SOL     OW 2581   5.500   6.532   2.067
  561SOL    HW1 2582   5.444   6.523   1.984
  561SOL    HW2 2583   5.591   6.564   2.042
  562SOL     OW 2584   6.421   1.094   0.193
  562SOL    HW1 2585   6.463   1.184   0.183
  562SOL    HW2 2586   6.391   1.081   0.288
  563SOL     OW 2587   2.999   0.627   4.693
  563SOL    HW1 2588   3.079   0.588   4.646
  563SOL    HW2 2589   2.917   0.609   4.639
  564SOL     OW 2590   0.694   2.110   6.149
  564SOL    HW1 2591   0.639   2.094   6.068
  564SOL    HW2 2592   0.677   2.037   6.216
  565SOL     OW 2593   4.527   4.273   5.862
  565SOL    HW1 2594   4.501   4.318   5.776
  565SOL    HW2 2595   4.592   4.199   5.842
  566SOL     OW 2596   6.217   5.015   2.343
  566SOL    HW1 2597   6.223   5.003   2.244
  566SOL    HW2 2598   6.262   4.938   2.389
  567SOL     OW 2599   3.628   3.899   5.137
  567SOL    HW1 2600   3.574   3.864   5.214
  567SOL    HW2 2601   3.623   3.834   5.061
  568SOL     OW 2602   1.756   1.189   6.344
  568SOL    HW1 2603   1.851   1.220   6.346
  568SOL    HW2 2604   1.734   1.145   6.431
  569SOL     OW 2605   2.124   4.063   6.832
  569SOL    HW1 2606   2.135   3.987   6.767
  569SOL    HW2 2607   2.177   4.142   6.800
  570SOL     OW 2608   0.029   6.439   0.652
  570SOL    HW1 2609   0.096   6.469   0.720
  570SOL    HW2 2610   6.965   6.432   0.695
  571SOL     OW 2611   4.185   5.950   2.746
  571SOL    HW1 2612   4.200   5.975   2.650
  571SOL    HW2 2613   4.236   6.013   2.805
  572SOL     OW 2614   1.630   4.348   4.753
  572SOL    HW1 2615   1.634   4.301   4.841
  572SOL    HW2 2616   1.710   4.407   4.743
  573SOL     OW 2617   2.934   1.928   0.056
  573SOL    HW1 2618   2.987   1.973   0.128
  573SOL    HW2 2619   2.959   1.832   0.052
  574SOL     OW 2620   2.787   1.988   4.040
  574SOL    HW1 2621   2.740   2.072   4.067
  574SOL    HW2 2622   2.826   1.999   3.949
  575SOL     OW 2623   5.236   2.291   6.587
  575SOL    HW1 2624   5.314   2.237   6.618
  575SOL    HW2 2625   5.252   2.387   6.610
  576SOL     OW 2626   0.974   2.689   2.507
  576SOL    HW1 2627   1.058   2.732   2.473
  576SOL    HW2 2628   0.967   2.704   2.606
  577SOL     OW 2629   3.836   1.848   4.560
  577SOL    HW1 2630   3.744   1.817   4.583
  577SOL    HW2 2631   3.837   1.948   4.558
  578SOL     OW 2632   0.137   3.796   4.035
  578SOL    HW1 2633   0.094   3.751   4.113
  578SOL    HW2 2634   0.148   3.730   3.960
  579SOL     OW 2635   3.850   3.715   0.382
  579SOL    HW1 2636   3.862   3.702   0.284
  579SOL    HW2 2637   3.752   3.712   0.404
  580SOL     OW 2638   0.441   6.871   0.241
  580SOL    HW1 2639   0.365   6.807   0.242
  580SOL    HW2 2640   0.501   6.854   0.319
  581SOL     OW 2641   4.145   3.300   2.714
  581SOL    HW1 2642   4.188   3.279   2.626
  581SOL    HW2 2643   4.208   3.276   2.789
  582SOL     OW 2644   6.474   4.200   1.055
  582SOL    HW1 2645   6.500   4.106   1.079
  582SOL    HW2 2646   6.407   4.197   0.981
  583SOL     OW 2647   2.536   6.522   6.804
  583SOL    HW1 2648   2.439   6.503   6.823
  583SOL    HW2 2649   2.553   6.620   6.814
  584SOL     OW 2650   1.013   5.060   4.784
  584SOL    HW1 2651   0.999   5.016   4.873
  584SOL    HW2 2652   1.108   5.091   4.777
  585SOL     OW 2653   5.876   0.662   5.552
  585SOL    HW1 2654   5.917   0.748   5.581
  585SOL    HW2 2655   5.778   0.675   5.537
  586SOL     OW 2656   2.839   6.016   1.433
  586SOL    HW1 2657   2.939   6.013   1.439
  586SOL    HW2 2658   2.809   5.957   1.357
  587SOL     OW 2659   1.620   3.603   5.818
  587SOL    HW1 2660   1.556   3.619   5.893
  587SOL    HW2 2661   1.690   3.538   5.848
  588SOL     OW 2662   2.268   0.335   1.457
  588SOL    HW1 2663   2.208   0.410   1.429
  588SOL    HW2 2664   2.362   0.367   1.458
  589SOL     OW 2665   4.223   5.098   1.945
  589SOL    HW1 2666   4.185   5.169   2.004
  589SOL    HW2 2667   4.270   5.141   1.867
  590SOL     OW 2668   6.441   3.041   1.802
  590SOL    HW1 2669   6.522   3.098   1.806
  590SOL    HW2 2670   6.368   3.089   1.754
  591SOL     OW 2671   2.579   6.900   2.890
  591SOL    HW1 2672   2.650   6.939   2.949
  591SOL    HW2 2673   2.574   6.953   2.805
  592SOL     OW 2674   5.043   0.201   5.780
  592SOL    HW1 2675   4.992   0.236   5.859
  592SOL    HW2 2676   5.029   0.103   5.772
  593SOL     OW 2677   6.875   1.223   4.694
  593SOL    HW1 2678   6.956   1.164   4.699
  593SOL    HW2 2679   6.900   1.311   4.653
  594SOL     OW 2680   5.409   2.461   1.320
  594SOL    HW1 2681   5.394   2.405   1.239
  594SOL    HW2 2682   5.447   2.404   1.393
  595SOL     OW 2683   4.047   6.874   3.877
  595SOL    HW1 2684   4.080   6.782   3.859
  595SOL    HW2 2685   4.121   6.940   3.861
  596SOL     OW 2686   0.808   4.330   1.166
  596SOL    HW1 2687   0.900   4.307   1.135
  596SOL    HW2 2688   0.745   4.327   1.088
  597SOL     OW 2689   4.058   2.497   5.963
  597SOL    HW1 2690   4.004   2.435   5.906
  597SOL    HW2 2691   4.073   2.456   6.053
  598SOL     OW 2692   2.954   4.026   1.153
  598SOL    HW1 2693   2.892   4.000   1.227
  598SOL    HW2 2694   3.039   3.974   1.160
  599SOL     OW 2695   6.388   5.702   3.495
  599SOL    HW1 2696   6.309   5.648   3.524
  599SOL    HW2 2697   6.441   5.730   3.575
  600SOL     OW 2698   2.699   1.298   1.725
  600SOL    HW1 2699   2.798   1.297   1.712
  600SOL    HW2 2700   2.673   1.379   1.776
  601SOL     OW 2701   1.830   4.805   3.009
  601SOL    HW1 2702   1.863   4.878   3.068
  601SOL    HW2 2703   1.753   4.838   2.954
  602SOL     OW 2704   6.716   0.282   2.197
  602SOL    HW1 2705   6.661   0.362   2.224
  602SOL    HW2 2706   6.812   0.309   2.190
  603SOL     OW 2707   4.144   1.734   3.241
  603SOL    HW1 2708   4.045   1.740   3.251
  603SOL    HW2 2709   4.188   1.797   3.306
  604SOL     OW 2710   0.464   3.779   5.602
  604SOL    HW1 2711   0.534   3.737   5.660
  604SOL    HW2 2712   0.382   3.796   5.656
  605SOL     OW 2713   5.625   0.436   4.377
  605SOL    HW1 2714   5.703   0.377   4.400
  605SOL    HW2 2715   5.540   0.393   4.407
  606SOL     OW 2716   2.846   0.159   2.833
  606SOL    HW1 2717   2.853   0.110   2.745
  606SOL    HW2 2718   2.829   0.093   2.906
  607SOL     OW 2719   3.671   0.692   4.146
  607SOL    HW1 2720   3.676   0.771   4.208
  607SOL    HW2 2721   3.642   0.611   4.197
  608SOL     OW 2722   5.189   3.013   1.392
  608SOL    HW1 2723   5.264   2.994   1.328
  608SOL    HW2 2724   5.167   2.930   1.442
  609SOL     OW 2725   3.106   4.111   5.041
  609SOL    HW1 2726   3.054   4.141   5.121
  609SOL    HW2 2727   3.043   4.097   4.964
  610SOL     OW 2728   6.118   1.757   4.542
  610SOL    HW1 2729   6.122   1.664   4.505
  610SOL    HW2 2730   6.100   1.821   4.467
  611SOL     OW 2731   5.450   6.725   0.018
  611SOL    HW1 2732   5.529   6.732   0.079
  611SOL    HW2 2733   5.467   6.778   6.960
  612SOL     OW 2734   2.142   5.300   6.243
  612SOL    HW1 2735   2.202   5.221   6.254
  612SOL    HW2 2736   2.178   5.359   6.170
  613SOL     OW 2737   3.832   1.048   6.575
  613SOL    HW1 2738   3.820   0.966   6.519
  613SOL    HW2 2739   3.808   1.128   6.520
  614SOL     OW 2740   4.688   3.263   1.083
  614SOL    HW1 2741   4.692   3.341   1.147
  614SOL    HW2 2742   4.764   3.201   1.102
  615SOL     OW 2743   5.154   6.651   0.567
  615SOL    HW1 2744   5.138   6.553   0.555
  615SOL    HW2 2745   5.066   6.699   0.572
  616SOL     OW 2746   4.894   0.975   4.428
  616SOL    HW1 2747   4.868   0.941   4.338
  616SOL    HW2 2748   4.992   0.959   4.442
  617SOL     OW 2749   6.596   6.623   4.636
  617SOL    HW1 2750   6.692   6.634   4.662
  617SOL    HW2 2751   6.548   6.568   4.704
  618SOL     OW 2752   5.516   4.522   0.742
  618SOL    HW1 2753   5.430   4.551   0.782
  618SOL    HW2 2754   5.500   4.446   0.679
  619SOL     OW 2755   2.221   7.025   6.515
  619SOL    HW1 2756   2.283   6.952   6.543
  619SOL    HW2 2757   2.193   0.051   6.596
  620SOL     OW 2758   4.520   1.954   2.160
  620SOL    HW1 2759   4.447   2.021   2.172
  620SOL    HW2 2760   4.563   1.968   2.070
  621SOL     OW 2761   3.263   0.458   6.444
  621SOL    HW1 2762   3.248   0.552   6.473
  621SOL    HW2 2763   3.225   0.395   6.511
  622SOL     OW 2764   0.376   3.466   5.749
  622SOL    HW1 2765   0.426   3.457   5.835
  622SOL    HW2 2766   0.418   3.408   5.679
  623SOL     OW 2767   6.564   1.152   3.009
  623SOL    HW1 2768   6.477   1.102   3.006
  623SOL    HW2 2769   6.602   1.146   3.101
  624SOL     OW 2770   6.778   1.383   6.578
  624SOL    HW1 2771   6.685   1.351   6.566
  624SOL    HW2 2772   6.789   1.419   6.671
  625SOL     OW 2773   3.143   1.393   1.744
  625SOL    HW1 2774   3.076   1.398   1.670
  625SOL    HW2 2775   3.235   1.409   1.708
  626SOL     OW 2776   0.618   5.823   3.652
  626SOL    HW1 2777   0.538   5.878   3.676
  626SOL    HW2 2778   0.591   5.754   3.585
  627SOL     OW 2779   6.595   5.370   6.522
  627SOL    HW1 2780   6.640   5.413   6.443
  627SOL    HW2 2781   6.543   5.290   6.491
  628SOL     OW 2782   3.674   4.663   6.485
  628SOL    HW1 2783   3.635   4.683   6.575
  628SOL    HW2 2784   3.666   4.565   6.467
  629SOL     OW 2785   1.479   6.960   0.021
  629SOL    HW1 2786   1.412   7.001   6.985
  629SOL    HW2 2787   1.484   7.012   0.105
  630SOL     OW 2788   6.750   2.142   1.361
  630SOL    HW1 2789   6.755   2.138   1.461
  630SOL    HW2 2790   6.786   2.230   1.329
  631SOL     OW 2791   1.882   3.306   3.203
  631SOL    HW1 2792   1.818   3.339   3.133
  631SOL    HW2 2793   1.972   3.346   3.188
  632SOL     OW 2794   3.085   4.498   0.974
  632SOL    HW1 2795   3.004   4.487   0.916
  632SOL    HW2 2796   3.068   4.569   1.042
  633SOL     OW 2797   0.985   5.840   0.380
  633SOL    HW1 2798   1.063   5.826   0.441
  633SOL    HW2 2799   0.937   5.924   0.407
  634SOL     OW 2800   3.028   3.261   5.653
  634SOL    HW1 2801   3.002   3.294   5.563
  634SOL    HW2 2802   3.122   3.228   5.651
  635SOL     OW 2803   6.000   6.696   6.997
  635SOL    HW1 2804   5.998   6.701   0.071
  635SOL    HW2 2805   6.091   6.723   6.964
  636SOL     OW 2806   2.399   1.293   4.850
  636SOL    HW1 2807   2.488   1.282   4.894
  636SOL    HW2 2808   2.389   1.387   4.816
  637SOL     OW 2809   6.851   1.623   2.412
  637SOL    HW1 2810   6.910   1.542   2.410
  637SOL    HW2 2811   6.811   1.632   2.503
  638SOL     OW 2812   6.786   3.623   5.060
  638SOL    HW1 2813   6.770   3.722   5.065
  638SOL    HW2 2814   6.792   3.586   5.152
  639SOL     OW 2815   5.820   3.226   1.893
  639SOL    HW1 2816   5.736   3.188   1.854
  639SOL    HW2 2817   5.819   3.325   1.887
  640SOL     OW 2818   6.999   3.580   2.947
  640SOL    HW1 2819   6.978   3.527   2.864
  640SOL    HW2 2820   6.922   3.640   2.968
  641SOL     OW 2821   2.310   5.472   4.422
  641SOL    HW1 2822   2.323   5.466   4.521
  641SOL    HW2 2823   2.226   5.424   4.397
  642SOL     OW 2824   0.627   5.323   4.928
  642SOL    HW1 2825   0.692   5.389   4.967
  642SOL    HW2 2826   0.673   5.271   4.855
  643SOL     OW 2827   4.412   5.385   0.598
  643SOL    HW1 2828   4.416   5.449   0.674
  643SOL    HW2 2829   4.341   5.317   0.616
  644SOL     OW 2830   6.054   0.164   4.295
  644SOL    HW1 2831   6.108   0.106   4.355
  644SOL    HW2 2832   6.110   0.239   4.261
  645SOL     OW 2833   4.046   6.133   1.925
  645SOL    HW1 2834   4.119   6.195   1.897
  645SOL    HW2 2835   4.058   6.044   1.882
  646SOL     OW 2836   3.806   1.849   5.210
  646SOL    HW1 2837   3.712   1.818   5.221
  646SOL    HW2 2838   3.867   1.770   5.200
  647SOL     OW 2839   2.790   2.074   0.340
  647SOL    HW1 2840   2.872   2.018   0.326
  647SOL    HW2 2841   2.738   2.038   0.417
  648SOL     OW 2842   5.627   1.668   4.017
  648SOL    HW1 2843   5.545   1.678   3.960
  648SOL    HW2 2844   5.615   1.719   4.102
  649SOL     OW 2845   2.583   5.884   0.353
  649SOL    HW1 2846   2.503   5.903   0.295
  649SOL    HW2 2847   2.625   5.798   0.325
  650SOL     OW 2848   1.646   3.158   0.773
  650SOL    HW1 2849   1.740   3.124   0.763
  650SOL    HW2 2850   1.607   3.123   0.859
  651SOL     OW 2851   0.458   1.283   3.384
  651SOL    HW1 2852   0.366   1.318   3.402
  651SOL    HW2 2853   0.460   1.237   3.295
  652SOL     OW 2854   3.718   6.065   0.661
  652SOL    HW1 2855   3.675   6.116   0.736
  652SOL    HW2 2856   3.811   6.039   0.687
  653SOL     OW 2857   1.273   0.319   2.714
  653SOL    HW1 2858   1.366   0.354   2.721
  653SOL    HW2 2859   1.213   0.392   2.678
  654SOL     OW 2860   0.987   6.929   5.810
  654SOL    HW1 2861   0.918   6.991   5.846
  654SOL    HW2 2862   0.950   6.881   5.731
  655SOL     OW 2863   0.951   3.579   0.766
  655SOL    HW1 2864   1.030   3.595   0.707
  655SOL    HW2 2865   0.945   3.651   0.835
  656SOL     OW 2866   2.382   0.515   6.847
  656SOL    HW1 2867   2.377   0.610   6.878
  656SOL    HW2 2868   2.297   0.491   6.802
  657SOL     OW 2869   3.850   3.605   4.056
  657SOL    HW1 2870   3.923   3.544   4.025
  657SOL    HW2 2871   3.785   3.621   3.981
  658SOL     OW 2872   1.756   0.596   3.849
  658SOL    HW1 2873   1.745   0.644   3.936
  658SOL    HW2 2874   1.789   0.660   3.779
  659SOL     OW 2875   1.939   5.878   6.621
  659SOL    HW1 2876   2.022   5.921   6.658
  659SOL    HW2 2877   1.965   5.809   6.554
  660SOL     OW 2878   5.371   4.016   2.395
  660SOL    HW1 2879   5.307   3.948   2.361
  660SOL    HW2 2880   5.430   3.974   2.465
  661SOL     OW 2881   4.422   5.351   3.683
  661SOL    HW1 2882   4.480   5.280   3.643
  661SOL    HW2 2883   4.333   5.312   3.707
  662SOL     OW 2884   6.001   3.627   0.072
  662SOL    HW1 2885   5.918   3.572   0.060
  662SOL    HW2 2886   6.043   3.645   7.009
  663SOL     OW 2887   1.131   4.720   6.558
  663SOL    HW1 2888   1.191   4.783   6.508
  663SOL    HW2 2889   1.036   4.749   6.550
  664SOL     OW 2890   1.789   0.102   5.906
  664SOL    HW1 2891   1.779   0.130   5.810
  664SOL    HW2 2892   1.756   0.175   5.966
  665SOL     OW 2893   2.514   4.445   3.358
  665SOL    HW1 2894   2.541   4.482   3.446
  665SOL    HW2 2895   2.537   4.510   3.286
  666SOL     OW 2896   3.718   0.771   6.763
  666SOL    HW1 2897   3.624   0.805   6.756
  666SOL    HW2 2898   3.723   0.681   6.720
  667SOL     OW 2899   1.188   3.159   2.339
  667SOL    HW1 2900   1.114   3.220   2.369
  667SOL    HW2 2901   1.257   3.213   2.291
  668SOL     OW 2902   5.277   0.286   0.862
  668SOL    HW1 2903   5.314   0.373   0.829
  668SOL    HW2 2904   5.299   0.214   0.796
  669SOL     OW 2905   0.289   5.453   2.715
  669SOL    HW1 2906   0.338   5.507   2.648
  669SOL    HW2 2907   0.225   5.511   2.765
  670SOL     OW 2908   3.764   3.982   2.582
  670SOL    HW1 2909   3.785   4.035   2.663
  670SOL    HW2 2910   3.841   3.983   2.519
  671SOL     OW 2911   2.284   0.247   6.378
  671SOL    HW1 2912   2.241   0.161   6.407
  671SOL    HW2 2913   2.382   0.232   6.365
  672SOL     OW 2914   1.165   2.595   2.968
  672SOL    HW1 2915   1.243   2.648   3.002
  672SOL    HW2 2916   1.165   2.505   3.011
  673SOL     OW 2917   4.907   0.133   6.901
  673SOL    HW1 2918   4.874   0.192   6.827
  673SOL    HW2 2919   4.909   0.184   6.987
  674SOL     OW 2920   0.311   2.460   4.776
  674SOL    HW1 2921   0.305   2.483   4.873
  674SOL    HW2 2922   0.248   2.385   4.756
  675SOL     OW 2923   5.744   6.387   3.923
  675SOL    HW1 2924   5.649   6.361   3.937
  675SOL    HW2 2925   5.782   6.333   3.848
  676SOL     OW 2926   2.562   5.327   4.388
  676SOL    HW1 2927   2.483   5.388   4.394
  676SOL    HW2 2928   2.590   5.318   4.293
  677SOL     OW 2929   4.416   6.457   0.161
  677SOL    HW1 2930   4.359   6.491   0.086
  677SOL    HW2 2931   4.369   6.382   0.208
  678SOL     OW 2932   2.085   1.269   5.960
  678SOL    HW1 2933   2.179   1.237   5.957
  678SOL    HW2 2934   2.032   1.225   5.887
  679SOL     OW 2935   6.313   0.330   2.197
  679SOL    HW1 2936   6.387   0.262   2.196
  679SOL    HW2 2937   6.309   0.377   2.109
  680SOL     OW 2938   5.609   4.244   4.964
  680SOL    HW1 2939   5.578   4.161   5.011
  680SOL    HW2 2940   5.604   4.230   4.865
  681SOL     OW 2941   1.208   6.608   2.099
  681SOL    HW1 2942   1.223   6.688   2.157
  681SOL    HW2 2943   1.217   6.635   2.003
  682SOL     OW 2944   0.167   0.310   6.189
  682SOL    HW1 2945   0.071   0.283   6.185
  682SOL    HW2 2946   0.187   0.346   6.280
  683SOL     OW 2947   5.072   1.631   1.862
  683SOL    HW1 2948   5.126   1.548   1.854
  683SOL    HW2 2949   5.041   1.642   1.956
  684SOL     OW 2950   0.112   5.982   6.333
  684SOL    HW1 2951   0.114   5.974   6.233
  684SOL    HW2 2952   0.044   5.918   6.370
  685SOL     OW 2953   6.403   0.771   6.383
  685SOL    HW1 2954   6.401   0.672   6.379
  685SOL    HW2 2955   6.315   0.805   6.417
  686SOL     OW 2956   5.671   5.145   2.407
  686SOL    HW1 2957   5.719   5.066   2.369
  686SOL    HW2 2958   5.722   5.182   2.484
  687SOL     OW 2959   5.449   1.912   5.956
  687SOL    HW1 2960   5.439   1.982   6.027
  687SOL    HW2 2961   5.433   1.822   5.995
  688SOL     OW 2962   6.351   3.301   5.164
  688SOL    HW1 2963   6.337   3.212   5.120
  688SOL    HW2 2964   6.276   3.362   5.139
  689SOL     OW 2965   5.415   4.296   4.440
  689SOL    HW1 2966   5.510   4.298   4.410
  689SOL    HW2 2967   5.360   4.246   4.373
  690SOL     OW 2968   0.088   3.300   4.400
  690SOL    HW1 2969   0.137   3.255   4.326
  690SOL    HW2 2970   7.023   3.328   4.369
  691SOL     OW 2971   6.983   2.963   6.796
  691SOL    HW1 2972   0.015   3.010   6.729
  691SOL    HW2 2973   6.895   3.012   6.804
  692SOL     OW 2974   2.656   0.189   3.512
  692SOL    HW1 2975   2.618   0.268   3.464
  692SOL    HW2 2976   2.586   0.149   3.571
  693SOL     OW 2977   6.574   1.790   3.311
  693SOL    HW1 2978   6.630   1.852   3.366
  693SOL    HW2 2979   6.591   1.806   3.214
  694SOL     OW 2980   1.564   0.480   2.284
  694SOL    HW1 2981   1.659   0.508   2.296
  694SOL    HW2 2982   1.508   0.520   2.357
  695SOL     OW 2983   4.431   5.528   6.378
  695SOL    HW1 2984   4.466   5.441   6.414
  695SOL    HW2 2985   4.421   5.593   6.453
  696SOL     OW 2986   5.310   6.174   2.217
  696SOL    HW1 2987   5.247   6.248   2.195
  696SOL    HW2 2988   5.383   6.208   2.275
  697SOL     OW 2989   1.640   3.729   3.825
  697SOL    HW1 2990   1.666   3.816   3.783
  697SOL    HW2 2991   1.617   3.663   3.753
  698SOL     OW 2992   4.780   5.645   3.890
  698SOL    HW1 2993   4.760   5.668   3.795
  698SOL    HW2 2994   4.695   5.619   3.937
  699SOL     OW 2995   1.095   4.421   6.582
  699SOL    HW1 2996   1.097   4.518   6.558
  699SOL    HW2 2997   1.028   4.374   6.524
  700SOL     OW 2998   1.903   1.761   4.867
  700SOL    HW1 2999   1.980   1.823   4.850
  700SOL    HW2 3000   1.938   1.670   4.889
  701SOL     OW 3001   1.021   4.629   4.932
  701SOL    HW1 3002   1.115   4.595   4.942
  701SOL    HW2 3003   1.021   4.729   4.936
  702SOL     OW 3004   6.000   5.940   5.235
  702SOL    HW1 3005   6.099   5.936   5.219
  702SOL    HW2 3006   5.978   5.899   5.323
  703SOL     OW 3007   5.171   4.384   6.356
  703SOL    HW1 3008   5.232   4.463   6.369
  703SOL    HW2 3009   5.144   4.379   6.260
  704SOL     OW 3010   2.321   6.883   1.970
  704SOL    HW1 3011   2.287   6.798   1.930
  704SOL    HW2 3012   2.400   6.864   2.027
  705SOL     OW 3013   0.682   2.006   3.749
  705SOL    HW1 3014   0.757   2.072   3.759
  705SOL    HW2 3015   0.717   1.913   3.761
  706SOL     OW 3016   5.073   3.218   4.329
  706SOL    HW1 3017   5.152   3.275   4.310
  706SOL    HW2 3018   5.097   3.148   4.396
  707SOL     OW 3019   5.192   2.685   2.880
  707SOL    HW1 3020   5.136   2.604   2.861
  707SOL    HW2 3021   5.224   2.683   2.974
  708SOL     OW 3022   4.219   0.750   2.290
  708SOL    HW1 3023   4.135   0.801   2.309
  708SOL    HW2 3024   4.249   0.704   2.374
  709SOL     OW 3025   1.078   5.397   6.829
  709SOL    HW1 3026   1.159   5.338   6.831
  709SOL    HW2 3027   1.051   5.418   6.923
  710SOL     OW 3028   3.182   3.963   2.691
  710SOL    HW1 3029   3.191   4.014   2.777
  710SOL    HW2 3030   3.247   3.887   2.690
  711SOL     OW 3031   0.444   0.888   4.830
  711SOL    HW1 3032   0.540   0.904   4.806
  711SOL    HW2 3033   0.435   0.883   4.929
  712SOL     OW 3034   0.261   3.772   2.983
  712SOL    HW1 3035   0.179   3.745   2.933
  712SOL    HW2 3036   0.326   3.815   2.921
  713SOL     OW 3037   3.234   3.796   4.662
  713SOL    HW1 3038   3.328   3.770   4.641
  713SOL    HW2 3039   3.227   3.823   4.758
  714SOL     OW 3040   4.826   4.667   5.129
  714SOL    HW1 3041   4.883   4.737   5.087
  714SOL    HW2 3042   4.735   4.668   5.086
  715SOL     OW 3043   6.060   0.021   6.477
  715SOL    HW1 3044   5.982   0.053   6.422
  715SOL    HW2 3045   6.136   7.023   6.417
  716SOL     OW 3046   6.304   5.154   0.897
  716SOL    HW1 3047   6.363   5.129   0.820
  716SOL    HW2 3048   6.235   5.219   0.866
  717SOL     OW 3049   6.259   3.284   6.242
  717SOL    HW1 3050   6.265   3.225   6.322
  717SOL    HW2 3051   6.348   3.326   6.224
  718SOL     OW 3052   2.714   2.757   6.824
  718SOL    HW1 3053   2.734   2.690   6.895
  718SOL    HW2 3054   2.709   2.710   6.735
  719SOL     OW 3055   5.368   4.505   0.038
  719SOL    HW1 3056   5.288   4.451   0.066
  719SOL    HW2 3057   5.339   4.575   6.998
  720SOL     OW 3058   3.844   1.522   5.751
  720SOL    HW1 3059   3.832   1.441   5.694
  720SOL    HW2 3060   3.865   1.494   5.845
  721SOL     OW 3061   1.191   6.874   5.473
  721SOL    HW1 3062   1.273   6.847   5.523
  721SOL    HW2 3063   1.161   6.964   5.503
  722SOL     OW 3064   5.025   6.973   5.076
  722SOL    HW1 3065   4.995   0.040   5.100
  722SOL    HW2 3066   4.949   6.924   5.033
  723SOL     OW 3067   1.413   3.373   1.766
  723SOL    HW1 3068   1.403   3.297   1.701
  723SOL    HW2 3069   1.331   3.430   1.763
  724SOL     OW 3070   0.330   1.640   5.202
  724SOL    HW1 3071   0.340   1.541   5.204
  724SOL    HW2 3072   0.415   1.682   5.235
  725SOL     OW 3073   2.678   5.237   2.326
  725SOL    HW1 3074   2.596   5.214   2.378
  725SOL    HW2 3075   2.698   5.163   2.261
  726SOL     OW 3076   5.483   6.263   5.312
  726SOL    HW1 3077   5.535   6.222   5.387
  726SOL    HW2 3078   5.452   6.190   5.250
  727SOL     OW 3079   2.363   4.327   4.484
  727SOL    HW1 3080   2.326   4.277   4.406
  727SOL    HW2 3081   2.317   4.299   4.567
  728SOL     OW 3082   6.783   2.902   5.795
  728SOL    HW1 3083   6.685   2.892   5.777
  728SOL    HW2 3084   6.819   2.816   5.832
  729SOL     OW 3085   4.258   1.302   0.837
  729SOL    HW1 3086   4.288   1.268   0.926
  729SOL    HW2 3087   4.158   1.296   0.831
  730SOL     OW 3088   5.807   1.485   4.448
  730SOL    HW1 3089   5.810   1.430   4.365
  730SOL    HW2 3090   5.850   1.574   4.430
  731SOL     OW 3091   7.004   2.304   4.239
  731SOL    HW1 3092   6.943   2.373   4.277
  731SOL    HW2 3093   0.072   2.338   4.239
  732SOL     OW 3094   0.628   3.633   3.543
  732SOL    HW1 3095   0.648   3.718   3.494
  732SOL    HW2 3096   0.676   3.633   3.631
  733SOL     OW 3097   4.288   5.208   4.436
  733SOL    HW1 3098   4.285   5.125   4.492
  733SOL    HW2 3099   4.221   5.200   4.362
  734SOL     OW 3100   0.910   5.854   6.977
  734SOL    HW1 3101   0.952   5.924   6.919
  734SOL    HW2 3102   0.842   5.803   6.924
  735SOL     OW 3103   2.823   4.691   6.836
  735SOL    HW1 3104   2.839   4.594   6.823
  735SOL    HW2 3105   2.744   4.704   6.897
  736SOL     OW 3106   5.782   0.639   2.486
  736SOL    HW1 3107   5.778   0.662   2.389
  736SOL    HW2 3108   5.710   0.572   2.507
  737SOL     OW 3109   5.314   4.111   0.277
  737SOL    HW1 3110   5.345   4.020   0.247
  737SOL    HW2 3111   5.393   4.172   0.284
  738SOL     OW 3112   1.033   4.142   3.114
  738SOL    HW1 3113   1.001   4.098   3.199
  738SOL    HW2 3114   1.039   4.240   3.128
  739SOL     OW 3115   4.705   6.638   6.216
  739SOL    HW1 3116   4.639   6.563   6.210
  739SOL    HW2 3117   4.725   6.672   6.124
  740SOL     OW 3118   5.135   6.930   0.163
  740SOL    HW1 3119   5.234   6.940   0.177
  740SOL    HW2 3120   5.106   6.838   0.187
  741SOL     OW 3121   2.608   0.485   4.068
  741SOL    HW1 3122   2.583   0.394   4.100
  741SOL    HW2 3123   2.708   0.495   4.071
  742SOL     OW 3124   1.153   6.875   2.612
  742SOL    HW1 3125   1.178   6.965   2.649
  742SOL    HW2 3126   1.189   6.866   2.519
  743SOL     OW 3127   1.488   3.118   4.073
  743SOL    HW1 3128   1.476   3.204   4.024
  743SOL    HW2 3129   1.480   3.134   4.171
  744SOL     OW 3130   6.475   5.107   0.574
  744SOL    HW1 3131   6.434   5.027   0.619
  744SOL    HW2 3132   6.410   5.146   0.509
  745SOL     OW 3133   1.671   5.712   2.966
  745SOL    HW1 3134   1.641   5.662   2.885
  745SOL    HW2 3135   1.734   5.785   2.939
  746SOL     OW 3136   3.437   0.262   3.174
  746SOL    HW1 3137   3.467   0.220   3.259
  746SOL    HW2 3138   3.346   0.301   3.186
  747SOL     OW 3139   6.370   3.521   1.050
  747SOL    HW1 3140   6.322   3.451   1.103
  747SOL    HW2 3141   6.342   3.612   1.081
  748SOL     OW 3142   3.715   3.011   2.737
  748SOL    HW1 3143   3.772   3.059   2.670
  748SOL    HW2 3144   3.650   2.953   2.690
  749SOL     OW 3145   5.910   2.357   5.070
  749SOL    HW1 3146   5.885   2.375   4.975
  749SOL    HW2 3147   5.848   2.407   5.131
  750SOL     OW 3148   3.136   3.333   1.486
  750SOL    HW1 3149   3.224   3.287   1.502
  750SOL    HW2 3150   3.079   3.276   1.427
  751SOL     OW 3151   5.267   1.489   0.543
  751SOL    HW1 3152   5.327   1.568   0.530
  751SOL    HW2 3153   5.253   1.443   0.455
  752SOL     OW 3154   4.322   0.938   1.814
  752SOL    HW1 3155   4.299   0.841   1.827
  752SOL    HW2 3156   4.350   0.977   1.902
  753SOL     OW 3157   4.051   1.655   2.629
  753SOL    HW1 3158   3.994   1.573   2.633
  753SOL    HW2 3159   4.036   1.702   2.542
  754SOL     OW 3160   5.617   5.736   0.339
  754SOL    HW1 3161   5.665   5.816   0.376
  754SOL    HW2 3162   5.525   5.731   0.378
  755SOL     OW 3163   6.335   5.733   2.578
  755SOL    HW1 3164   6.341   5.779   2.667
  755SOL    HW2 3165   6.297   5.641   2.591
  756SOL     OW 3166   3.332   6.473   3.765
  756SOL    HW1 3167   3.242   6.505   3.795
  756SOL    HW2 3168   3.320   6.395   3.703
  757SOL     OW 3169   6.663   1.114   3.516
  757SOL    HW1 3170   6.701   1.035   3.563
  757SOL    HW2 3171   6.565   1.122   3.536
  758SOL     OW 3172   4.640   2.308   1.060
  758SOL    HW1 3173   4.645   2.256   0.975
  758SOL    HW2 3174   4.710   2.275   1.123
  759SOL     OW 3175   2.040   1.214   1.225
  759SOL    HW1 3176   2.130   1.254   1.243
  759SOL    HW2 3177   1.997   1.260   1.148
  760SOL     OW 3178   4.849   2.141   5.752
  760SOL    HW1 3179   4.753   2.113   5.754
  760SOL    HW2 3180   4.885   2.130   5.659
  761SOL     OW 3181   5.398   1.043   6.656
  761SOL    HW1 3182   5.354   0.953   6.652
  761SOL    HW2 3183   5.471   1.048   6.588
  762SOL     OW 3184   2.144   4.669   4.604
  762SOL    HW1 3185   2.055   4.711   4.591
  762SOL    HW2 3186   2.140   4.604   4.680
  763SOL     OW 3187   6.305   5.231   6.836
  763SOL    HW1 3188   6.346   5.311   6.792
  763SOL    HW2 3189   6.213   5.255   6.869
  764SOL     OW 3190   5.710   1.260   2.878
  764SOL    HW1 3191   5.648   1.318   2.931
  764SOL    HW2 3192   5.724   1.174   2.927
  765SOL     OW 3193   0.192   6.875   3.185
  765SOL    HW1 3194   0.241   6.822   3.253
  765SOL    HW2 3195   0.094   6.872   3.204
  766SOL     OW 3196   6.664   6.626   0.099
  766SOL    HW1 3197   6.610   6.666   0.025
  766SOL    HW2 3198   6.623   6.539   0.127
  767SOL     OW 3199   6.051   5.944   1.635
  767SOL    HW1 3200   5.993   5.896   1.701
  767SOL    HW2 3201   5.997   6.010   1.584
  768SOL     OW 3202   3.088   6.619   4.107
  768SOL    HW1 3203   3.180   6.585   4.125
  768SOL    HW2 3204   3.079   6.711   4.145
  769SOL     OW 3205   3.910   0.926   0.517
  769SOL    HW1 3206   3.880   1.018   0.492
  769SOL    HW2 3207   3.894   0.863   0.441
  770SOL     OW 3208   2.943   4.878   4.400
  770SOL    HW1 3209   2.981   4.926   4.321
  770SOL    HW2 3210   2.883   4.804   4.368
  771SOL     OW 3211   0.694   5.832   4.777
  771SOL    HW1 3212   0.610   5.792   4.814
  771SOL    HW2 3213   0.721   5.911   4.832
  772SOL     OW 3214   0.188   4.214   5.898
  772SOL    HW1 3215   0.251   4.206   5.821
  772SOL    HW2 3216   0.095   4.194   5.867
  773SOL     OW 3217   0.192   3.292   2.248
  773SOL    HW1 3218   0.157   3.201   2.268
  773SOL    HW2 3219   0.153   3.358   2.313
  774SOL     OW 3220   1.526   1.083   1.769
  774SOL    HW1 3221   1.434   1.119   1.755
  774SOL    HW2 3222   1.535   0.996   1.721
  775SOL     OW 3223   1.608   2.507   4.177
  775SOL    HW1 3224   1.673   2.551   4.239
  775SOL    HW2 3225   1.597   2.564   4.095
  776SOL     OW 3226   2.104   0.649   4.964
  776SOL    HW1 3227   2.204   0.642   4.961
  776SOL    HW2 3228   2.070   0.605   5.048
  777SOL     OW 3229   4.355   6.879   6.727
  777SOL    HW1 3230   4.260   6.851   6.711
  777SOL    HW2 3231   4.398   6.817   6.792
  778SOL     OW 3232   4.258   5.304   4.890
  778SOL    HW1 3233   4.220   5.212   4.887
  778SOL    HW2 3234   4.258   5.343   4.798
  779SOL     OW 3235   0.729   0.414   2.192
  779SOL    HW1 3236   0.786   0.340   2.157
  779SOL    HW2 3237   0.696   0.469   2.115
  780SOL     OW 3238   5.352   2.683   4.887
  780SOL    HW1 3239   5.384   2.704   4.980
  780SOL    HW2 3240   5.265   2.731   4.871
  781SOL     OW 3241   0.549   2.718   6.521
  781SOL    HW1 3242   0.575   2.719   6.425
  781SOL    HW2 3243   0.631   2.716   6.578
  782SOL     OW 3244   6.974   4.626   0.444
  782SOL    HW1 3245   0.026   4.570   0.474
  782SOL    HW2 3246   6.974   4.634   0.345
  783SOL     OW 3247   2.266   4.717   6.916
  783SOL    HW1 3248   2.175   4.719   6.957
  783SOL    HW2 3249   2.283   4.626   6.877
  784SOL     OW 3250   5.133   5.162   3.455
  784SOL    HW1 3251   5.087   5.083   3.495
  784SOL    HW2 3252   5.199   5.199   3.520
  785SOL     OW 3253   6.213   2.316   4.204
  785SOL    HW1 3254   6.291   2.272   4.249
  785SOL    HW2 3255   6.224   2.310   4.105
  786SOL     OW 3256   6.187   6.568   0.500
  786SOL    HW1 3257   6.138   6.620   0.570
  786SOL    HW2 3258   6.277   6.542   0.536
  787SOL     OW 3259   4.573   0.830   6.855
  787SOL    HW1 3260   4.593   0.855   6.950
  787SOL    HW2 3261   4.658   0.832   6.802
  788SOL     OW 3262   1.015   4.429   3.147
  788SOL    HW1 3263   1.026   4.475   3.059
  788SOL    HW2 3264   0.945   4.477   3.201
  789SOL     OW 3265   5.317   2.694   0.916
  789SOL    HW1 3266   5.266   2.780   0.923
  789SOL    HW2 3267   5.380   2.686   0.994
  790SOL     OW 3268   3.342   0.492   3.719
  790SOL    HW1 3269   3.298   0.402   3.718
  790SOL    HW2 3270   3.438   0.482   3.745
  791SOL     OW 3271   4.213   1.565   5.071
  791SOL    HW1 3272   4.202   1.466   5.056
  791SOL    HW2 3273   4.222   1.611   4.983
  792SOL     OW 3274   5.129   0.505   3.476
  792SOL    HW1 3275   5.163   0.586   3.524
  792SOL    HW2 3276   5.177   0.424   3.510
  793SOL     OW 3277   7.005   0.456   6.500
  793SOL    HW1 3278   7.002   0.536   6.560
  793SOL    HW2 3279   6.929   0.460   6.435
  794SOL     OW 3280   3.559   4.678   5.336
  794SOL    HW1 3281   3.647   4.723   5.345
  794SOL    HW2 3282   3.527   4.648   5.426
  795SOL     OW 3283   5.144   4.988   6.717
  795SOL    HW1 3284   5.123   5.015   6.811
  795SOL    HW2 3285   5.243   4.975   6.707
  796SOL     OW 3286   0.369   1.336   5.758
  796SOL    HW1 3287   0.468   1.322   5.754
  796SOL    HW2 3288   0.348   1.401   5.831
  797SOL     OW 3289   6.215   2.870   5.591
  797SOL    HW1 3290   6.289   2.843   5.529
  797SOL    HW2 3291   6.217   2.969   5.605
  798SOL     OW 3292   6.751   0.748   4.876
  798SOL    HW1 3293   6.677   0.815   4.865
  798SOL    HW2 3294   6.826   0.771   4.814
  799SOL     OW 3295   6.872   3.691   3.229
  799SOL    HW1 3296   6.916   3.706   3.318
  799SOL    HW2 3297   6.841   3.596   3.223
  800SOL     OW 3298   6.943   1.648   1.944
  800SOL    HW1 3299   6.956   1.551   1.923
  800SOL    HW2 3300   6.882   1.689   1.877
  801SOL     OW 3301   0.438   2.606   3.972
  801SOL    HW1 3302   0.486   2.518   3.980
  801SOL    HW2 3303   0.408   2.618   3.877
  802SOL     OW 3304   6.323   1.722   1.961
  802SOL    HW1 3305   6.241   1.684   1.919
  802SOL    HW2 3306   6.303   1.748   2.056
  803SOL     OW 3307   1.531   0.017   4.954
  803SOL    HW1 3308   1.550   0.106   4.912
  803SOL    HW2 3309   1.598   6.975   4.922
  804SOL     OW 3310   6.393   6.775   0.706
  804SOL    HW1 3311   6.469   6.808   0.762
  804SOL    HW2 3312   6.377   6.839   0.631
  805SOL     OW 3313   1.826   3.286   5.187
  805SOL    HW1 3314   1.841   3.332   5.275
  805SOL    HW2 3315   1.839   3.352   5.113
  806SOL     OW 3316   4.970   0.285   0.438
  806SOL    HW1 3317   5.012   0.279   0.347
  806SOL    HW2 3318   4.923   0.199   0.459
  807SOL     OW 3319   0.786   6.990   2.885
  807SOL    HW1 3320   0.826   0.049   2.921
  807SOL    HW2 3321   0.779   6.923   2.959
  808SOL     OW 3322   6.140   3.657   4.944
  808SOL    HW1 3323   6.123   3.580   5.006
  808SOL    HW2 3324   6.180   3.733   4.996
  809SOL     OW 3325   0.630   5.549   6.139
  809SOL    HW1 3326   0.679   5.597   6.212
  809SOL    HW2 3327   0.688   5.545   6.058
  810SOL     OW 3328   6.706   5.461   6.287
  810SOL    HW1 3329   6.727   5.373   6.244
  810SOL    HW2 3330   6.624   5.500   6.246
  811SOL     OW 3331   3.805   5.263   3.244
  811SOL    HW1 3332   3.904   5.268   3.242
  811SOL    HW2 3333   3.776   5.201   3.317
  812SOL     OW 3334   6.901   0.445   2.558
  812SOL    HW1 3335   6.901   0.528   2.614
  812SOL    HW2 3336   6.809   0.407   2.555
  813SOL     OW 3337   5.568   5.422   1.862
  813SOL    HW1 3338   5.551   5.520   1.872
  813SOL    HW2 3339   5.482   5.372   1.868
  814SOL     OW 3340   5.253   5.471   1.232
  814SOL    HW1 3341   5.284   5.394   1.176
  814SOL    HW2 3342   5.170   5.445   1.281
  815SOL     OW 3343   0.906   1.029   0.415
  815SOL    HW1 3344   0.895   1.086   0.496
  815SOL    HW2 3345   0.869   0.938   0.433
  816SOL     OW 3346   5.339   0.347   1.676
  816SOL    HW1 3347   5.377   0.430   1.635
  816SOL    HW2 3348   5.410   0.301   1.729
  817SOL     OW 3349   0.657   2.134   1.883
  817SOL    HW1 3350   0.610   2.135   1.971
  817SOL    HW2 3351   0.755   2.145   1.896
  818SOL     OW 3352   5.205   1.493   2.550
  818SOL    HW1 3353   5.127   1.553   2.563
  818SOL    HW2 3354   5.185   1.403   2.588
  819SOL     OW 3355   7.006   5.345   2.286
  819SOL    HW1 3356   0.075   5.323   2.310
  819SOL    HW2 3357   6.967   5.269   2.234
  820SOL     OW 3358   1.433   2.740   4.806
  820SOL    HW1 3359   1.464   2.800   4.879
  820SOL    HW2 3360   1.506   2.727   4.740
  821SOL     OW 3361   1.024   4.027   0.453
  821SOL    HW1 3362   1.081   4.021   0.371
  821SOL    HW2 3363   1.079   4.058   0.530
  822SOL     OW 3364   1.518   3.125   4.588
  822SOL    HW1 3365   1.426   3.111   4.624
  822SOL    HW2 3366   1.568   3.038   4.589
  823SOL     OW 3367   3.457   3.788   1.668
  823SOL    HW1 3368   3.493   3.809   1.759
  823SOL    HW2 3369   3.440   3.690   1.660
  824SOL     OW 3370   6.312   2.513   6.088
  824SOL    HW1 3371   6.246   2.517   6.013
  824SOL    HW2 3372   6.390   2.572   6.066
  825SOL     OW 3373   1.139   3.611   1.588
  825SOL    HW1 3374   1.172   3.706   1.598
  825SOL    HW2 3375   1.042   3.608   1.610
  826SOL     OW 3376   1.399   3.743   5.956
  826SOL    HW1 3377   1.428   3.835   5.983
  826SOL    HW2 3378   1.328   3.750   5.886
  827SOL     OW 3379   3.224   4.967   1.186
  827SOL    HW1 3380   3.127   4.988   1.172
  827SOL    HW2 3381   3.256   4.906   1.113
  828SOL     OW 3382   6.342   0.401   5.978
  828SOL    HW1 3383   6.347   0.465   5.901
  828SOL    HW2 3384   6.253   0.411   6.022
  829SOL     OW 3385   3.411   3.510   5.419
  829SOL    HW1 3386   3.403   3.488   5.516
  829SOL    HW2 3387   3.371   3.436   5.364
  830SOL     OW 3388   4.429   3.711   5.891
  830SOL    HW1 3389   4.501   3.650   5.859
  830SOL    HW2 3390   4.340   3.672   5.869
  831SOL     OW 3391   5.840   0.253   4.458
  831SOL    HW1 3392   5.900   0.198   4.401
  831SOL    HW2 3393   5.891   0.328   4.499
  832SOL     OW 3394   2.281   1.680   5.597
  832SOL    HW1 3395   2.287   1.769   5.643
  832SOL    HW2 3396   2.185   1.659   5.580
  833SOL     OW 3397   1.196   0.526   5.758
  833SOL    HW1 3398   1.252   0.608   5.774
  833SOL    HW2 3399   1.100   0.548   5.777
  834SOL     OW 3400   3.300   4.609   5.971
  834SOL    HW1 3401   3.298   4.585   6.068
  834SOL    HW2 3402   3.276   4.529   5.916
  835SOL     OW 3403   4.082   1.096   2.999
  835SOL    HW1 3404   4.107   1.165   2.931
  835SOL    HW2 3405   4.129   1.115   3.085
  836SOL     OW 3406   2.688   1.023   6.670
  836SOL    HW1 3407   2.689   0.953   6.742
  836SOL    HW2 3408   2.603   1.016   6.618
  837SOL     OW 3409   4.161   1.390   4.801
  837SOL    HW1 3410   4.168   1.490   4.795
  837SOL    HW2 3411   4.235   1.349   4.748
  838SOL     OW 3412   0.948   6.356   2.381
  838SOL    HW1 3413   0.959   6.448   2.420
  838SOL    HW2 3414   0.986   6.289   2.445
  839SOL     OW 3415   3.021   1.524   1.976
  839SOL    HW1 3416   3.073   1.500   1.894
  839SOL    HW2 3417   2.968   1.445   2.007
  840SOL     OW 3418   0.791   1.637   5.763
  840SOL    HW1 3419   0.858   1.564   5.775
  840SOL    HW2 3420   0.760   1.639   5.668
  841SOL     OW 3421   0.447   3.502   0.980
  841SOL    HW1 3422   0.500   3.554   0.913
  841SOL    HW2 3423   0.436   3.558   1.063
  842SOL     OW 3424   3.255   5.167   4.047
  842SOL    HW1 3425   3.314   5.230   3.995
  842SOL    HW2 3426   3.310   5.091   4.081
  843SOL     OW 3427   7.012   3.699   2.187
  843SOL    HW1 3428   0.005   3.601   2.193
  843SOL    HW2 3429   0.070   3.747   2.158
  844SOL     OW 3430   5.674   4.677   6.973
  844SOL    HW1 3431   5.640   4.757   7.023
  844SOL    HW2 3432   5.691   4.602   0.011
  845SOL     OW 3433   2.099   5.142   5.638
  845SOL    HW1 3434   2.190   5.117   5.604
  845SOL    HW2 3435   2.045   5.059   5.654
  846SOL     OW 3436   4.451   2.432   0.012
  846SOL    HW1 3437   4.375   2.491   0.038
  846SOL    HW2 3438   4.510   2.480   6.973
  847SOL     OW 3439   5.235   3.762   2.347
  847SOL    HW1 3440   5.216   3.705   2.426
  847SOL    HW2 3441   5.192   3.722   2.266
  848SOL     OW 3442   6.030   6.773   5.316
  848SOL    HW1 3443   6.090   6.837   5.364
  848SOL    HW2 3444   6.032   6.685   5.364
  849SOL     OW 3445   0.993   5.571   4.085
  849SOL    HW1 3446   0.945   5.642   4.136
  849SOL    HW2 3447   0.929   5.496   4.065
  850SOL     OW 3448   3.981   0.533   3.362
  850SOL    HW1 3449   3.898   0.497   3.404
  850SOL    HW2 3450   4.061   0.488   3.401
  851SOL     OW 3451   6.977   0.814   5.683
  851SOL    HW1 3452   6.881   0.785   5.693
  851SOL    HW2 3453   7.011   0.845   5.772
  852SOL     OW 3454   2.883   4.530   5.600
  852SOL    HW1 3455   2.920   4.623   5.592
  852SOL    HW2 3456   2.832   4.522   5.686
  853SOL     OW 3457   0.645   4.125   0.587
  853SOL    HW1 3458   0.697   4.141   0.503
  853SOL    HW2 3459   0.709   4.107   0.662
  854SOL     OW 3460   6.176   5.260   1.482
  854SOL    HW1 3461   6.114   5.282   1.557
  854SOL    HW2 3462   6.210   5.345   1.441
  855SOL     OW 3463   5.369   0.524   0.683
  855SOL    HW1 3464   5.463   0.537   0.654
  855SOL    HW2 3465   5.322   0.464   0.618
  856SOL     OW 3466   1.574   0.700   5.112
  856SOL    HW1 3467   1.475   0.705   5.116
  856SOL    HW2 3468   1.608   0.760   5.040
  857SOL     OW 3469   5.361   3.324   1.326
  857SOL    HW1 3470   5.275   3.281   1.353
  857SOL    HW2 3471   5.438   3.274   1.368
  858SOL     OW 3472   3.885   3.609   1.973
  858SOL    HW1 3473   3.785   3.599   1.976
  858SOL    HW2 3474   3.927   3.523   2.003
  859SOL     OW 3475   0.116   4.313   0.811
  859SOL    HW1 3476   0.113   4.395   0.754
  859SOL    HW2 3477   0.193   4.320   0.874
  860SOL     OW 3478   1.765   4.039   6.537
  860SOL    HW1 3479   1.843   4.050   6.476
  860SOL    HW2 3480   1.783   3.964   6.600
  861SOL     OW 3481   3.823   4.270   5.897
  861SOL    HW1 3482   3.917   4.291   5.924
  861SOL    HW2 3483   3.799   4.323   5.816
  862SOL     OW 3484   4.503   4.393   2.965
  862SOL    HW1 3485   4.513   4.298   2.994
  862SOL    HW2 3486   4.591   4.427   2.932
  863SOL     OW 3487   5.692   2.457   1.159
  863SOL    HW1 3488   5.685   2.362   1.128
  863SOL    HW2 3489   5.651   2.465   1.250
  864SOL     OW 3490   0.347   5.278   2.985
  864SOL    HW1 3491   0.362   5.371   3.016
  864SOL    HW2 3492   0.432   5.226   2.994
  865SOL     OW 3493   2.073   1.117   3.700
  865SOL    HW1 3494   2.042   1.132   3.607
  865SOL    HW2 3495   2.131   1.035   3.703
  866SOL     OW 3496   4.877   0.939   1.109
  866SOL    HW1 3497   4.915   0.917   1.198
  866SOL    HW2 3498   4.873   0.856   1.053
  867SOL     OW 3499   2.443   1.880   6.505
  867SOL    HW1 3500   2.505   1.926   6.568
  867SOL    HW2 3501   2.453   1.919   6.414
  868SOL     OW 3502   5.590   2.498   3.417
  868SOL    HW1 3503   5.493   2.521   3.431
  868SOL    HW2 3504   5.596   2.418   3.356
  869SOL     OW 3505   6.584   3.954   1.110
  869SOL    HW1 3506   6.627   3.904   1.186
  869SOL    HW2 3507   6.642   3.948   1.029
  870SOL     OW 3508   6.418   2.019   0.499
  870SOL    HW1 3509   6.465   2.076   0.431
  870SOL    HW2 3510   6.478   2.003   0.576
  871SOL     OW 3511   6.210   4.540   0.499
  871SOL    HW1 3512   6.162   4.453   0.489
  871SOL    HW2 3513   6.284   4.545   0.433
  872SOL     OW 3514   0.199   2.025   1.868
  872SOL    HW1 3515   0.145   2.089   1.812
  872SOL    HW2 3516   0.296   2.040   1.850
  873SOL     OW 3517   3.500   6.694   4.919
  873SOL    HW1 3518   3.471   6.674   4.825
  873SOL    HW2 3519   3.550   6.780   4.920
  874SOL     OW 3520   0.553   4.112   6.680
  874SOL    HW1 3521   0.549   4.142   6.585
  874SOL    HW2 3522   0.643   4.074   6.699
  875SOL     OW 3523   6.519   5.574   6.147
  875SOL    HW1 3524   6.509   5.535   6.056
  875SOL    HW2 3525   6.430   5.602   6.181
  876SOL     OW 3526   2.048   1.898   1.403
  876SOL    HW1 3527   2.045   1.835   1.326
  876SOL    HW2 3528   1.988   1.865   1.476
  877SOL     OW 3529   5.266   5.564   6.557
  877SOL    HW1 3530   5.277   5.584   6.654
  877SOL    HW2 3531   5.355   5.543   6.516
  878SOL     OW 3532   3.879   2.854   0.883
  878SOL    HW1 3533   3.830   2.802   0.952
  878SOL    HW2 3534   3.860   2.951   0.894
  879SOL     OW 3535   4.823   2.902   3.113
  879SOL    HW1 3536   4.836   2.979   3.052
  879SOL    HW2 3537   4.819   2.817   3.060
  880SOL     OW 3538   4.319   5.638   1.711
  880SOL    HW1 3539   4.394   5.675   1.766
  880SOL    HW2 3540   4.330   5.669   1.616
  881SOL     OW 3541   4.768   4.528   2.971
  881SOL    HW1 3542   4.801   4.557   2.881
  881SOL    HW2 3543   4.784   4.602   3.038
  882SOL     OW 3544   0.635   2.101   4.488
  882SOL    HW1 3545   0.659   2.112   4.392
  882SOL    HW2 3546   0.671   2.014   4.522
  883SOL     OW 3547   3.126   4.783   6.840
  883SOL    HW1 3548   3.026   4.781   6.833
  883SOL    HW2 3549   3.153   4.856   6.903
  884SOL     OW 3550   4.061   4.084   1.726
  884SOL    HW1 3551   3.968   4.051   1.742
  884SOL    HW2 3552   4.058   4.181   1.703
  885SOL     OW 3553   4.791   5.912   5.396
  885SOL    HW1 3554   4.706   5.895   5.347
  885SOL    HW2 3555   4.828   6.002   5.370
  886SOL     OW 3556   3.804   2.151   6.469
  886SOL    HW1 3557   3.774   2.215   6.540
  886SOL    HW2 3558   3.831   2.202   6.387
  887SOL     OW 3559   5.986   6.048   4.929
  887SOL    HW1 3560   5.931   5.966   4.940
  887SOL    HW2 3561   6.019   6.078   5.019
  888SOL     OW 3562   6.381   0.447   3.400
  888SOL    HW1 3563   6.427   0.479   3.483
  888SOL    HW2 3564   6.347   0.354   3.414
  889SOL     OW 3565   0.729   0.369   4.662
  889SOL    HW1 3566   0.657   0.418   4.614
  889SOL    HW2 3567   0.692   0.285   4.702
  890SOL     OW 3568   1.623   3.941   1.891
  890SOL    HW1 3569   1.629   3.990   1.978
  890SOL    HW2 3570   1.536   3.891   1.886
  891SOL     OW 3571   5.911   3.725   6.627
  891SOL    HW1 3572   5.828   3.669   6.621
  891SOL    HW2 3573   5.955   3.729   6.537
  892SOL     OW 3574   2.080   5.599   1.692
  892SOL    HW1 3575   1.996   5.612   1.638
  892SOL    HW2 3576   2.154   5.654   1.653
  893SOL     OW 3577   2.106   0.564   2.186
  893SOL    HW1 3578   2.126   0.515   2.271
  893SOL    HW2 3579   2.007   0.573   2.174
  894SOL     OW 3580   1.398   5.436   4.694
  894SOL    HW1 3581   1.338   5.491   4.635
  894SOL    HW2 3582   1.385   5.464   4.789
  895SOL     OW 3583   2.331   0.506   4.528
  895SOL    HW1 3584   2.287   0.573   4.587
  895SOL    HW2 3585   2.351   0.547   4.439
  896SOL     OW 3586   5.139   6.249   3.492
  896SOL    HW1 3587   5.216   6.255   3.428
  896SOL    HW2 3588   5.166   6.196   3.572
  897SOL     OW 3589   5.635   1.342   6.118
  897SOL    HW1 3590   5.672   1.412   6.179
  897SOL    HW2 3591   5.612   1.384   6.030
  898SOL     OW 3592   5.238   6.608   3.607
  898SOL    HW1 3593   5.199   6.668   3.537
  898SOL    HW2 3594   5.205   6.636   3.697
  899SOL     OW 3595   1.517   5.009   0.193
  899SOL    HW1 3596   1.602   5.061   0.192
  899SOL    HW2 3597   1.501   4.970   0.102
  900SOL     OW 3598   0.555   5.134   3.275
  900SOL    HW1 3599   0.586   5.146   3.180
  900SOL    HW2 3600   0.456   5.139   3.279
  901SOL     OW 3601   6.168   2.038   3.806
  901SOL    HW1 3602   6.226   2.115   3.776
  901SOL    HW2 3603   6.072   2.061   3.791
  902SOL     OW 3604   1.324   6.330   0.064
  902SOL    HW1 3605   1.263   6.269   0.114
  902SOL    HW2 3606   1.330   6.300   6.994
  903SOL     OW 3607   0.654   4.940   6.487
  903SOL    HW1 3608   0.572   4.965   6.538
  903SOL    HW2 3609   0.627   4.902   6.398
  904SOL     OW 3610   2.283   0.962   4.420
  904SOL    HW1 3611   2.348   0.922   4.485
  904SOL    HW2 3612   2.323   0.960   4.328
  905SOL     OW 3613   6.015   3.021   3.918
  905SOL    HW1 3614   5.944   2.957   3.887
  905SOL    HW2 3615   5.972   3.105   3.951
  906SOL     OW 3616   6.323   3.822   5.556
  906SOL    HW1 3617   6.323   3.867   5.467
  906SOL    HW2 3618   6.250   3.862   5.612
  907SOL     OW 3619   0.510   3.376   2.284
  907SOL    HW1 3620   0.422   3.331   2.274
  907SOL    HW2 3621   0.528   3.394   2.380
  908SOL     OW 3622   2.550   1.182   3.720
  908SOL    HW1 3623   2.522   1.250   3.652
  908SOL    HW2 3624   2.589   1.103   3.673
  909SOL     OW 3625   4.061   6.502   1.081
  909SOL    HW1 3626   4.128   6.528   1.012
  909SOL    HW2 3627   3.971   6.491   1.038
  910SOL     OW 3628   1.727   1.209   1.840
  910SOL    HW1 3629   1.807   1.156   1.815
  910SOL    HW2 3630   1.644   1.160   1.813
  911SOL     OW 3631   0.419   3.377   0.592
  911SOL    HW1 3632   0.428   3.351   0.689
  911SOL    HW2 3633   0.508   3.409   0.558
  912SOL     OW 3634   1.646   1.291   0.118
  912SOL    HW1 3635   1.569   1.353   0.126
  912SOL    HW2 3636   1.709   1.325   0.048
  913SOL     OW 3637   2.149   1.820   2.554
  913SOL    HW1 3638   2.065   1.778   2.589
  913SOL    HW2 3639   2.166   1.906   2.601
  914SOL     OW 3640   2.627   5.081   1.874
  914SOL    HW1 3641   2.565   5.014   1.832
  914SOL    HW2 3642   2.718   5.042   1.882
  915SOL     OW 3643   2.440   2.152   0.883
  915SOL    HW1 3644   2.384   2.225   0.923
  915SOL    HW2 3645   2.442   2.163   0.784
  916SOL     OW 3646   1.033   3.308   2.568
  916SOL    HW1 3647   0.935   3.290   2.554
  916SOL    HW2 3648   1.061   3.265   2.654
  917SOL     OW 3649   3.877   1.003   6.176
  917SOL    HW1 3650   3.969   0.994   6.140
  917SOL    HW2 3651   3.864   0.937   6.251
  918SOL     OW 3652   0.377   2.160   4.505
  918SOL    HW1 3653   0.474   2.154   4.528
  918SOL    HW2 3654   0.361   2.112   4.418
  919SOL     OW 3655   1.433   0.466   1.001
  919SOL    HW1 3656   1.501   0.540   1.007
  919SOL    HW2 3657   1.466   0.387   1.054
  920SOL     OW 3658   1.517   1.566   2.955
  920SOL    HW1 3659   1.497   1.610   2.867
  920SOL    HW2 3660   1.601   1.513   2.947
  921SOL     OW 3661   3.867   4.438   0.190
  921SOL    HW1 3662   3.790   4.385   0.155
  921SOL    HW2 3663   3.897   4.399   0.277
  922SOL     OW 3664   2.471   6.199   7.016
  922SOL    HW1 3665   2.465   6.286   0.040
  922SOL    HW2 3666   2.384   6.180   6.971
  923SOL     OW 3667   4.274   1.109   0.128
  923SOL    HW1 3668   4.214   1.188   0.137
  923SOL    HW2 3669   4.333   1.101   0.208
  924SOL     OW 3670   5.830   4.885   2.476
  924SOL    HW1 3671   5.817   4.867   2.378
  924SOL    HW2 3672   5.885   4.967   2.487
  925SOL     OW 3673   6.804   2.065   2.460
  925SOL    HW1 3674   6.742   2.109   2.395
  925SOL    HW2 3675   6.843   2.134   2.521
  926SOL     OW 3676   3.771   6.001   1.661
  926SOL    HW1 3677   3.836   5.979   1.733
  926SOL    HW2 3678   3.774   6.099   1.642
  927SOL     OW 3679   4.699   5.418   4.745
  927SOL    HW1 3680   4.656   5.329   4.759
  927SOL    HW2 3681   4.760   5.438   4.821
  928SOL     OW 3682   0.344   1.702   1.622
  928SOL    HW1 3683   0.437   1.717   1.655
  928SOL    HW2 3684   0.279   1.721   1.696
  929SOL     OW 3685   0.034   2.052   2.384
  929SOL    HW1 3686   6.960   2.053   2.383
  929SOL    HW2 3687   0.069   2.098   2.302
  930SOL     OW 3688   6.180   5.052   2.051
  930SOL    HW1 3689   6.224   5.133   2.013
  930SOL    HW2 3690   6.081   5.069   2.060
  931SOL     OW 3691   1.099   2.863   1.726
  931SOL    HW1 3692   1.155   2.926   1.780
  931SOL    HW2 3693   1.102   2.890   1.630
  932SOL     OW 3694   4.678   5.773   1.467
  932SOL    HW1 3695   4.655   5.687   1.514
  932SOL    HW2 3696   4.686   5.846   1.535
  933SOL     OW 3697   0.898   6.406   3.284
  933SOL    HW1 3698   0.923   6.348   3.207
  933SOL    HW2 3699   0.861   6.349   3.358
  934SOL     OW 3700   3.194   1.559   5.534
  934SOL    HW1 3701   3.181   1.653   5.503
  934SOL    HW2 3702   3.290   1.544   5.557
  935SOL     OW 3703   1.361   4.077   4.725
  935SOL    HW1 3704   1.376   3.986   4.688
  935SOL    HW2 3705   1.447   4.127   4.729
  936SOL     OW 3706   1.216   1.591   1.898
  936SOL    HW1 3707   1.169   1.608   1.812
  936SOL    HW2 3708   1.268   1.505   1.891
  937SOL     OW 3709   4.923   2.140   3.569
  937SOL    HW1 3710   4.882   2.215   3.517
  937SOL    HW2 3711   4.975   2.178   3.646
  938SOL     OW 3712   0.503   1.032   6.517
  938SOL    HW1 3713   0.447   1.088   6.456
  938SOL    HW2 3714   0.542   0.955   6.466
  939SOL     OW 3715   6.228   1.024   4.744
  939SOL    HW1 3716   6.202   1.031   4.841
  939SOL    HW2 3717   6.277   0.939   4.729
  940SOL     OW 3718   6.667   0.545   3.973
  940SOL    HW1 3719   6.709   0.620   4.023
  940SOL    HW2 3720   6.716   0.531   3.887
  941SOL     OW 3721   5.965   2.587   5.417
  941SOL    HW1 3722   5.888   2.525   5.430
  941SOL    HW2 3723   5.958   2.663   5.482
  942SOL     OW 3724   4.575   0.166   5.058
  942SOL    HW1 3725   4.513   0.095   5.025
  942SOL    HW2 3726   4.543   0.199   5.147
  943SOL     OW 3727   5.255   2.430   0.447
  943SOL    HW1 3728   5.161   2.433   0.480
  943SOL    HW2 3729   5.317   2.421   0.524
  944SOL     OW 3730   4.979   4.281   4.075
  944SOL    HW1 3731   5.058   4.298   4.016
  944SOL    HW2 3732   4.908   4.234   4.023
  945SOL     OW 3733   5.707   3.531   6.591
  945SOL    HW1 3734   5.629   3.553   6.649
  945SOL    HW2 3735   5.691   3.442   6.548
  946SOL     OW 3736   6.095   3.653   6.845
  946SOL    HW1 3737   6.157   3.590   6.797
  946SOL    HW2 3738   6.023   3.684   6.783
  947SOL     OW 3739   0.680   2.768   5.103
  947SOL    HW1 3740   0.591   2.758   5.148
  947SOL    HW2 3741   0.744   2.812   5.166
  948SOL     OW 3742   3.759   1.485   0.911
  948SOL    HW1 3743   3.830   1.528   0.967
  948SOL    HW2 3744   3.677   1.470   0.967
  949SOL     OW 3745   5.388   6.406   6.145
  949SOL    HW1 3746   5.366   6.406   6.242
  949SOL    HW2 3747   5.423   6.496   6.119
  950SOL     OW 3748   3.626   5.196   0.915
  950SOL    HW1 3749   3.552   5.138   0.882
  950SOL    HW2 3750   3.595   5.251   0.992
  951SOL     OW 3751   1.436   2.860   3.763
  951SOL    HW1 3752   1.412   2.868   3.860
  951SOL    HW2 3753   1.526   2.900   3.748
  952SOL     OW 3754   5.028   1.318   1.175
  952SOL    HW1 3755   5.051   1.239   1.119
  952SOL    HW2 3756   4.930   1.337   1.168
  953SOL     OW 3757   4.493   6.483   5.913
  953SOL    HW1 3758   4.409   6.429   5.913
  953SOL    HW2 3759   4.471   6.580   5.926
  954SOL     OW 3760   6.152   0.418   1.245
  954SOL    HW1 3761   6.106   0.504   1.223
  954SOL    HW2 3762   6.150   0.358   1.165
  955SOL     OW 3763   0.746   5.862   2.820
  955SOL    HW1 3764   0.717   5.957   2.829
  955SOL    HW2 3765   0.666   5.803   2.807
  956SOL     OW 3766   1.593   2.749   0.972
  956SOL    HW1 3767   1.571   2.783   0.880
  956SOL    HW2 3768   1.632   2.657   0.965
  957SOL     OW 3769   1.939   6.764   4.934
  957SOL    HW1 3770   1.979   6.802   5.017
  957SOL    HW2 3771   1.926   6.665   4.946
  958SOL     OW 3772   4.607   2.585   6.869
  958SOL    HW1 3773   4.691   2.562   6.820
  958SOL    HW2 3774   4.629   2.641   6.949
  959SOL     OW 3775   1.585   3.913   0.658
  959SOL    HW1 3776   1.666   3.880   0.706
  959SOL    HW2 3777   1.538   3.836   0.614
  960SOL     OW 3778   1.782   4.758   5.833
  960SOL    HW1 3779   1.818   4.669   5.860
  960SOL    HW2 3780   1.741   4.803   5.912
  961SOL     OW 3781   3.261   6.459   0.002
  961SOL    HW1 3782   3.193   6.389   7.005
  961SOL    HW2 3783   3.339   6.416   0.048
  962SOL     OW 3784   1.135   0.169   3.404
  962SOL    HW1 3785   1.132   0.074   3.435
  962SOL    HW2 3786   1.151   0.171   3.305
  963SOL     OW 3787   5.716   6.924   2.133
  963SOL    HW1 3788   5.670   6.988   2.195
  963SOL    HW2 3789   5.649   6.864   2.090
  964SOL     OW 3790   6.003   3.690   1.518
  964SOL    HW1 3791   5.991   3.612   1.579
  964SOL    HW2 3792   5.944   3.765   1.547
  965SOL     OW 3793   1.772   1.727   0.560
  965SOL    HW1 3794   1.800   1.771   0.646
  965SOL    HW2 3795   1.673   1.711   0.562
  966SOL     OW 3796   6.278   2.742   2.572
  966SOL    HW1 3797   6.348   2.738   2.501
  966SOL    HW2 3798   6.208   2.673   2.553
  967SOL     OW 3799   1.236   5.513   2.646
  967SOL    HW1 3800   1.254   5.574   2.570
  967SOL    HW2 3801   1.159   5.548   2.700
  968SOL     OW 3802   6.456   4.100   0.367
  968SOL    HW1 3803   6.493   4.149   0.446
  968SOL    HW2 3804   6.516   4.115   0.288
  969SOL     OW 3805   4.043   6.042   6.327
  969SOL    HW1 3806   4.035   5.953   6.372
  969SOL    HW2 3807   4.111   6.098   6.375
  970SOL     OW 3808   5.249   3.290   5.857
  970SOL    HW1 3809   5.255   3.388   5.840
  970SOL    HW2 3810   5.159   3.268   5.894
  971SOL     OW 3811   0.226   2.842   7.023
  971SOL    HW1 3812   0.237   2.911   6.952
  971SOL    HW2 3813   0.307   2.839   0.055
  972SOL     OW 3814   4.906   6.830   0.526
  972SOL    HW1 3815   4.897   6.761   0.455
  972SOL    HW2 3816   4.816   6.871   0.544
  973SOL     OW 3817   6.291   3.584   6.145
  973SOL    HW1 3818   6.317   3.510   6.208
  973SOL    HW2 3819   6.315   3.672   6.187
  974SOL     OW 3820   1.903   0.624   4.469
  974SOL    HW1 3821   1.805   0.622   4.450
  974SOL    HW2 3822   1.925   0.702   4.527
  975SOL     OW 3823   2.912   0.056   5.541
  975SOL    HW1 3824   2.988   0.083   5.482
  975SOL    HW2 3825   2.893   0.130   5.606
  976SOL     OW 3826   0.298   4.686   3.859
  976SOL    HW1 3827   0.234   4.761   3.843
  976SOL    HW2 3828   0.297   4.624   3.780
  977SOL     OW 3829   0.753   2.401   2.167
  977SOL    HW1 3830   0.790   2.438   2.082
  977SOL    HW2 3831   0.790   2.453   2.244
  978SOL     OW 3832   5.457   2.893   4.599
  978SOL    HW1 3833   5.376   2.836   4.582
  978SOL    HW2 3834   5.429   2.979   4.642
  979SOL     OW 3835   6.134   1.637   3.081
  979SOL    HW1 3836   6.097   1.644   3.174
  979SOL    HW2 3837   6.218   1.582   3.082
  980SOL     OW 3838   6.804   0.038   5.717
  980SOL    HW1 3839   6.865   0.021   5.795
  980SOL    HW2 3840   6.725   7.002   5.722
  981SOL     OW 3841   6.224   2.938   5.973
  981SOL    HW1 3842   6.190   2.857   5.924
  981SOL    HW2 3843   6.246   2.912   6.067
  982SOL     OW 3844   1.424   4.327   0.904
  982SOL    HW1 3845   1.424   4.279   0.992
  982SOL    HW2 3846   1.466   4.268   0.834
  983SOL     OW 3847   5.268   1.769   3.536
  983SOL    HW1 3848   5.295   1.679   3.569
  983SOL    HW2 3849   5.313   1.787   3.448
  984SOL     OW 3850   4.837   2.973   5.580
  984SOL    HW1 3851   4.788   2.943   5.662
  984SOL    HW2 3852   4.815   3.069   5.560
  985SOL     OW 3853   1.740   4.412   0.628
  985SOL    HW1 3854   1.691   4.325   0.624
  985SOL    HW2 3855   1.817   4.405   0.692
  986SOL     OW 3856   4.720   4.199   6.172
  986SOL    HW1 3857   4.743   4.154   6.258
  986SOL    HW2 3858   4.737   4.298   6.181
  987SOL     OW 3859   3.869   6.915   2.714
  987SOL    HW1 3860   3.793   6.900   2.651
  987SOL    HW2 3861   3.856   6.860   2.797
  988SOL     OW 3862   3.481   2.874   1.369
  988SOL    HW1 3863   3.396   2.902   1.413
  988SOL    HW2 3864   3.476   2.777   1.345
  989SOL     OW 3865   0.667   0.658   4.499
  989SOL    HW1 3866   0.707   0.680   4.410
  989SOL    HW2 3867   0.600   0.584   4.489
  990SOL     OW 3868   5.339   6.598   1.844
  990SOL    HW1 3869   5.411   6.562   1.784
  990SOL    HW2 3870   5.258   6.621   1.789
  991SOL     OW 3871   6.016   1.800   5.620
  991SOL    HW1 3872   5.981   1.711   5.650
  991SOL    HW2 3873   6.096   1.825   5.674
  992SOL     OW 3874   7.014   2.839   1.356
  992SOL    HW1 3875   0.030   2.807   1.271
  992SOL    HW2 3876   0.060   2.857   1.424
  993SOL     OW 3877   3.861   6.524   4.945
  993SOL    HW1 3878   3.858   6.565   5.036
  993SOL    HW2 3879   3.769   6.499   4.916
  994SOL     OW 3880   2.930   3.330   2.802
  994SOL    HW1 3881   2.934   3.391   2.881
  994SOL    HW2 3882   2.968   3.241   2.826
  995SOL     OW 3883   0.538   1.067   4.528
  995SOL    HW1 3884   0.538   1.022   4.439
  995SOL    HW2 3885   0.535   1.167   4.515
  996SOL     OW 3886   0.674   3.275   6.989
  996SOL    HW1 3887   0.656   3.212   0.039
  996SOL    HW2 3888   0.729   3.229   6.920
  997SOL     OW 3889   0.281   1.834   0.807
  997SOL    HW1 3890   0.302   1.894   0.884
  997SOL    HW2 3891   0.313   1.741   0.827
  998SOL     OW 3892   5.097   6.818   3.361
  998SOL    HW1 3893   5.062   6.896   3.310
  998SOL    HW2 3894   5.153   6.761   3.301
  999SOL     OW 3895   6.095   5.883   1.249
  999SOL    HW1 3896   6.045   5.928   1.323
  999SOL    HW2 3897   6.030   5.851   1.179
 1000SOL     OW 3898   4.524   1.947   4.538
 1000SOL    HW1 3899   4.620   1.945   4.564
 1000SOL    HW2 3900   4.502   1.865   4.485
 1001SOL     OW 3901   4.642   1.392   5.496
 1001SOL    HW1 3902   4.708   1.445   5.443
 1001SOL    HW2 3903   4.665   1.295   5.490
 1002SOL     OW 3904   0.470   1.545   0.714
 1002SOL    HW1 3905   0.435   1.586   0.630
 1002SOL    HW2 3906   0.404   1.558   0.787
 1003SOL     OW 3907   4.166   5.144   2.579
 1003SOL    HW1 3908   4.201   5.180   2.666
 1003SOL    HW2 3909   4.068   5.124   2.589
 1004SOL     OW 3910   5.913   5.899   0.006
 1004SOL    HW1 3911   6.011   5.914   7.022
 1004SOL    HW2 3912   5.877   5.857   6.948
 1005SOL     OW 3913   6.801   5.780   3.636
 1005SOL    HW1 3914   6.840   5.779   3.544
 1005SOL    HW2 3915   6.710   5.822   3.634
 1006SOL     OW 3916   2.000   4.666   7.007
 1006SOL    HW1 3917   1.934   4.595   6.985
 1006SOL    HW2 3918   2.000   4.683   0.080
 1007SOL     OW 3919   0.190   1.220   3.129
 1007SOL    HW1 3920   0.219   1.302   3.080
 1007SOL    HW2 3921   0.270   1.165   3.152
 1008SOL     OW 3922   2.923   2.248   5.061
 1008SOL    HW1 3923   3.018   2.215   5.069
 1008SOL    HW2 3924   2.916   2.338   5.103
 1009SOL     OW 3925   3.186   5.987   5.874
 1009SOL    HW1 3926   3.247   5.981   5.952
 1009SOL    HW2 3927   3.146   6.079   5.869
 1010SOL     OW 3928   5.274   0.197   5.331
 1010SOL    HW1 3929   5.346   0.127   5.329
 1010SOL    HW2 3930   5.220   0.191   5.248
 1011SOL     OW 3931   2.917   5.526   3.900
 1011SOL    HW1 3932   2.860   5.605   3.878
 1011SOL    HW2 3933   2.912   5.507   3.998
 1012SOL     OW 3934   3.689   6.172   1.013
 1012SOL    HW1 3935   3.734   6.139   1.097
 1012SOL    HW2 3936   3.753   6.229   0.962
 1013SOL     OW 3937   0.916   0.420   0.012
 1013SOL    HW1 3938   0.952   0.341   0.061
 1013SOL    HW2 3939   0.977   0.498   0.027
 1014SOL     OW 3940   5.982   6.856   5.805
 1014SOL    HW1 3941   5.984   6.764   5.765
 1014SOL    HW2 3942   5.887   6.889   5.807
 1015SOL     OW 3943   2.590   0.504   4.805
 1015SOL    HW1 3944   2.546   0.456   4.730
 1015SOL    HW2 3945   2.628   0.590   4.771
 1016SOL     OW 3946   4.414   2.726   1.670
 1016SOL    HW1 3947   4.352   2.803   1.683
 1016SOL    HW2 3948   4.508   2.755   1.689
 1017SOL     OW 3949   5.023   0.610   6.050
 1017SOL    HW1 3950   5.098   0.546   6.066
 1017SOL    HW2 3951   5.056   0.704   6.058
 1018SOL     OW 3952   1.740   2.993   1.761
 1018SOL    HW1 3953   1.830   2.950   1.760
 1018SOL    HW2 3954   1.731   3.050   1.843
 1019SOL     OW 3955   6.298   1.870   0.768
 1019SOL    HW1 3956   6.263   1.806   0.700
 1019SOL    HW2 3957   6.390   1.899   0.742
 1020SOL     OW 3958   3.535   2.117   1.742
 1020SOL    HW1 3959   3.623   2.164   1.750
 1020SOL    HW2 3960   3.506   2.085   1.832
 1021SOL     OW 3961   6.489   1.110   1.109
 1021SOL    HW1 3962   6.552   1.034   1.123
 1021SOL    HW2 3963   6.535   1.196   1.131
 1022SOL     OW 3964   3.052   2.528   6.963
 1022SOL    HW1 3965   3.054   2.563   6.869
 1022SOL    HW2 3966   3.100   2.440   6.966
 1023SOL     OW 3967   6.870   0.852   4.643
 1023SOL    HW1 3968   6.858   0.862   4.545
 1023SOL    HW2 3969   6.967   0.839   4.665
 1024SOL     OW 3970   6.524   2.422   3.884
 1024SOL    HW1 3971   6.546   2.326   3.869
 1024SOL    HW2 3972   6.452   2.430   3.953
 1025SOL     OW 3973   2.933   4.691   1.440
 1025SOL    HW1 3974   2.997   4.703   1.516
 1025SOL    HW2 3975   2.878   4.774   1.429
 1026SOL     OW 3976   0.618   2.554   5.808
 1026SOL    HW1 3977   0.656   2.641   5.839
 1026SOL    HW2 3978   0.665   2.479   5.856
 1027SOL     OW 3979   2.334   4.747   0.963
 1027SOL    HW1 3980   2.261   4.809   0.990
 1027SOL    HW2 3981   2.421   4.796   0.963
 1028SOL     OW 3982   0.074   5.157   0.398
 1028SOL    HW1 3983   0.027   5.158   0.485
 1028SOL    HW2 3984   0.096   5.251   0.371
 1029SOL     OW 3985   3.621   0.347   5.103
 1029SOL    HW1 3986   3.534   0.305   5.076
 1029SOL    HW2 3987   3.694   0.279   5.096
 1030SOL     OW 3988   3.829   4.933   5.158
 1030SOL    HW1 3989   3.859   4.930   5.063
 1030SOL    HW2 3990   3.729   4.931   5.162
 1031SOL     OW 3991   2.611   5.822   0.743
 1031SOL    HW1 3992   2.569   5.816   0.833
 1031SOL    HW2 3993   2.586   5.742   0.689
 1032SOL     OW 3994   1.317   1.453   4.729
 1032SOL    HW1 3995   1.362   1.536   4.695
 1032SOL    HW2 3996   1.237   1.479   4.784
 1033SOL     OW 3997   2.318   0.031   2.263
 1033SOL    HW1 3998   2.309   6.984   2.332
 1033SOL    HW2 3999   2.243   0.024   2.197
 1034SOL     OW 4000   0.853   6.645   2.102
 1034SOL    HW1 4001   0.826   6.582   2.029
 1034SOL    HW2 4002   0.804   6.621   2.185
 1035SOL     OW 4003   3.851   1.721   2.847
 1035SOL    HW1 4004   3.843   1.622   2.852
 1035SOL    HW2 4005   3.805   1.754   2.764
 1036SOL     OW 4006   4.758   6.605   6.875
 1036SOL    HW1 4007   4.735   6.515   6.839
 1036SOL    HW2 4008   4.831   6.596   6.943
 1037SOL     OW 4009   3.844   1.537   6.253
 1037SOL    HW1 4010   3.763   1.478   6.255
 1037SOL    HW2 4011   3.908   1.504   6.183
 1038SOL     OW 4012   2.541   1.927   5.809
 1038SOL    HW1 4013   2.580   1.840   5.780
 1038SOL    HW2 4014   2.602   2.001   5.782
 1039SOL     OW 4015   4.762   1.719   3.528
 1039SOL    HW1 4016   4.709   1.778   3.589
 1039SOL    HW2 4017   4.848   1.765   3.504
 1040SOL     OW 4018   6.487   3.828   4.298
 1040SOL    HW1 4019   6.489   3.758   4.370
 1040SOL    HW2 4020   6.431   3.796   4.222
 1041SOL     OW 4021   1.743   6.799   4.431
 1041SOL    HW1 4022   1.740   6.897   4.414
 1041SOL    HW2 4023   1.747   6.750   4.344
 1042SOL     OW 4024   4.431   3.898   0.466
 1042SOL    HW1 4025   4.506   3.849   0.510
 1042SOL    HW2 4026   4.347   3.882   0.518
 1043SOL     OW 4027   3.936   0.464   7.012
 1043SOL    HW1 4028   3.969   0.537   6.951
 1043SOL    HW2 4029   3.889   0.506   0.064
 1044SOL     OW 4030   4.031   3.814   2.767
 1044SOL    HW1 4031   4.089   3.801   2.686
 1044SOL    HW2 4032   3.950   3.756   2.759
 1045SOL     OW 4033   4.235   0.718   3.466
 1045SOL    HW1 4034   4.156   0.735   3.525
 1045SOL    HW2 4035   4.204   0.697   3.373
 1046SOL     OW 4036   3.355   0.592   2.456
 1046SOL    HW1 4037   3.266   0.570   2.497
 1046SOL    HW2 4038   3.422   0.607   2.529
 1047SOL     OW 4039   0.485   5.789   1.663
 1047SOL    HW1 4040   0.502   5.710   1.722
 1047SOL    HW2 4041   0.495   5.873   1.716
 1048SOL     OW 4042   6.342   3.914   5.287
 1048SOL    HW1 4043   6.372   3.984   5.221
 1048SOL    HW2 4044   6.375   3.824   5.257
 1049SOL     OW 4045   0.466   3.273   5.572
 1049SOL    HW1 4046   0.418   3.277   5.484
 1049SOL    HW2 4047   0.564   3.284   5.556
 1050SOL     OW 4048   2.651   0.655   1.092
 1050SOL    HW1 4049   2.649   0.717   1.171
 1050SOL    HW2 4050   2.684   0.705   1.012
 1051SOL     OW 4051   5.038   4.552   1.815
 1051SOL    HW1 4052   4.971   4.585   1.748
 1051SOL    HW2 4053   5.051   4.622   1.886
 1052SOL     OW 4054   3.545   0.199   3.862
 1052SOL    HW1 4055   3.626   0.255   3.876
 1052SOL    HW2 4056   3.539   0.130   3.934
 1053SOL     OW 4057   3.368   4.935   3.757
 1053SOL    HW1 4058   3.385   4.866   3.827
 1053SOL    HW2 4059   3.408   5.022   3.785
 1054SOL     OW 4060   4.346   5.704   4.723
 1054SOL    HW1 4061   4.396   5.644   4.661
 1054SOL    HW2 4062   4.404   5.730   4.800
 1055SOL     OW 4063   3.509   4.968   4.594
 1055SOL    HW1 4064   3.494   4.944   4.690
 1055SOL    HW2 4065   3.422   4.967   4.545
 1056SOL     OW 4066   2.919   6.029   6.779
 1056SOL    HW1 4067   2.854   6.003   6.850
 1056SOL    HW2 4068   2.888   6.113   6.734
 1057SOL     OW 4069   3.746   4.318   1.162
 1057SOL    HW1 4070   3.714   4.278   1.247
 1057SOL    HW2 4071   3.734   4.252   1.088
 1058SOL     OW 4072   2.727   6.543   2.037
 1058SOL    HW1 4073   2.766   6.457   2.070
 1058SOL    HW2 4074   2.746   6.552   1.939
 1059SOL     OW 4075   3.776   0.747   0.368
 1059SOL    HW1 4076   3.746   0.780   0.457
 1059SOL    HW2 4077   3.716   0.672   0.339
 1060SOL     OW 4078   3.124   1.104   4.128
 1060SOL    HW1 4079   3.073   1.141   4.050
 1060SOL    HW2 4080   3.167   1.180   4.178
 1061SOL     OW 4081   2.336   5.844   1.338
 1061SOL    HW1 4082   2.337   5.944   1.347
 1061SOL    HW2 4083   2.298   5.819   1.249
 1062SOL     OW 4084   5.201   4.471   4.510
 1062SOL    HW1 4085   5.274   4.411   4.476
 1062SOL    HW2 4086   5.164   4.433   4.595
 1063SOL     OW 4087   2.987   2.430   6.281
 1063SOL    HW1 4088   3.033   2.348   6.245
 1063SOL    HW2 4089   2.921   2.463   6.214
 1064SOL     OW 4090   0.342   3.028   1.866
 1064SOL    HW1 4091   0.355   3.055   1.961
 1064SOL    HW2 4092   0.359   2.930   1.856
 1065SOL     OW 4093   4.741   5.136   5.837
 1065SOL    HW1 4094   4.736   5.167   5.932
 1065SOL    HW2 4095   4.810   5.064   5.829
 1066SOL     OW 4096   4.831   0.098   3.642
 1066SOL    HW1 4097   4.895   0.041   3.694
 1066SOL    HW2 4098   4.776   0.040   3.582
 1067SOL     OW 4099   2.871   3.849   0.329
 1067SOL    HW1 4100   2.774   3.856   0.305
 1067SOL    HW2 4101   2.898   3.753   0.329
 1068SOL     OW 4102   0.430   4.739   1.235
 1068SOL    HW1 4103   0.335   4.735   1.265
 1068SOL    HW2 4104   0.476   4.652   1.257
 1069SOL     OW 4105   3.875   3.095   2.533
 1069SOL    HW1 4106   3.963   3.141   2.522
 1069SOL    HW2 4107   3.845   3.060   2.444
 1070SOL     OW 4108   2.235   6.719   0.625
 1070SOL    HW1 4109   2.187   6.665   0.555
 1070SOL    HW2 4110   2.183   6.718   0.710
 1071SOL     OW 4111   5.181   5.437   3.261
 1071SOL    HW1 4112   5.187   5.338   3.273
 1071SOL    HW2 4113   5.097   5.470   3.303
 1072SOL     OW 4114   3.802   5.592   3.083
 1072SOL    HW1 4115   3.889   5.558   3.119
 1072SOL    HW2 4116   3.726   5.554   3.136
 1073SOL     OW 4117   2.888   5.528   3.438
 1073SOL    HW1 4118   2.793   5.507   3.413
 1073SOL    HW2 4119   2.949   5.490   3.368
 1074SOL     OW 4120   1.765   5.187   3.078
 1074SOL    HW1 4121   1.772   5.160   3.174
 1074SOL    HW2 4122   1.840   5.146   3.026
 1075SOL     OW 4123   0.781   3.804   2.929
 1075SOL    HW1 4124   0.744   3.865   2.999
 1075SOL    HW2 4125   0.874   3.777   2.954
 1076SOL     OW 4126   6.460   4.223   3.027
 1076SOL    HW1 4127   6.542   4.166   3.039
 1076SOL    HW2 4128   6.380   4.174   3.063
 1077SOL     OW 4129   4.567   0.011   1.746
 1077SOL    HW1 4130   4.522   0.078   1.686
 1077SOL    HW2 4131   4.611   6.966   1.690
 1078SOL     OW 4132   7.011   3.114   2.021
 1078SOL    HW1 4133   7.022   3.015   2.018
 1078SOL    HW2 4134   0.055   3.157   1.963
 1079SOL     OW 4135   1.706   4.797   3.331
 1079SOL    HW1 4136   1.778   4.765   3.271
 1079SOL    HW2 4137   1.622   4.812   3.279
 1080SOL     OW 4138   1.826   5.447   3.913
 1080SOL    HW1 4139   1.840   5.474   4.009
 1080SOL    HW2 4140   1.731   5.419   3.900
 1081SOL     OW 4141   1.482   0.550   0.046
 1081SOL    HW1 4142   1.512   0.500   6.991
 1081SOL    HW2 4143   1.557   0.605   0.082
 1082SOL     OW 4144   2.164   0.091   1.080
 1082SOL    HW1 4145   2.111   0.059   1.002
 1082SOL    HW2 4146   2.252   0.126   1.048
 1083SOL     OW 4147   3.600   2.520   1.699
 1083SOL    HW1 4148   3.584   2.609   1.741
 1083SOL    HW2 4149   3.626   2.454   1.769
 1084SOL     OW 4150   6.925   3.998   1.153
 1084SOL    HW1 4151   6.990   4.018   1.080
 1084SOL    HW2 4152   6.925   4.073   1.219
 1085SOL     OW 4153   1.720   5.726   4.291
 1085SOL    HW1 4154   1.638   5.677   4.320
 1085SOL    HW2 4155   1.777   5.746   4.371
 1086SOL     OW 4156   2.785   6.015   2.305
 1086SOL    HW1 4157   2.793   5.990   2.209
 1086SOL    HW2 4158   2.873   6.051   2.337
 1087SOL     OW 4159   3.633   3.050   4.935
 1087SOL    HW1 4160   3.688   3.019   4.858
 1087SOL    HW2 4161   3.540   3.013   4.926
 1088SOL     OW 4162   0.147   4.337   2.577
 1088SOL    HW1 4163   0.198   4.411   2.533
 1088SOL    HW2 4164   0.054   4.368   2.596
 1089SOL     OW 4165   6.737   0.307   3.123
 1089SOL    HW1 4166   6.716   0.210   3.136
 1089SOL    HW2 4167   6.818   0.316   3.066
 1090SOL     OW 4168   1.648   2.383   6.682
 1090SOL    HW1 4169   1.661   2.479   6.656
 1090SOL    HW2 4170   1.581   2.378   6.756
 1091SOL     OW 4171   0.851   2.259   5.590
 1091SOL    HW1 4172   0.936   2.285   5.636
 1091SOL    HW2 4173   0.871   2.190   5.521
 1092SOL     OW 4174   2.488   4.888   1.305
 1092SOL    HW1 4175   2.518   4.915   1.213
 1092SOL    HW2 4176   2.392   4.860   1.303
 1093SOL     OW 4177   0.030   2.757   1.763
 1093SOL    HW1 4178   6.962   2.748   1.728
 1093SOL    HW2 4179   0.087   2.803   1.695
 1094SOL     OW 4180   0.910   6.339   2.816
 1094SOL    HW1 4181   0.889   6.290   2.902
 1094SOL    HW2 4182   0.835   6.402   2.796
 1095SOL     OW 4183   0.610   3.533   6.474
 1095SOL    HW1 4184   0.513   3.558   6.478
 1095SOL    HW2 4185   0.622   3.457   6.411
 1096SOL     OW 4186   3.705   3.054   1.851
 1096SOL    HW1 4187   3.634   3.124   1.855
 1096SOL    HW2 4188   3.786   3.091   1.805
 1097SOL     OW 4189   2.732   4.625   6.197
 1097SOL    HW1 4190   2.650   4.641   6.253
 1097SOL    HW2 4191   2.747   4.703   6.137
 1098SOL     OW 4192   3.869   0.291   2.485
 1098SOL    HW1 4193   3.902   0.289   2.391
 1098SOL    HW2 4194   3.770   0.306   2.486
 1099SOL     OW 4195   3.632   0.032   2.180
 1099SOL    HW1 4196   3.677   6.998   2.113
 1099SOL    HW2 4197   3.700   0.072   2.241
 1100SOL     OW 4198   6.851   1.319   0.357
 1100SOL    HW1 4199   6.878   1.330   0.261
 1100SOL    HW2 4200   6.840   1.222   0.378
 1101SOL     OW 4201   5.171   2.943   1.004
 1101SOL    HW1 4202   5.251   3.000   1.022
 1101SOL    HW2 4203   5.097   2.999   0.966
 1102SOL     OW 4204   0.420   3.441   4.110
 1102SOL    HW1 4205   0.391   3.510   4.176
 1102SOL    HW2 4206   0.411   3.478   4.018
 1103SOL     OW 4207   6.868   3.436   6.995
 1103SOL    HW1 4208   6.926   3.355   7.000
 1103SOL    HW2 4209   6.899   3.503   0.038
 1104SOL     OW 4210   2.528   5.865   6.027
 1104SOL    HW1 4211   2.444   5.907   6.062
 1104SOL    HW2 4212   2.607   5.909   6.069
 1105SOL     OW 4213   4.278   5.314   1.134
 1105SOL    HW1 4214   4.273   5.344   1.230
 1105SOL    HW2 4215   4.192   5.337   1.088
 1106SOL     OW 4216   1.260   1.430   6.777
 1106SOL    HW1 4217   1.223   1.493   6.845
 1106SOL    HW2 4218   1.206   1.437   6.692
 1107SOL     OW 4219   6.981   0.414   1.668
 1107SOL    HW1 4220   6.997   0.464   1.583
 1107SOL    HW2 4221   6.905   0.457   1.718
 1108SOL     OW 4222   1.447   1.450   0.109
 1108SOL    HW1 4223   1.456   1.541   0.069
 1108SOL    HW2 4224   1.356   1.414   0.091
 1109SOL     OW 4225   4.359   0.882   3.720
 1109SOL    HW1 4226   4.425   0.813   3.751
 1109SOL    HW2 4227   4.307   0.916   3.799
 1110SOL     OW 4228   3.378   2.926   2.780
 1110SOL    HW1 4229   3.332   2.929   2.692
 1110SOL    HW2 4230   3.321   2.878   2.846
 1111SOL     OW 4231   4.484   6.715   6.951
 1111SOL    HW1 4232   4.565   6.671   6.913
 1111SOL    HW2 4233   4.406   6.653   6.944
 1112SOL     OW 4234   0.939   1.530   2.411
 1112SOL    HW1 4235   0.975   1.477   2.488
 1112SOL    HW2 4236   0.839   1.526   2.411
 1113SOL     OW 4237   6.312   3.456   1.587
 1113SOL    HW1 4238   6.231   3.460   1.646
 1113SOL    HW2 4239   6.291   3.499   1.499
 1114SOL     OW 4240   6.025   1.369   5.553
 1114SOL    HW1 4241   5.966   1.353   5.474
 1114SOL    HW2 4242   6.118   1.340   5.531
 1115SOL     OW 4243   2.263   4.924   0.647
 1115SOL    HW1 4244   2.355   4.908   0.684
 1115SOL    HW2 4245   2.229   5.012   0.681
 1116SOL     OW 4246   3.794   6.266   6.504
 1116SOL    HW1 4247   3.694   6.267   6.502
 1116SOL    HW2 4248   3.828   6.354   6.471
 1117SOL     OW 4249   2.570   3.392   0.953
 1117SOL    HW1 4250   2.520   3.456   0.895
 1117SOL    HW2 4251   2.599   3.313   0.900
 1118SOL     OW 4252   1.376   3.252   1.330
 1118SOL    HW1 4253   1.457   3.310   1.321
 1118SOL    HW2 4254   1.294   3.305   1.307
 1119SOL     OW 4255   2.956   3.741   3.421
 1119SOL    HW1 4256   3.038   3.685   3.425
 1119SOL    HW2 4257   2.910   3.740   3.510
 1120SOL     OW 4258   4.042   0.999   3.918
 1120SOL    HW1 4259   4.134   0.994   3.955
 1120SOL    HW2 4260   3.999   0.909   3.921
 1121SOL     OW 4261   5.198   3.418   3.351
 1121SOL    HW1 4262   5.262   3.352   3.312
 1121SOL    HW2 4263   5.248   3.483   3.409
 1122SOL     OW 4264   4.593   5.440   6.145
 1122SOL    HW1 4265   4.542   5.495   6.211
 1122SOL    HW2 4266   4.646   5.370   6.194
 1123SOL     OW 4267   3.774   1.039   2.177
 1123SOL    HW1 4268   3.862   1.045   2.225
 1123SOL    HW2 4269   3.774   1.104   2.101
 1124SOL     OW 4270   1.726   5.197   4.157
 1124SOL    HW1 4271   1.810   5.167   4.112
 1124SOL    HW2 4272   1.677   5.261   4.098
 1125SOL     OW 4273   3.045   3.497   5.064
 1125SOL    HW1 4274   3.081   3.577   5.112
 1125SOL    HW2 4275   2.991   3.527   4.985
 1126SOL     OW 4276   6.312   0.517   2.396
 1126SOL    HW1 4277   6.246   0.520   2.471
 1126SOL    HW2 4278   6.308   0.428   2.351
 1127SOL     OW 4279   2.186   6.170   6.350
 1127SOL    HW1 4280   2.266   6.227   6.333
 1127SOL    HW2 4281   2.131   6.165   6.267
 1128SOL     OW 4282   2.504   2.621   4.380
 1128SOL    HW1 4283   2.588   2.587   4.338
 1128SOL    HW2 4284   2.484   2.567   4.462
 1129SOL     OW 4285   4.120   5.875   5.965
 1129SOL    HW1 4286   4.121   5.951   6.030
 1129SOL    HW2 4287   4.173   5.899   5.884
 1130SOL     OW 4288   0.185   5.174   5.702
 1130SOL    HW1 4289   0.128   5.125   5.637
 1130SOL    HW2 4290   0.275   5.130   5.709
 1131SOL     OW 4291   0.070   4.924   5.861
 1131SOL    HW1 4292   0.111   5.012   5.835
 1131SOL    HW2 4293   0.074   4.862   5.783
 1132SOL     OW 4294   5.724   6.434   4.814
 1132SOL    HW1 4295   5.629   6.404   4.816
 1132SOL    HW2 4296   5.728   6.532   4.797
 1133SOL     OW 4297   6.747   2.580   6.808
 1133SOL    HW1 4298   6.732   2.597   6.905
 1133SOL    HW2 4299   6.769   2.483   6.794
 1134SOL     OW 4300   0.183   2.781   6.230
 1134SOL    HW1 4301   0.199   2.691   6.191
 1134SOL    HW2 4302   0.092   2.813   6.205
 1135SOL     OW 4303   6.960   1.466   4.599
 1135SOL    HW1 4304   6.939   1.555   4.639
 1135SOL    HW2 4305   6.946   1.470   4.500
 1136SOL     OW 4306   3.393   5.245   4.365
 1136SOL    HW1 4307   3.308   5.291   4.390
 1136SOL    HW2 4308   3.426   5.281   4.278
 1137SOL     OW 4309   1.435   0.760   6.750
 1137SOL    HW1 4310   1.512   0.803   6.795
 1137SOL    HW2 4311   1.351   0.778   6.802
 1138SOL     OW 4312   1.044   4.047   5.988
 1138SOL    HW1 4313   0.993   3.994   5.920
 1138SOL    HW2 4314   1.109   3.988   6.036
 1139SOL     OW 4315   0.864   0.568   2.518
 1139SOL    HW1 4316   0.899   0.600   2.430
 1139SOL    HW2 4317   0.941   0.555   2.581
 1140SOL     OW 4318   3.866   2.156   3.190
 1140SOL    HW1 4319   3.790   2.096   3.214
 1140SOL    HW2 4320   3.845   2.205   3.105
 1141SOL     OW 4321   6.857   6.110   6.083
 1141SOL    HW1 4322   6.880   6.130   6.178
 1141SOL    HW2 4323   6.925   6.047   6.045
 1142SOL     OW 4324   0.066   0.280   4.853
 1142SOL    HW1 4325   0.024   0.311   4.768
 1142SOL    HW2 4326   0.041   0.341   4.928
 1143SOL     OW 4327   4.818   2.188   1.217
 1143SOL    HW1 4328   4.792   2.152   1.307
 1143SOL    HW2 4329   4.862   2.116   1.164
 1144SOL     OW 4330   0.881   6.134   4.888
 1144SOL    HW1 4331   0.944   6.211   4.885
 1144SOL    HW2 4332   0.793   6.164   4.925
 1145SOL     OW 4333   2.072   5.289   4.647
 1145SOL    HW1 4334   2.084   5.191   4.630
 1145SOL    HW2 4335   1.983   5.318   4.612
 1146SOL     OW 4336   5.950   1.697   1.546
 1146SOL    HW1 4337   6.043   1.664   1.529
 1146SOL    HW2 4338   5.888   1.619   1.558
 1147SOL     OW 4339   6.470   3.405   2.020
 1147SOL    HW1 4340   6.423   3.337   1.963
 1147SOL    HW2 4341   6.483   3.489   1.967
 1148SOL     OW 4342   5.452   0.855   6.201
 1148SOL    HW1 4343   5.482   0.944   6.165
 1148SOL    HW2 4344   5.472   0.784   6.134
 1149SOL     OW 4345   5.763   2.879   2.928
 1149SOL    HW1 4346   5.822   2.814   2.880
 1149SOL    HW2 4347   5.671   2.876   2.890
 1150SOL     OW 4348   1.448   5.490   5.549
 1150SOL    HW1 4349   1.482   5.544   5.626
 1150SOL    HW2 4350   1.348   5.487   5.552
 1151SOL     OW 4351   2.481   5.384   0.009
 1151SOL    HW1 4352   2.405   5.430   0.055
 1151SOL    HW2 4353   2.448   5.298   6.995
 1152SOL     OW 4354   0.491   1.050   3.549
 1152SOL    HW1 4355   0.456   0.981   3.486
 1152SOL    HW2 4356   0.507   1.135   3.499
 1153SOL     OW 4357   2.392   4.782   2.514
 1153SOL    HW1 4358   2.413   4.781   2.416
 1153SOL    HW2 4359   2.390   4.688   2.548
 1154SOL     OW 4360   1.616   4.496   2.020
 1154SOL    HW1 4361   1.653   4.403   2.028
 1154SOL    HW2 4362   1.679   4.552   1.966
 1155SOL     OW 4363   4.191   0.259   2.054
 1155SOL    HW1 4364   4.260   0.206   2.005
 1155SOL    HW2 4365   4.223   0.277   2.147
 1156SOL     OW 4366   1.930   0.934   4.165
 1156SOL    HW1 4367   1.954   0.970   4.255
 1156SOL    HW2 4368   1.938   1.007   4.096
 1157SOL     OW 4369   1.687   2.970   3.966
 1157SOL    HW1 4370   1.608   3.020   3.999
 1157SOL    HW2 4371   1.669   2.936   3.873
 1158SOL     OW 4372   4.601   6.159   6.236
 1158SOL    HW1 4373   4.698   6.159   6.211
 1158SOL    HW2 4374   4.562   6.069   6.216
 1159SOL     OW 4375   5.984   4.191   2.575
 1159SOL    HW1 4376   6.044   4.271   2.575
 1159SOL    HW2 4377   5.892   4.219   2.550
 1160SOL     OW 4378   2.448   2.649   0.922
 1160SOL    HW1 4379   2.463   2.728   0.981
 1160SOL    HW2 4380   2.519   2.646   0.852
 1161SOL     OW 4381   4.118   0.635   3.790
 1161SOL    HW1 4382   4.084   0.694   3.717
 1161SOL    HW2 4383   4.071   0.657   3.876
 1162SOL     OW 4384   3.642   5.211   1.494
 1162SOL    HW1 4385   3.637   5.213   1.394
 1162SOL    HW2 4386   3.636   5.305   1.529
 1163SOL     OW 4387   5.011   0.122   2.392
 1163SOL    HW1 4388   5.029   0.099   2.488
 1163SOL    HW2 4389   5.058   0.057   2.333
 1164SOL     OW 4390   6.666   4.109   4.650
 1164SOL    HW1 4391   6.731   4.085   4.579
 1164SOL    HW2 4392   6.685   4.201   4.684
 1165SOL     OW 4393   0.918   4.551   2.216
 1165SOL    HW1 4394   0.949   4.556   2.312
 1165SOL    HW2 4395   0.972   4.481   2.169
 1166SOL     OW 4396   3.254   1.281   6.921
 1166SOL    HW1 4397   3.316   1.210   6.888
 1166SOL    HW2 4398   3.170   1.279   6.867
 1167SOL     OW 4399   4.188   2.073   5.678
 1167SOL    HW1 4400   4.126   2.131   5.625
 1167SOL    HW2 4401   4.136   1.997   5.717
 1168SOL     OW 4402   5.637   0.653   3.519
 1168SOL    HW1 4403   5.565   0.591   3.488
 1168SOL    HW2 4404   5.721   0.635   3.468
 1169SOL     OW 4405   0.964   3.102   1.008
 1169SOL    HW1 4406   1.043   3.050   1.040
 1169SOL    HW2 4407   0.940   3.071   0.916
 1170SOL     OW 4408   2.642   0.869   1.260
 1170SOL    HW1 4409   2.717   0.933   1.240
 1170SOL    HW2 4410   2.556   0.919   1.263
 1171SOL     OW 4411   3.598   1.079   0.571
 1171SOL    HW1 4412   3.591   0.979   0.560
 1171SOL    HW2 4413   3.540   1.124   0.503
 1172SOL     OW 4414   3.164   3.668   5.581
 1172SOL    HW1 4415   3.162   3.768   5.586
 1172SOL    HW2 4416   3.254   3.634   5.607
 1173SOL     OW 4417   5.523   0.036   5.557
 1173SOL    HW1 4418   5.554   0.108   5.619
 1173SOL    HW2 4419   5.426   0.017   5.574
 1174SOL     OW 4420   3.809   5.641   6.579
 1174SOL    HW1 4421   3.907   5.631   6.592
 1174SOL    HW2 4422   3.784   5.612   6.487
 1175SOL     OW 4423   0.063   5.146   4.485
 1175SOL    HW1 4424   0.012   5.148   4.571
 1175SOL    HW2 4425   7.024   5.147   4.408
 1176SOL     OW 4426   5.773   2.742   1.137
 1176SOL    HW1 4427   5.735   2.650   1.149
 1176SOL    HW2 4428   5.860   2.748   1.185
 1177SOL     OW 4429   6.580   3.308   6.653
 1177SOL    HW1 4430   6.539   3.280   6.740
 1177SOL    HW2 4431   6.665   3.259   6.638
 1178SOL     OW 4432   5.318   4.435   2.620
 1178SOL    HW1 4433   5.277   4.349   2.589
 1178SOL    HW2 4434   5.247   4.492   2.664
 1179SOL     OW 4435   1.279   5.364   6.164
 1179SOL    HW1 4436   1.358   5.362   6.225
 1179SOL    HW2 4437   1.238   5.456   6.164
 1180SOL     OW 4438   2.119   0.455   4.161
 1180SOL    HW1 4439   2.131   0.545   4.204
 1180SOL    HW2 4440   2.179   0.449   4.081
 1181SOL     OW 4441   1.622   4.902   2.214
 1181SOL    HW1 4442   1.711   4.929   2.175
 1181SOL    HW2 4443   1.627   4.907   2.314
 1182SOL     OW 4444   1.725   3.811   4.106
 1182SOL    HW1 4445   1.722   3.807   4.206
 1182SOL    HW2 4446   1.634   3.792   4.069
 1183SOL     OW 4447   4.535   5.427   1.174
 1183SOL    HW1 4448   4.546   5.522   1.145
 1183SOL    HW2 4449   4.440   5.399   1.161
 1184SOL     OW 4450   3.321   2.567   6.644
 1184SOL    HW1 4451   3.374   2.642   6.683
 1184SOL    HW2 4452   3.352   2.480   6.682
 1185SOL     OW 4453   2.731   1.307   6.542
 1185SOL    HW1 4454   2.743   1.406   6.544
 1185SOL    HW2 4455   2.733   1.270   6.635
 1186SOL     OW 4456   3.955   0.923   4.925
 1186SOL    HW1 4457   4.003   0.990   4.981
 1186SOL    HW2 4458   3.856   0.933   4.938
 1187SOL     OW 4459   1.452   1.692   4.655
 1187SOL    HW1 4460   1.432   1.728   4.564
 1187SOL    HW2 4461   1.544   1.654   4.656
 1188SOL     OW 4462   1.823   0.832   5.371
 1188SOL    HW1 4463   1.890   0.874   5.431
 1188SOL    HW2 4464   1.755   0.783   5.426
 1189SOL     OW 4465   0.576   1.089   1.271
 1189SOL    HW1 4466   0.506   1.083   1.200
 1189SOL    HW2 4467   0.635   1.168   1.253
 1190SOL     OW 4468   3.885   5.409   1.993
 1190SOL    HW1 4469   3.846   5.386   1.904
 1190SOL    HW2 4470   3.831   5.366   2.065
 1191SOL     OW 4471   2.461   4.416   1.602
 1191SOL    HW1 4472   2.548   4.464   1.616
 1191SOL    HW2 4473   2.445   4.354   1.679
 1192SOL     OW 4474   3.838   5.388   2.879
 1192SOL    HW1 4475   3.836   5.484   2.909
 1192SOL    HW2 4476   3.932   5.356   2.876
 1193SOL     OW 4477   3.294   0.172   4.010
 1193SOL    HW1 4478   3.270   0.188   3.914
 1193SOL    HW2 4479   3.330   0.256   4.050
 1194SOL     OW 4480   6.197   1.849   2.207
 1194SOL    HW1 4481   6.284   1.897   2.194
 1194SOL    HW2 4482   6.132   1.877   2.136
 1195SOL     OW 4483   3.403   6.904   6.784
 1195SOL    HW1 4484   3.384   6.849   6.866
 1195SOL    HW2 4485   3.443   6.991   6.811
 1196SOL     OW 4486   1.497   5.401   3.358
 1196SOL    HW1 4487   1.414   5.454   3.379
 1196SOL    HW2 4488   1.529   5.424   3.266
 1197SOL     OW 4489   3.684   4.908   6.975
 1197SOL    HW1 4490   3.721   4.980   0.008
 1197SOL    HW2 4491   3.735   4.823   6.989
 1198SOL     OW 4492   3.494   0.500   2.712
 1198SOL    HW1 4493   3.547   0.447   2.778
 1198SOL    HW2 4494   3.461   0.584   2.756
 1199SOL     OW 4495   3.556   3.913   3.750
 1199SOL    HW1 4496   3.601   3.892   3.663
 1199SOL    HW2 4497   3.561   4.011   3.767
 1200SOL     OW 4498   4.719   3.495   1.233
 1200SOL    HW1 4499   4.816   3.494   1.258
 1200SOL    HW2 4500   4.666   3.533   1.308
 1201SOL     OW 4501   1.755   2.201   5.186
 1201SOL    HW1 4502   1.826   2.133   5.209
 1201SOL    HW2 4503   1.685   2.202   5.257
 1202SOL     OW 4504   6.612   0.105   4.642
 1202SOL    HW1 4505   6.569   0.022   4.677
 1202SOL    HW2 4506   6.706   0.111   4.675
 1203SOL     OW 4507   6.250   6.956   2.554
 1203SOL    HW1 4508   6.309   0.010   2.539
 1203SOL    HW2 4509   6.195   6.971   2.636
 1204SOL     OW 4510   1.634   0.249   7.022
 1204SOL    HW1 4511   1.703   0.213   6.959
 1204SOL    HW2 4512   1.643   0.204   0.085
 1205SOL     OW 4513   0.747   2.959   5.554
 1205SOL    HW1 4514   0.758   2.931   5.650
 1205SOL    HW2 4515   0.783   3.052   5.543
 1206SOL     OW 4516   0.044   1.113   4.477
 1206SOL    HW1 4517   0.089   1.179   4.416
 1206SOL    HW2 4518   0.088   1.115   4.566
 1207SOL     OW 4519   6.074   6.685   6.204
 1207SOL    HW1 4520   6.141   6.725   6.141
 1207SOL    HW2 4521   6.106   6.595   6.234
 1208SOL     OW 4522   3.456   3.533   2.914
 1208SOL    HW1 4523   3.368   3.497   2.886
 1208SOL    HW2 4524   3.442   3.617   2.967
 1209SOL     OW 4525   0.019   4.121   4.538
 1209SOL    HW1 4526   0.103   4.074   4.564
 1209SOL    HW2 4527   7.000   4.072   4.463
 1210SOL     OW 4528   2.400   0.306   2.802
 1210SOL    HW1 4529   2.399   0.377   2.731
 1210SOL    HW2 4530   2.307   0.292   2.836
 1211SOL     OW 4531   0.793   3.119   3.325
 1211SOL    HW1 4532   0.722   3.064   3.281
 1211SOL    HW2 4533   0.788   3.213   3.291
 1212SOL     OW 4534   1.099   4.480   3.638
 1212SOL    HW1 4535   1.155   4.533   3.703
 1212SOL    HW2 4536   1.019   4.534   3.612
 1213SOL     OW 4537   5.703   3.844   5.529
 1213SOL    HW1 4538   5.658   3.822   5.443
 1213SOL    HW2 4539   5.640   3.827   5.605
 1214SOL     OW 4540   1.516   1.737   1.536
 1214SOL    HW1 4541   1.438   1.698   1.487
 1214SOL    HW2 4542   1.485   1.804   1.602
 1215SOL     OW 4543   0.368   5.378   1.846
 1215SOL    HW1 4544   0.405   5.296   1.801
 1215SOL    HW2 4545   0.280   5.402   1.804
 1216SOL     OW 4546   2.289   0.101   1.342
 1216SOL    HW1 4547   2.247   0.096   1.252
 1216SOL    HW2 4548   2.284   0.196   1.375
 1217SOL     OW 4549   1.987   2.961   3.041
 1217SOL    HW1 4550   1.974   2.974   2.943
 1217SOL    HW2 4551   1.907   2.915   3.080
 1218SOL     OW 4552   1.032   3.772   3.248
 1218SOL    HW1 4553   1.000   3.859   3.285
 1218SOL    HW2 4554   0.966   3.700   3.269
 1219SOL     OW 4555   2.512   5.767   3.068
 1219SOL    HW1 4556   2.525   5.707   2.989
 1219SOL    HW2 4557   2.482   5.857   3.037
 1220SOL     OW 4558   6.161   4.959   2.710
 1220SOL    HW1 4559   6.099   5.014   2.654
 1220SOL    HW2 4560   6.158   4.864   2.680
 1221SOL     OW 4561   4.821   4.705   5.413
 1221SOL    HW1 4562   4.814   4.711   5.314
 1221SOL    HW2 4563   4.769   4.780   5.455
 1222SOL     OW 4564   6.883   4.242   1.371
 1222SOL    HW1 4565   6.818   4.237   1.295
 1222SOL    HW2 4566   6.863   4.169   1.437
 1223SOL     OW 4567   0.065   4.935   4.817
 1223SOL    HW1 4568   0.075   4.876   4.737
 1223SOL    HW2 4569   7.003   4.916   4.861
 1224SOL     OW 4570   4.248   4.192   1.094
 1224SOL    HW1 4571   4.300   4.266   1.136
 1224SOL    HW2 4572   4.310   4.136   1.038
 1225SOL     OW 4573   4.439   1.695   0.165
 1225SOL    HW1 4574   4.476   1.781   0.202
 1225SOL    HW2 4575   4.471   1.619   0.220
 1226SOL     OW 4576   6.020   5.821   0.791
 1226SOL    HW1 4577   6.054   5.761   0.719
 1226SOL    HW2 4578   6.095   5.880   0.822
 1227SOL     OW 4579   4.853   4.340   6.783
 1227SOL    HW1 4580   4.913   4.260   6.784
 1227SOL    HW2 4581   4.896   4.413   6.730
 1228SOL     OW 4582   3.891   3.942   4.286
 1228SOL    HW1 4583   3.852   4.000   4.357
 1228SOL    HW2 4584   3.867   3.847   4.304
 1229SOL     OW 4585   2.346   5.423   2.847
 1229SOL    HW1 4586   2.404   5.461   2.918
 1229SOL    HW2 4587   2.251   5.449   2.864
 1230SOL     OW 4588   4.435   4.211   0.516
 1230SOL    HW1 4589   4.403   4.305   0.519
 1230SOL    HW2 4590   4.361   4.150   0.545
 1231SOL     OW 4591   2.252   1.574   0.438
 1231SOL    HW1 4592   2.234   1.566   0.340
 1231SOL    HW2 4593   2.166   1.583   0.487
 1232SOL     OW 4594   2.674   2.160   5.722
 1232SOL    HW1 4595   2.769   2.146   5.694
 1232SOL    HW2 4596   2.615   2.155   5.641
 1233SOL     OW 4597   0.359   5.341   4.555
 1233SOL    HW1 4598   0.392   5.365   4.464
 1233SOL    HW2 4599   0.377   5.244   4.572
 1234SOL     OW 4600   6.287   4.330   6.656
 1234SOL    HW1 4601   6.349   4.261   6.694
 1234SOL    HW2 4602   6.259   4.393   6.727
 1235SOL     OW 4603   6.143   5.075   0.641
 1235SOL    HW1 4604   6.181   5.123   0.562
 1235SOL    HW2 4605   6.109   5.141   0.707
 1236SOL     OW 4606   0.759   1.022   2.741
 1236SOL    HW1 4607   0.751   1.100   2.678
 1236SOL    HW2 4608   0.703   0.947   2.708
 1237SOL     OW 4609   1.269   0.183   4.170
 1237SOL    HW1 4610   1.172   0.199   4.147
 1237SOL    HW2 4611   1.275   0.126   4.251
 1238SOL     OW 4612   0.053   0.642   3.773
 1238SOL    HW1 4613   0.053   0.678   3.866
 1238SOL    HW2 4614   0.140   0.665   3.729
 1239SOL     OW 4615   5.141   4.228   3.821
 1239SOL    HW1 4616   5.207   4.286   3.774
 1239SOL    HW2 4617   5.073   4.195   3.756
 1240SOL     OW 4618   0.564   3.671   0.759
 1240SOL    HW1 4619   0.612   3.597   0.712
 1240SOL    HW2 4620   0.567   3.753   0.702
 1241SOL     OW 4621   3.496   5.271   5.689
 1241SOL    HW1 4622   3.496   5.371   5.689
 1241SOL    HW2 4623   3.403   5.238   5.674
 1242SOL     OW 4624   2.058   5.491   0.511
 1242SOL    HW1 4625   2.144   5.524   0.474
 1242SOL    HW2 4626   2.033   5.545   0.591
 1243SOL     OW 4627   0.400   4.074   3.403
 1243SOL    HW1 4628   0.390   4.026   3.490
 1243SOL    HW2 4629   0.432   4.011   3.333
 1244SOL     OW 4630   6.995   6.834   4.764
 1244SOL    HW1 4631   6.998   6.911   4.828
 1244SOL    HW2 4632   7.007   6.868   4.670
 1245SOL     OW 4633   4.912   6.553   1.355
 1245SOL    HW1 4634   4.945   6.510   1.271
 1245SOL    HW2 4635   4.812   6.549   1.358
 1246SOL     OW 4636   5.826   2.150   1.850
 1246SOL    HW1 4637   5.727   2.142   1.861
 1246SOL    HW2 4638   5.846   2.192   1.762
 1247SOL     OW 4639   5.055   6.749   2.408
 1247SOL    HW1 4640   5.127   6.811   2.378
 1247SOL    HW2 4641   5.094   6.657   2.418
 1248SOL     OW 4642   0.606   6.947   4.903
 1248SOL    HW1 4643   0.629   6.850   4.917
 1248SOL    HW2 4644   0.507   6.960   4.916
 1249SOL     OW 4645   6.056   6.646   6.595
 1249SOL    HW1 4646   5.998   6.685   6.524
 1249SOL    HW2 4647   6.002   6.584   6.652
 1250SOL     OW 4648   0.565   4.706   4.925
 1250SOL    HW1 4649   0.603   4.779   4.870
 1250SOL    HW2 4650   0.624   4.625   4.920
 1251SOL     OW 4651   2.896   0.415   2.658
 1251SOL    HW1 4652   2.825   0.395   2.590
 1251SOL    HW2 4653   2.930   0.329   2.697
 1252SOL     OW 4654   2.479   5.520   6.371
 1252SOL    HW1 4655   2.469   5.451   6.442
 1252SOL    HW2 4656   2.389   5.559   6.350
 1253SOL     OW 4657   2.712   5.791   0.062
 1253SOL    HW1 4658   2.692   5.862   7.020
 1253SOL    HW2 4659   2.807   5.800   0.093
 1254SOL     OW 4660   6.210   1.423   3.951
 1254SOL    HW1 4661   6.125   1.430   4.004
 1254SOL    HW2 4662   6.279   1.482   3.992
 1255SOL     OW 4663   6.101   2.050   5.836
 1255SOL    HW1 4664   6.158   1.976   5.872
 1255SOL    HW2 4665   6.099   2.047   5.737
 1256SOL     OW 4666   7.016   5.545   5.288
 1256SOL    HW1 4667   0.025   5.453   5.268
 1256SOL    HW2 4668   0.031   5.577   5.374
 1257SOL     OW 4669   0.055   6.230   3.332
 1257SOL    HW1 4670   0.130   6.166   3.351
 1257SOL    HW2 4671   0.083   6.322   3.358
 1258SOL     OW 4672   4.166   5.341   6.822
 1258SOL    HW1 4673   4.123   5.425   6.856
 1258SOL    HW2 4674   4.137   5.324   6.728
 1259SOL     OW 4675   5.165   6.617   5.162
 1259SOL    HW1 4676   5.224   6.651   5.088
 1259SOL    HW2 4677   5.069   6.630   5.136
 1260SOL     OW 4678   3.034   0.916   0.673
 1260SOL    HW1 4679   2.957   0.921   0.609
 1260SOL    HW2 4680   3.110   0.866   0.630
 1261SOL     OW 4681   0.206   4.364   4.242
 1261SOL    HW1 4682   0.122   4.339   4.193
 1261SOL    HW2 4683   0.182   4.423   4.320
 1262SOL     OW 4684   3.806   5.622   1.722
 1262SOL    HW1 4685   3.894   5.601   1.766
 1262SOL    HW2 4686   3.745   5.663   1.790
 1263SOL     OW 4687   6.925   1.400   1.676
 1263SOL    HW1 4688   6.990   1.333   1.640
 1263SOL    HW2 4689   6.832   1.370   1.657
 1264SOL     OW 4690   6.431   2.228   4.569
 1264SOL    HW1 4691   6.365   2.271   4.630
 1264SOL    HW2 4692   6.454   2.137   4.602
 1265SOL     OW 4693   6.016   5.554   4.883
 1265SOL    HW1 4694   6.102   5.604   4.891
 1265SOL    HW2 4695   6.034   5.464   4.843
 1266SOL     OW 4696   3.091   0.882   3.598
 1266SOL    HW1 4697   3.186   0.862   3.575
 1266SOL    HW2 4698   3.071   0.849   3.690
 1267SOL     OW 4699   0.515   4.537   2.146
 1267SOL    HW1 4700   0.422   4.526   2.113
 1267SOL    HW2 4701   0.577   4.545   2.067
 1268SOL     OW 4702   5.828   4.443   0.025
 1268SOL    HW1 4703   5.855   4.427   6.956
 1268SOL    HW2 4704   5.856   4.365   0.081
 1269SOL     OW 4705   6.716   4.972   6.592
 1269SOL    HW1 4706   6.775   4.908   6.543
 1269SOL    HW2 4707   6.665   4.923   6.663
 1270SOL     OW 4708   1.442   1.607   4.025
 1270SOL    HW1 4709   1.510   1.542   3.992
 1270SOL    HW2 4710   1.374   1.623   3.953
 1271SOL     OW 4711   5.895   2.659   3.223
 1271SOL    HW1 4712   5.839   2.716   3.163
 1271SOL    HW2 4713   5.955   2.601   3.168
 1272SOL     OW 4714   6.043   6.347   0.157
 1272SOL    HW1 4715   6.084   6.437   0.165
 1272SOL    HW2 4716   5.944   6.354   0.164
 1273SOL     OW 4717   2.415   0.017   5.112
 1273SOL    HW1 4718   2.337   0.046   5.167
 1273SOL    HW2 4719   2.464   0.098   5.079
 1274SOL     OW 4720   6.017   2.245   2.057
 1274SOL    HW1 4721   6.016   2.345   2.066
 1274SOL    HW2 4722   5.942   2.217   1.997
 1275SOL     OW 4723   3.838   1.730   4.070
 1275SOL    HW1 4724   3.928   1.688   4.075
 1275SOL    HW2 4725   3.814   1.748   3.975
 1276SOL     OW 4726   5.895   0.077   2.397
 1276SOL    HW1 4727   5.938   7.013   2.407
 1276SOL    HW2 4728   5.801   0.066   2.365
 1277SOL     OW 4729   1.114   1.562   4.415
 1277SOL    HW1 4730   1.129   1.479   4.361
 1277SOL    HW2 4731   1.017   1.571   4.437
 1278SOL     OW 4732   3.308   1.716   5.222
 1278SOL    HW1 4733   3.248   1.742   5.297
 1278SOL    HW2 4734   3.258   1.659   5.157
 1279SOL     OW 4735   2.307   5.294   0.298
 1279SOL    HW1 4736   2.351   5.290   0.387
 1279SOL    HW2 4737   2.287   5.389   0.274
 1280SOL     OW 4738   1.126   6.069   3.036
 1280SOL    HW1 4739   1.177   6.086   2.952
 1280SOL    HW2 4740   1.188   6.030   3.105
 1281SOL     OW 4741   0.431   6.761   3.963
 1281SOL    HW1 4742   0.347   6.806   3.934
 1281SOL    HW2 4743   0.411   6.666   3.988
 1282SOL     OW 4744   1.133   6.331   2.629
 1282SOL    HW1 4745   1.179   6.261   2.684
 1282SOL    HW2 4746   1.082   6.392   2.689
 1283SOL     OW 4747   5.143   4.223   5.006
 1283SOL    HW1 4748   5.064   4.262   5.053
 1283SOL    HW2 4749   5.200   4.296   4.970
 1284SOL     OW 4750   3.239   1.880   3.088
 1284SOL    HW1 4751   3.171   1.902   3.018
 1284SOL    HW2 4752   3.220   1.789   3.125
 1285SOL     OW 4753   6.065   2.930   6.332
 1285SOL    HW1 4754   6.164   2.941   6.321
 1285SOL    HW2 4755   6.042   2.833   6.324
 1286SOL     OW 4756   6.279   5.721   1.010
 1286SOL    HW1 4757   6.288   5.735   1.108
 1286SOL    HW2 4758   6.251   5.807   0.967
 1287SOL     OW 4759   6.601   4.078   5.801
 1287SOL    HW1 4760   6.599   4.073   5.701
 1287SOL    HW2 4761   6.507   4.076   5.836
 1288SOL     OW 4762   6.410   3.507   3.809
 1288SOL    HW1 4763   6.481   3.468   3.750
 1288SOL    HW2 4764   6.392   3.602   3.783
 1289SOL     OW 4765   0.408   5.020   2.648
 1289SOL    HW1 4766   0.447   4.997   2.737
 1289SOL    HW2 4767   0.336   5.088   2.660
 1290SOL     OW 4768   0.883   0.199   1.473
 1290SOL    HW1 4769   0.868   0.104   1.445
 1290SOL    HW2 4770   0.845   0.261   1.404
 1291SOL     OW 4771   1.799   6.278   1.256
 1291SOL    HW1 4772   1.720   6.219   1.271
 1291SOL    HW2 4773   1.832   6.313   1.344
 1292SOL     OW 4774   1.085   6.241   6.708
 1292SOL    HW1 4775   1.123   6.180   6.777
 1292SOL    HW2 4776   0.989   6.260   6.729
 1293SOL     OW 4777   6.120   2.048   6.593
 1293SOL    HW1 4778   6.125   2.098   6.507
 1293SOL    HW2 4779   6.028   2.054   6.631
 1294SOL     OW 4780   0.512   1.606   3.433
 1294SOL    HW1 4781   0.594   1.562   3.399
 1294SOL    HW2 4782   0.432   1.572   3.383
 1295SOL     OW 4783   4.994   3.523   1.329
 1295SOL    HW1 4784   4.983   3.573   1.415
 1295SOL    HW2 4785   5.044   3.438   1.346
 1296SOL     OW 4786   3.339   1.936   0.205
 1296SOL    HW1 4787   3.426   1.942   0.254
 1296SOL    HW2 4788   3.273   1.999   0.245
 1297SOL     OW 4789   6.613   0.668   5.911
 1297SOL    HW1 4790   6.614   0.713   6.000
 1297SOL    HW2 4791   6.638   0.733   5.839
 1298SOL     OW 4792   6.637   2.706   3.632
 1298SOL    HW1 4793   6.675   2.680   3.720
 1298SOL    HW2 4794   6.567   2.776   3.645
 1299SOL     OW 4795   1.465   2.875   4.416
 1299SOL    HW1 4796   1.390   2.933   4.384
 1299SOL    HW2 4797   1.551   2.925   4.406
 1300SOL     OW 4798   3.851   3.375   2.695
 1300SOL    HW1 4799   3.950   3.384   2.684
 1300SOL    HW2 4800   3.810   3.350   2.608
 1301SOL     OW 4801   1.188   1.565   2.306
 1301SOL    HW1 4802   1.194   1.594   2.210
 1301SOL    HW2 4803   1.093   1.571   2.336
 1302SOL     OW 4804   2.547   6.137   5.601
 1302SOL    HW1 4805   2.492   6.206   5.555
 1302SOL    HW2 4806   2.644   6.161   5.593
 1303SOL     OW 4807   3.197   0.329   1.483
 1303SOL    HW1 4808   3.188   0.407   1.421
 1303SOL    HW2 4809   3.147   0.251   1.447
 1304SOL     OW 4810   3.801   1.158   5.958
 1304SOL    HW1 4811   3.729   1.106   5.912
 1304SOL    HW2 4812   3.808   1.128   6.054
 1305SOL     OW 4813   5.783   6.633   3.823
 1305SOL    HW1 4814   5.774   6.547   3.872
 1305SOL    HW2 4815   5.699   6.687   3.833
 1306SOL     OW 4816   1.422   5.213   4.518
 1306SOL    HW1 4817   1.433   5.125   4.564
 1306SOL    HW2 4818   1.378   5.278   4.579
 1307SOL     OW 4819   0.923   1.036   4.115
 1307SOL    HW1 4820   0.856   1.054   4.043
 1307SOL    HW2 4821   0.913   1.104   4.187
 1308SOL     OW 4822   4.827   5.950   3.179
 1308SOL    HW1 4823   4.859   5.988   3.266
 1308SOL    HW2 4824   4.810   6.025   3.115
 1309SOL     OW 4825   5.177   3.011   4.489
 1309SOL    HW1 4826   5.270   3.009   4.454
 1309SOL    HW2 4827   5.179   3.012   4.589
 1310SOL     OW 4828   5.111   3.732   5.789
 1310SOL    HW1 4829   5.123   3.696   5.882
 1310SOL    HW2 4830   5.200   3.758   5.751
 1311SOL     OW 4831   5.028   5.153   5.465
 1311SOL    HW1 4832   5.036   5.063   5.508
 1311SOL    HW2 4833   4.979   5.144   5.378
 1312SOL     OW 4834   6.294   0.226   1.788
 1312SOL    HW1 4835   6.199   0.251   1.769
 1312SOL    HW2 4836   6.330   0.285   1.861
 1313SOL     OW 4837   3.128   5.134   5.095
 1313SOL    HW1 4838   3.183   5.115   5.176
 1313SOL    HW2 4839   3.064   5.058   5.079
 1314SOL     OW 4840   6.757   1.293   5.921
 1314SOL    HW1 4841   6.844   1.318   5.877
 1314SOL    HW2 4842   6.683   1.304   5.854
 1315SOL     OW 4843   1.600   6.793   3.526
 1315SOL    HW1 4844   1.567   6.732   3.598
 1315SOL    HW2 4845   1.591   6.747   3.438
 1316SOL     OW 4846   3.164   6.278   3.155
 1316SOL    HW1 4847   3.138   6.297   3.061
 1316SOL    HW2 4848   3.257   6.242   3.157
 1317SOL     OW 4849   0.730   3.653   3.780
 1317SOL    HW1 4850   0.691   3.565   3.807
 1317SOL    HW2 4851   0.802   3.679   3.844
 1318SOL     OW 4852   1.009   6.100   1.423
 1318SOL    HW1 4853   1.065   6.066   1.498
 1318SOL    HW2 4854   0.918   6.057   1.428
 1319SOL     OW 4855   6.597   0.290   0.531
 1319SOL    HW1 4856   6.581   0.286   0.433
 1319SOL    HW2 4857   6.553   0.372   0.569
 1320SOL     OW 4858   5.185   5.549   4.497
 1320SOL    HW1 4859   5.159   5.606   4.576
 1320SOL    HW2 4860   5.284   5.546   4.489
 1321SOL     OW 4861   3.527   1.379   0.730
 1321SOL    HW1 4862   3.619   1.418   0.741
 1321SOL    HW2 4863   3.490   1.405   0.641
 1322SOL     OW 4864   5.167   1.362   6.232
 1322SOL    HW1 4865   5.073   1.341   6.204
 1322SOL    HW2 4866   5.190   1.455   6.205
 1323SOL     OW 4867   6.763   0.734   4.133
 1323SOL    HW1 4868   6.852   0.742   4.178
 1323SOL    HW2 4869   6.704   0.810   4.160
 1324SOL     OW 4870   1.339   2.639   0.564
 1324SOL    HW1 4871   1.323   2.556   0.618
 1324SOL    HW2 4872   1.333   2.616   0.466
 1325SOL     OW 4873   4.114   5.445   3.637
 1325SOL    HW1 4874   4.016   5.452   3.616
 1325SOL    HW2 4875   4.140   5.348   3.640
 1326SOL     OW 4876   5.634   3.912   4.776
 1326SOL    HW1 4877   5.559   3.890   4.714
 1326SOL    HW2 4878   5.602   3.903   4.870
 1327SOL     OW 4879   2.679   6.413   4.098
 1327SOL    HW1 4880   2.609   6.362   4.148
 1327SOL    HW2 4881   2.765   6.409   4.149
 1328SOL     OW 4882   2.412   1.155   1.449
 1328SOL    HW1 4883   2.392   1.086   1.518
 1328SOL    HW2 4884   2.487   1.214   1.480
 1329SOL     OW 4885   1.098   6.317   1.840
 1329SOL    HW1 4886   1.099   6.403   1.891
 1329SOL    HW2 4887   1.186   6.271   1.850
 1330SOL     OW 4888   4.618   6.227   0.939
 1330SOL    HW1 4889   4.572   6.150   0.983
 1330SOL    HW2 4890   4.717   6.215   0.945
 1331SOL     OW 4891   0.924   2.175   1.819
 1331SOL    HW1 4892   0.880   2.151   1.733
 1331SOL    HW2 4893   0.961   2.268   1.812
 1332SOL     OW 4894   4.456   2.196   1.316
 1332SOL    HW1 4895   4.403   2.182   1.232
 1332SOL    HW2 4896   4.504   2.284   1.310
 1333SOL     OW 4897   4.072   3.500   4.810
 1333SOL    HW1 4898   4.041   3.405   4.799
 1333SOL    HW2 4899   4.092   3.539   4.720
 1334SOL     OW 4900   1.138   3.565   3.880
 1334SOL    HW1 4901   1.048   3.557   3.923
 1334SOL    HW2 4902   1.199   3.496   3.918
 1335SOL     OW 4903   1.684   6.072   3.268
 1335SOL    HW1 4904   1.666   6.032   3.358
 1335SOL    HW2 4905   1.597   6.089   3.221
 1336SOL     OW 4906   0.085   6.962   5.492
 1336SOL    HW1 4907   0.119   6.903   5.418
 1336SOL    HW2 4908   0.150   6.962   5.567
 1337SOL     OW 4909   3.790   0.153   0.154
 1337SOL    HW1 4910   3.734   0.236   0.147
 1337SOL    HW2 4911   3.876   0.166   0.104
 1338SOL     OW 4912   2.928   5.269   1.486
 1338SOL    HW1 4913   2.993   5.202   1.522
 1338SOL    HW2 4914   2.978   5.335   1.429
 1339SOL     OW 4915   0.204   4.413   6.627
 1339SOL    HW1 4916   0.174   4.485   6.689
 1339SOL    HW2 4917   0.294   4.435   6.591
 1340SOL     OW 4918   2.320   1.401   6.299
 1340SOL    HW1 4919   2.369   1.472   6.249
 1340SOL    HW2 4920   2.247   1.442   6.354
 1341SOL     OW 4921   5.759   2.386   4.245
 1341SOL    HW1 4922   5.843   2.383   4.299
 1341SOL    HW2 4923   5.733   2.482   4.230
 1342SOL     OW 4924   0.767   6.839   1.601
 1342SOL    HW1 4925   0.747   6.897   1.680
 1342SOL    HW2 4926   0.819   6.759   1.631
 1343SOL     OW 4927   2.632   5.990   4.039
 1343SOL    HW1 4928   2.683   6.010   4.123
 1343SOL    HW2 4929   2.659   6.055   3.967
 1344SOL     OW 4930   5.091   1.671   3.277
 1344SOL    HW1 4931   5.044   1.707   3.358
 1344SOL    HW2 4932   5.091   1.571   3.280
 1345SOL     OW 4933   0.495   5.614   2.498
 1345SOL    HW1 4934   0.562   5.678   2.461
 1345SOL    HW2 4935   0.407   5.628   2.452
 1346SOL     OW 4936   0.208   1.425   3.425
 1346SOL    HW1 4937   0.116   1.445   3.459
 1346SOL    HW2 4938   0.223   1.474   3.339
 1347SOL     OW 4939   4.392   0.551   3.748
 1347SOL    HW1 4940   4.446   0.607   3.810
 1347SOL    HW2 4941   4.298   0.586   3.745
 1348SOL     OW 4942   4.287   5.742   4.246
 1348SOL    HW1 4943   4.329   5.829   4.271
 1348SOL    HW2 4944   4.298   5.727   4.148
 1349SOL     OW 4945   4.534   1.951   0.225
 1349SOL    HW1 4946   4.537   2.040   0.179
 1349SOL    HW2 4947   4.501   1.963   0.318
 1350SOL     OW 4948   3.002   0.609   4.998
 1350SOL    HW1 4949   2.956   0.652   4.921
 1350SOL    HW2 4950   3.008   0.675   5.074
 1351SOL     OW 4951   1.793   1.547   3.407
 1351SOL    HW1 4952   1.779   1.541   3.308
 1351SOL    HW2 4953   1.853   1.625   3.428
 1352SOL     OW 4954   1.130   6.474   4.175
 1352SOL    HW1 4955   1.137   6.437   4.268
 1352SOL    HW2 4956   1.052   6.536   4.170
 1353SOL     OW 4957   2.276   3.091   5.456
 1353SOL    HW1 4958   2.345   3.142   5.405
 1353SOL    HW2 4959   2.245   3.145   5.534
 1354SOL     OW 4960   0.351   0.181   0.291
 1354SOL    HW1 4961   0.342   0.164   0.389
 1354SOL    HW2 4962   0.390   0.100   0.247
 1355SOL     OW 4963   3.694   2.972   6.978
 1355SOL    HW1 4964   3.697   2.916   6.895
 1355SOL    HW2 4965   3.779   3.025   6.985
 1356SOL     OW 4966   3.261   2.899   1.534
 1356SOL    HW1 4967   3.298   2.914   1.626
 1356SOL    HW2 4968   3.166   2.870   1.541
 1357SOL     OW 4969   3.380   2.887   5.944
 1357SOL    HW1 4970   3.403   2.863   6.038
 1357SOL    HW2 4971   3.357   2.804   5.893
 1358SOL     OW 4972   1.508   4.195   5.808
 1358SOL    HW1 4973   1.597   4.193   5.763
 1358SOL    HW2 4974   1.513   4.253   5.890
 1359SOL     OW 4975   0.256   2.000   6.285
 1359SOL    HW1 4976   0.251   1.941   6.365
 1359SOL    HW2 4977   0.338   2.057   6.291
 1360SOL     OW 4978   3.278   3.411   4.070
 1360SOL    HW1 4979   3.351   3.409   4.002
 1360SOL    HW2 4980   3.217   3.489   4.051
 1361SOL     OW 4981   0.711   6.353   1.152
 1361SOL    HW1 4982   0.632   6.293   1.139
 1361SOL    HW2 4983   0.788   6.299   1.184
 1362SOL     OW 4984   3.399   1.655   0.178
 1362SOL    HW1 4985   3.480   1.607   0.147
 1362SOL    HW2 4986   3.409   1.753   0.161
 1363SOL     OW 4987   6.977   6.672   1.030
 1363SOL    HW1 4988   6.908   6.600   1.037
 1363SOL    HW2 4989   6.982   6.706   0.936
 1364SOL     OW 4990   1.269   3.882   0.894
 1364SOL    HW1 4991   1.356   3.888   0.943
 1364SOL    HW2 4992   1.197   3.854   0.958
 1365SOL     OW 4993   0.783   3.672   6.102
 1365SOL    HW1 4994   0.863   3.660   6.161
 1365SOL    HW2 4995   0.791   3.613   6.022
 1366SOL     OW 4996   3.564   0.139   1.488
 1366SOL    HW1 4997   3.499   0.158   1.562
 1366SOL    HW2 4998   3.657   0.141   1.525
 1367SOL     OW 4999   1.232   0.054   4.419
 1367SOL    HW1 5000   1.244   0.018   4.511
 1367SOL    HW2 5001   1.152   0.115   4.417
 1368SOL     OW 5002   1.753   6.556   4.739
 1368SOL    HW1 5003   1.839   6.514   4.767
 1368SOL    HW2 5004   1.745   6.552   4.640
 1369SOL     OW 5005   2.225   5.323   4.020
 1369SOL    HW1 5006   2.155   5.333   3.950
 1369SOL    HW2 5007   2.204   5.383   4.098
 1370SOL     OW 5008   6.733   2.718   3.153
 1370SOL    HW1 5009   6.799   2.726   3.078
 1370SOL    HW2 5010   6.749   2.792   3.218
 1371SOL     OW 5011   6.203   2.109   5.575
 1371SOL    HW1 5012   6.137   2.184   5.572
 1371SOL    HW2 5013   6.202   2.059   5.488
 1372SOL     OW 5014   5.593   2.600   1.491
 1372SOL    HW1 5015   5.531   2.580   1.567
 1372SOL    HW2 5016   5.540   2.605   1.406
 1373SOL     OW 5017   5.984   3.071   1.718
 1373SOL    HW1 5018   5.915   3.122   1.768
 1373SOL    HW2 5019   5.983   2.975   1.748
 1374SOL     OW 5020   4.151   3.246   2.440
 1374SOL    HW1 5021   4.137   3.345   2.447
 1374SOL    HW2 5022   4.134   3.217   2.346
 1375SOL     OW 5023   5.134   4.855   4.306
 1375SOL    HW1 5024   5.064   4.926   4.296
 1375SOL    HW2 5025   5.218   4.895   4.341
 1376SOL     OW 5026   3.071   4.216   5.530
 1376SOL    HW1 5027   3.048   4.293   5.470
 1376SOL    HW2 5028   3.032   4.232   5.620
 1377SOL     OW 5029   1.180   1.799   3.085
 1377SOL    HW1 5030   1.166   1.784   2.987
 1377SOL    HW2 5031   1.177   1.897   3.104
 1378SOL     OW 5032   4.984   2.135   4.473
 1378SOL    HW1 5033   4.909   2.172   4.417
 1378SOL    HW2 5034   5.057   2.203   4.479
 1379SOL     OW 5035   4.491   5.499   0.349
 1379SOL    HW1 5036   4.565   5.436   0.326
 1379SOL    HW2 5037   4.448   5.470   0.435
 1380SOL     OW 5038   0.428   6.015   3.724
 1380SOL    HW1 5039   0.438   6.097   3.666
 1380SOL    HW2 5040   0.332   5.986   3.724
 1381SOL     OW 5041   6.515   2.612   5.707
 1381SOL    HW1 5042   6.538   2.707   5.725
 1381SOL    HW2 5043   6.594   2.565   5.668
 1382SOL     OW 5044   4.272   2.183   6.541
 1382SOL    HW1 5045   4.310   2.136   6.621
 1382SOL    HW2 5046   4.347   2.226   6.490
 1383SOL     OW 5047   6.454   0.408   0.843
 1383SOL    HW1 5048   6.415   0.379   0.931
 1383SOL    HW2 5049   6.505   0.493   0.855
 1384SOL     OW 5050   6.206   2.113   1.919
 1384SOL    HW1 5051   6.119   2.132   1.966
 1384SOL    HW2 5052   6.236   2.196   1.873
 1385SOL     OW 5053   0.052   6.043   1.759
 1385SOL    HW1 5054   0.027   5.970   1.823
 1385SOL    HW2 5055   0.128   6.013   1.702
 1386SOL     OW 5056   2.076   6.305   3.939
 1386SOL    HW1 5057   2.171   6.311   3.972
 1386SOL    HW2 5058   2.069   6.232   3.871
 1387SOL     OW 5059   1.965   5.982   1.846
 1387SOL    HW1 5060   1.873   5.943   1.837
 1387SOL    HW2 5061   1.960   6.067   1.900
 1388SOL     OW 5062   6.591   0.486   1.439
 1388SOL    HW1 5063   6.594   0.539   1.524
 1388SOL    HW2 5064   6.525   0.526   1.376
 1389SOL     OW 5065   6.316   0.728   1.870
 1389SOL    HW1 5066   6.397   0.780   1.842
 1389SOL    HW2 5067   6.263   0.782   1.935
 1390SOL     OW 5068   1.317   1.761   4.410
 1390SOL    HW1 5069   1.362   1.757   4.321
 1390SOL    HW2 5070   1.242   1.695   4.412
 1391SOL     OW 5071   0.329   3.226   3.598
 1391SOL    HW1 5072   0.390   3.245   3.675
 1391SOL    HW2 5073   0.383   3.191   3.522
 1392SOL     OW 5074   5.264   4.114   4.276
 1392SOL    HW1 5075   5.256   4.036   4.214
 1392SOL    HW2 5076   5.175   4.131   4.319
 1393SOL     OW 5077   3.692   5.032   6.551
 1393SOL    HW1 5078   3.622   5.054   6.483
 1393SOL    HW2 5079   3.783   5.049   6.512
 1394SOL     OW 5080   1.479   6.180   6.901
 1394SOL    HW1 5081   1.516   6.160   6.992
 1394SOL    HW2 5082   1.449   6.094   6.859
 1395SOL     OW 5083   4.086   4.756   5.885
 1395SOL    HW1 5084   4.014   4.704   5.931
 1395SOL    HW2 5085   4.059   4.774   5.791
 1396SOL     OW 5086   5.927   6.312   3.718
 1396SOL    HW1 5087   5.973   6.339   3.633
 1396SOL    HW2 5088   5.989   6.324   3.795
 1397SOL     OW 5089   4.894   6.178   5.348
 1397SOL    HW1 5090   4.866   6.274   5.359
 1397SOL    HW2 5091   4.967   6.173   5.280
 1398SOL     OW 5092   1.737   0.698   4.121
 1398SOL    HW1 5093   1.783   0.786   4.126
 1398SOL    HW2 5094   1.703   0.673   4.212
 1399SOL     OW 5095   2.883   5.629   2.168
 1399SOL    HW1 5096   2.849   5.589   2.083
 1399SOL    HW2 5097   2.839   5.585   2.246
 1400SOL     OW 5098   1.534   0.088   2.906
 1400SOL    HW1 5099   1.571   0.031   2.980
 1400SOL    HW2 5100   1.434   0.085   2.910
 1401SOL     OW 5101   6.864   1.630   4.102
 1401SOL    HW1 5102   6.881   1.565   4.176
 1401SOL    HW2 5103   6.778   1.678   4.118
 1402SOL     OW 5104   6.430   3.340   6.892
 1402SOL    HW1 5105   6.363   3.316   6.961
 1402SOL    HW2 5106   6.475   3.426   6.917
 1403SOL     OW 5107   3.755   0.361   2.126
 1403SOL    HW1 5108   3.668   0.392   2.164
 1403SOL    HW2 5109   3.822   0.435   2.132
 1404SOL     OW 5110   4.780   1.542   0.131
 1404SOL    HW1 5111   4.764   1.576   0.039
 1404SOL    HW2 5112   4.811   1.617   0.190
 1405SOL     OW 5113   3.157   2.988   1.083
 1405SOL    HW1 5114   3.215   3.064   1.056
 1405SOL    HW2 5115   3.092   3.018   1.154
 1406SOL     OW 5116   1.170   4.334   1.729
 1406SOL    HW1 5117   1.207   4.423   1.755
 1406SOL    HW2 5118   1.131   4.289   1.810
 1407SOL     OW 5119   6.547   2.282   2.956
 1407SOL    HW1 5120   6.645   2.278   2.937
 1407SOL    HW2 5121   6.525   2.368   3.001
 1408SOL     OW 5122   6.271   6.264   6.354
 1408SOL    HW1 5123   6.254   6.222   6.444
 1408SOL    HW2 5124   6.344   6.214   6.308
 1409SOL     OW 5125   0.484   1.509   3.688
 1409SOL    HW1 5126   0.387   1.525   3.705
 1409SOL    HW2 5127   0.516   1.570   3.615
 1410SOL     OW 5128   6.396   2.313   6.971
 1410SOL    HW1 5129   6.369   2.244   6.905
 1410SOL    HW2 5130   6.360   2.288   0.036
 1411SOL     OW 5131   1.832   0.579   2.209
 1411SOL    HW1 5132   1.795   0.671   2.219
 1411SOL    HW2 5133   1.796   0.538   2.126
 1412SOL     OW 5134   1.232   2.630   6.673
 1412SOL    HW1 5135   1.289   2.549   6.661
 1412SOL    HW2 5136   1.252   2.696   6.601
 1413SOL     OW 5137   2.761   6.780   3.230
 1413SOL    HW1 5138   2.685   6.734   3.184
 1413SOL    HW2 5139   2.843   6.723   3.222
 1414SOL     OW 5140   2.799   0.946   2.070
 1414SOL    HW1 5141   2.770   0.989   1.985
 1414SOL    HW2 5142   2.876   0.885   2.051
 1415SOL     OW 5143   4.727   5.953   4.924
 1415SOL    HW1 5144   4.682   5.996   4.846
 1415SOL    HW2 5145   4.826   5.965   4.916
 1416SOL     OW 5146   4.217   5.448   3.355
 1416SOL    HW1 5147   4.169   5.367   3.322
 1416SOL    HW2 5148   4.188   5.468   3.449
 1417SOL     OW 5149   3.209   3.037   6.155
 1417SOL    HW1 5150   3.267   2.955   6.151
 1417SOL    HW2 5151   3.266   3.119   6.145
 1418SOL     OW 5152   3.561   4.165   2.786
 1418SOL    HW1 5153   3.507   4.171   2.870
 1418SOL    HW2 5154   3.658   4.168   2.809
 1419SOL     OW 5155   3.923   6.099   3.860
 1419SOL    HW1 5156   3.996   6.042   3.898
 1419SOL    HW2 5157   3.960   6.157   3.787
 1420SOL     OW 5158   0.233   5.882   1.633
 1420SOL    HW1 5159   0.184   5.795   1.643
 1420SOL    HW2 5160   0.332   5.866   1.644
 1421SOL     OW 5161   3.904   0.828   2.517
 1421SOL    HW1 5162   3.846   0.749   2.495
 1421SOL    HW2 5163   3.986   0.796   2.566
 1422SOL     OW 5164   2.967   0.370   0.403
 1422SOL    HW1 5165   3.021   0.303   0.454
 1422SOL    HW2 5166   2.871   0.342   0.401
 1423SOL     OW 5167   5.033   0.491   2.079
 1423SOL    HW1 5168   5.124   0.490   2.037
 1423SOL    HW2 5169   4.964   0.482   2.007
 1424SOL     OW 5170   0.044   5.039   2.474
 1424SOL    HW1 5171   0.023   4.948   2.511
 1424SOL    HW2 5172   0.068   5.100   2.549
 1425SOL     OW 5173   1.571   0.077   4.581
 1425SOL    HW1 5174   1.559   0.111   4.488
 1425SOL    HW2 5175   1.649   0.015   4.584
 1426SOL     OW 5176   1.866   1.225   5.793
 1426SOL    HW1 5177   1.802   1.287   5.749
 1426SOL    HW2 5178   1.820   1.138   5.811
 1427SOL     OW 5179   5.794   0.754   5.062
 1427SOL    HW1 5180   5.756   0.814   4.991
 1427SOL    HW2 5181   5.872   0.799   5.105
 1428SOL     OW 5182   5.340   1.047   0.203
 1428SOL    HW1 5183   5.285   1.108   0.146
 1428SOL    HW2 5184   5.355   1.089   0.292
 1429SOL     OW 5185   5.843   6.497   6.843
 1429SOL    HW1 5186   5.889   6.569   6.893
 1429SOL    HW2 5187   5.800   6.434   6.907
 1430SOL     OW 5188   1.910   4.170   3.094
 1430SOL    HW1 5189   1.962   4.151   3.177
 1430SOL    HW2 5190   1.970   4.213   3.026
 1431SOL     OW 5191   1.351   0.461   1.328
 1431SOL    HW1 5192   1.317   0.476   1.235
 1431SOL    HW2 5193   1.449   0.478   1.330
 1432SOL     OW 5194   2.764   0.068   0.825
 1432SOL    HW1 5195   2.802   0.040   0.736
 1432SOL    HW2 5196   2.677   0.115   0.811
 1433SOL     OW 5197   4.139   0.032   4.419
 1433SOL    HW1 5198   4.232   7.022   4.406
 1433SOL    HW2 5199   4.073   6.987   4.396
 1434SOL     OW 5200   1.132   0.898   5.196
 1434SOL    HW1 5201   1.051   0.872   5.249
 1434SOL    HW2 5202   1.112   0.982   5.145
 1435SOL     OW 5203   6.748   2.170   3.329
 1435SOL    HW1 5204   6.727   2.158   3.427
 1435SOL    HW2 5205   6.662   2.171   3.277
 1436SOL     OW 5206   4.290   3.655   0.619
 1436SOL    HW1 5207   4.250   3.716   0.687
 1436SOL    HW2 5208   4.371   3.611   0.658
 1437SOL     OW 5209   4.349   1.297   2.109
 1437SOL    HW1 5210   4.405   1.313   2.190
 1437SOL    HW2 5211   4.255   1.275   2.136
 1438SOL     OW 5212   2.476   0.693   1.664
 1438SOL    HW1 5213   2.463   0.619   1.730
 1438SOL    HW2 5214   2.508   0.654   1.577
 1439SOL     OW 5215   0.342   5.774   2.003
 1439SOL    HW1 5216   0.261   5.750   2.056
 1439SOL    HW2 5217   0.384   5.690   1.966
 1440SOL     OW 5218   2.267   3.105   1.718
 1440SOL    HW1 5219   2.241   3.060   1.803
 1440SOL    HW2 5220   2.362   3.136   1.724
 1441SOL     OW 5221   5.141   6.281   0.497
 1441SOL    HW1 5222   5.095   6.297   0.585
 1441SOL    HW2 5223   5.083   6.225   0.439
 1442SOL     OW 5224   5.289   5.099   0.699
 1442SOL    HW1 5225   5.345   5.044   0.762
 1442SOL    HW2 5226   5.205   5.127   0.746
 1443SOL     OW 5227   0.481   2.568   2.180
 1443SOL    HW1 5228   0.490   2.469   2.191
 1443SOL    HW2 5229   0.517   2.595   2.091
 1444SOL     OW 5230   0.665   5.130   6.257
 1444SOL    HW1 5231   0.647   5.135   6.355
 1444SOL    HW2 5232   0.629   5.212   6.212
 1445SOL     OW 5233   0.746   3.113   1.403
 1445SOL    HW1 5234   0.756   3.096   1.501
 1445SOL    HW2 5235   0.828   3.161   1.370
 1446SOL     OW 5236   6.641   5.896   0.885
 1446SOL    HW1 5237   6.708   5.963   0.853
 1446SOL    HW2 5238   6.675   5.853   0.969
 1447SOL     OW 5239   6.347   5.547   4.327
 1447SOL    HW1 5240   6.269   5.564   4.387
 1447SOL    HW2 5241   6.396   5.465   4.359
 1448SOL     OW 5242   1.254   1.734   6.201
 1448SOL    HW1 5243   1.201   1.805   6.155
 1448SOL    HW2 5244   1.233   1.645   6.159
 1449SOL     OW 5245   2.023   3.508   2.993
 1449SOL    HW1 5246   2.029   3.550   3.083
 1449SOL    HW2 5247   2.035   3.579   2.923
 1450SOL     OW 5248   3.190   2.184   3.954
 1450SOL    HW1 5249   3.281   2.144   3.944
 1450SOL    HW2 5250   3.163   2.180   4.050
 1451SOL     OW 5251   3.389   1.463   2.539
 1451SOL    HW1 5252   3.470   1.411   2.565
 1451SOL    HW2 5253   3.405   1.561   2.553
 1452SOL     OW 5254   4.189   2.685   6.720
 1452SOL    HW1 5255   4.128   2.624   6.771
 1452SOL    HW2 5256   4.144   2.773   6.706
 1453SOL     OW 5257   0.482   3.912   5.376
 1453SOL    HW1 5258   0.493   4.009   5.398
 1453SOL    HW2 5259   0.477   3.860   5.462
 1454SOL     OW 5260   3.536   2.114   2.846
 1454SOL    HW1 5261   3.615   2.163   2.884
 1454SOL    HW2 5262   3.560   2.076   2.757
 1455SOL     OW 5263   0.248   5.328   2.326
 1455SOL    HW1 5264   0.253   5.419   2.365
 1455SOL    HW2 5265   0.315   5.319   2.252
 1456SOL     OW 5266   6.333   5.565   4.053
 1456SOL    HW1 5267   6.347   5.536   4.148
 1456SOL    HW2 5268   6.385   5.504   3.992
 1457SOL     OW 5269   1.124   5.222   6.482
 1457SOL    HW1 5270   1.151   5.127   6.466
 1457SOL    HW2 5271   1.081   5.231   6.572
 1458SOL     OW 5272   5.753   5.408   5.209
 1458SOL    HW1 5273   5.719   5.324   5.250
 1458SOL    HW2 5274   5.765   5.478   5.280
 1459SOL     OW 5275   6.497   6.513   4.871
 1459SOL    HW1 5276   6.416   6.567   4.893
 1459SOL    HW2 5277   6.511   6.442   4.940
 1460SOL     OW 5278   1.723   6.537   5.037
 1460SOL    HW1 5279   1.728   6.475   4.959
 1460SOL    HW2 5280   1.758   6.491   5.118
 1461SOL     OW 5281   6.154   2.781   4.004
 1461SOL    HW1 5282   6.080   2.719   4.033
 1461SOL    HW2 5283   6.120   2.875   4.002
 1462SOL     OW 5284   0.522   1.514   2.081
 1462SOL    HW1 5285   0.434   1.563   2.087
 1462SOL    HW2 5286   0.594   1.571   2.119
 1463SOL     OW 5287   1.518   5.707   6.811
 1463SOL    HW1 5288   1.474   5.667   6.892
 1463SOL    HW2 5289   1.458   5.695   6.732
 1464SOL     OW 5290   1.018   4.308   4.334
 1464SOL    HW1 5291   1.082   4.248   4.382
 1464SOL    HW2 5292   0.937   4.256   4.309
 1465SOL     OW 5293   1.166   2.884   4.776
 1465SOL    HW1 5294   1.227   2.957   4.744
 1465SOL    HW2 5295   1.212   2.796   4.767
 1466SOL     OW 5296   5.334   1.151   2.958
 1466SOL    HW1 5297   5.235   1.149   2.972
 1466SOL    HW2 5298   5.364   1.246   2.947
 1467SOL     OW 5299   0.509   0.139   3.573
 1467SOL    HW1 5300   0.558   0.125   3.659
 1467SOL    HW2 5301   0.570   0.122   3.496
 1468SOL     OW 5302   3.199   5.532   2.722
 1468SOL    HW1 5303   3.108   5.497   2.699
 1468SOL    HW2 5304   3.209   5.626   2.689
 1469SOL     OW 5305   5.827   4.248   3.189
 1469SOL    HW1 5306   5.734   4.224   3.163
 1469SOL    HW2 5307   5.865   4.176   3.247
 1470SOL     OW 5308   6.168   2.029   2.470
 1470SOL    HW1 5309   6.189   1.936   2.437
 1470SOL    HW2 5310   6.082   2.027   2.520
 1471SOL     OW 5311   4.873   0.136   0.785
 1471SOL    HW1 5312   4.907   0.046   0.811
 1471SOL    HW2 5313   4.951   0.196   0.764
 1472SOL     OW 5314   1.991   0.937   6.508
 1472SOL    HW1 5315   1.968   0.842   6.528
 1472SOL    HW2 5316   2.028   0.980   6.590
 1473SOL     OW 5317   1.313   5.960   3.578
 1473SOL    HW1 5318   1.342   6.039   3.631
 1473SOL    HW2 5319   1.361   5.960   3.490
 1474SOL     OW 5320   2.356   5.039   1.510
 1474SOL    HW1 5321   2.393   4.987   1.433
 1474SOL    HW2 5322   2.290   5.106   1.476
 1475SOL     OW 5323   5.947   0.288   6.291
 1475SOL    HW1 5324   6.021   0.312   6.353
 1475SOL    HW2 5325   5.973   0.310   6.197
 1476SOL     OW 5326   5.291   0.207   6.382
 1476SOL    HW1 5327   5.364   0.276   6.379
 1476SOL    HW2 5328   5.318   0.128   6.327
 1477SOL     OW 5329   3.354   4.225   1.642
 1477SOL    HW1 5330   3.309   4.310   1.669
 1477SOL    HW2 5331   3.291   4.148   1.653
 1478SOL     OW 5332   4.603   4.868   6.672
 1478SOL    HW1 5333   4.685   4.925   6.676
 1478SOL    HW2 5334   4.522   4.926   6.672
 1479SOL     OW 5335   4.795   3.804   1.217
 1479SOL    HW1 5336   4.779   3.716   1.263
 1479SOL    HW2 5337   4.882   3.801   1.169
 1480SOL     OW 5338   2.742   0.784   4.374
 1480SOL    HW1 5339   2.714   0.876   4.401
 1480SOL    HW2 5340   2.694   0.757   4.291
 1481SOL     OW 5341   4.401   2.419   6.207
 1481SOL    HW1 5342   4.310   2.412   6.248
 1481SOL    HW2 5343   4.396   2.400   6.109
 1482SOL     OW 5344   6.177   1.105   1.730
 1482SOL    HW1 5345   6.141   1.187   1.773
 1482SOL    HW2 5346   6.108   1.032   1.734
 1483SOL     OW 5347   6.214   0.530   0.158
 1483SOL    HW1 5348   6.309   0.561   0.150
 1483SOL    HW2 5349   6.209   0.433   0.137
 1484SOL     OW 5350   3.891   5.889   5.486
 1484SOL    HW1 5351   3.878   5.800   5.442
 1484SOL    HW2 5352   3.802   5.932   5.503
 1485SOL     OW 5353   4.927   3.495   3.502
 1485SOL    HW1 5354   4.864   3.446   3.561
 1485SOL    HW2 5355   4.925   3.455   3.410
 1486SOL     OW 5356   4.335   5.644   4.002
 1486SOL    HW1 5357   4.293   5.674   3.917
 1486SOL    HW2 5358   4.414   5.586   3.982
 1487SOL     OW 5359   6.468   1.367   0.814
 1487SOL    HW1 5360   6.505   1.276   0.795
 1487SOL    HW2 5361   6.404   1.361   0.890
 1488SOL     OW 5362   6.426   2.386   2.728
 1488SOL    HW1 5363   6.488   2.394   2.650
 1488SOL    HW2 5364   6.476   2.351   2.807
 1489SOL     OW 5365   3.048   4.866   0.283
 1489SOL    HW1 5366   3.129   4.922   0.262
 1489SOL    HW2 5367   2.972   4.894   0.223
 1490SOL     OW 5368   6.462   3.164   2.484
 1490SOL    HW1 5369   6.378   3.112   2.472
 1490SOL    HW2 5370   6.463   3.241   2.420
 1491SOL     OW 5371   5.344   2.736   3.606
 1491SOL    HW1 5372   5.313   2.641   3.598
 1491SOL    HW2 5373   5.267   2.794   3.632
 1492SOL     OW 5374   0.286   2.078   2.533
 1492SOL    HW1 5375   0.344   1.996   2.535
 1492SOL    HW2 5376   0.202   2.058   2.483
 1493SOL     OW 5377   6.125   2.127   6.332
 1493SOL    HW1 5378   6.115   2.225   6.315
 1493SOL    HW2 5379   6.208   2.094   6.287
 1494SOL     OW 5380   0.356   4.492   6.269
 1494SOL    HW1 5381   0.257   4.489   6.282
 1494SOL    HW2 5382   0.399   4.542   6.344
 1495SOL     OW 5383   6.704   3.866   4.148
 1495SOL    HW1 5384   6.619   3.839   4.193
 1495SOL    HW2 5385   6.687   3.944   4.089
 1496SOL     OW 5386   6.690   6.589   6.009
 1496SOL    HW1 5387   6.774   6.642   6.024
 1496SOL    HW2 5388   6.669   6.588   5.911
 1497SOL     OW 5389   6.126   2.504   2.519
 1497SOL    HW1 5390   6.172   2.423   2.484
 1497SOL    HW2 5391   6.040   2.519   2.469
 1498SOL     OW 5392   3.469   4.329   0.666
 1498SOL    HW1 5393   3.435   4.420   0.689
 1498SOL    HW2 5394   3.393   4.264   0.667
 1499SOL     OW 5395   0.118   4.573   4.405
 1499SOL    HW1 5396   0.165   4.660   4.387
 1499SOL    HW2 5397   0.020   4.586   4.394
 1500SOL     OW 5398   1.601   5.553   1.871
 1500SOL    HW1 5399   1.650   5.468   1.893
 1500SOL    HW2 5400   1.637   5.628   1.926
 1501SOL     OW 5401   6.604   1.559   0.957
 1501SOL    HW1 5402   6.614   1.657   0.940
 1501SOL    HW2 5403   6.567   1.515   0.876
 1502SOL     OW 5404   0.158   6.616   6.539
 1502SOL    HW1 5405   0.238   6.665   6.574
 1502SOL    HW2 5406   0.171   6.596   6.442
 1503SOL     OW 5407   0.249   4.377   1.685
 1503SOL    HW1 5408   0.155   4.403   1.663
 1503SOL    HW2 5409   0.301   4.370   1.600
 1504SOL     OW 5410   1.943   6.964   2.952
 1504SOL    HW1 5411   1.947   7.015   2.866
 1504SOL    HW2 5412   1.985   7.018   3.025
 1505SOL     OW 5413   6.101   5.378   5.112
 1505SOL    HW1 5414   6.200   5.366   5.107
 1505SOL    HW2 5415   6.076   5.464   5.068
 1506SOL     OW 5416   1.398   0.685   0.442
 1506SOL    HW1 5417   1.330   0.687   0.516
 1506SOL    HW2 5418   1.370   0.618   0.373
 1507SOL     OW 5419   2.984   2.187   3.493
 1507SOL    HW1 5420   2.922   2.109   3.496
 1507SOL    HW2 5421   3.050   2.175   3.418
 1508SOL     OW 5422   2.054   0.552   1.607
 1508SOL    HW1 5423   2.092   0.544   1.699
 1508SOL    HW2 5424   2.057   0.647   1.578
 1509SOL     OW 5425   5.151   1.093   3.650
 1509SOL    HW1 5426   5.114   1.007   3.683
 1509SOL    HW2 5427   5.240   1.109   3.693
 1510SOL     OW 5428   3.691   5.999   5.125
 1510SOL    HW1 5429   3.622   6.045   5.181
 1510SOL    HW2 5430   3.765   6.063   5.103
 1511SOL     OW 5431   3.129   3.732   5.179
 1511SOL    HW1 5432   3.035   3.765   5.175
 1511SOL    HW2 5433   3.164   3.740   5.272
 1512SOL     OW 5434   5.197   6.376   0.923
 1512SOL    HW1 5435   5.148   6.327   0.852
 1512SOL    HW2 5436   5.274   6.321   0.954
 1513SOL     OW 5437   2.655   0.945   5.529
 1513SOL    HW1 5438   2.709   0.954   5.613
 1513SOL    HW2 5439   2.565   0.907   5.551
 1514SOL     OW 5440   3.037   2.114   6.654
 1514SOL    HW1 5441   2.989   2.106   6.742
 1514SOL    HW2 5442   2.993   2.185   6.599
 1515SOL     OW 5443   3.769   0.534   2.628
 1515SOL    HW1 5444   3.854   0.483   2.643
 1515SOL    HW2 5445   3.696   0.471   2.604
 1516SOL     OW 5446   6.187   0.032   5.873
 1516SOL    HW1 5447   6.225   6.992   5.808
 1516SOL    HW2 5448   6.184   7.016   5.964
 1517SOL     OW 5449   2.784   5.917   3.203
 1517SOL    HW1 5450   2.702   5.900   3.148
 1517SOL    HW2 5451   2.860   5.863   3.168
 1518SOL     OW 5452   0.693   3.020   6.575
 1518SOL    HW1 5453   0.667   3.020   6.478
 1518SOL    HW2 5454   0.637   3.085   6.625
 1519SOL     OW 5455   0.076   4.562   6.831
 1519SOL    HW1 5456   0.105   4.653   6.799
 1519SOL    HW2 5457   0.062   4.565   6.930
 1520SOL     OW 5458   0.103   6.501   3.437
 1520SOL    HW1 5459   0.109   6.525   3.534
 1520SOL    HW2 5460   0.027   6.549   3.395
 1521SOL     OW 5461   1.836   5.314   6.314
 1521SOL    HW1 5462   1.802   5.384   6.251
 1521SOL    HW2 5463   1.922   5.277   6.279
 1522SOL     OW 5464   5.436   6.547   4.149
 1522SOL    HW1 5465   5.397   6.589   4.067
 1522SOL    HW2 5466   5.411   6.451   4.152
 1523SOL     OW 5467   2.998   6.607   0.511
 1523SOL    HW1 5468   2.941   6.571   0.585
 1523SOL    HW2 5469   2.974   6.702   0.493
 1524SOL     OW 5470   1.980   1.709   3.824
 1524SOL    HW1 5471   2.080   1.702   3.836
 1524SOL    HW2 5472   1.953   1.805   3.838
 1525SOL     OW 5473   4.993   4.511   6.130
 1525SOL    HW1 5474   5.026   4.418   6.112
 1525SOL    HW2 5475   4.906   4.506   6.178
 1526SOL     OW 5476   1.227   1.848   1.290
 1526SOL    HW1 5477   1.267   1.931   1.329
 1526SOL    HW2 5478   1.287   1.811   1.220
 1527SOL     OW 5479   5.177   1.649   4.454
 1527SOL    HW1 5480   5.206   1.553   4.463
 1527SOL    HW2 5481   5.089   1.661   4.498
 1528SOL     OW 5482   3.652   3.556   2.216
 1528SOL    HW1 5483   3.718   3.487   2.185
 1528SOL    HW2 5484   3.698   3.621   2.276
 1529SOL     OW 5485   4.580   1.497   5.997
 1529SOL    HW1 5486   4.661   1.526   6.048
 1529SOL    HW2 5487   4.591   1.520   5.901
 1530SOL     OW 5488   2.286   6.839   0.964
 1530SOL    HW1 5489   2.343   6.783   0.903
 1530SOL    HW2 5490   2.270   6.929   0.922
 1531SOL     OW 5491   4.621   5.805   4.367
 1531SOL    HW1 5492   4.623   5.811   4.268
 1531SOL    HW2 5493   4.546   5.862   4.402
 1532SOL     OW 5494   2.599   5.725   1.387
 1532SOL    HW1 5495   2.648   5.799   1.340
 1532SOL    HW2 5496   2.504   5.752   1.402
 1533SOL     OW 5497   5.478   6.190   1.189
 1533SOL    HW1 5498   5.548   6.169   1.121
 1533SOL    HW2 5499   5.495   6.281   1.228
 1534SOL     OW 5500   2.452   5.290   6.511
 1534SOL    HW1 5501   2.396   5.215   6.475
 1534SOL    HW2 5502   2.520   5.254   6.574
 1535SOL     OW 5503   5.406   3.877   3.620
 1535SOL    HW1 5504   5.475   3.921   3.563
 1535SOL    HW2 5505   5.317   3.920   3.603
 1536SOL     OW 5506   4.392   3.739   6.632
 1536SOL    HW1 5507   4.338   3.793   6.697
 1536SOL    HW2 5508   4.331   3.698   6.564
 1537SOL     OW 5509   2.751   4.991   2.691
 1537SOL    HW1 5510   2.729   5.071   2.747
 1537SOL    HW2 5511   2.820   4.936   2.738
 1538SOL     OW 5512   2.950   1.438   0.595
 1538SOL    HW1 5513   3.028   1.381   0.572
 1538SOL    HW2 5514   2.953   1.522   0.541
 1539SOL     OW 5515   6.537   3.057   0.947
 1539SOL    HW1 5516   6.487   3.144   0.954
 1539SOL    HW2 5517   6.632   3.075   0.923
 1540SOL     OW 5518   3.430   6.549   3.045
 1540SOL    HW1 5519   3.441   6.503   3.133
 1540SOL    HW2 5520   3.427   6.481   2.972
 1541SOL     OW 5521   4.515   2.959   5.630
 1541SOL    HW1 5522   4.478   2.867   5.637
 1541SOL    HW2 5523   4.582   2.974   5.703
 1542SOL     OW 5524   0.032   5.327   2.980
 1542SOL    HW1 5525   0.092   5.340   2.901
 1542SOL    HW2 5526   0.031   5.410   3.035
 1543SOL     OW 5527   2.891   5.387   0.308
 1543SOL    HW1 5528   2.833   5.341   0.240
 1543SOL    HW2 5529   2.977   5.337   0.318
 1544SOL     OW 5530   4.068   3.567   3.835
 1544SOL    HW1 5531   3.968   3.559   3.827
 1544SOL    HW2 5532   4.103   3.485   3.881
 1545SOL     OW 5533   5.591   5.293   1.617
 1545SOL    HW1 5534   5.602   5.333   1.708
 1545SOL    HW2 5535   5.502   5.318   1.580
 1546SOL     OW 5536   6.063   6.276   5.553
 1546SOL    HW1 5537   6.163   6.285   5.556
 1546SOL    HW2 5538   6.023   6.332   5.626
 1547SOL     OW 5539   2.366   3.538   5.967
 1547SOL    HW1 5540   2.368   3.439   5.952
 1547SOL    HW2 5541   2.319   3.558   6.052
 1548SOL     OW 5542   6.648   2.233   0.896
 1548SOL    HW1 5543   6.680   2.180   0.975
 1548SOL    HW2 5544   6.548   2.231   0.892
 1549SOL     OW 5545   5.024   0.616   4.691
 1549SOL    HW1 5546   4.934   0.640   4.728
 1549SOL    HW2 5547   5.073   0.699   4.666
 1550SOL     OW 5548   3.563   2.916   3.975
 1550SOL    HW1 5549   3.575   2.839   4.037
 1550SOL    HW2 5550   3.489   2.974   4.009
 1551SOL     OW 5551   6.601   5.271   5.665
 1551SOL    HW1 5552   6.558   5.273   5.755
 1551SOL    HW2 5553   6.673   5.340   5.661
 1552SOL     OW 5554   1.882   4.309   1.448
 1552SOL    HW1 5555   1.972   4.296   1.406
 1552SOL    HW2 5556   1.877   4.256   1.533
 1553SOL     OW 5557   1.773   2.351   6.051
 1553SOL    HW1 5558   1.701   2.287   6.077
 1553SOL    HW2 5559   1.823   2.380   6.132
 1554SOL     OW 5560   4.096   1.833   3.569
 1554SOL    HW1 5561   4.158   1.755   3.575
 1554SOL    HW2 5562   4.144   1.912   3.532
 1555SOL     OW 5563   6.136   5.038   5.505
 1555SOL    HW1 5564   6.201   4.995   5.443
 1555SOL    HW2 5565   6.062   4.974   5.526
 1556SOL     OW 5566   2.060   0.822   5.983
 1556SOL    HW1 5567   2.070   0.853   6.078
 1556SOL    HW2 5568   1.964   0.802   5.964
 1557SOL     OW 5569   0.635   1.995   5.054
 1557SOL    HW1 5570   0.699   1.976   4.980
 1557SOL    HW2 5571   0.551   2.032   5.016
 1558SOL     OW 5572   0.093   6.792   4.484
 1558SOL    HW1 5573   0.079   6.723   4.413
 1558SOL    HW2 5574   0.132   6.749   4.566
 1559SOL     OW 5575   1.259   1.634   5.437
 1559SOL    HW1 5576   1.270   1.535   5.439
 1559SOL    HW2 5577   1.340   1.676   5.397
 1560SOL     OW 5578   0.079   0.490   6.858
 1560SOL    HW1 5579   0.133   0.420   6.813
 1560SOL    HW2 5580   0.124   0.579   6.848
 1561SOL     OW 5581   6.172   6.300   1.917
 1561SOL    HW1 5582   6.198   6.360   1.843
 1561SOL    HW2 5583   6.085   6.332   1.957
 1562SOL     OW 5584   5.532   1.055   3.818
 1562SOL    HW1 5585   5.491   1.144   3.835
 1562SOL    HW2 5586   5.592   1.030   3.894
 1563SOL     OW 5587   3.384   6.978   5.816
 1563SOL    HW1 5588   3.424   6.956   5.906
 1563SOL    HW2 5589   3.455   6.968   5.746
 1564SOL     OW 5590   0.976   2.124   3.341
 1564SOL    HW1 5591   1.075   2.128   3.357
 1564SOL    HW2 5592   0.941   2.039   3.381
 1565SOL     OW 5593   6.257   4.385   1.559
 1565SOL    HW1 5594   6.197   4.422   1.488
 1565SOL    HW2 5595   6.267   4.286   1.546
 1566SOL     OW 5596   5.721   4.269   2.541
 1566SOL    HW1 5597   5.676   4.345   2.494
 1566SOL    HW2 5598   5.701   4.184   2.491
 1567SOL     OW 5599   6.560   5.792   5.382
 1567SOL    HW1 5600   6.603   5.702   5.393
 1567SOL    HW2 5601   6.630   5.861   5.367
 1568SOL     OW 5602   0.002   0.027   0.061
 1568SOL    HW1 5603   0.016   6.983   7.016
 1568SOL    HW2 5604   0.074   0.096   0.054
 1569SOL     OW 5605   3.208   6.301   5.323
 1569SOL    HW1 5606   3.268   6.339   5.394
 1569SOL    HW2 5607   3.173   6.375   5.266
 1570SOL     OW 5608   3.150   2.311   1.755
 1570SOL    HW1 5609   3.076   2.359   1.802
 1570SOL    HW2 5610   3.226   2.374   1.740
 1571SOL     OW 5611   0.286   3.646   0.554
 1571SOL    HW1 5612   0.288   3.650   0.454
 1571SOL    HW2 5613   0.328   3.560   0.584
 1572SOL     OW 5614   0.951   5.662   2.501
 1572SOL    HW1 5615   1.010   5.600   2.450
 1572SOL    HW2 5616   0.911   5.613   2.579
 1573SOL     OW 5617   4.208   6.852   0.265
 1573SOL    HW1 5618   4.257   6.891   0.188
 1573SOL    HW2 5619   4.114   6.887   0.267
 1574SOL     OW 5620   5.168   2.764   2.468
 1574SOL    HW1 5621   5.261   2.759   2.504
 1574SOL    HW2 5622   5.154   2.852   2.422
 1575SOL     OW 5623   3.338   1.787   0.720
 1575SOL    HW1 5624   3.262   1.725   0.703
 1575SOL    HW2 5625   3.409   1.773   0.651
 1576SOL     OW 5626   5.849   5.483   3.145
 1576SOL    HW1 5627   5.808   5.435   3.223
 1576SOL    HW2 5628   5.940   5.515   3.170
 1577SOL     OW 5629   1.427   0.319   0.362
 1577SOL    HW1 5630   1.353   0.385   0.373
 1577SOL    HW2 5631   1.515   0.367   0.359
 1578SOL     OW 5632   5.925   5.574   4.586
 1578SOL    HW1 5633   6.000   5.549   4.525
 1578SOL    HW2 5634   5.942   5.538   4.677
 1579SOL     OW 5635   6.969   0.235   2.969
 1579SOL    HW1 5636   6.933   0.142   2.963
 1579SOL    HW2 5637   7.001   0.265   2.879
 1580SOL     OW 5638   3.235   3.883   5.997
 1580SOL    HW1 5639   3.299   3.888   6.073
 1580SOL    HW2 5640   3.256   3.956   5.931
 1581SOL     OW 5641   6.360   3.221   4.611
 1581SOL    HW1 5642   6.379   3.211   4.513
 1581SOL    HW2 5643   6.343   3.317   4.632
 1582SOL     OW 5644   6.117   6.381   4.784
 1582SOL    HW1 5645   6.165   6.454   4.736
 1582SOL    HW2 5646   6.044   6.345   4.726
 1583SOL     OW 5647   2.154   2.168   2.276
 1583SOL    HW1 5648   2.138   2.251   2.330
 1583SOL    HW2 5649   2.231   2.182   2.214
 1584SOL     OW 5650   2.369   0.705   6.507
 1584SOL    HW1 5651   2.440   0.645   6.546
 1584SOL    HW2 5652   2.283   0.655   6.501
 1585SOL     OW 5653   6.033   1.258   6.128
 1585SOL    HW1 5654   5.949   1.214   6.097
 1585SOL    HW2 5655   6.058   1.223   6.218
 1586SOL     OW 5656   3.948   3.714   3.015
 1586SOL    HW1 5657   4.004   3.731   3.097
 1586SOL    HW2 5658   3.988   3.763   2.938
 1587SOL     OW 5659   2.660   6.768   6.088
 1587SOL    HW1 5660   2.665   6.688   6.148
 1587SOL    HW2 5661   2.570   6.811   6.096
 1588SOL     OW 5662   5.861   3.908   1.542
 1588SOL    HW1 5663   5.910   3.968   1.479
 1588SOL    HW2 5664   5.762   3.915   1.525
 1589SOL     OW 5665   4.965   4.944   3.288
 1589SOL    HW1 5666   4.951   4.918   3.384
 1589SOL    HW2 5667   5.037   5.014   3.283
 1590SOL     OW 5668   2.048   6.863   5.186
 1590SOL    HW1 5669   2.065   6.786   5.248
 1590SOL    HW2 5670   1.962   6.907   5.211
 1591SOL     OW 5671   1.239   3.680   0.691
 1591SOL    HW1 5672   1.269   3.735   0.769
 1591SOL    HW2 5673   1.314   3.671   0.626
 1592SOL     OW 5674   3.811   4.097   3.824
 1592SOL    HW1 5675   3.801   4.046   3.910
 1592SOL    HW2 5676   3.835   4.033   3.751
 1593SOL     OW 5677   1.555   4.629   4.416
 1593SOL    HW1 5678   1.463   4.631   4.455
 1593SOL    HW2 5679   1.550   4.610   4.319
 1594SOL     OW 5680   1.427   5.135   3.292
 1594SOL    HW1 5681   1.434   5.230   3.322
 1594SOL    HW2 5682   1.348   5.092   3.337
 1595SOL     OW 5683   6.757   4.493   5.069
 1595SOL    HW1 5684   6.837   4.538   5.031
 1595SOL    HW2 5685   6.730   4.417   5.009
 1596SOL     OW 5686   2.713   5.262   0.143
 1596SOL    HW1 5687   2.767   5.233   0.065
 1596SOL    HW2 5688   2.653   5.338   0.116
 1597SOL     OW 5689   2.245   0.299   0.009
 1597SOL    HW1 5690   2.311   0.225   0.016
 1597SOL    HW2 5691   2.263   0.352   6.952
 1598SOL     OW 5692   6.847   5.278   1.561
 1598SOL    HW1 5693   6.772   5.292   1.626
 1598SOL    HW2 5694   6.933   5.306   1.604
 1599SOL     OW 5695   2.916   5.015   0.544
 1599SOL    HW1 5696   2.990   5.000   0.479
 1599SOL    HW2 5697   2.941   4.976   0.633
 1600SOL     OW 5698   3.058   1.215   5.370
 1600SOL    HW1 5699   3.098   1.125   5.382
 1600SOL    HW2 5700   3.114   1.270   5.308
 1601SOL     OW 5701   1.377   5.228   5.059
 1601SOL    HW1 5702   1.320   5.286   5.117
 1601SOL    HW2 5703   1.444   5.285   5.012
 1602SOL     OW 5704   0.675   3.845   2.304
 1602SOL    HW1 5705   0.696   3.861   2.208
 1602SOL    HW2 5706   0.578   3.822   2.314
 1603SOL     OW 5707   5.731   6.617   0.613
 1603SOL    HW1 5708   5.677   6.577   0.687
 1603SOL    HW2 5709   5.784   6.545   0.568
 1604SOL     OW 5710   0.562   5.662   5.061
 1604SOL    HW1 5711   0.603   5.752   5.074
 1604SOL    HW2 5712   0.633   5.592   5.067
 1605SOL     OW 5713   5.330   5.718   2.676
 1605SOL    HW1 5714   5.312   5.740   2.580
 1605SOL    HW2 5715   5.247   5.734   2.730
 1606SOL     OW 5716   5.710   5.980   5.217
 1606SOL    HW1 5717   5.655   6.054   5.177
 1606SOL    HW2 5718   5.804   6.013   5.231
 1607SOL     OW 5719   4.371   3.255   1.023
 1607SOL    HW1 5720   4.383   3.163   0.984
 1607SOL    HW2 5721   4.459   3.299   1.033
 1608SOL     OW 5722   2.682   0.619   0.404
 1608SOL    HW1 5723   2.673   0.696   0.341
 1608SOL    HW2 5724   2.775   0.584   0.402
 1609SOL     OW 5725   5.181   0.841   5.650
 1609SOL    HW1 5726   5.129   0.769   5.604
 1609SOL    HW2 5727   5.165   0.928   5.604
 1610SOL     OW 5728   5.082   6.429   3.017
 1610SOL    HW1 5729   5.075   6.435   3.116
 1610SOL    HW2 5730   5.173   6.397   2.991
 1611SOL     OW 5731   4.321   3.105   1.511
 1611SOL    HW1 5732   4.407   3.135   1.471
 1611SOL    HW2 5733   4.291   3.021   1.467
 1612SOL     OW 5734   3.403   0.625   4.774
 1612SOL    HW1 5735   3.437   0.599   4.865
 1612SOL    HW2 5736   3.445   0.712   4.747
 1613SOL     OW 5737   1.799   0.211   0.734
 1613SOL    HW1 5738   1.740   0.292   0.746
 1613SOL    HW2 5739   1.886   0.227   0.780
 1614SOL     OW 5740   0.020   2.463   5.423
 1614SOL    HW1 5741   0.038   2.365   5.416
 1614SOL    HW2 5742   0.089   2.505   5.482
 1615SOL     OW 5743   6.455   4.816   5.637
 1615SOL    HW1 5744   6.501   4.789   5.722
 1615SOL    HW2 5745   6.506   4.892   5.596
 1616SOL     OW 5746   2.354   2.328   6.497
 1616SOL    HW1 5747   2.326   2.233   6.485
 1616SOL    HW2 5748   2.274   2.383   6.523
 1617SOL     OW 5749   3.916   0.784   4.015
 1617SOL    HW1 5750   3.959   0.737   4.092
 1617SOL    HW2 5751   3.824   0.747   4.001
 1618SOL     OW 5752   5.522   2.500   2.487
 1618SOL    HW1 5753   5.615   2.529   2.509
 1618SOL    HW2 5754   5.477   2.571   2.431
 1619SOL     OW 5755   1.789   2.568   4.350
 1619SOL    HW1 5756   1.885   2.555   4.324
 1619SOL    HW2 5757   1.782   2.648   4.410
 1620SOL     OW 5758   3.787   5.825   1.954
 1620SOL    HW1 5759   3.717   5.756   1.965
 1620SOL    HW2 5760   3.766   5.904   2.012
 1621SOL     OW 5761   1.812   1.573   2.037
 1621SOL    HW1 5762   1.837   1.629   2.116
 1621SOL    HW2 5763   1.777   1.631   1.964
 1622SOL     OW 5764   2.286   2.439   4.838
 1622SOL    HW1 5765   2.323   2.476   4.923
 1622SOL    HW2 5766   2.206   2.492   4.810
 1623SOL     OW 5767   2.032   2.124   4.676
 1623SOL    HW1 5768   2.097   2.188   4.637
 1623SOL    HW2 5769   2.064   2.096   4.767
 1624SOL     OW 5770   2.365   0.855   0.783
 1624SOL    HW1 5771   2.407   0.933   0.829
 1624SOL    HW2 5772   2.383   0.772   0.836
 1625SOL     OW 5773   0.730   6.069   1.260
 1625SOL    HW1 5774   0.637   6.033   1.257
 1625SOL    HW2 5775   0.766   6.077   1.167
 1626SOL     OW 5776   2.247   2.929   5.783
 1626SOL    HW1 5777   2.317   2.965   5.845
 1626SOL    HW2 5778   2.291   2.896   5.699
 1627SOL     OW 5779   4.927   3.555   3.951
 1627SOL    HW1 5780   4.936   3.643   3.905
 1627SOL    HW2 5781   4.890   3.568   4.042
 1628SOL     OW 5782   2.929   3.373   0.129
 1628SOL    HW1 5783   2.986   3.333   0.201
 1628SOL    HW2 5784   2.960   3.340   0.040
 1629SOL     OW 5785   3.200   2.180   2.753
 1629SOL    HW1 5786   3.262   2.250   2.717
 1629SOL    HW2 5787   3.245   2.131   2.827
 1630SOL     OW 5788   6.018   4.908   4.570
 1630SOL    HW1 5789   6.022   4.958   4.484
 1630SOL    HW2 5790   6.081   4.830   4.567
 1631SOL     OW 5791   0.802   0.071   5.915
 1631SOL    HW1 5792   0.745   0.049   5.835
 1631SOL    HW2 5793   0.747   0.120   5.982
 1632SOL     OW 5794   4.754   6.690   0.149
 1632SOL    HW1 5795   4.799   6.757   0.090
 1632SOL    HW2 5796   4.655   6.706   0.147
 1633SOL     OW 5797   6.146   3.560   3.270
 1633SOL    HW1 5798   6.189   3.499   3.336
 1633SOL    HW2 5799   6.207   3.573   3.192
 1634SOL     OW 5800   4.286   0.954   1.028
 1634SOL    HW1 5801   4.319   1.046   1.049
 1634SOL    HW2 5802   4.189   0.947   1.051
 1635SOL     OW 5803   0.874   4.999   4.088
 1635SOL    HW1 5804   0.828   4.921   4.045
 1635SOL    HW2 5805   0.811   5.043   4.152
 1636SOL     OW 5806   2.624   6.612   0.243
 1636SOL    HW1 5807   2.653   6.527   0.199
 1636SOL    HW2 5808   2.652   6.612   0.338
 1637SOL     OW 5809   0.793   2.366   2.655
 1637SOL    HW1 5810   0.758   2.459   2.668
 1637SOL    HW2 5811   0.725   2.300   2.688
 1638SOL     OW 5812   1.322   2.434   5.703
 1638SOL    HW1 5813   1.414   2.398   5.718
 1638SOL    HW2 5814   1.327   2.517   5.649
 1639SOL     OW 5815   4.410   5.248   2.458
 1639SOL    HW1 5816   4.333   5.200   2.501
 1639SOL    HW2 5817   4.489   5.187   2.453
 1640SOL     OW 5818   5.379   0.624   1.073
 1640SOL    HW1 5819   5.410   0.709   1.114
 1640SOL    HW2 5820   5.323   0.644   0.993
 1641SOL     OW 5821   7.014   2.968   4.975
 1641SOL    HW1 5822   6.959   3.043   4.938
 1641SOL    HW2 5823   0.059   3.006   5.036
 1642SOL     OW 5824   0.731   2.410   1.495
 1642SOL    HW1 5825   0.804   2.475   1.473
 1642SOL    HW2 5826   0.694   2.432   1.585
 1643SOL     OW 5827   3.764   0.825   5.588
 1643SOL    HW1 5828   3.804   0.785   5.671
 1643SOL    HW2 5829   3.667   0.841   5.602
 1644SOL     OW 5830   4.206   0.978   0.555
 1644SOL    HW1 5831   4.258   0.928   0.625
 1644SOL    HW2 5832   4.112   0.945   0.553
 1645SOL     OW 5833   1.832   6.406   6.369
 1645SOL    HW1 5834   1.852   6.382   6.274
 1645SOL    HW2 5835   1.781   6.332   6.412
 1646SOL     OW 5836   1.905   3.748   0.359
 1646SOL    HW1 5837   1.841   3.691   0.410
 1646SOL    HW2 5838   1.938   3.823   0.417
 1647SOL     OW 5839   5.703   2.819   2.527
 1647SOL    HW1 5840   5.767   2.895   2.533
 1647SOL    HW2 5841   5.752   2.733   2.545
 1648SOL     OW 5842   3.699   6.833   2.524
 1648SOL    HW1 5843   3.607   6.854   2.491
 1648SOL    HW2 5844   3.738   6.760   2.468
 1649SOL     OW 5845   2.473   0.269   3.134
 1649SOL    HW1 5846   2.449   0.173   3.147
 1649SOL    HW2 5847   2.544   0.277   3.064
 1650SOL     OW 5848   3.111   7.003   3.947
 1650SOL    HW1 5849   3.194   0.033   3.961
 1650SOL    HW2 5850   3.127   6.911   3.981
 1651SOL     OW 5851   1.413   0.549   1.785
 1651SOL    HW1 5852   1.348   0.578   1.855
 1651SOL    HW2 5853   1.451   0.460   1.810
 1652SOL     OW 5854   2.978   3.255   1.873
 1652SOL    HW1 5855   2.904   3.313   1.907
 1652SOL    HW2 5856   2.941   3.192   1.804
 1653SOL     OW 5857   1.541   5.197   0.928
 1653SOL    HW1 5858   1.489   5.159   1.005
 1653SOL    HW2 5859   1.490   5.184   0.843
 1654SOL     OW 5860   0.377   1.832   3.772
 1654SOL    HW1 5861   0.340   1.918   3.807
 1654SOL    HW2 5862   0.309   1.788   3.714
 1655SOL     OW 5863   4.659   4.213   5.539
 1655SOL    HW1 5864   4.671   4.312   5.545
 1655SOL    HW2 5865   4.658   4.174   5.630
 1656SOL     OW 5866   0.254   3.624   2.426
 1656SOL    HW1 5867   0.175   3.564   2.416
 1656SOL    HW2 5868   0.240   3.686   2.504
 1657SOL     OW 5869   1.315   0.456   5.253
 1657SOL    HW1 5870   1.405   0.413   5.259
 1657SOL    HW2 5871   1.313   0.519   5.175
 1658SOL     OW 5872   6.338   6.409   2.723
 1658SOL    HW1 5873   6.338   6.419   2.823
 1658SOL    HW2 5874   6.433   6.403   2.691
 1659SOL     OW 5875   5.012   1.893   6.477
 1659SOL    HW1 5876   5.072   1.923   6.403
 1659SOL    HW2 5877   5.053   1.918   6.565
 1660SOL     OW 5878   2.286   6.348   3.215
 1660SOL    HW1 5879   2.306   6.404   3.296
 1660SOL    HW2 5880   2.368   6.297   3.189
 1661SOL     OW 5881   3.178   0.353   3.187
 1661SOL    HW1 5882   3.094   0.381   3.234
 1661SOL    HW2 5883   3.162   0.350   3.088
 1662SOL     OW 5884   6.324   0.987   2.987
 1662SOL    HW1 5885   6.367   0.919   2.928
 1662SOL    HW2 5886   6.225   0.975   2.985
 1663SOL     OW 5887   1.851   0.355   3.773
 1663SOL    HW1 5888   1.824   0.442   3.814
 1663SOL    HW2 5889   1.941   0.328   3.807
 1664SOL     OW 5890   2.317   5.416   4.691
 1664SOL    HW1 5891   2.368   5.397   4.774
 1664SOL    HW2 5892   2.236   5.358   4.687
 1665SOL     OW 5893   0.852   0.975   3.536
 1665SOL    HW1 5894   0.764   0.999   3.578
 1665SOL    HW2 5895   0.918   1.049   3.552
 1666SOL     OW 5896   5.797   3.020   6.227
 1666SOL    HW1 5897   5.890   2.986   6.237
 1666SOL    HW2 5898   5.732   2.947   6.250
 1667SOL     OW 5899   6.757   0.849   0.210
 1667SOL    HW1 5900   6.731   0.932   0.259
 1667SOL    HW2 5901   6.711   0.770   0.252
 1668SOL     OW 5902   1.951   0.453   4.846
 1668SOL    HW1 5903   1.977   0.426   4.753
 1668SOL    HW2 5904   2.002   0.536   4.872
 1669SOL     OW 5905   5.901   5.854   6.173
 1669SOL    HW1 5906   5.853   5.901   6.247
 1669SOL    HW2 5907   5.976   5.912   6.139
 1670SOL     OW 5908   6.559   3.564   6.566
 1670SOL    HW1 5909   6.466   3.587   6.539
 1670SOL    HW2 5910   6.560   3.473   6.608
 1671SOL     OW 5911   5.894   5.107   0.490
 1671SOL    HW1 5912   5.851   5.150   0.570
 1671SOL    HW2 5913   5.963   5.041   0.521
 1672SOL     OW 5914   2.105   5.438   2.142
 1672SOL    HW1 5915   2.104   5.537   2.156
 1672SOL    HW2 5916   2.030   5.397   2.194
 1673SOL     OW 5917   6.206   2.554   3.343
 1673SOL    HW1 5918   6.297   2.586   3.367
 1673SOL    HW2 5919   6.137   2.616   3.382
 1674SOL     OW 5920   2.177   5.787   6.817
 1674SOL    HW1 5921   2.229   5.864   6.854
 1674SOL    HW2 5922   2.107   5.759   6.882
 1675SOL     OW 5923   4.511   2.208   0.624
 1675SOL    HW1 5924   4.540   2.284   0.682
 1675SOL    HW2 5925   4.443   2.153   0.672
 1676SOL     OW 5926   2.622   1.060   4.296
 1676SOL    HW1 5927   2.613   1.116   4.379
 1676SOL    HW2 5928   2.717   1.063   4.265
 1677SOL     OW 5929   5.960   0.417   5.627
 1677SOL    HW1 5930   5.936   0.513   5.637
 1677SOL    HW2 5931   6.052   0.409   5.588
 1678SOL     OW 5932   4.932   0.143   1.622
 1678SOL    HW1 5933   5.008   0.186   1.573
 1678SOL    HW2 5934   4.882   0.083   1.559
 1679SOL     OW 5935   5.516   4.279   0.249
 1679SOL    HW1 5936   5.567   4.214   0.192
 1679SOL    HW2 5937   5.482   4.354   0.192
 1680SOL     OW 5938   0.975   2.501   5.306
 1680SOL    HW1 5939   0.954   2.442   5.384
 1680SOL    HW2 5940   1.032   2.451   5.241
 1681SOL     OW 5941   4.714   5.413   0.107
 1681SOL    HW1 5942   4.749   5.465   0.185
 1681SOL    HW2 5943   4.735   5.460   0.022
 1682SOL     OW 5944   6.824   3.035   5.442
 1682SOL    HW1 5945   6.733   3.076   5.449
 1682SOL    HW2 5946   6.817   2.944   5.401
 1683SOL     OW 5947   5.296   5.379   6.091
 1683SOL    HW1 5948   5.363   5.325   6.142
 1683SOL    HW2 5949   5.204   5.358   6.123
 1684SOL     OW 5950   0.432   6.507   4.192
 1684SOL    HW1 5951   0.430   6.493   4.093
 1684SOL    HW2 5952   0.499   6.445   4.233
 1685SOL     OW 5953   0.976   1.441   0.540
 1685SOL    HW1 5954   0.916   1.518   0.563
 1685SOL    HW2 5955   1.070   1.462   0.569
 1686SOL     OW 5956   2.161   6.463   6.542
 1686SOL    HW1 5957   2.094   6.390   6.555
 1686SOL    HW2 5958   2.118   6.538   6.490
 1687SOL     OW 5959   2.586   6.234   2.248
 1687SOL    HW1 5960   2.642   6.236   2.331
 1687SOL    HW2 5961   2.496   6.195   2.269
 1688SOL     OW 5962   0.745   1.365   3.456
 1688SOL    HW1 5963   0.797   1.410   3.384
 1688SOL    HW2 5964   0.656   1.337   3.420
 1689SOL     OW 5965   3.293   1.712   1.946
 1689SOL    HW1 5966   3.307   1.808   1.973
 1689SOL    HW2 5967   3.333   1.696   1.856
 1690SOL     OW 5968   1.007   2.600   0.770
 1690SOL    HW1 5969   1.000   2.500   0.771
 1690SOL    HW2 5970   0.978   2.635   0.681
 1691SOL     OW 5971   4.203   4.763   2.417
 1691SOL    HW1 5972   4.127   4.802   2.365
 1691SOL    HW2 5973   4.288   4.779   2.367
 1692SOL     OW 5974   1.385   6.957   3.413
 1692SOL    HW1 5975   1.286   6.963   3.408
 1692SOL    HW2 5976   1.412   6.872   3.459
 1693SOL     OW 5977   3.522   1.845   3.804
 1693SOL    HW1 5978   3.617   1.877   3.816
 1693SOL    HW2 5979   3.523   1.748   3.780
 1694SOL     OW 5980   5.922   5.821   5.449
 1694SOL    HW1 5981   5.849   5.884   5.477
 1694SOL    HW2 5982   5.979   5.799   5.528
 1695SOL     OW 5983   3.891   1.416   5.994
 1695SOL    HW1 5984   3.965   1.374   6.048
 1695SOL    HW2 5985   3.824   1.346   5.971
 1696SOL     OW 5986   3.035   6.098   2.008
 1696SOL    HW1 5987   3.074   6.058   1.925
 1696SOL    HW2 5988   2.936   6.084   2.009
 1697SOL     OW 5989   1.226   2.085   1.775
 1697SOL    HW1 5990   1.214   2.154   1.703
 1697SOL    HW2 5991   1.203   2.126   1.863
 1698SOL     OW 5992   4.833   2.285   0.711
 1698SOL    HW1 5993   4.772   2.363   0.724
 1698SOL    HW2 5994   4.792   2.204   0.751
 1699SOL     OW 5995   2.768   4.631   0.528
 1699SOL    HW1 5996   2.700   4.582   0.583
 1699SOL    HW2 5997   2.731   4.721   0.503
 1700SOL     OW 5998   6.323   2.585   4.810
 1700SOL    HW1 5999   6.293   2.669   4.766
 1700SOL    HW2 6000   6.423   2.578   4.804
 1701SOL     OW 6001   6.292   2.785   5.197
 1701SOL    HW1 6002   6.199   2.798   5.231
 1701SOL    HW2 6003   6.323   2.868   5.152
 1702SOL     OW 6004   4.669   2.826   1.686
 1702SOL    HW1 6005   4.762   2.854   1.662
 1702SOL    HW2 6006   4.636   2.881   1.762
 1703SOL     OW 6007   1.585   3.876   0.096
 1703SOL    HW1 6008   1.545   3.951   0.149
 1703SOL    HW2 6009   1.627   3.913   0.013
 1704SOL     OW 6010   0.062   1.090   2.363
 1704SOL    HW1 6011   0.065   1.139   2.451
 1704SOL    HW2 6012   0.019   1.001   2.377
 1705SOL     OW 6013   3.907   3.068   2.927
 1705SOL    HW1 6014   3.992   3.088   2.879
 1705SOL    HW2 6015   3.835   3.047   2.860
 1706SOL     OW 6016   2.139   0.541   6.475
 1706SOL    HW1 6017   2.145   0.560   6.377
 1706SOL    HW2 6018   2.083   0.459   6.489
 1707SOL     OW 6019   4.744   1.250   2.631
 1707SOL    HW1 6020   4.656   1.297   2.623
 1707SOL    HW2 6021   4.739   1.162   2.584
 1708SOL     OW 6022   0.170   4.731   1.347
 1708SOL    HW1 6023   0.131   4.640   1.345
 1708SOL    HW2 6024   0.099   4.798   1.369
 1709SOL     OW 6025   2.495   5.427   5.047
 1709SOL    HW1 6026   2.529   5.395   5.135
 1709SOL    HW2 6027   2.568   5.417   4.978
 1710SOL     OW 6028   6.774   5.092   4.397
 1710SOL    HW1 6029   6.770   5.191   4.377
 1710SOL    HW2 6030   6.776   5.078   4.496
 1711SOL     OW 6031   1.404   4.196   5.382
 1711SOL    HW1 6032   1.489   4.241   5.412
 1711SOL    HW2 6033   1.383   4.225   5.289
 1712SOL     OW 6034   2.105   4.863   1.545
 1712SOL    HW1 6035   2.165   4.915   1.606
 1712SOL    HW2 6036   2.030   4.921   1.515
 1713SOL     OW 6037   1.892   3.039   0.760
 1713SOL    HW1 6038   1.976   3.049   0.707
 1713SOL    HW2 6039   1.915   3.002   0.851
 1714SOL     OW 6040   4.158   1.214   1.482
 1714SOL    HW1 6041   4.243   1.169   1.456
 1714SOL    HW2 6042   4.098   1.149   1.528
 1715SOL     OW 6043   0.602   3.365   3.818
 1715SOL    HW1 6044   0.637   3.319   3.900
 1715SOL    HW2 6045   0.631   3.314   3.737
 1716SOL     OW 6046   0.445   0.204   6.667
 1716SOL    HW1 6047   0.411   0.110   6.672
 1716SOL    HW2 6048   0.544   0.203   6.658
 1717SOL     OW 6049   3.153   0.298   6.602
 1717SOL    HW1 6050   3.221   0.294   6.675
 1717SOL    HW2 6051   3.062   0.304   6.642
 1718SOL     OW 6052   1.741   4.406   5.131
 1718SOL    HW1 6053   1.696   4.337   5.074
 1718SOL    HW2 6054   1.674   4.453   5.188
 1719SOL     OW 6055   1.864   3.552   1.345
 1719SOL    HW1 6056   1.911   3.532   1.259
 1719SOL    HW2 6057   1.902   3.494   1.417
 1720SOL     OW 6058   0.018   1.639   2.226
 1720SOL    HW1 6059   6.971   1.659   2.292
 1720SOL    HW2 6060   7.006   1.644   2.133
 1721SOL     OW 6061   1.430   6.247   4.458
 1721SOL    HW1 6062   1.459   6.313   4.389
 1721SOL    HW2 6063   1.458   6.155   4.430
 1722SOL     OW 6064   5.521   0.206   1.801
 1722SOL    HW1 6065   5.585   0.247   1.865
 1722SOL    HW2 6066   5.570   0.175   1.719
 1723SOL     OW 6067   5.572   0.951   2.812
 1723SOL    HW1 6068   5.630   1.007   2.872
 1723SOL    HW2 6069   5.570   0.857   2.845
 1724SOL     OW 6070   5.246   0.336   0.523
 1724SOL    HW1 6071   5.301   0.264   0.566
 1724SOL    HW2 6072   5.150   0.306   0.518
 1725SOL     OW 6073   3.558   5.632   1.938
 1725SOL    HW1 6074   3.469   5.662   1.973
 1725SOL    HW2 6075   3.554   5.534   1.919
 1726SOL     OW 6076   6.640   3.718   4.616
 1726SOL    HW1 6077   6.725   3.768   4.601
 1726SOL    HW2 6078   6.657   3.645   4.682
 1727SOL     OW 6079   2.631   3.425   5.404
 1727SOL    HW1 6080   2.593   3.517   5.394
 1727SOL    HW2 6081   2.720   3.421   5.360
 1728SOL     OW 6082   4.323   5.059   3.144
 1728SOL    HW1 6083   4.380   5.105   3.076
 1728SOL    HW2 6084   4.336   4.960   3.137
 1729SOL     OW 6085   1.547   3.693   2.104
 1729SOL    HW1 6086   1.618   3.627   2.127
 1729SOL    HW2 6087   1.524   3.685   2.007
 1730SOL     OW 6088   5.541   2.020   4.576
 1730SOL    HW1 6089   5.497   1.937   4.542
 1730SOL    HW2 6090   5.607   1.995   4.647
 1731SOL     OW 6091   0.022   6.706   0.499
 1731SOL    HW1 6092   7.006   6.697   0.408
 1731SOL    HW2 6093   0.027   6.616   0.543
 1732SOL     OW 6094   0.684   4.489   6.887
 1732SOL    HW1 6095   0.596   4.440   6.889
 1732SOL    HW2 6096   0.758   4.423   6.899
 1733SOL     OW 6097   1.017   3.993   6.888
 1733SOL    HW1 6098   1.095   3.950   6.842
 1733SOL    HW2 6099   0.996   3.942   6.972
 1734SOL     OW 6100   5.294   3.996   1.427
 1734SOL    HW1 6101   5.329   4.082   1.462
 1734SOL    HW2 6102   5.195   3.990   1.445
 1735SOL     OW 6103   5.124   5.581   0.264
 1735SOL    HW1 6104   5.129   5.485   0.236
 1735SOL    HW2 6105   5.051   5.592   0.330
 1736SOL     OW 6106   3.121   3.592   0.236
 1736SOL    HW1 6107   3.144   3.689   0.228
 1736SOL    HW2 6108   3.134   3.562   0.331
 1737SOL     OW 6109   0.528   5.628   3.261
 1737SOL    HW1 6110   0.606   5.653   3.203
 1737SOL    HW2 6111   0.525   5.528   3.270
 1738SOL     OW 6112   1.005   1.421   1.849
 1738SOL    HW1 6113   1.037   1.419   1.944
 1738SOL    HW2 6114   1.001   1.327   1.814
 1739SOL     OW 6115   4.151   2.415   6.323
 1739SOL    HW1 6116   4.065   2.368   6.343
 1739SOL    HW2 6117   4.159   2.496   6.381
 1740SOL     OW 6118   0.797   1.563   5.213
 1740SOL    HW1 6119   0.821   1.660   5.220
 1740SOL    HW2 6120   0.734   1.551   5.136
 1741SOL     OW 6121   1.901   1.355   2.345
 1741SOL    HW1 6122   1.973   1.319   2.404
 1741SOL    HW2 6123   1.937   1.431   2.290
 1742SOL     OW 6124   5.806   6.382   4.283
 1742SOL    HW1 6125   5.752   6.407   4.363
 1742SOL    HW2 6126   5.850   6.464   4.246
 1743SOL     OW 6127   4.791   1.120   0.518
 1743SOL    HW1 6128   4.701   1.076   0.512
 1743SOL    HW2 6129   4.788   1.209   0.473
 1744SOL     OW 6130   3.097   6.182   1.694
 1744SOL    HW1 6131   3.084   6.140   1.604
 1744SOL    HW2 6132   3.031   6.256   1.706
 1745SOL     OW 6133   6.989   3.443   4.980
 1745SOL    HW1 6134   0.057   3.476   4.990
 1745SOL    HW2 6135   6.925   3.508   5.021
 1746SOL     OW 6136   2.365   1.114   5.886
 1746SOL    HW1 6137   2.396   1.197   5.840
 1746SOL    HW2 6138   2.425   1.095   5.964
 1747SOL     OW 6139   5.181   6.921   5.305
 1747SOL    HW1 6140   5.271   6.877   5.297
 1747SOL    HW2 6141   5.135   6.919   5.217
 1748SOL     OW 6142   5.762   1.130   1.514
 1748SOL    HW1 6143   5.663   1.141   1.511
 1748SOL    HW2 6144   5.800   1.144   1.423
 1749SOL     OW 6145   5.036   0.107   6.209
 1749SOL    HW1 6146   5.123   0.146   6.179
 1749SOL    HW2 6147   4.962   0.174   6.195
 1750SOL     OW 6148   4.549   0.286   4.399
 1750SOL    HW1 6149   4.456   0.313   4.425
 1750SOL    HW2 6150   4.577   0.206   4.452
 1751SOL     OW 6151   1.976   5.910   4.381
 1751SOL    HW1 6152   1.908   5.976   4.412
 1751SOL    HW2 6153   2.024   5.946   4.301
 1752SOL     OW 6154   0.007   2.032   6.168
 1752SOL    HW1 6155   0.017   2.079   6.080
 1752SOL    HW2 6156   0.096   2.027   6.214
 1753SOL     OW 6157   2.495   6.659   2.434
 1753SOL    HW1 6158   2.399   6.635   2.418
 1753SOL    HW2 6159   2.543   6.580   2.471
 1754SOL     OW 6160   3.337   2.924   1.813
 1754SOL    HW1 6161   3.395   2.998   1.848
 1754SOL    HW2 6162   3.249   2.924   1.860
 1755SOL     OW 6163   6.437   4.501   0.370
 1755SOL    HW1 6164   6.516   4.563   0.369
 1755SOL    HW2 6165   6.455   4.424   0.430
 1756SOL     OW 6166   5.728   5.394   4.460
 1756SOL    HW1 6167   5.650   5.452   4.482
 1756SOL    HW2 6168   5.813   5.445   4.475
 1757SOL     OW 6169   3.386   0.604   5.543
 1757SOL    HW1 6170   3.432   0.691   5.563
 1757SOL    HW2 6171   3.380   0.591   5.444
 1758SOL     OW 6172   3.365   1.828   3.379
 1758SOL    HW1 6173   3.322   1.854   3.466
 1758SOL    HW2 6174   3.299   1.782   3.321
 1759SOL     OW 6175   0.507   5.307   6.133
 1759SOL    HW1 6176   0.557   5.394   6.132
 1759SOL    HW2 6177   0.434   5.312   6.201
 1760SOL     OW 6178   4.828   6.658   2.277
 1760SOL    HW1 6179   4.779   6.590   2.332
 1760SOL    HW2 6180   4.890   6.710   2.335
 1761SOL     OW 6181   5.570   3.178   1.401
 1761SOL    HW1 6182   5.632   3.137   1.467
 1761SOL    HW2 6183   5.589   3.143   1.309
 1762SOL     OW 6184   5.698   2.671   0.611
 1762SOL    HW1 6185   5.616   2.709   0.653
 1762SOL    HW2 6186   5.776   2.684   0.672
 1763SOL     OW 6187   2.248   2.867   3.940
 1763SOL    HW1 6188   2.188   2.900   3.866
 1763SOL    HW2 6189   2.236   2.925   4.020
 1764SOL     OW 6190   6.383   3.438   4.058
 1764SOL    HW1 6191   6.378   3.443   3.958
 1764SOL    HW2 6192   6.333   3.358   4.090
 1765SOL     OW 6193   2.035   3.786   5.914
 1765SOL    HW1 6194   2.022   3.802   5.816
 1765SOL    HW2 6195   2.103   3.851   5.949
 1766SOL     OW 6196   6.139   3.409   5.818
 1766SOL    HW1 6197   6.124   3.344   5.892
 1766SOL    HW2 6198   6.223   3.461   5.836
 1767SOL     OW 6199   6.392   4.633   1.453
 1767SOL    HW1 6200   6.420   4.538   1.466
 1767SOL    HW2 6201   6.349   4.643   1.363
 1768SOL     OW 6202   6.288   6.874   3.320
 1768SOL    HW1 6203   6.249   6.892   3.410
 1768SOL    HW2 6204   6.225   6.908   3.249
 1769SOL     OW 6205   4.778   0.932   3.662
 1769SOL    HW1 6206   4.778   0.847   3.610
 1769SOL    HW2 6207   4.780   1.010   3.600
 1770SOL     OW 6208   3.355   5.525   5.505
 1770SOL    HW1 6209   3.317   5.614   5.528
 1770SOL    HW2 6210   3.324   5.497   5.414
 1771SOL     OW 6211   4.701   6.451   6.511
 1771SOL    HW1 6212   4.718   6.391   6.590
 1771SOL    HW2 6213   4.615   6.424   6.467
 1772SOL     OW 6214   2.867   6.227   2.965
 1772SOL    HW1 6215   2.792   6.283   2.932
 1772SOL    HW2 6216   2.832   6.156   3.027
 1773SOL     OW 6217   1.036   0.143   0.337
 1773SOL    HW1 6218   1.078   0.177   0.253
 1773SOL    HW2 6219   1.104   0.146   0.411
 1774SOL     OW 6220   2.918   4.807   2.827
 1774SOL    HW1 6221   2.907   4.804   2.926
 1774SOL    HW2 6222   3.014   4.822   2.804
 1775SOL     OW 6223   0.974   4.541   1.246
 1775SOL    HW1 6224   0.927   4.483   1.180
 1775SOL    HW2 6225   1.011   4.484   1.320
 1776SOL     OW 6226   3.313   6.663   5.411
 1776SOL    HW1 6227   3.311   6.713   5.498
 1776SOL    HW2 6228   3.359   6.575   5.424
 1777SOL     OW 6229   3.250   6.568   0.414
 1777SOL    HW1 6230   3.156   6.550   0.444
 1777SOL    HW2 6231   3.305   6.485   0.427
 1778SOL     OW 6232   6.834   3.508   5.752
 1778SOL    HW1 6233   6.911   3.481   5.811
 1778SOL    HW2 6234   6.751   3.462   5.783
 1779SOL     OW 6235   3.746   0.326   5.757
 1779SOL    HW1 6236   3.673   0.326   5.688
 1779SOL    HW2 6237   3.712   0.283   5.841
 1780SOL     OW 6238   3.178   3.289   6.910
 1780SOL    HW1 6239   3.082   3.307   6.887
 1780SOL    HW2 6240   3.228   3.376   6.914
 1781SOL     OW 6241   3.258   5.488   3.546
 1781SOL    HW1 6242   3.218   5.470   3.457
 1781SOL    HW2 6243   3.189   5.478   3.617
 1782SOL     OW 6244   2.912   1.772   4.471
 1782SOL    HW1 6245   2.929   1.691   4.527
 1782SOL    HW2 6246   2.833   1.757   4.412
 1783SOL     OW 6247   2.053   6.338   6.924
 1783SOL    HW1 6248   1.964   6.370   6.891
 1783SOL    HW2 6249   2.040   6.255   6.978
 1784SOL     OW 6250   3.070   0.398   6.113
 1784SOL    HW1 6251   3.030   0.307   6.105
 1784SOL    HW2 6252   3.084   0.436   6.021
 1785SOL     OW 6253   6.671   5.269   1.781
 1785SOL    HW1 6254   6.608   5.192   1.779
 1785SOL    HW2 6255   6.659   5.320   1.866
 1786SOL     OW 6256   4.045   2.537   1.594
 1786SOL    HW1 6257   3.977   2.470   1.563
 1786SOL    HW2 6258   3.999   2.623   1.616
 1787SOL     OW 6259   3.680   0.737   5.342
 1787SOL    HW1 6260   3.718   0.648   5.316
 1787SOL    HW2 6261   3.720   0.765   5.430
 1788SOL     OW 6262   1.127   4.832   5.880
 1788SOL    HW1 6263   1.154   4.928   5.883
 1788SOL    HW2 6264   1.071   4.811   5.960
 1789SOL     OW 6265   5.779   6.970   0.023
 1789SOL    HW1 6266   5.788   6.949   6.951
 1789SOL    HW2 6267   5.858   7.022   0.054
 1790SOL     OW 6268   2.975   6.804   3.029
 1790SOL    HW1 6269   3.059   6.762   2.995
 1790SOL    HW2 6270   2.956   6.771   3.122
 1791SOL     OW 6271   0.271   6.831   2.800
 1791SOL    HW1 6272   0.219   6.849   2.716
 1791SOL    HW2 6273   0.240   6.894   2.872
 1792SOL     OW 6274   1.343   3.535   4.157
 1792SOL    HW1 6275   1.379   3.611   4.104
 1792SOL    HW2 6276   1.399   3.522   4.239
 1793SOL     OW 6277   0.085   0.732   3.484
 1793SOL    HW1 6278   0.128   0.728   3.394
 1793SOL    HW2 6279   0.156   0.743   3.555
 1794SOL     OW 6280   4.072   5.435   6.360
 1794SOL    HW1 6281   4.119   5.484   6.287
 1794SOL    HW2 6282   4.031   5.352   6.323
 1795SOL     OW 6283   0.510   2.832   6.800
 1795SOL    HW1 6284   0.467   2.742   6.798
 1795SOL    HW2 6285   0.543   2.855   6.708
 1796SOL     OW 6286   3.847   0.772   5.902
 1796SOL    HW1 6287   3.770   0.824   5.940
 1796SOL    HW2 6288   3.833   0.674   5.920
 1797SOL     OW 6289   0.391   1.225   1.477
 1797SOL    HW1 6290   0.474   1.280   1.472
 1797SOL    HW2 6291   0.387   1.163   1.398
 1798SOL     OW 6292   5.606   1.743   3.169
 1798SOL    HW1 6293   5.517   1.761   3.212
 1798SOL    HW2 6294   5.594   1.734   3.070
 1799SOL     OW 6295   2.297   2.132   0.182
 1799SOL    HW1 6296   2.359   2.055   0.199
 1799SOL    HW2 6297   2.283   2.142   0.083
 1800SOL     OW 6298   3.156   4.887   2.746
 1800SOL    HW1 6299   3.155   4.970   2.691
 1800SOL    HW2 6300   3.242   4.881   2.796
 1801SOL     OW 6301   5.614   6.838   0.485
 1801SOL    HW1 6302   5.682   6.911   0.492
 1801SOL    HW2 6303   5.643   6.760   0.541
 1802SOL     OW 6304   5.903   4.765   3.609
 1802SOL    HW1 6305   5.806   4.743   3.597
 1802SOL    HW2 6306   5.933   4.827   3.537
 1803SOL     OW 6307   5.536   5.305   1.309
 1803SOL    HW1 6308   5.620   5.251   1.317
 1803SOL    HW2 6309   5.483   5.273   1.231
 1804SOL     OW 6310   3.097   3.454   6.063
 1804SOL    HW1 6311   3.067   3.548   6.078
 1804SOL    HW2 6312   3.020   3.392   6.076
 1805SOL     OW 6313   5.731   3.290   6.424
 1805SOL    HW1 6314   5.651   3.241   6.458
 1805SOL    HW2 6315   5.810   3.229   6.419
 1806SOL     OW 6316   6.855   0.426   0.400
 1806SOL    HW1 6317   6.860   0.365   0.479
 1806SOL    HW2 6318   6.930   0.404   0.337
 1807SOL     OW 6319   6.414   2.089   5.757
 1807SOL    HW1 6320   6.453   2.051   5.840
 1807SOL    HW2 6321   6.328   2.043   5.736
 1808SOL     OW 6322   2.259   4.596   4.320
 1808SOL    HW1 6323   2.241   4.655   4.399
 1808SOL    HW2 6324   2.326   4.526   4.345
 1809SOL     OW 6325   3.633   0.453   6.433
 1809SOL    HW1 6326   3.636   0.489   6.527
 1809SOL    HW2 6327   3.686   0.512   6.373
 1810SOL     OW 6328   3.415   6.259   2.439
 1810SOL    HW1 6329   3.319   6.232   2.453
 1810SOL    HW2 6330   3.472   6.177   2.433
 1811SOL     OW 6331   5.884   5.857   2.653
 1811SOL    HW1 6332   5.865   5.801   2.734
 1811SOL    HW2 6333   5.864   5.805   2.571
 1812SOL     OW 6334   4.469   5.082   6.307
 1812SOL    HW1 6335   4.553   5.134   6.294
 1812SOL    HW2 6336   4.459   5.057   6.403
 1813SOL     OW 6337   6.862   5.191   5.228
 1813SOL    HW1 6338   6.856   5.158   5.322
 1813SOL    HW2 6339   6.952   5.229   5.211
 1814SOL     OW 6340   4.990   6.379   2.625
 1814SOL    HW1 6341   4.923   6.411   2.558
 1814SOL    HW2 6342   5.054   6.453   2.646
 1815SOL     OW 6343   0.178   1.163   2.606
 1815SOL    HW1 6344   0.122   1.090   2.644
 1815SOL    HW2 6345   0.275   1.141   2.618
 1816SOL     OW 6346   1.219   4.904   0.750
 1816SOL    HW1 6347   1.181   4.831   0.693
 1816SOL    HW2 6348   1.274   4.865   0.823
 1817SOL     OW 6349   1.294   5.619   1.848
 1817SOL    HW1 6350   1.279   5.667   1.762
 1817SOL    HW2 6351   1.392   5.600   1.860
 1818SOL     OW 6352   1.054   1.563   3.145
 1818SOL    HW1 6353   1.072   1.546   3.048
 1818SOL    HW2 6354   1.097   1.650   3.172
 1819SOL     OW 6355   0.541   4.072   2.424
 1819SOL    HW1 6356   0.551   3.974   2.411
 1819SOL    HW2 6357   0.625   4.118   2.393
 1820SOL     OW 6358   5.890   0.286   2.808
 1820SOL    HW1 6359   5.902   0.237   2.895
 1820SOL    HW2 6360   5.802   0.335   2.810
 1821SOL     OW 6361   1.768   1.846   3.402
 1821SOL    HW1 6362   1.822   1.926   3.426
 1821SOL    HW2 6363   1.757   1.787   3.482
 1822SOL     OW 6364   3.183   3.741   1.863
 1822SOL    HW1 6365   3.190   3.650   1.903
 1822SOL    HW2 6366   3.165   3.808   1.934
 1823SOL     OW 6367   4.481   0.176   2.392
 1823SOL    HW1 6368   4.508   0.266   2.426
 1823SOL    HW2 6369   4.454   0.118   2.469
 1824SOL     OW 6370   5.138   2.191   1.748
 1824SOL    HW1 6371   5.169   2.099   1.772
 1824SOL    HW2 6372   5.171   2.256   1.816
 1825SOL     OW 6373   0.718   0.386   1.653
 1825SOL    HW1 6374   0.776   0.323   1.601
 1825SOL    HW2 6375   0.667   0.335   1.722
 1826SOL     OW 6376   2.768   6.087   6.246
 1826SOL    HW1 6377   2.751   6.007   6.304
 1826SOL    HW2 6378   2.820   6.059   6.165
 1827SOL     OW 6379   6.103   0.009   1.434
 1827SOL    HW1 6380   6.021   7.013   1.487
 1827SOL    HW2 6381   6.129   0.104   1.451
 1828SOL     OW 6382   1.524   2.462   0.099
 1828SOL    HW1 6383   1.612   2.508   0.099
 1828SOL    HW2 6384   1.455   2.522   0.140
 1829SOL     OW 6385   6.049   5.284   1.732
 1829SOL    HW1 6386   5.996   5.340   1.795
 1829SOL    HW2 6387   6.142   5.274   1.767
 1830SOL     OW 6388   5.158   6.514   3.894
 1830SOL    HW1 6389   5.079   6.468   3.935
 1830SOL    HW2 6390   5.229   6.447   3.875
 1831SOL     OW 6391   5.469   0.853   3.644
 1831SOL    HW1 6392   5.544   0.797   3.608
 1831SOL    HW2 6393   5.506   0.923   3.705
 1832SOL     OW 6394   4.740   2.341   0.308
 1832SOL    HW1 6395   4.650   2.383   0.319
 1832SOL    HW2 6396   4.752   2.269   0.375
 1833SOL     OW 6397   5.556   1.936   5.712
 1833SOL    HW1 6398   5.499   1.937   5.794
 1833SOL    HW2 6399   5.578   2.029   5.684
 1834SOL     OW 6400   2.584   3.951   0.433
 1834SOL    HW1 6401   2.647   4.001   0.492
 1834SOL    HW2 6402   2.586   3.991   0.341
 1835SOL     OW 6403   1.563   4.557   6.667
 1835SOL    HW1 6404   1.475   4.513   6.646
 1835SOL    HW2 6405   1.637   4.492   6.649
 1836SOL     OW 6406   0.953   6.553   0.531
 1836SOL    HW1 6407   0.869   6.557   0.585
 1836SOL    HW2 6408   1.000   6.467   0.549
 1837SOL     OW 6409   0.824   2.421   4.908
 1837SOL    HW1 6410   0.796   2.357   4.979
 1837SOL    HW2 6411   0.816   2.378   4.819
 1838SOL     OW 6412   0.908   2.975   4.740
 1838SOL    HW1 6413   0.997   2.931   4.752
 1838SOL    HW2 6414   0.878   3.014   4.827
 1839SOL     OW 6415   0.820   1.609   6.461
 1839SOL    HW1 6416   0.855   1.673   6.392
 1839SOL    HW2 6417   0.778   1.531   6.415
 1840SOL     OW 6418   1.078   5.371   1.006
 1840SOL    HW1 6419   1.159   5.418   0.970
 1840SOL    HW2 6420   1.081   5.275   0.980
 1841SOL     OW 6421   1.267   2.787   3.535
 1841SOL    HW1 6422   1.236   2.870   3.489
 1841SOL    HW2 6423   1.334   2.810   3.606
 1842SOL     OW 6424   0.800   5.546   6.426
 1842SOL    HW1 6425   0.830   5.457   6.393
 1842SOL    HW2 6426   0.705   5.541   6.456
 1843SOL     OW 6427   4.376   1.985   4.977
 1843SOL    HW1 6428   4.285   1.945   4.968
 1843SOL    HW2 6429   4.444   1.922   4.942
 1844SOL     OW 6430   5.404   3.640   4.031
 1844SOL    HW1 6431   5.460   3.679   3.958
 1844SOL    HW2 6432   5.399   3.541   4.020
 1845SOL     OW 6433   4.275   6.425   0.737
 1845SOL    HW1 6434   4.246   6.516   0.707
 1845SOL    HW2 6435   4.291   6.427   0.836
 1846SOL     OW 6436   3.699   1.602   5.524
 1846SOL    HW1 6437   3.747   1.611   5.611
 1846SOL    HW2 6438   3.764   1.602   5.449
 1847SOL     OW 6439   1.381   6.602   6.668
 1847SOL    HW1 6440   1.429   6.623   6.753
 1847SOL    HW2 6441   1.320   6.677   6.643
 1848SOL     OW 6442   2.142   0.285   2.889
 1848SOL    HW1 6443   2.129   0.223   2.967
 1848SOL    HW2 6444   2.133   0.380   2.920
 1849SOL     OW 6445   3.102   0.669   6.545
 1849SOL    HW1 6446   3.038   0.670   6.622
 1849SOL    HW2 6447   3.051   0.658   6.460
 1850SOL     OW 6448   5.293   1.793   2.151
 1850SOL    HW1 6449   5.270   1.882   2.189
 1850SOL    HW2 6450   5.271   1.722   2.218
 1851SOL     OW 6451   6.262   3.854   3.013
 1851SOL    HW1 6452   6.245   3.942   3.056
 1851SOL    HW2 6453   6.203   3.844   2.932
 1852SOL     OW 6454   5.131   2.306   6.073
 1852SOL    HW1 6455   5.112   2.401   6.047
 1852SOL    HW2 6456   5.147   2.252   5.991
 1853SOL     OW 6457   1.094   4.403   0.619
 1853SOL    HW1 6458   1.104   4.384   0.521
 1853SOL    HW2 6459   1.000   4.383   0.647
 1854SOL     OW 6460   2.624   5.180   3.838
 1854SOL    HW1 6461   2.640   5.278   3.830
 1854SOL    HW2 6462   2.539   5.164   3.887
 1855SOL     OW 6463   6.113   4.407   2.458
 1855SOL    HW1 6464   6.194   4.350   2.444
 1855SOL    HW2 6465   6.123   4.492   2.406
 1856SOL     OW 6466   5.035   2.891   6.518
 1856SOL    HW1 6467   5.056   2.979   6.562
 1856SOL    HW2 6468   5.071   2.892   6.424
 1857SOL     OW 6469   4.881   1.495   3.633
 1857SOL    HW1 6470   4.819   1.572   3.618
 1857SOL    HW2 6471   4.830   1.410   3.629
 1858SOL     OW 6472   5.810   3.677   2.953
 1858SOL    HW1 6473   5.821   3.624   2.869
 1858SOL    HW2 6474   5.821   3.774   2.934
 1859SOL     OW 6475   5.972   1.376   2.748
 1859SOL    HW1 6476   6.059   1.394   2.795
 1859SOL    HW2 6477   5.907   1.335   2.812
 1860SOL     OW 6478   4.031   2.154   4.810
 1860SOL    HW1 6479   4.103   2.218   4.834
 1860SOL    HW2 6480   3.968   2.144   4.886
 1861SOL     OW 6481   5.517   5.932   2.200
 1861SOL    HW1 6482   5.598   5.903   2.151
 1861SOL    HW2 6483   5.471   6.005   2.149
 1862SOL     OW 6484   2.031   1.605   0.586
 1862SOL    HW1 6485   2.010   1.544   0.662
 1862SOL    HW2 6486   1.956   1.670   0.574
 1863SOL     OW 6487   2.194   2.628   1.651
 1863SOL    HW1 6488   2.191   2.614   1.750
 1863SOL    HW2 6489   2.285   2.606   1.617
 1864SOL     OW 6490   0.885   6.636   2.979
 1864SOL    HW1 6491   0.934   6.551   2.997
 1864SOL    HW2 6492   0.922   6.679   2.897
 1865SOL     OW 6493   5.043   2.483   6.788
 1865SOL    HW1 6494   5.088   2.404   6.830
 1865SOL    HW2 6495   4.944   2.473   6.799
 1866SOL     OW 6496   5.180   5.254   2.213
 1866SOL    HW1 6497   5.260   5.212   2.255
 1866SOL    HW2 6498   5.113   5.183   2.191
 1867SOL     OW 6499   0.879   4.839   6.563
 1867SOL    HW1 6500   0.859   4.763   6.625
 1867SOL    HW2 6501   0.799   4.898   6.555
 1868SOL     OW 6502   6.735   4.318   5.508
 1868SOL    HW1 6503   6.749   4.335   5.606
 1868SOL    HW2 6504   6.794   4.379   5.456
 1869SOL     OW 6505   6.519   1.636   4.569
 1869SOL    HW1 6506   6.613   1.668   4.578
 1869SOL    HW2 6507   6.465   1.671   4.645
 1870SOL     OW 6508   2.260   4.246   4.743
 1870SOL    HW1 6509   2.255   4.158   4.791
 1870SOL    HW2 6510   2.174   4.262   4.694
 1871SOL     OW 6511   1.572   0.072   0.690
 1871SOL    HW1 6512   1.530   0.071   0.599
 1871SOL    HW2 6513   1.626   0.156   0.701
 1872SOL     OW 6514   2.266   4.953   6.676
 1872SOL    HW1 6515   2.350   4.942   6.728
 1872SOL    HW2 6516   2.250   5.050   6.659
 1873SOL     OW 6517   5.225   0.156   0.100
 1873SOL    HW1 6518   5.190   0.063   0.114
 1873SOL    HW2 6519   5.278   0.158   0.015
 1874SOL     OW 6520   0.783   4.151   2.346
 1874SOL    HW1 6521   0.870   4.139   2.393
 1874SOL    HW2 6522   0.785   4.236   2.293
 1875SOL     OW 6523   1.206   6.797   1.650
 1875SOL    HW1 6524   1.299   6.794   1.613
 1875SOL    HW2 6525   1.141   6.764   1.581
 1876SOL     OW 6526   2.388   6.897   3.882
 1876SOL    HW1 6527   2.310   6.854   3.927
 1876SOL    HW2 6528   2.394   6.993   3.910
 1877SOL     OW 6529   0.210   6.565   3.793
 1877SOL    HW1 6530   0.115   6.534   3.795
 1877SOL    HW2 6531   0.214   6.661   3.767
 1878SOL     OW 6532   6.398   2.367   5.653
 1878SOL    HW1 6533   6.432   2.432   5.720
 1878SOL    HW2 6534   6.412   2.274   5.687
 1879SOL     OW 6535   1.383   4.758   6.008
 1879SOL    HW1 6536   1.416   4.670   5.974
 1879SOL    HW2 6537   1.291   4.775   5.973
 1880SOL     OW 6538   6.241   0.239   4.803
 1880SOL    HW1 6539   6.296   0.165   4.842
 1880SOL    HW2 6540   6.144   0.219   4.815
 1881SOL     OW 6541   0.069   2.651   0.158
 1881SOL    HW1 6542   0.118   2.706   0.091
 1881SOL    HW2 6543   0.031   2.710   0.229
 1882SOL     OW 6544   1.633   6.262   6.704
 1882SOL    HW1 6545   1.564   6.235   6.772
 1882SOL    HW2 6546   1.710   6.199   6.708
 1883SOL     OW 6547   0.496   1.727   3.993
 1883SOL    HW1 6548   0.471   1.763   3.903
 1883SOL    HW2 6549   0.593   1.703   3.992
 1884SOL     OW 6550   6.818   2.574   1.258
 1884SOL    HW1 6551   6.905   2.623   1.251
 1884SOL    HW2 6552   6.743   2.639   1.250
 1885SOL     OW 6553   2.379   1.252   4.457
 1885SOL    HW1 6554   2.351   1.170   4.407
 1885SOL    HW2 6555   2.469   1.237   4.498
 1886SOL     OW 6556   0.499   6.335   3.368
 1886SOL    HW1 6557   0.455   6.287   3.292
 1886SOL    HW2 6558   0.509   6.432   3.345
 1887SOL     OW 6559   2.607   6.210   6.045
 1887SOL    HW1 6560   2.654   6.298   6.052
 1887SOL    HW2 6561   2.655   6.152   5.979
 1888SOL     OW 6562   2.684   0.591   3.292
 1888SOL    HW1 6563   2.616   0.520   3.312
 1888SOL    HW2 6564   2.642   0.681   3.305
 1889SOL     OW 6565   0.787   3.409   2.776
 1889SOL    HW1 6566   0.775   3.481   2.708
 1889SOL    HW2 6567   0.773   3.447   2.868
 1890SOL     OW 6568   1.180   5.987   4.827
 1890SOL    HW1 6569   1.177   5.934   4.742
 1890SOL    HW2 6570   1.107   6.056   4.826
 1891SOL     OW 6571   3.223   3.381   3.340
 1891SOL    HW1 6572   3.200   3.471   3.377
 1891SOL    HW2 6573   3.308   3.386   3.288
 1892SOL     OW 6574   1.015   0.251   2.319
 1892SOL    HW1 6575   1.028   0.153   2.333
 1892SOL    HW2 6576   0.947   0.266   2.247
 1893SOL     OW 6577   3.879   2.997   4.266
 1893SOL    HW1 6578   3.799   2.983   4.325
 1893SOL    HW2 6579   3.953   2.936   4.296
 1894SOL     OW 6580   3.413   3.530   4.283
 1894SOL    HW1 6581   3.374   3.476   4.209
 1894SOL    HW2 6582   3.505   3.497   4.304
 1895SOL     OW 6583   1.719   5.870   6.999
 1895SOL    HW1 6584   1.699   5.950   0.029
 1895SOL    HW2 6585   1.711   5.788   0.030
 1896SOL     OW 6586   6.428   2.471   1.706
 1896SOL    HW1 6587   6.357   2.448   1.773
 1896SOL    HW2 6588   6.416   2.415   1.625
 1897SOL     OW 6589   1.024   4.505   4.118
 1897SOL    HW1 6590   1.119   4.514   4.090
 1897SOL    HW2 6591   1.018   4.502   4.218
 1898SOL     OW 6592   1.236   6.104   2.804
 1898SOL    HW1 6593   1.192   6.040   2.741
 1898SOL    HW2 6594   1.328   6.072   2.825
 1899SOL     OW 6595   0.219   0.983   2.159
 1899SOL    HW1 6596   0.168   1.036   2.228
 1899SOL    HW2 6597   0.222   0.887   2.187
 1900SOL     OW 6598   2.822   6.904   6.530
 1900SOL    HW1 6599   2.837   6.969   6.455
 1900SOL    HW2 6600   2.906   6.852   6.545
 1901SOL     OW 6601   2.856   3.535   1.861
 1901SOL    HW1 6602   2.802   3.597   1.805
 1901SOL    HW2 6603   2.949   3.530   1.824
 1902SOL     OW 6604   1.341   6.712   5.031
 1902SOL    HW1 6605   1.397   6.751   5.104
 1902SOL    HW2 6606   1.394   6.644   4.980
 1903SOL     OW 6607   0.839   1.872   4.311
 1903SOL    HW1 6608   0.759   1.910   4.267
 1903SOL    HW2 6609   0.899   1.831   4.243
 1904SOL     OW 6610   5.605   5.831   1.717
 1904SOL    HW1 6611   5.553   5.916   1.703
 1904SOL    HW2 6612   5.598   5.774   1.635
 1905SOL     OW 6613   0.757   1.579   4.031
 1905SOL    HW1 6614   0.718   1.490   4.056
 1905SOL    HW2 6615   0.823   1.606   4.102
 1906SOL     OW 6616   0.804   6.460   4.493
 1906SOL    HW1 6617   0.844   6.546   4.459
 1906SOL    HW2 6618   0.874   6.406   4.538
 1907SOL     OW 6619   5.442   3.044   0.784
 1907SOL    HW1 6620   5.368   3.044   0.717
 1907SOL    HW2 6621   5.529   3.036   0.737
 1908SOL     OW 6622   3.808   0.588   1.706
 1908SOL    HW1 6623   3.807   0.644   1.623
 1908SOL    HW2 6624   3.773   0.641   1.783
 1909SOL     OW 6625   6.394   5.536   4.646
 1909SOL    HW1 6626   6.489   5.567   4.649
 1909SOL    HW2 6627   6.336   5.611   4.613
 1910SOL     OW 6628   0.704   6.043   5.663
 1910SOL    HW1 6629   0.736   6.136   5.643
 1910SOL    HW2 6630   0.682   6.035   5.760
 1911SOL     OW 6631   5.867   6.165   4.170
 1911SOL    HW1 6632   5.852   6.255   4.211
 1911SOL    HW2 6633   5.807   6.155   4.090
 1912SOL     OW 6634   3.552   5.081   2.282
 1912SOL    HW1 6635   3.583   5.076   2.377
 1912SOL    HW2 6636   3.506   5.168   2.266
 1913SOL     OW 6637   3.049   4.406   6.876
 1913SOL    HW1 6638   3.080   4.311   6.872
 1913SOL    HW2 6639   2.964   4.415   6.823
 1914SOL     OW 6640   3.383   4.332   6.955
 1914SOL    HW1 6641   3.366   4.431   6.959
 1914SOL    HW2 6642   3.334   4.287   0.005
 1915SOL     OW 6643   3.402   2.997   6.826
 1915SOL    HW1 6644   3.395   2.954   6.916
 1915SOL    HW2 6645   3.321   3.053   6.809
 1916SOL     OW 6646   4.430   0.723   2.517
 1916SOL    HW1 6647   4.399   0.666   2.593
 1916SOL    HW2 6648   4.416   0.819   2.540
 1917SOL     OW 6649   1.998   4.132   1.692
 1917SOL    HW1 6650   2.068   4.078   1.739
 1917SOL    HW2 6651   1.913   4.079   1.688
 1918SOL     OW 6652   5.404   2.258   3.577
 1918SOL    HW1 6653   5.335   2.216   3.518
 1918SOL    HW2 6654   5.366   2.339   3.621
 1919SOL     OW 6655   6.339   2.213   6.145
 1919SOL    HW1 6656   6.373   2.143   6.083
 1919SOL    HW2 6657   6.310   2.294   6.093
 1920SOL     OW 6658   4.559   3.137   0.616
 1920SOL    HW1 6659   4.633   3.115   0.552
 1920SOL    HW2 6660   4.598   3.171   0.702
 1921SOL     OW 6661   2.424   2.096   0.615
 1921SOL    HW1 6662   2.362   2.018   0.609
 1921SOL    HW2 6663   2.426   2.144   0.527
 1922SOL     OW 6664   3.130   3.182   4.174
 1922SOL    HW1 6665   3.178   3.263   4.139
 1922SOL    HW2 6666   3.116   3.192   4.272
 1923SOL     OW 6667   3.062   0.775   3.855
 1923SOL    HW1 6668   3.088   0.684   3.888
 1923SOL    HW2 6669   2.965   0.791   3.875
 1924SOL     OW 6670   5.469   0.925   0.623
 1924SOL    HW1 6671   5.467   0.995   0.552
 1924SOL    HW2 6672   5.379   0.883   0.632
 1925SOL     OW 6673   1.046   4.206   1.121
 1925SOL    HW1 6674   1.121   4.261   1.083
 1925SOL    HW2 6675   1.074   4.166   1.208
 1926SOL     OW 6676   3.787   0.128   1.636
 1926SOL    HW1 6677   3.873   0.126   1.584
 1926SOL    HW2 6678   3.795   0.196   1.710
 1927SOL     OW 6679   2.225   5.794   1.099
 1927SOL    HW1 6680   2.155   5.865   1.094
 1927SOL    HW2 6681   2.183   5.704   1.085
 1928SOL     OW 6682   6.898   4.350   2.588
 1928SOL    HW1 6683   6.869   4.266   2.635
 1928SOL    HW2 6684   6.825   4.380   2.527
 1929SOL     OW 6685   3.736   6.890   3.296
 1929SOL    HW1 6686   3.714   6.962   3.230
 1929SOL    HW2 6687   3.835   6.877   3.301
 1930SOL     OW 6688   3.447   3.153   0.345
 1930SOL    HW1 6689   3.352   3.168   0.320
 1930SOL    HW2 6690   3.482   3.072   0.299
 1931SOL     OW 6691   6.732   3.071   3.749
 1931SOL    HW1 6692   6.710   3.008   3.674
 1931SOL    HW2 6693   6.760   3.019   3.829
 1932SOL     OW 6694   5.112   0.772   2.188
 1932SOL    HW1 6695   5.153   0.804   2.103
 1932SOL    HW2 6696   5.057   0.691   2.171
 1933SOL     OW 6697   1.613   1.179   1.249
 1933SOL    HW1 6698   1.695   1.146   1.297
 1933SOL    HW2 6699   1.583   1.110   1.184
 1934SOL     OW 6700   0.168   0.995   0.189
 1934SOL    HW1 6701   0.146   1.028   0.098
 1934SOL    HW2 6702   0.177   1.072   0.252
 1935SOL     OW 6703   5.922   5.224   3.858
 1935SOL    HW1 6704   5.882   5.287   3.791
 1935SOL    HW2 6705   6.020   5.215   3.839
 1936SOL     OW 6706   5.041   3.300   6.099
 1936SOL    HW1 6707   5.088   3.302   6.188
 1936SOL    HW2 6708   4.943   3.282   6.113
 1937SOL     OW 6709   6.867   4.796   6.872
 1937SOL    HW1 6710   6.789   4.778   6.811
 1937SOL    HW2 6711   6.848   4.758   6.962
 1938SOL     OW 6712   6.896   2.294   0.034
 1938SOL    HW1 6713   6.881   2.381   0.082
 1938SOL    HW2 6714   6.868   2.218   0.093
 1939SOL     OW 6715   0.327   0.171   4.336
 1939SOL    HW1 6716   0.406   0.116   4.310
 1939SOL    HW2 6717   0.285   0.209   4.254
 1940SOL     OW 6718   0.611   5.282   1.111
 1940SOL    HW1 6719   0.670   5.286   1.030
 1940SOL    HW2 6720   0.565   5.193   1.114
 1941SOL     OW 6721   6.091   1.197   4.386
 1941SOL    HW1 6722   6.150   1.134   4.335
 1941SOL    HW2 6723   6.021   1.144   4.434
 1942SOL     OW 6724   0.308   5.050   2.077
 1942SOL    HW1 6725   0.270   5.038   1.986
 1942SOL    HW2 6726   0.355   5.138   2.081
 1943SOL     OW 6727   0.914   3.074   3.795
 1943SOL    HW1 6728   0.902   3.061   3.696
 1943SOL    HW2 6729   0.997   3.027   3.824
 1944SOL     OW 6730   0.898   2.997   3.536
 1944SOL    HW1 6731   0.892   2.898   3.521
 1944SOL    HW2 6732   0.849   3.045   3.463
 1945SOL     OW 6733   5.291   1.571   2.294
 1945SOL    HW1 6734   5.332   1.491   2.250
 1945SOL    HW2 6735   5.267   1.549   2.388
 1946SOL     OW 6736   5.656   5.350   0.971
 1946SOL    HW1 6737   5.634   5.381   0.878
 1946SOL    HW2 6738   5.632   5.422   1.036
 1947SOL     OW 6739   6.258   5.220   2.778
 1947SOL    HW1 6740   6.186   5.250   2.840
 1947SOL    HW2 6741   6.260   5.120   2.774
 1948SOL     OW 6742   5.378   3.372   3.795
 1948SOL    HW1 6743   5.455   3.322   3.835
 1948SOL    HW2 6744   5.360   3.337   3.703
 1949SOL     OW 6745   3.302   4.428   6.656
 1949SOL    HW1 6746   3.215   4.452   6.614
 1949SOL    HW2 6747   3.286   4.357   6.726
 1950SOL     OW 6748   3.703   4.008   3.421
 1950SOL    HW1 6749   3.696   3.909   3.417
 1950SOL    HW2 6750   3.776   4.034   3.483
 1951SOL     OW 6751   6.587   5.662   5.689
 1951SOL    HW1 6752   6.671   5.698   5.729
 1951SOL    HW2 6753   6.605   5.627   5.597
 1952SOL     OW 6754   5.666   4.152   6.688
 1952SOL    HW1 6755   5.587   4.092   6.673
 1952SOL    HW2 6756   5.644   4.219   6.758
 1953SOL     OW 6757   0.833   0.822   0.059
 1953SOL    HW1 6758   0.919   0.800   0.106
 1953SOL    HW2 6759   0.852   0.843   6.988
 1954SOL     OW 6760   3.838   6.653   2.311
 1954SOL    HW1 6761   3.930   6.673   2.279
 1954SOL    HW2 6762   3.833   6.558   2.341
 1955SOL     OW 6763   6.530   2.472   4.218
 1955SOL    HW1 6764   6.595   2.536   4.178
 1955SOL    HW2 6765   6.576   2.418   4.289
 1956SOL     OW 6766   4.862   1.031   1.551
 1956SOL    HW1 6767   4.764   1.037   1.536
 1956SOL    HW2 6768   4.905   1.119   1.529
 1957SOL     OW 6769   6.560   2.575   4.668
 1957SOL    HW1 6770   6.513   2.563   4.581
 1957SOL    HW2 6771   6.619   2.656   4.664
 1958SOL     OW 6772   3.962   2.045   0.443
 1958SOL    HW1 6773   4.017   2.015   0.365
 1958SOL    HW2 6774   4.021   2.055   0.523
 1959SOL     OW 6775   1.409   1.372   5.663
 1959SOL    HW1 6776   1.358   1.445   5.707
 1959SOL    HW2 6777   1.384   1.367   5.566
 1960SOL     OW 6778   5.301   4.174   2.860
 1960SOL    HW1 6779   5.284   4.163   2.762
 1960SOL    HW2 6780   5.363   4.251   2.874
 1961SOL     OW 6781   0.415   3.969   4.404
 1961SOL    HW1 6782   0.395   4.006   4.313
 1961SOL    HW2 6783   0.510   3.986   4.427
 1962SOL     OW 6784   0.452   6.891   2.219
 1962SOL    HW1 6785   0.539   6.928   2.254
 1962SOL    HW2 6786   0.461   6.793   2.203
 1963SOL     OW 6787   0.864   2.786   6.956
 1963SOL    HW1 6788   0.783   2.842   6.974
 1963SOL    HW2 6789   0.840   2.710   6.896
 1964SOL     OW 6790   5.631   3.285   0.823
 1964SOL    HW1 6791   5.609   3.191   0.798
 1964SOL    HW2 6792   5.555   3.345   0.797
 1965SOL     OW 6793   6.107   4.414   3.971
 1965SOL    HW1 6794   6.087   4.338   4.032
 1965SOL    HW2 6795   6.051   4.405   3.888
 1966SOL     OW 6796   0.966   5.187   6.688
 1966SOL    HW1 6797   0.986   5.262   6.752
 1966SOL    HW2 6798   0.882   5.209   6.637
 1967SOL     OW 6799   6.994   3.184   5.170
 1967SOL    HW1 6800   6.973   3.281   5.156
 1967SOL    HW2 6801   6.921   3.142   5.224
 1968SOL     OW 6802   2.015   1.223   6.219
 1968SOL    HW1 6803   2.032   1.250   6.125
 1968SOL    HW2 6804   2.043   1.128   6.232
 1969SOL     OW 6805   1.078   5.707   0.821
 1969SOL    HW1 6806   1.133   5.661   0.751
 1969SOL    HW2 6807   1.057   5.800   0.792
 1970SOL     OW 6808   5.587   4.505   3.744
 1970SOL    HW1 6809   5.551   4.419   3.781
 1970SOL    HW2 6810   5.594   4.572   3.818
 1971SOL     OW 6811   1.661   4.883   4.455
 1971SOL    HW1 6812   1.610   4.797   4.456
 1971SOL    HW2 6813   1.613   4.949   4.398
 1972SOL     OW 6814   6.213   2.234   2.765
 1972SOL    HW1 6815   6.288   2.300   2.757
 1972SOL    HW2 6816   6.134   2.267   2.712
 1973SOL     OW 6817   3.693   2.250   0.854
 1973SOL    HW1 6818   3.726   2.250   0.948
 1973SOL    HW2 6819   3.633   2.172   0.839
 1974SOL     OW 6820   2.477   6.675   4.913
 1974SOL    HW1 6821   2.467   6.578   4.932
 1974SOL    HW2 6822   2.393   6.723   4.936
 1975SOL     OW 6823   1.894   2.985   2.495
 1975SOL    HW1 6824   1.805   3.031   2.495
 1975SOL    HW2 6825   1.883   2.890   2.466
 1976SOL     OW 6826   1.702   0.985   4.867
 1976SOL    HW1 6827   1.759   1.064   4.845
 1976SOL    HW2 6828   1.735   0.943   4.951
 1977SOL     OW 6829   1.183   3.535   6.595
 1977SOL    HW1 6830   1.241   3.567   6.520
 1977SOL    HW2 6831   1.232   3.544   6.681
 1978SOL     OW 6832   3.253   0.312   2.014
 1978SOL    HW1 6833   3.348   0.330   2.036
 1978SOL    HW2 6834   3.227   0.366   1.934
 1979SOL     OW 6835   5.321   3.954   6.402
 1979SOL    HW1 6836   5.360   3.970   6.312
 1979SOL    HW2 6837   5.277   4.037   6.435
 1980SOL     OW 6838   4.073   0.423   1.358
 1980SOL    HW1 6839   4.027   0.400   1.443
 1980SOL    HW2 6840   4.048   0.357   1.287
 1981SOL     OW 6841   4.189   2.165   2.012
 1981SOL    HW1 6842   4.279   2.191   2.047
 1981SOL    HW2 6843   4.193   2.158   1.912
 1982SOL     OW 6844   1.609   2.929   6.296
 1982SOL    HW1 6845   1.677   2.862   6.266
 1982SOL    HW2 6846   1.561   2.967   6.216
 1983SOL     OW 6847   0.250   1.376   1.984
 1983SOL    HW1 6848   0.156   1.361   1.953
 1983SOL    HW2 6849   0.256   1.465   2.028
 1984SOL     OW 6850   4.956   3.911   5.998
 1984SOL    HW1 6851   4.914   3.836   5.947
 1984SOL    HW2 6852   4.969   3.989   5.937
 1985SOL     OW 6853   6.365   4.005   4.014
 1985SOL    HW1 6854   6.392   4.078   4.077
 1985SOL    HW2 6855   6.325   3.929   4.066
 1986SOL     OW 6856   2.838   3.451   2.341
 1986SOL    HW1 6857   2.886   3.464   2.254
 1986SOL    HW2 6858   2.774   3.376   2.333
 1987SOL     OW 6859   2.349   0.990   2.457
 1987SOL    HW1 6860   2.264   1.003   2.507
 1987SOL    HW2 6861   2.356   1.057   2.383
 1988SOL     OW 6862   0.907   2.056   2.846
 1988SOL    HW1 6863   0.960   2.133   2.810
 1988SOL    HW2 6864   0.883   2.074   2.941
 1989SOL     OW 6865   2.818   5.460   5.027
 1989SOL    HW1 6866   2.891   5.401   4.993
 1989SOL    HW2 6867   2.857   5.535   5.081
 1990SOL     OW 6868   4.340   6.620   0.391
 1990SOL    HW1 6869   4.319   6.707   0.346
 1990SOL    HW2 6870   4.340   6.546   0.324
 1991SOL     OW 6871   2.828   5.911   2.038
 1991SOL    HW1 6872   2.787   5.884   1.951
 1991SOL    HW2 6873   2.860   5.829   2.087
 1992SOL     OW 6874   1.211   6.606   2.810
 1992SOL    HW1 6875   1.209   6.666   2.731
 1992SOL    HW2 6876   1.178   6.655   2.891
 1993SOL     OW 6877   1.801   2.077   2.490
 1993SOL    HW1 6878   1.786   1.979   2.476
 1993SOL    HW2 6879   1.888   2.091   2.537
 1994SOL     OW 6880   3.460   3.308   1.466
 1994SOL    HW1 6881   3.483   3.285   1.372
 1994SOL    HW2 6882   3.496   3.238   1.527
 1995SOL     OW 6883   5.875   1.567   4.160
 1995SOL    HW1 6884   5.956   1.615   4.194
 1995SOL    HW2 6885   5.820   1.628   4.103
 1996SOL     OW 6886   4.839   0.532   0.451
 1996SOL    HW1 6887   4.758   0.482   0.483
 1996SOL    HW2 6888   4.913   0.467   0.432
 1997SOL     OW 6889   3.858   1.313   3.661
 1997SOL    HW1 6890   3.848   1.409   3.636
 1997SOL    HW2 6891   3.841   1.255   3.582
 1998SOL     OW 6892   2.573   3.780   1.160
 1998SOL    HW1 6893   2.563   3.695   1.210
 1998SOL    HW2 6894   2.643   3.770   1.090
 1999SOL     OW 6895   0.907   6.985   6.565
 1999SOL    HW1 6896   0.886   0.026   6.637
 1999SOL    HW2 6897   1.006   6.980   6.552
 2000SOL     OW 6898   4.228   4.627   6.296
 2000SOL    HW1 6899   4.173   4.578   6.364
 2000SOL    HW2 6900   4.276   4.703   6.340
 2001SOL     OW 6901   1.485   2.172   0.890
 2001SOL    HW1 6902   1.519   2.101   0.828
 2001SOL    HW2 6903   1.489   2.140   0.984
 2002SOL     OW 6904   5.952   5.526   0.770
 2002SOL    HW1 6905   5.861   5.544   0.732
 2002SOL    HW2 6906   5.989   5.611   0.807
 2003SOL     OW 6907   5.912   5.880   1.042
 2003SOL    HW1 6908   5.971   5.837   0.973
 2003SOL    HW2 6909   5.844   5.937   0.997
 2004SOL     OW 6910   3.996   0.077   3.326
 2004SOL    HW1 6911   4.091   0.093   3.299
 2004SOL    HW2 6912   3.993   0.043   3.420
 2005SOL     OW 6913   1.541   6.468   0.095
 2005SOL    HW1 6914   1.457   6.414   0.094
 2005SOL    HW2 6915   1.619   6.408   0.109
 2006SOL     OW 6916   6.004   0.244   2.213
 2006SOL    HW1 6917   5.963   0.201   2.294
 2006SOL    HW2 6918   6.087   0.292   2.240
 2007SOL     OW 6919   5.700   5.285   5.956
 2007SOL    HW1 6920   5.765   5.242   5.894
 2007SOL    HW2 6921   5.638   5.344   5.904
 2008SOL     OW 6922   1.913   3.301   2.860
 2008SOL    HW1 6923   1.955   3.372   2.916
 2008SOL    HW2 6924   1.981   3.230   2.839
 2009SOL     OW 6925   6.191   6.913   2.977
 2009SOL    HW1 6926   6.154   6.965   2.900
 2009SOL    HW2 6927   6.119   6.899   3.045
 2010SOL     OW 6928   0.383   1.564   1.357
 2010SOL    HW1 6929   0.456   1.504   1.389
 2010SOL    HW2 6930   0.377   1.644   1.417
 2011SOL     OW 6931   0.908   7.014   4.795
 2011SOL    HW1 6932   0.951   6.950   4.859
 2011SOL    HW2 6933   0.818   0.015   4.828
 2012SOL     OW 6934   0.396   2.765   0.786
 2012SOL    HW1 6935   0.301   2.746   0.763
 2012SOL    HW2 6936   0.434   2.830   0.720
 2013SOL     OW 6937   0.835   2.714   2.249
 2013SOL    HW1 6938   0.914   2.690   2.194
 2013SOL    HW2 6939   0.865   2.743   2.340
 2014SOL     OW 6940   3.716   1.432   3.982
 2014SOL    HW1 6941   3.809   1.418   4.014
 2014SOL    HW2 6942   3.656   1.451   4.060
 2015SOL     OW 6943   3.567   6.234   1.894
 2015SOL    HW1 6944   3.566   6.334   1.897
 2015SOL    HW2 6945   3.483   6.201   1.851
 2016SOL     OW 6946   2.019   0.980   5.532
 2016SOL    HW1 6947   2.111   1.009   5.506
 2016SOL    HW2 6948   2.023   0.929   5.618
 2017SOL     OW 6949   2.904   6.472   4.241
 2017SOL    HW1 6950   2.833   6.543   4.238
 2017SOL    HW2 6951   2.991   6.511   4.211
 2018SOL     OW 6952   0.487   0.463   4.459
 2018SOL    HW1 6953   0.450   0.376   4.428
 2018SOL    HW2 6954   0.420   0.536   4.441
 2019SOL     OW 6955   6.597   4.766   6.808
 2019SOL    HW1 6956   6.550   4.749   6.721
 2019SOL    HW2 6957   6.553   4.843   6.855
 2020SOL     OW 6958   1.841   6.715   1.046
 2020SOL    HW1 6959   1.798   6.634   1.087
 2020SOL    HW2 6960   1.771   6.772   1.004
 2021SOL     OW 6961   0.300   5.860   4.256
 2021SOL    HW1 6962   0.243   5.801   4.199
 2021SOL    HW2 6963   0.346   5.928   4.200
 2022SOL     OW 6964   1.482   3.254   4.323
 2022SOL    HW1 6965   1.394   3.297   4.345
 2022SOL    HW2 6966   1.512   3.198   4.400
 2023SOL     OW 6967   0.171   5.741   0.028
 2023SOL    HW1 6968   0.220   5.664   0.069
 2023SOL    HW2 6969   0.108   5.708   6.983
 2024SOL     OW 6970   6.705   5.433   3.574
 2024SOL    HW1 6971   6.694   5.507   3.640
 2024SOL    HW2 6972   6.748   5.355   3.618
 2025SOL     OW 6973   1.972   6.855   4.628
 2025SOL    HW1 6974   1.925   6.784   4.575
 2025SOL    HW2 6975   1.949   6.844   4.725
 2026SOL     OW 6976   1.391   0.077   5.389
 2026SOL    HW1 6977   1.426   0.170   5.398
 2026SOL    HW2 6978   1.319   0.061   5.457
 2027SOL     OW 6979   6.744   5.951   2.512
 2027SOL    HW1 6980   6.683   5.981   2.585
 2027SOL    HW2 6981   6.692   5.896   2.446
 2028SOL     OW 6982   2.387   5.687   5.012
 2028SOL    HW1 6983   2.424   5.594   5.020
 2028SOL    HW2 6984   2.411   5.739   5.095
 2029SOL     OW 6985   6.566   2.035   6.723
 2029SOL    HW1 6986   6.631   1.999   6.789
 2029SOL    HW2 6987   6.582   1.993   6.634
 2030SOL     OW 6988   1.889   6.756   2.773
 2030SOL    HW1 6989   1.887   6.806   2.860
 2030SOL    HW2 6990   1.959   6.794   2.714
 2031SOL     OW 6991   0.439   6.591   5.508
 2031SOL    HW1 6992   0.488   6.634   5.433
 2031SOL    HW2 6993   0.504   6.543   5.567
 2032SOL     OW 6994   2.400   2.892   6.226
 2032SOL    HW1 6995   2.400   2.985   6.188
 2032SOL    HW2 6996   2.494   2.865   6.247
 2033SOL     OW 6997   2.407   1.003   1.222
 2033SOL    HW1 6998   2.400   1.069   1.297
 2033SOL    HW2 6999   2.318   0.995   1.177
 2034SOL     OW 7000   0.736   4.543   5.307
 2034SOL    HW1 7001   0.756   4.533   5.404
 2034SOL    HW2 7002   0.714   4.638   5.287
 2035SOL     OW 7003   5.661   5.538   2.673
 2035SOL    HW1 7004   5.585   5.579   2.622
 2035SOL    HW2 7005   5.653   5.562   2.770
 2036SOL     OW 7006   0.558   4.063   6.194
 2036SOL    HW1 7007   0.570   3.965   6.208
 2036SOL    HW2 7008   0.611   4.093   6.115
 2037SOL     OW 7009   1.050   2.830   6.713
 2037SOL    HW1 7010   1.115   2.753   6.713
 2037SOL    HW2 7011   1.027   2.854   6.807
 2038SOL     OW 7012   1.011   1.138   5.786
 2038SOL    HW1 7013   1.052   1.154   5.696
 2038SOL    HW2 7014   0.989   1.041   5.795
 2039SOL     OW 7015   5.550   5.704   3.794
 2039SOL    HW1 7016   5.454   5.725   3.775
 2039SOL    HW2 7017   5.581   5.631   3.733
 2040SOL     OW 7018   2.705   2.013   0.602
 2040SOL    HW1 7019   2.609   1.988   0.618
 2040SOL    HW2 7020   2.747   2.039   0.689
 2041SOL     OW 7021   2.937   6.667   0.007
 2041SOL    HW1 7022   2.847   6.709   0.009
 2041SOL    HW2 7023   3.000   6.726   6.982
 2042SOL     OW 7024   0.110   0.003   6.248
 2042SOL    HW1 7025   0.137   6.952   6.190
 2042SOL    HW2 7026   0.142   0.088   6.208
 2043SOL     OW 7027   0.487   3.978   6.965
 2043SOL    HW1 7028   0.413   4.046   6.962
 2043SOL    HW2 7029   0.495   3.935   6.875
 2044SOL     OW 7030   3.779   0.330   1.825
 2044SOL    HW1 7031   3.744   0.412   1.779
 2044SOL    HW2 7032   3.751   0.332   1.921
 2045SOL     OW 7033   1.870   6.060   3.601
 2045SOL    HW1 7034   1.814   6.000   3.544
 2045SOL    HW2 7035   1.871   6.025   3.695
 2046SOL     OW 7036   1.098   2.904   5.545
 2046SOL    HW1 7037   1.043   2.856   5.478
 2046SOL    HW2 7038   1.062   2.997   5.558
 2047SOL     OW 7039   6.608   6.897   1.550
 2047SOL    HW1 7040   6.525   6.951   1.567
 2047SOL    HW2 7041   6.636   6.851   1.635
 2048SOL     OW 7042   2.105   0.865   3.467
 2048SOL    HW1 7043   2.061   0.943   3.422
 2048SOL    HW2 7044   2.194   0.894   3.503
 2049SOL     OW 7045   5.157   2.364   5.318
 2049SOL    HW1 7046   5.109   2.449   5.338
 2049SOL    HW2 7047   5.105   2.287   5.354
 2050SOL     OW 7048   0.443   0.861   2.735
 2050SOL    HW1 7049   0.393   0.892   2.816
 2050SOL    HW2 7050   0.477   0.940   2.684
 2051SOL     OW 7051   3.232   6.843   6.553
 2051SOL    HW1 7052   3.277   6.865   6.639
 2051SOL    HW2 7053   3.196   6.927   6.512
 2052SOL     OW 7054   0.458   3.957   1.119
 2052SOL    HW1 7055   0.415   3.930   1.032
 2052SOL    HW2 7056   0.397   4.019   1.168
 2053SOL     OW 7057   5.817   5.031   2.825
 2053SOL    HW1 7058   5.862   5.023   2.736
 2053SOL    HW2 7059   5.718   5.027   2.813
 2054SOL     OW 7060   3.276   4.132   2.466
 2054SOL    HW1 7061   3.246   4.061   2.529
 2054SOL    HW2 7062   3.230   4.218   2.487
 2055SOL     OW 7063   4.137   2.621   5.705
 2055SOL    HW1 7064   4.118   2.680   5.783
 2055SOL    HW2 7065   4.098   2.531   5.720
 2056SOL     OW 7066   2.822   4.859   1.837
 2056SOL    HW1 7067   2.810   4.780   1.897
 2056SOL    HW2 7068   2.763   4.849   1.756
 2057SOL     OW 7069   5.598   3.236   3.895
 2057SOL    HW1 7070   5.608   3.148   3.848
 2057SOL    HW2 7071   5.660   3.302   3.854
 2058SOL     OW 7072   5.297   6.957   3.505
 2058SOL    HW1 7073   5.373   6.939   3.443
 2058SOL    HW2 7074   5.216   6.906   3.474
 2059SOL     OW 7075   2.005   1.936   5.745
 2059SOL    HW1 7076   2.015   2.025   5.700
 2059SOL    HW2 7077   2.091   1.886   5.739
 2060SOL     OW 7078   1.467   2.504   6.458
 2060SOL    HW1 7079   1.386   2.503   6.400
 2060SOL    HW2 7080   1.445   2.466   6.547
 2061SOL     OW 7081   1.660   1.910   3.779
 2061SOL    HW1 7082   1.604   1.979   3.734
 2061SOL    HW2 7083   1.744   1.953   3.813
 2062SOL     OW 7084   5.482   5.336   3.860
 2062SOL    HW1 7085   5.581   5.341   3.874
 2062SOL    HW2 7086   5.463   5.328   3.763
 2063SOL     OW 7087   0.991   1.726   4.145
 2063SOL    HW1 7088   0.974   1.742   4.048
 2063SOL    HW2 7089   1.089   1.716   4.161
 2064SOL     OW 7090   0.800   4.228   4.833
 2064SOL    HW1 7091   0.764   4.271   4.750
 2064SOL    HW2 7092   0.896   4.206   4.820
 2065SOL     OW 7093   3.820   3.540   5.485
 2065SOL    HW1 7094   3.917   3.561   5.474
 2065SOL    HW2 7095   3.791   3.476   5.414
 2066SOL     OW 7096   1.947   2.750   4.616
 2066SOL    HW1 7097   1.952   2.849   4.628
 2066SOL    HW2 7098   1.975   2.726   4.523
 2067SOL     OW 7099   6.421   4.517   2.535
 2067SOL    HW1 7100   6.488   4.590   2.542
 2067SOL    HW2 7101   6.429   4.456   2.615
 2068SOL     OW 7102   3.668   6.397   4.142
 2068SOL    HW1 7103   3.688   6.316   4.088
 2068SOL    HW2 7104   3.639   6.370   4.234
 2069SOL     OW 7105   6.379   1.851   3.795
 2069SOL    HW1 7106   6.458   1.869   3.737
 2069SOL    HW2 7107   6.309   1.921   3.778
 2070SOL     OW 7108   0.428   4.766   1.815
 2070SOL    HW1 7109   0.440   4.671   1.789
 2070SOL    HW2 7110   0.460   4.781   1.908
 2071SOL     OW 7111   6.667   2.269   4.405
 2071SOL    HW1 7112   6.596   2.256   4.474
 2071SOL    HW2 7113   6.700   2.364   4.409
 2072SOL     OW 7114   5.262   3.462   5.617
 2072SOL    HW1 7115   5.196   3.536   5.630
 2072SOL    HW2 7116   5.349   3.487   5.659
 2073SOL     OW 7117   3.512   5.260   6.819
 2073SOL    HW1 7118   3.505   5.162   6.799
 2073SOL    HW2 7119   3.503   5.275   6.917
 2074SOL     OW 7120   3.841   4.774   5.480
 2074SOL    HW1 7121   3.852   4.692   5.537
 2074SOL    HW2 7122   3.873   4.854   5.531
 2075SOL     OW 7123   5.514   2.248   1.466
 2075SOL    HW1 7124   5.573   2.194   1.406
 2075SOL    HW2 7125   5.458   2.186   1.521
 2076SOL     OW 7126   6.777   6.568   3.597
 2076SOL    HW1 7127   6.826   6.655   3.595
 2076SOL    HW2 7128   6.682   6.582   3.568
 2077SOL     OW 7129   0.339   4.376   0.970
 2077SOL    HW1 7130   0.334   4.406   1.065
 2077SOL    HW2 7131   0.397   4.440   0.918
 2078SOL     OW 7132   0.621   3.043   6.294
 2078SOL    HW1 7133   0.534   3.008   6.261
 2078SOL    HW2 7134   0.694   3.014   6.233
 2079SOL     OW 7135   5.859   1.577   3.032
 2079SOL    HW1 7136   5.818   1.667   3.021
 2079SOL    HW2 7137   5.959   1.585   3.038
 2080SOL     OW 7138   2.234   3.916   6.022
 2080SOL    HW1 7139   2.294   3.993   6.000
 2080SOL    HW2 7140   2.288   3.843   6.065
 2081SOL     OW 7141   0.375   6.055   2.689
 2081SOL    HW1 7142   0.380   6.033   2.592
 2081SOL    HW2 7143   0.459   6.103   2.717
 2082SOL     OW 7144   0.002   5.775   3.798
 2082SOL    HW1 7145   6.962   5.721   3.746
 2082SOL    HW2 7146   0.079   5.717   3.826
 2083SOL     OW 7147   0.968   5.541   3.651
 2083SOL    HW1 7148   0.970   5.638   3.674
 2083SOL    HW2 7149   1.019   5.490   3.720
 2084SOL     OW 7150   6.446   2.262   1.514
 2084SOL    HW1 7151   6.419   2.270   1.418
 2084SOL    HW2 7152   6.482   2.171   1.530
 2085SOL     OW 7153   6.290   5.595   7.002
 2085SOL    HW1 7154   6.345   5.525   0.023
 2085SOL    HW2 7155   6.193   5.581   7.024
 2086SOL     OW 7156   6.004   0.224   5.875
 2086SOL    HW1 7157   6.067   0.146   5.869
 2086SOL    HW2 7158   5.998   0.269   5.786
 2087SOL     OW 7159   4.872   1.153   6.724
 2087SOL    HW1 7160   4.818   1.179   6.804
 2087SOL    HW2 7161   4.959   1.114   6.754
 2088SOL     OW 7162   0.433   3.646   6.042
 2088SOL    HW1 7163   0.482   3.726   6.077
 2088SOL    HW2 7164   0.456   3.634   5.945
 2089SOL     OW 7165   2.857   4.875   5.745
 2089SOL    HW1 7166   2.868   4.869   5.844
 2089SOL    HW2 7167   2.936   4.833   5.700
 2090SOL     OW 7168   5.077   2.627   6.554
 2090SOL    HW1 7169   5.092   2.582   6.642
 2090SOL    HW2 7170   5.031   2.714   6.568
 2091SOL     OW 7171   5.358   6.525   1.393
 2091SOL    HW1 7172   5.371   6.599   1.328
 2091SOL    HW2 7173   5.261   6.502   1.397
 2092SOL     OW 7174   3.502   3.228   1.839
 2092SOL    HW1 7175   3.501   3.268   1.930
 2092SOL    HW2 7176   3.411   3.231   1.800
 2093SOL     OW 7177   4.519   0.027   0.780
 2093SOL    HW1 7178   4.565   0.115   0.795
 2093SOL    HW2 7179   4.567   6.981   0.830
 2094SOL     OW 7180   5.021   2.648   0.712
 2094SOL    HW1 7181   4.979   2.637   0.802
 2094SOL    HW2 7182   4.987   2.577   0.650
 2095SOL     OW 7183   5.448   5.267   3.573
 2095SOL    HW1 7184   5.438   5.257   3.474
 2095SOL    HW2 7185   5.434   5.178   3.617
 2096SOL     OW 7186   4.086   6.604   3.011
 2096SOL    HW1 7187   4.011   6.541   2.993
 2096SOL    HW2 7188   4.059   6.697   2.986
 2097SOL     OW 7189   1.310   6.030   5.493
 2097SOL    HW1 7190   1.384   5.979   5.449
 2097SOL    HW2 7191   1.326   6.128   5.484
 2098SOL     OW 7192   1.740   6.952   3.779
 2098SOL    HW1 7193   1.697   6.910   3.699
 2098SOL    HW2 7194   1.704   0.018   3.793
 2099SOL     OW 7195   4.492   1.300   7.022
 2099SOL    HW1 7196   4.432   1.244   0.054
 2099SOL    HW2 7197   4.456   1.393   7.016
 2100SOL     OW 7198   4.847   0.449   7.011
 2100SOL    HW1 7199   4.753   0.483   7.003
 2100SOL    HW2 7200   4.896   0.466   6.926
 2101SOL     OW 7201   2.053   0.720   2.806
 2101SOL    HW1 7202   2.055   0.672   2.894
 2101SOL    HW2 7203   2.142   0.764   2.791
 2102SOL     OW 7204   3.578   2.788   1.810
 2102SOL    HW1 7205   3.625   2.872   1.839
 2102SOL    HW2 7206   3.480   2.805   1.805
 2103SOL     OW 7207   1.658   6.863   0.906
 2103SOL    HW1 7208   1.698   6.916   0.831
 2103SOL    HW2 7209   1.569   6.903   0.931
 2104SOL     OW 7210   1.338   4.195   2.491
 2104SOL    HW1 7211   1.359   4.106   2.533
 2104SOL    HW2 7212   1.240   4.203   2.477
 2105SOL     OW 7213   5.504   6.875   5.181
 2105SOL    HW1 7214   5.551   6.790   5.156
 2105SOL    HW2 7215   5.440   6.899   5.109
 2106SOL     OW 7216   3.329   2.248   1.278
 2106SOL    HW1 7217   3.331   2.212   1.372
 2106SOL    HW2 7218   3.326   2.172   1.214
 2107SOL     OW 7219   5.109   4.299   4.700
 2107SOL    HW1 7220   5.165   4.334   4.775
 2107SOL    HW2 7221   5.123   4.200   4.691
 2108SOL     OW 7222   4.471   6.970   4.925
 2108SOL    HW1 7223   4.397   6.926   4.975
 2108SOL    HW2 7224   4.502   6.910   4.851
 2109SOL     OW 7225   2.433   5.771   1.928
 2109SOL    HW1 7226   2.489   5.832   1.984
 2109SOL    HW2 7227   2.336   5.786   1.948
 2110SOL     OW 7228   3.736   5.939   6.904
 2110SOL    HW1 7229   3.748   5.965   7.000
 2110SOL    HW2 7230   3.639   5.922   6.886
 2111SOL     OW 7231   0.735   2.557   0.182
 2111SOL    HW1 7232   0.650   2.556   0.130
 2111SOL    HW2 7233   0.804   2.610   0.133
 2112SOL     OW 7234   0.709   0.207   6.624
 2112SOL    HW1 7235   0.725   0.171   6.532
 2112SOL    HW2 7236   0.793   0.200   6.678
 2113SOL     OW 7237   0.202   1.481   4.702
 2113SOL    HW1 7238   0.104   1.460   4.697
 2113SOL    HW2 7239   0.231   1.477   4.798
 2114SOL     OW 7240   2.826   1.343   5.362
 2114SOL    HW1 7241   2.922   1.314   5.370
 2114SOL    HW2 7242   2.812   1.388   5.275
 2115SOL     OW 7243   6.446   6.854   3.632
 2115SOL    HW1 7244   6.469   6.775   3.575
 2115SOL    HW2 7245   6.358   6.892   3.603
 2116SOL     OW 7246   2.013   1.414   6.384
 2116SOL    HW1 7247   1.935   1.477   6.374
 2116SOL    HW2 7248   2.013   1.350   6.307
 2117SOL     OW 7249   5.732   2.629   2.179
 2117SOL    HW1 7250   5.663   2.678   2.232
 2117SOL    HW2 7251   5.763   2.685   2.103
 2118SOL     OW 7252   0.464   3.058   2.784
 2118SOL    HW1 7253   0.522   3.124   2.736
 2118SOL    HW2 7254   0.501   2.965   2.771
 2119SOL     OW 7255   1.403   3.049   0.565
 2119SOL    HW1 7256   1.468   3.120   0.593
 2119SOL    HW2 7257   1.435   3.005   0.481
 2120SOL     OW 7258   5.250   1.878   0.312
 2120SOL    HW1 7259   5.287   1.970   0.296
 2120SOL    HW2 7260   5.219   1.840   0.225
 2121SOL     OW 7261   2.730   6.272   1.459
 2121SOL    HW1 7262   2.661   6.285   1.531
 2121SOL    HW2 7263   2.769   6.181   1.467
 2122SOL     OW 7264   0.167   0.648   4.637
 2122SOL    HW1 7265   0.250   0.684   4.594
 2122SOL    HW2 7266   0.192   0.605   4.724
 2123SOL     OW 7267   1.142   4.878   3.212
 2123SOL    HW1 7268   1.167   4.784   3.186
 2123SOL    HW2 7269   1.055   4.877   3.262
 2124SOL     OW 7270   4.748   3.211   6.018
 2124SOL    HW1 7271   4.819   3.143   6.003
 2124SOL    HW2 7272   4.664   3.165   6.049
 2125SOL     OW 7273   1.454   5.727   5.338
 2125SOL    HW1 7274   1.383   5.669   5.380
 2125SOL    HW2 7275   1.527   5.742   5.404
 2126SOL     OW 7276   3.128   5.111   1.603
 2126SOL    HW1 7277   3.226   5.094   1.589
 2126SOL    HW2 7278   3.096   5.059   1.683
 2127SOL     OW 7279   1.452   3.700   4.555
 2127SOL    HW1 7280   1.512   3.707   4.635
 2127SOL    HW2 7281   1.476   3.773   4.491
 2128SOL     OW 7282   5.413   2.938   1.261
 2128SOL    HW1 7283   5.433   2.999   1.185
 2128SOL    HW2 7284   5.444   2.845   1.239
 2129SOL     OW 7285   5.851   4.124   4.155
 2129SOL    HW1 7286   5.797   4.180   4.092
 2129SOL    HW2 7287   5.836   4.027   4.135
 2130SOL     OW 7288   2.408   0.552   2.629
 2130SOL    HW1 7289   2.489   0.509   2.590
 2130SOL    HW2 7290   2.370   0.617   2.564
 2131SOL     OW 7291   5.718   0.835   6.621
 2131SOL    HW1 7292   5.717   0.799   6.714
 2131SOL    HW2 7293   5.630   0.815   6.577
 2132SOL     OW 7294   2.533   2.555   0.084
 2132SOL    HW1 7295   2.627   2.581   0.066
 2132SOL    HW2 7296   2.527   2.511   0.174
 2133SOL     OW 7297   4.272   2.490   1.712
 2133SOL    HW1 7298   4.330   2.570   1.730
 2133SOL    HW2 7299   4.191   2.518   1.661
 2134SOL     OW 7300   2.604   0.193   5.370
 2134SOL    HW1 7301   2.656   0.115   5.334
 2134SOL    HW2 7302   2.548   0.163   5.447
 2135SOL     OW 7303   0.855   5.759   4.258
 2135SOL    HW1 7304   0.847   5.712   4.346
 2135SOL    HW2 7305   0.763   5.782   4.225
 2136SOL     OW 7306   0.841   5.084   3.637
 2136SOL    HW1 7307   0.926   5.051   3.595
 2136SOL    HW2 7308   0.764   5.064   3.577
 2137SOL     OW 7309   0.610   0.150   4.762
 2137SOL    HW1 7310   0.612   0.076   4.830
 2137SOL    HW2 7311   0.532   0.209   4.781
 2138SOL     OW 7312   1.258   2.055   6.555
 2138SOL    HW1 7313   1.166   2.054   6.517
 2138SOL    HW2 7314   1.324   2.027   6.485
 2139SOL     OW 7315   3.029   6.222   4.473
 2139SOL    HW1 7316   3.067   6.135   4.504
 2139SOL    HW2 7317   2.930   6.223   4.487
 2140SOL     OW 7318   1.343   5.766   3.799
 2140SOL    HW1 7319   1.281   5.800   3.870
 2140SOL    HW2 7320   1.342   5.828   3.721
 2141SOL     OW 7321   0.143   1.531   6.886
 2141SOL    HW1 7322   0.055   1.569   6.914
 2141SOL    HW2 7323   0.145   1.433   6.909
 2142SOL     OW 7324   4.245   1.145   3.215
 2142SOL    HW1 7325   4.309   1.068   3.219
 2142SOL    HW2 7326   4.294   1.230   3.235
 2143SOL     OW 7327   3.612   5.934   0.455
 2143SOL    HW1 7328   3.639   5.989   0.534
 2143SOL    HW2 7329   3.525   5.888   0.474
 2144SOL     OW 7330   1.275   1.113   1.675
 2144SOL    HW1 7331   1.233   1.118   1.766
 2144SOL    HW2 7332   1.253   1.026   1.632
 2145SOL     OW 7333   2.549   5.881   3.448
 2145SOL    HW1 7334   2.597   5.802   3.485
 2145SOL    HW2 7335   2.614   5.956   3.434
 2146SOL     OW 7336   2.797   2.527   0.959
 2146SOL    HW1 7337   2.750   2.446   0.925
 2146SOL    HW2 7338   2.758   2.609   0.917
 2147SOL     OW 7339   0.349   0.280   4.820
 2147SOL    HW1 7340   0.258   0.272   4.779
 2147SOL    HW2 7341   0.381   0.375   4.810
 2148SOL     OW 7342   6.454   3.572   4.418
 2148SOL    HW1 7343   6.506   3.598   4.498
 2148SOL    HW2 7344   6.494   3.490   4.377
 2149SOL     OW 7345   3.070   1.168   3.111
 2149SOL    HW1 7346   3.018   1.108   3.051
 2149SOL    HW2 7347   3.015   1.191   3.191
 2150SOL     OW 7348   5.043   6.960   2.957
 2150SOL    HW1 7349   5.079   6.872   2.924
 2150SOL    HW2 7350   4.946   6.968   2.931
 2151SOL     OW 7351   4.714   4.742   6.020
 2151SOL    HW1 7352   4.802   4.729   6.066
 2151SOL    HW2 7353   4.669   4.653   6.011
 2152SOL     OW 7354   0.242   6.758   2.476
 2152SOL    HW1 7355   0.309   6.832   2.471
 2152SOL    HW2 7356   0.156   6.787   2.435
 2153SOL     OW 7357   4.276   1.680   3.910
 2153SOL    HW1 7358   4.244   1.656   3.818
 2153SOL    HW2 7359   4.297   1.778   3.914
 2154SOL     OW 7360   3.595   6.452   4.981
 2154SOL    HW1 7361   3.536   6.378   4.948
 2154SOL    HW2 7362   3.548   6.540   4.969
 2155SOL     OW 7363   5.492   3.265   0.291
 2155SOL    HW1 7364   5.399   3.260   0.327
 2155SOL    HW2 7365   5.537   3.177   0.302
 2156SOL     OW 7366   6.613   6.590   2.717
 2156SOL    HW1 7367   6.600   6.532   2.637
 2156SOL    HW2 7368   6.573   6.680   2.699
 2157SOL     OW 7369   5.963   1.539   3.670
 2157SOL    HW1 7370   6.035   1.603   3.696
 2157SOL    HW2 7371   5.874   1.576   3.698
 2158SOL     OW 7372   4.247   7.017   3.715
 2158SOL    HW1 7373   4.180   7.024   3.641
 2158SOL    HW2 7374   4.277   0.083   3.742
 2159SOL     OW 7375   2.390   1.281   5.422
 2159SOL    HW1 7376   2.447   1.262   5.343
 2159SOL    HW2 7377   2.447   1.312   5.498
 2160SOL     OW 7378   2.395   3.629   0.787
 2160SOL    HW1 7379   2.403   3.720   0.747
 2160SOL    HW2 7380   2.401   3.560   0.715
 2161SOL     OW 7381   4.706   2.824   3.371
 2161SOL    HW1 7382   4.689   2.826   3.470
 2161SOL    HW2 7383   4.691   2.916   3.333
 2162SOL     OW 7384   2.642   1.589   2.108
 2162SOL    HW1 7385   2.562   1.589   2.168
 2162SOL    HW2 7386   2.722   1.557   2.158
 2163SOL     OW 7387   3.510   1.729   1.073
 2163SOL    HW1 7388   3.478   1.645   1.029
 2163SOL    HW2 7389   3.488   1.726   1.170
 2164SOL     OW 7390   6.825   0.886   1.357
 2164SOL    HW1 7391   6.908   0.882   1.413
 2164SOL    HW2 7392   6.788   0.793   1.345
 2165SOL     OW 7393   2.586   0.533   2.098
 2165SOL    HW1 7394   2.547   0.488   2.179
 2165SOL    HW2 7395   2.558   0.629   2.098
 2166SOL     OW 7396   5.480   2.648   5.678
 2166SOL    HW1 7397   5.423   2.639   5.597
 2166SOL    HW2 7398   5.566   2.691   5.654
 2167SOL     OW 7399   3.587   1.335   1.122
 2167SOL    HW1 7400   3.549   1.271   1.056
 2167SOL    HW2 7401   3.513   1.374   1.177
 2168SOL     OW 7402   5.719   6.284   4.544
 2168SOL    HW1 7403   5.792   6.247   4.602
 2168SOL    HW2 7404   5.694   6.375   4.576
 2169SOL     OW 7405   5.868   1.477   5.760
 2169SOL    HW1 7406   5.800   1.546   5.736
 2169SOL    HW2 7407   5.900   1.431   5.677
 2170SOL     OW 7408   4.924   5.030   4.027
 2170SOL    HW1 7409   4.943   5.062   4.120
 2170SOL    HW2 7410   5.009   4.994   3.987
 2171SOL     OW 7411   6.912   3.841   0.045
 2171SOL    HW1 7412   6.845   3.788   0.097
 2171SOL    HW2 7413   6.897   3.938   0.060
 2172SOL     OW 7414   2.656   0.431   2.500
 2172SOL    HW1 7415   2.714   0.363   2.455
 2172SOL    HW2 7416   2.577   0.450   2.442
 2173SOL     OW 7417   4.697   2.006   4.769
 2173SOL    HW1 7418   4.690   2.086   4.710
 2173SOL    HW2 7419   4.693   2.034   4.865
 2174SOL     OW 7420   0.820   5.489   5.076
 2174SOL    HW1 7421   0.903   5.475   5.022
 2174SOL    HW2 7422   0.841   5.550   5.153
 2175SOL     OW 7423   1.830   6.847   6.102
 2175SOL    HW1 7424   1.807   6.750   6.105
 2175SOL    HW2 7425   1.859   6.871   6.009
 2176SOL     OW 7426   2.080   2.664   2.968
 2176SOL    HW1 7427   2.119   2.755   2.985
 2176SOL    HW2 7428   2.035   2.664   2.878
 2177SOL     OW 7429   1.548   1.464   1.586
 2177SOL    HW1 7430   1.524   1.558   1.563
 2177SOL    HW2 7431   1.631   1.437   1.537
 2178SOL     OW 7432   6.395   6.159   0.324
 2178SOL    HW1 7433   6.398   6.075   0.270
 2178SOL    HW2 7434   6.421   6.139   0.418
 2179SOL     OW 7435   2.197   3.881   4.069
 2179SOL    HW1 7436   2.274   3.913   4.015
 2179SOL    HW2 7437   2.121   3.946   4.062
 2180SOL     OW 7438   3.108   2.984   1.952
 2180SOL    HW1 7439   3.083   3.081   1.946
 2180SOL    HW2 7440   3.060   2.932   1.881
 2181SOL     OW 7441   3.262   6.582   1.195
 2181SOL    HW1 7442   3.226   6.524   1.267
 2181SOL    HW2 7443   3.203   6.662   1.183
 2182SOL     OW 7444   4.243   3.321   0.763
 2182SOL    HW1 7445   4.312   3.367   0.706
 2182SOL    HW2 7446   4.282   3.302   0.853
 2183SOL     OW 7447   3.673   2.716   0.977
 2183SOL    HW1 7448   3.603   2.686   0.912
 2183SOL    HW2 7449   3.720   2.636   1.014
 2184SOL     OW 7450   5.261   2.901   6.222
 2184SOL    HW1 7451   5.217   2.990   6.207
 2184SOL    HW2 7452   5.340   2.893   6.161
 2185SOL     OW 7453   6.478   6.882   2.162
 2185SOL    HW1 7454   6.470   6.885   2.062
 2185SOL    HW2 7455   6.551   6.820   2.188
 2186SOL     OW 7456   0.514   4.217   3.170
 2186SOL    HW1 7457   0.470   4.194   3.257
 2186SOL    HW2 7458   0.557   4.307   3.176
 2187SOL     OW 7459   6.334   1.373   0.281
 2187SOL    HW1 7460   6.364   1.334   0.193
 2187SOL    HW2 7461   6.404   1.356   0.350
 2188SOL     OW 7462   5.110   1.801   3.948
 2188SOL    HW1 7463   5.035   1.829   4.008
 2188SOL    HW2 7464   5.095   1.707   3.917
 2189SOL     OW 7465   3.675   6.553   0.275
 2189SOL    HW1 7466   3.635   6.623   0.216
 2189SOL    HW2 7467   3.762   6.586   0.312
 2190SOL     OW 7468   5.356   2.866   0.137
 2190SOL    HW1 7469   5.302   2.788   0.170
 2190SOL    HW2 7470   5.429   2.834   0.077
 2191SOL     OW 7471   3.411   1.102   6.774
 2191SOL    HW1 7472   3.405   1.002   6.770
 2191SOL    HW2 7473   3.455   1.136   6.691
 2192SOL     OW 7474   3.574   5.843   2.189
 2192SOL    HW1 7475   3.615   5.916   2.135
 2192SOL    HW2 7476   3.494   5.807   2.141
 2193SOL     OW 7477   6.736   6.253   4.584
 2193SOL    HW1 7478   6.834   6.246   4.565
 2193SOL    HW2 7479   6.722   6.296   4.673
 2194SOL     OW 7480   2.712   6.855   2.024
 2194SOL    HW1 7481   2.701   6.790   1.949
 2194SOL    HW2 7482   2.698   6.948   1.990
 2195SOL     OW 7483   0.426   4.463   1.881
 2195SOL    HW1 7484   0.369   4.458   1.799
 2195SOL    HW2 7485   0.431   4.373   1.924
 2196SOL     OW 7486   4.502   4.032   7.008
 2196SOL    HW1 7487   4.503   4.129   6.983
 2196SOL    HW2 7488   4.513   4.023   0.081
 2197SOL     OW 7489   4.488   3.480   6.648
 2197SOL    HW1 7490   4.460   3.572   6.675
 2197SOL    HW2 7491   4.576   3.484   6.602
 2198SOL     OW 7492   6.873   4.338   6.930
 2198SOL    HW1 7493   6.861   4.316   6.833
 2198SOL    HW2 7494   6.970   4.353   6.948
 2199SOL     OW 7495   4.491   1.356   3.432
 2199SOL    HW1 7496   4.408   1.308   3.464
 2199SOL    HW2 7497   4.476   1.455   3.436
 2200SOL     OW 7498   3.465   6.880   4.377
 2200SOL    HW1 7499   3.432   6.930   4.457
 2200SOL    HW2 7500   3.554   6.916   4.349
 2201SOL     OW 7501   4.703   4.197   4.410
 2201SOL    HW1 7502   4.720   4.098   4.412
 2201SOL    HW2 7503   4.791   4.245   4.404
 2202SOL     OW 7504   4.582   5.618   3.655
 2202SOL    HW1 7505   4.607   5.577   3.568
 2202SOL    HW2 7506   4.569   5.547   3.724
 2203SOL     OW 7507   2.467   2.042   2.936
 2203SOL    HW1 7508   2.534   2.061   2.864
 2203SOL    HW2 7509   2.499   2.079   3.023
 2204SOL     OW 7510   3.060   2.240   0.894
 2204SOL    HW1 7511   3.035   2.326   0.938
 2204SOL    HW2 7512   3.103   2.260   0.805
 2205SOL     OW 7513   3.218   1.311   2.362
 2205SOL    HW1 7514   3.276   1.342   2.437
 2205SOL    HW2 7515   3.243   1.359   2.278
 2206SOL     OW 7516   1.425   3.745   0.488
 2206SOL    HW1 7517   1.439   3.799   0.405
 2206SOL    HW2 7518   1.446   3.649   0.469
 2207SOL     OW 7519   6.527   4.860   5.057
 2207SOL    HW1 7520   6.503   4.865   4.960
 2207SOL    HW2 7521   6.499   4.771   5.093
 2208SOL     OW 7522   6.448   5.427   1.668
 2208SOL    HW1 7523   6.533   5.444   1.717
 2208SOL    HW2 7524   6.457   5.346   1.611
 2209SOL     OW 7525   0.315   6.729   1.748
 2209SOL    HW1 7526   0.241   6.785   1.785
 2209SOL    HW2 7527   0.348   6.667   1.819
 2210SOL     OW 7528   1.992   5.154   4.108
 2210SOL    HW1 7529   1.966   5.167   4.204
 2210SOL    HW2 7530   2.079   5.200   4.092
 2211SOL     OW 7531   6.750   1.425   5.292
 2211SOL    HW1 7532   6.798   1.413   5.378
 2211SOL    HW2 7533   6.810   1.470   5.226
 2212SOL     OW 7534   3.217   0.160   5.915
 2212SOL    HW1 7535   3.253   0.076   5.875
 2212SOL    HW2 7536   3.291   0.227   5.924
 2213SOL     OW 7537   4.783   0.232   3.176
 2213SOL    HW1 7538   4.704   0.268   3.225
 2213SOL    HW2 7539   4.867   0.259   3.223
 2214SOL     OW 7540   3.484   6.954   4.985
 2214SOL    HW1 7541   3.417   7.013   4.939
 2214SOL    HW2 7542   3.437   6.895   5.050
 2215SOL     OW 7543   5.721   1.891   5.252
 2215SOL    HW1 7544   5.777   1.942   5.187
 2215SOL    HW2 7545   5.745   1.918   5.345
 2216SOL     OW 7546   3.167   1.837   2.679
 2216SOL    HW1 7547   3.126   1.877   2.596
 2216SOL    HW2 7548   3.125   1.749   2.697
 2217SOL     OW 7549   3.287   6.897   1.520
 2217SOL    HW1 7550   3.366   6.922   1.464
 2217SOL    HW2 7551   3.314   6.893   1.616
 2218SOL     OW 7552   0.253   0.739   2.269
 2218SOL    HW1 7553   0.225   0.650   2.232
 2218SOL    HW2 7554   0.296   0.725   2.358
 2219SOL     OW 7555   2.746   2.215   2.935
 2219SOL    HW1 7556   2.816   2.193   2.866
 2219SOL    HW2 7557   2.780   2.193   3.026
 2220SOL     OW 7558   1.372   0.204   2.266
 2220SOL    HW1 7559   1.436   0.280   2.278
 2220SOL    HW2 7560   1.329   0.183   2.354
 2221SOL     OW 7561   0.482   0.101   5.522
 2221SOL    HW1 7562   0.441   0.193   5.516
 2221SOL    HW2 7563   0.429   0.045   5.585
 2222SOL     OW 7564   5.898   4.788   3.903
 2222SOL    HW1 7565   5.911   4.757   3.809
 2222SOL    HW2 7566   5.861   4.881   3.903
 2223SOL     OW 7567   0.030   6.683   1.847
 2223SOL    HW1 7568   0.003   6.779   1.841
 2223SOL    HW2 7569   0.053   6.649   1.755
 2224SOL     OW 7570   0.599   5.674   0.678
 2224SOL    HW1 7571   0.662   5.633   0.745
 2224SOL    HW2 7572   0.643   5.755   0.638
 2225SOL     OW 7573   0.652   4.298   0.154
 2225SOL    HW1 7574   0.682   4.214   0.108
 2225SOL    HW2 7575   0.706   4.313   0.236
 2226SOL     OW 7576   4.056   3.504   2.468
 2226SOL    HW1 7577   4.059   3.604   2.473
 2226SOL    HW2 7578   3.962   3.475   2.449
 2227SOL     OW 7579   0.436   1.715   4.411
 2227SOL    HW1 7580   0.503   1.641   4.411
 2227SOL    HW2 7581   0.391   1.720   4.501
 2228SOL     OW 7582   2.490   4.508   4.054
 2228SOL    HW1 7583   2.506   4.469   4.145
 2228SOL    HW2 7584   2.467   4.605   4.064
 2229SOL     OW 7585   6.491   6.137   3.194
 2229SOL    HW1 7586   6.489   6.127   3.094
 2229SOL    HW2 7587   6.578   6.179   3.220
 2230SOL     OW 7588   1.867   5.257   2.682
 2230SOL    HW1 7589   1.904   5.194   2.751
 2230SOL    HW2 7590   1.842   5.206   2.600
 2231SOL     OW 7591   2.059   6.006   1.027
 2231SOL    HW1 7592   2.007   5.988   0.943
 2231SOL    HW2 7593   2.041   6.099   1.058
 2232SOL     OW 7594   5.706   2.134   4.090
 2232SOL    HW1 7595   5.618   2.091   4.109
 2232SOL    HW2 7596   5.719   2.213   4.150
 2233SOL     OW 7597   3.760   1.282   0.220
 2233SOL    HW1 7598   3.796   1.301   0.312
 2233SOL    HW2 7599   3.830   1.234   0.167
 2234SOL     OW 7600   3.931   2.561   1.079
 2234SOL    HW1 7601   3.948   2.628   1.151
 2234SOL    HW2 7602   4.005   2.565   1.012
 2235SOL     OW 7603   2.066   2.155   2.537
 2235SOL    HW1 7604   2.068   2.254   2.551
 2235SOL    HW2 7605   2.095   2.134   2.444
 2236SOL     OW 7606   0.921   4.185   5.233
 2236SOL    HW1 7607   0.987   4.259   5.248
 2236SOL    HW2 7608   0.835   4.223   5.201
 2237SOL     OW 7609   6.751   2.942   3.986
 2237SOL    HW1 7610   6.849   2.961   3.982
 2237SOL    HW2 7611   6.733   2.849   3.954
 2238SOL     OW 7612   5.369   5.921   0.137
 2238SOL    HW1 7613   5.414   5.951   0.222
 2238SOL    HW2 7614   5.391   5.985   0.064
 2239SOL     OW 7615   7.006   5.996   1.003
 2239SOL    HW1 7616   0.003   5.902   1.030
 2239SOL    HW2 7617   6.940   5.994   0.928
 2240SOL     OW 7618   6.195   3.859   1.582
 2240SOL    HW1 7619   6.228   3.822   1.669
 2240SOL    HW2 7620   6.122   3.800   1.547
 2241SOL     OW 7621   1.074   0.494   3.914
 2241SOL    HW1 7622   1.105   0.533   4.001
 2241SOL    HW2 7623   0.985   0.449   3.927
 2242SOL     OW 7624   3.001   1.521   3.121
 2242SOL    HW1 7625   2.980   1.445   3.183
 2242SOL    HW2 7626   2.916   1.554   3.079
 2243SOL     OW 7627   2.078   0.294   5.111
 2243SOL    HW1 7628   1.989   0.272   5.151
 2243SOL    HW2 7629   2.090   0.242   5.026
 2244SOL     OW 7630   3.840   0.642   4.929
 2244SOL    HW1 7631   3.895   0.721   4.957
 2244SOL    HW2 7632   3.890   0.558   4.950
 2245SOL     OW 7633   0.514   2.317   2.348
 2245SOL    HW1 7634   0.479   2.375   2.422
 2245SOL    HW2 7635   0.549   2.232   2.386
 2246SOL     OW 7636   0.957   3.947   5.343
 2246SOL    HW1 7637   0.943   4.034   5.297
 2246SOL    HW2 7638   0.886   3.882   5.314
 2247SOL     OW 7639   2.145   1.366   4.416
 2247SOL    HW1 7640   2.240   1.337   4.426
 2247SOL    HW2 7641   2.120   1.424   4.493
 2248SOL     OW 7642   5.630   4.260   6.136
 2248SOL    HW1 7643   5.642   4.182   6.075
 2248SOL    HW2 7644   5.719   4.294   6.165
 2249SOL     OW 7645   5.172   5.607   5.304
 2249SOL    HW1 7646   5.104   5.667   5.346
 2249SOL    HW2 7647   5.225   5.659   5.236
 2250SOL     OW 7648   4.650   5.045   1.841
 2250SOL    HW1 7649   4.622   4.952   1.817
 2250SOL    HW2 7650   4.613   5.069   1.931
 2251SOL     OW 7651   0.519   0.846   5.649
 2251SOL    HW1 7652   0.571   0.785   5.708
 2251SOL    HW2 7653   0.541   0.828   5.553
 2252SOL     OW 7654   3.676   1.135   6.384
 2252SOL    HW1 7655   3.679   1.195   6.304
 2252SOL    HW2 7656   3.681   1.040   6.354
 2253SOL     OW 7657   0.735   4.079   7.008
 2253SOL    HW1 7658   0.654   4.020   6.999
 2253SOL    HW2 7659   0.751   4.128   6.922
 2254SOL     OW 7660   1.941   4.554   6.502
 2254SOL    HW1 7661   1.981   4.645   6.510
 2254SOL    HW2 7662   1.847   4.561   6.469
 2255SOL     OW 7663   6.734   3.826   6.389
 2255SOL    HW1 7664   6.709   3.784   6.476
 2255SOL    HW2 7665   6.778   3.914   6.405
 2256SOL     OW 7666   2.467   4.923   1.739
 2256SOL    HW1 7667   2.420   4.979   1.670
 2256SOL    HW2 7668   2.542   4.873   1.696
 2257SOL     OW 7669   1.379   4.097   5.082
 2257SOL    HW1 7670   1.367   4.025   5.150
 2257SOL    HW2 7671   1.290   4.135   5.057
 2258SOL     OW 7672   1.874   5.439   5.291
 2258SOL    HW1 7673   1.793   5.394   5.254
 2258SOL    HW2 7674   1.937   5.370   5.327
 2259SOL     OW 7675   6.457   1.942   6.017
 2259SOL    HW1 7676   6.430   1.850   5.989
 2259SOL    HW2 7677   6.530   1.937   6.085
 2260SOL     OW 7678   3.753   2.884   0.431
 2260SOL    HW1 7679   3.791   2.961   0.483
 2260SOL    HW2 7680   3.812   2.804   0.442
 2261SOL     OW 7681   2.134   6.341   5.116
 2261SOL    HW1 7682   2.193   6.276   5.164
 2261SOL    HW2 7683   2.068   6.292   5.060
 2262SOL     OW 7684   3.468   1.860   2.953
 2262SOL    HW1 7685   3.506   1.950   2.931
 2262SOL    HW2 7686   3.384   1.871   3.006
 2263SOL     OW 7687   0.809   4.660   5.918
 2263SOL    HW1 7688   0.898   4.615   5.930
 2263SOL    HW2 7689   0.741   4.616   5.977
 2264SOL     OW 7690   3.727   3.767   3.149
 2264SOL    HW1 7691   3.692   3.673   3.145
 2264SOL    HW2 7692   3.815   3.771   3.101
 2265SOL     OW 7693   0.935   6.653   4.159
 2265SOL    HW1 7694   0.872   6.676   4.085
 2265SOL    HW2 7695   0.915   6.709   4.239
 2266SOL     OW 7696   6.563   0.479   5.534
 2266SOL    HW1 7697   6.585   0.490   5.437
 2266SOL    HW2 7698   6.625   0.412   5.575
 2267SOL     OW 7699   5.570   1.684   5.307
 2267SOL    HW1 7700   5.525   1.727   5.386
 2267SOL    HW2 7701   5.642   1.744   5.273
 2268SOL     OW 7702   0.050   5.876   0.206
 2268SOL    HW1 7703   0.073   5.854   0.301
 2268SOL    HW2 7704   0.109   5.823   0.145
 2269SOL     OW 7705   0.350   6.578   2.846
 2269SOL    HW1 7706   0.438   6.552   2.886
 2269SOL    HW2 7707   0.352   6.675   2.822
 2270SOL     OW 7708   3.457   3.301   3.190
 2270SOL    HW1 7709   3.462   3.231   3.261
 2270SOL    HW2 7710   3.417   3.262   3.107
 2271SOL     OW 7711   1.504   4.444   2.769
 2271SOL    HW1 7712   1.549   4.493   2.844
 2271SOL    HW2 7713   1.565   4.371   2.736
 2272SOL     OW 7714   4.985   0.652   5.584
 2272SOL    HW1 7715   4.926   0.672   5.662
 2272SOL    HW2 7716   5.056   0.587   5.611
 2273SOL     OW 7717   0.668   1.542   2.410
 2273SOL    HW1 7718   0.626   1.458   2.375
 2273SOL    HW2 7719   0.653   1.617   2.345
 2274SOL     OW 7720   0.935   4.034   3.343
 2274SOL    HW1 7721   1.012   4.021   3.406
 2274SOL    HW2 7722   0.859   4.075   3.393
 2275SOL     OW 7723   4.609   6.518   3.339
 2275SOL    HW1 7724   4.674   6.594   3.342
 2275SOL    HW2 7725   4.657   6.435   3.312
 2276SOL     OW 7726   3.335   5.616   2.342
 2276SOL    HW1 7727   3.316   5.519   2.326
 2276SOL    HW2 7728   3.404   5.625   2.413
 2277SOL     OW 7729   3.280   3.041   2.166
 2277SOL    HW1 7730   3.235   3.125   2.196
 2277SOL    HW2 7731   3.226   2.999   2.092
 2278SOL     OW 7732   3.862   5.546   1.118
 2278SOL    HW1 7733   3.898   5.503   1.201
 2278SOL    HW2 7734   3.907   5.635   1.105
 2279SOL     OW 7735   5.708   4.049   5.994
 2279SOL    HW1 7736   5.746   4.005   6.075
 2279SOL    HW2 7737   5.736   3.998   5.912
 2280SOL     OW 7738   5.732   0.473   5.983
 2280SOL    HW1 7739   5.689   0.500   5.897
 2280SOL    HW2 7740   5.695   0.386   6.013
 2281SOL     OW 7741   2.482   0.982   0.499
 2281SOL    HW1 7742   2.433   0.931   0.570
 2281SOL    HW2 7743   2.437   1.070   0.484
 2282SOL     OW 7744   3.975   6.229   2.400
 2282SOL    HW1 7745   3.898   6.251   2.340
 2282SOL    HW2 7746   4.024   6.150   2.365
 2283SOL     OW 7747   0.816   3.620   1.361
 2283SOL    HW1 7748   0.764   3.612   1.276
 2283SOL    HW2 7749   0.818   3.531   1.408
 2284SOL     OW 7750   2.162   2.552   1.233
 2284SOL    HW1 7751   2.249   2.537   1.185
 2284SOL    HW2 7752   2.091   2.494   1.191
 2285SOL     OW 7753   1.783   2.846   6.739
 2285SOL    HW1 7754   1.711   2.782   6.712
 2285SOL    HW2 7755   1.860   2.795   6.778
 2286SOL     OW 7756   6.583   6.611   4.011
 2286SOL    HW1 7757   6.569   6.709   4.000
 2286SOL    HW2 7758   6.550   6.563   3.929
 2287SOL     OW 7759   2.754   1.710   0.890
 2287SOL    HW1 7760   2.668   1.756   0.864
 2287SOL    HW2 7761   2.815   1.777   0.932
 2288SOL     OW 7762   2.513   6.141   4.581
 2288SOL    HW1 7763   2.493   6.219   4.641
 2288SOL    HW2 7764   2.465   6.153   4.494
 2289SOL     OW 7765   3.972   0.167   6.922
 2289SOL    HW1 7766   3.990   0.263   6.945
 2289SOL    HW2 7767   3.987   0.153   6.824
 2290SOL     OW 7768   2.975   3.340   4.669
 2290SOL    HW1 7769   2.973   3.303   4.762
 2290SOL    HW2 7770   3.006   3.435   4.671
 2291SOL     OW 7771   2.505   2.267   0.347
 2291SOL    HW1 7772   2.594   2.286   0.303
 2291SOL    HW2 7773   2.445   2.221   0.282
 2292SOL     OW 7774   5.327   2.444   3.346
 2292SOL    HW1 7775   5.290   2.444   3.439
 2292SOL    HW2 7776   5.358   2.352   3.322
 2293SOL     OW 7777   0.990   0.958   6.829
 2293SOL    HW1 7778   0.912   1.014   6.800
 2293SOL    HW2 7779   1.075   1.003   6.801
 2294SOL     OW 7780   6.597   2.205   5.103
 2294SOL    HW1 7781   6.599   2.192   5.003
 2294SOL    HW2 7782   6.570   2.300   5.123
 2295SOL     OW 7783   5.549   6.094   0.309
 2295SOL    HW1 7784   5.513   6.175   0.356
 2295SOL    HW2 7785   5.607   6.043   0.372
 2296SOL     OW 7786   3.741   5.803   4.745
 2296SOL    HW1 7787   3.829   5.823   4.788
 2296SOL    HW2 7788   3.740   5.707   4.716
 2297SOL     OW 7789   6.059   2.779   6.723
 2297SOL    HW1 7790   6.134   2.718   6.747
 2297SOL    HW2 7791   6.093   2.851   6.662
 2298SOL     OW 7792   2.901   3.851   5.174
 2298SOL    HW1 7793   2.823   3.804   5.217
 2298SOL    HW2 7794   2.888   3.950   5.181
 2299SOL     OW 7795   5.866   3.557   4.917
 2299SOL    HW1 7796   5.879   3.462   4.888
 2299SOL    HW2 7797   5.946   3.611   4.891
 2300SOL     OW 7798   5.345   6.946   2.823
 2300SOL    HW1 7799   5.386   7.024   2.869
 2300SOL    HW2 7800   5.383   6.861   2.860
 2301SOL     OW 7801   3.770   3.318   5.310
 2301SOL    HW1 7802   3.782   3.343   5.214
 2301SOL    HW2 7803   3.709   3.240   5.317
 2302SOL     OW 7804   6.528   3.706   5.684
 2302SOL    HW1 7805   6.532   3.724   5.782
 2302SOL    HW2 7806   6.448   3.753   5.645
 2303SOL     OW 7807   2.815   1.636   6.152
 2303SOL    HW1 7808   2.797   1.548   6.107
 2303SOL    HW2 7809   2.908   1.636   6.188
 2304SOL     OW 7810   5.372   6.995   2.563
 2304SOL    HW1 7811   5.352   6.944   2.646
 2304SOL    HW2 7812   5.386   6.932   2.487
 2305SOL     OW 7813   2.973   6.660   5.373
 2305SOL    HW1 7814   2.945   6.588   5.310
 2305SOL    HW2 7815   3.059   6.635   5.417
 2306SOL     OW 7816   0.794   4.515   4.885
 2306SOL    HW1 7817   0.793   4.416   4.900
 2306SOL    HW2 7818   0.883   4.552   4.912
 2307SOL     OW 7819   5.877   4.034   4.807
 2307SOL    HW1 7820   5.863   4.129   4.780
 2307SOL    HW2 7821   5.789   3.988   4.814
 2308SOL     OW 7822   1.208   5.943   1.925
 2308SOL    HW1 7823   1.182   5.847   1.938
 2308SOL    HW2 7824   1.202   5.992   2.012
 2309SOL     OW 7825   1.988   0.866   4.568
 2309SOL    HW1 7826   2.005   0.932   4.494
 2309SOL    HW2 7827   1.973   0.915   4.654
 2310SOL     OW 7828   5.010   6.286   0.238
 2310SOL    HW1 7829   5.084   6.353   0.241
 2310SOL    HW2 7830   4.922   6.334   0.246
 2311SOL     OW 7831   2.592   6.067   0.582
 2311SOL    HW1 7832   2.629   6.037   0.494
 2311SOL    HW2 7833   2.581   5.988   0.643
 2312SOL     OW 7834   2.865   4.818   3.111
 2312SOL    HW1 7835   2.847   4.758   3.189
 2312SOL    HW2 7836   2.777   4.844   3.069
 2313SOL     OW 7837   4.608   5.146   1.590
 2313SOL    HW1 7838   4.683   5.115   1.531
 2313SOL    HW2 7839   4.615   5.102   1.679
 2314SOL     OW 7840   2.265   4.313   3.093
 2314SOL    HW1 7841   2.318   4.324   3.177
 2314SOL    HW2 7842   2.249   4.216   3.076
 2315SOL     OW 7843   4.135   1.964   6.463
 2315SOL    HW1 7844   4.084   1.951   6.548
 2315SOL    HW2 7845   4.183   2.052   6.466
 2316SOL     OW 7846   5.063   3.265   1.426
 2316SOL    HW1 7847   5.079   3.170   1.397
 2316SOL    HW2 7848   5.024   3.265   1.518
 2317SOL     OW 7849   0.686   5.693   3.915
 2317SOL    HW1 7850   0.682   5.737   3.826
 2317SOL    HW2 7851   0.683   5.762   3.987
 2318SOL     OW 7852   6.664   1.847   3.663
 2318SOL    HW1 7853   6.646   1.752   3.639
 2318SOL    HW2 7854   6.711   1.851   3.751
 2319SOL     OW 7855   1.147   5.049   1.689
 2319SOL    HW1 7856   1.049   5.031   1.693
 2319SOL    HW2 7857   1.168   5.103   1.608
 2320SOL     OW 7858   6.153   4.630   4.134
 2320SOL    HW1 7859   6.126   4.552   4.077
 2320SOL    HW2 7860   6.129   4.715   4.087
 2321SOL     OW 7861   3.608   4.963   4.055
 2321SOL    HW1 7862   3.687   4.971   4.116
 2321SOL    HW2 7863   3.524   4.961   4.110
 2322SOL     OW 7864   2.697   0.748   4.661
 2322SOL    HW1 7865   2.742   0.747   4.572
 2322SOL    HW2 7866   2.617   0.807   4.658
 2323SOL     OW 7867   5.252   3.094   1.673
 2323SOL    HW1 7868   5.226   3.164   1.741
 2323SOL    HW2 7869   5.220   3.122   1.583
 2324SOL     OW 7870   0.106   5.117   4.081
 2324SOL    HW1 7871   0.204   5.134   4.067
 2324SOL    HW2 7872   0.068   5.072   4.001
 2325SOL     OW 7873   6.662   2.386   0.372
 2325SOL    HW1 7874   6.729   2.440   0.323
 2325SOL    HW2 7875   6.628   2.312   0.313
 2326SOL     OW 7876   0.333   4.722   0.556
 2326SOL    HW1 7877   0.264   4.765   0.498
 2326SOL    HW2 7878   0.397   4.669   0.500
 2327SOL     OW 7879   4.849   1.083   3.415
 2327SOL    HW1 7880   4.923   1.131   3.369
 2327SOL    HW2 7881   4.837   0.992   3.374
 2328SOL     OW 7882   6.216   5.198   3.808
 2328SOL    HW1 7883   6.304   5.242   3.827
 2328SOL    HW2 7884   6.226   5.099   3.819
 2329SOL     OW 7885   1.083   6.448   3.014
 2329SOL    HW1 7886   1.126   6.494   2.937
 2329SOL    HW2 7887   1.051   6.358   2.985
 2330SOL     OW 7888   1.580   4.646   0.341
 2330SOL    HW1 7889   1.526   4.575   0.296
 2330SOL    HW2 7890   1.604   4.717   0.274
 2331SOL     OW 7891   1.258   5.161   4.809
 2331SOL    HW1 7892   1.278   5.215   4.890
 2331SOL    HW2 7893   1.334   5.099   4.790
 2332SOL     OW 7894   6.278   3.212   5.669
 2332SOL    HW1 7895   6.302   3.245   5.578
 2332SOL    HW2 7896   6.205   3.270   5.706
 2333SOL     OW 7897   2.344   4.797   3.818
 2333SOL    HW1 7898   2.397   4.882   3.821
 2333SOL    HW2 7899   2.343   4.755   3.909
 2334SOL     OW 7900   2.477   0.415   5.761
 2334SOL    HW1 7901   2.538   0.409   5.682
 2334SOL    HW2 7902   2.383   0.426   5.729
 2335SOL     OW 7903   4.902   4.339   4.327
 2335SOL    HW1 7904   4.879   4.436   4.337
 2335SOL    HW2 7905   4.948   4.324   4.239
 2336SOL     OW 7906   4.269   2.077   5.995
 2336SOL    HW1 7907   4.204   2.049   6.065
 2336SOL    HW2 7908   4.224   2.080   5.906
 2337SOL     OW 7909   5.941   0.691   4.412
 2337SOL    HW1 7910   5.843   0.700   4.396
 2337SOL    HW2 7911   5.963   0.716   4.506
 2338SOL     OW 7912   1.309   0.110   6.882
 2338SOL    HW1 7913   1.291   0.190   6.938
 2338SOL    HW2 7914   1.238   0.041   6.898
 2339SOL     OW 7915   4.087   4.702   6.948
 2339SOL    HW1 7916   4.169   4.739   6.904
 2339SOL    HW2 7917   4.013   4.698   6.881
 2340SOL     OW 7918   3.555   5.280   4.624
 2340SOL    HW1 7919   3.495   5.274   4.544
 2340SOL    HW2 7920   3.585   5.188   4.650
 2341SOL     OW 7921   6.912   4.551   6.630
 2341SOL    HW1 7922   6.888   4.645   6.603
 2341SOL    HW2 7923   6.980   4.555   6.703
 2342SOL     OW 7924   6.597   1.364   5.662
 2342SOL    HW1 7925   6.617   1.274   5.623
 2342SOL    HW2 7926   6.590   1.431   5.589
 2343SOL     OW 7927   1.650   6.097   0.122
 2343SOL    HW1 7928   1.703   6.182   0.115
 2343SOL    HW2 7929   1.630   6.078   0.218
 2344SOL     OW 7930   2.873   1.084   2.932
 2344SOL    HW1 7931   2.888   1.164   2.874
 2344SOL    HW2 7932   2.791   1.035   2.900
 2345SOL     OW 7933   1.316   1.931   2.217
 2345SOL    HW1 7934   1.285   1.867   2.147
 2345SOL    HW2 7935   1.237   1.974   2.260
 2346SOL     OW 7936   4.799   3.122   5.203
 2346SOL    HW1 7937   4.847   3.067   5.271
 2346SOL    HW2 7938   4.773   3.210   5.243
 2347SOL     OW 7939   1.558   4.165   0.732
 2347SOL    HW1 7940   1.486   4.196   0.670
 2347SOL    HW2 7941   1.568   4.066   0.725
 2348SOL     OW 7942   2.443   6.944   1.171
 2348SOL    HW1 7943   2.364   6.900   1.129
 2348SOL    HW2 7944   2.415   0.006   1.212
 2349SOL     OW 7945   5.369   3.158   6.707
 2349SOL    HW1 7946   5.430   3.236   6.718
 2349SOL    HW2 7947   5.380   3.120   6.615
 2350SOL     OW 7948   1.686   6.284   5.162
 2350SOL    HW1 7949   1.728   6.204   5.204
 2350SOL    HW2 7950   1.642   6.257   5.076
 2351SOL     OW 7951   1.605   4.898   2.492
 2351SOL    HW1 7952   1.609   4.813   2.544
 2351SOL    HW2 7953   1.519   4.946   2.513
 2352SOL     OW 7954   5.404   5.323   6.823
 2352SOL    HW1 7955   5.310   5.358   6.822
 2352SOL    HW2 7956   5.431   5.299   6.730
 2353SOL     OW 7957   2.666   2.805   6.025
 2353SOL    HW1 7958   2.633   2.897   6.048
 2353SOL    HW2 7959   2.694   2.803   5.929
 2354SOL     OW 7960   4.288   1.481   2.406
 2354SOL    HW1 7961   4.377   1.436   2.409
 2354SOL    HW2 7962   4.298   1.575   2.375
 2355SOL     OW 7963   0.787   1.568   1.848
 2355SOL    HW1 7964   0.762   1.574   1.944
 2355SOL    HW2 7965   0.871   1.515   1.838
 2356SOL     OW 7966   3.054   5.146   4.537
 2356SOL    HW1 7967   3.125   5.151   4.608
 2356SOL    HW2 7968   3.095   5.110   4.453
 2357SOL     OW 7969   1.308   5.510   0.909
 2357SOL    HW1 7970   1.406   5.501   0.923
 2357SOL    HW2 7971   1.273   5.584   0.967
 2358SOL     OW 7972   2.710   0.881   5.268
 2358SOL    HW1 7973   2.774   0.947   5.229
 2358SOL    HW2 7974   2.695   0.902   5.365
 2359SOL     OW 7975   2.661   2.314   6.205
 2359SOL    HW1 7976   2.614   2.396   6.174
 2359SOL    HW2 7977   2.706   2.270   6.126
 2360SOL     OW 7978   3.251   5.119   0.736
 2360SOL    HW1 7979   3.287   5.205   0.772
 2360SOL    HW2 7980   3.151   5.118   0.747
 2361SOL     OW 7981   3.375   5.082   1.395
 2361SOL    HW1 7982   3.436   5.015   1.438
 2361SOL    HW2 7983   3.310   5.034   1.335
 2362SOL     OW 7984   2.757   5.345   4.564
 2362SOL    HW1 7985   2.691   5.363   4.491
 2362SOL    HW2 7986   2.760   5.247   4.582
 2363SOL     OW 7987   1.969   3.829   1.082
 2363SOL    HW1 7988   1.893   3.891   1.101
 2363SOL    HW2 7989   2.038   3.836   1.154
 2364SOL     OW 7990   4.732   0.727   2.226
 2364SOL    HW1 7991   4.685   0.670   2.158
 2364SOL    HW2 7992   4.695   0.820   2.222
 2365SOL     OW 7993   5.484   4.595   3.156
 2365SOL    HW1 7994   5.438   4.525   3.102
 2365SOL    HW2 7995   5.426   4.621   3.234
 2366SOL     OW 7996   3.485   4.902   5.160
 2366SOL    HW1 7997   3.448   4.982   5.207
 2366SOL    HW2 7998   3.476   4.821   5.218
 2367SOL     OW 7999   6.144   5.523   5.495
 2367SOL    HW1 8000   6.181   5.593   5.433
 2367SOL    HW2 8001   6.083   5.463   5.444
 2368SOL     OW 8002   5.448   0.485   4.825
 2368SOL    HW1 8003   5.478   0.390   4.824
 2368SOL    HW2 8004   5.352   0.490   4.795
 2369SOL     OW 8005   4.047   1.784   4.394
 2369SOL    HW1 8006   4.070   1.687   4.403
 2369SOL    HW2 8007   3.975   1.808   4.458
 2370SOL     OW 8008   4.549   1.606   1.559
 2370SOL    HW1 8009   4.622   1.671   1.575
 2370SOL    HW2 8010   4.514   1.572   1.646
 2371SOL     OW 8011   1.721   0.230   2.170
 2371SOL    HW1 8012   1.621   0.233   2.157
 2371SOL    HW2 8013   1.760   0.318   2.142
 2372SOL     OW 8014   6.515   6.802   4.977
 2372SOL    HW1 8015   6.421   6.770   4.963
 2372SOL    HW2 8016   6.563   6.740   5.039
 2373SOL     OW 8017   5.934   4.313   5.829
 2373SOL    HW1 8018   5.973   4.311   5.736
 2373SOL    HW2 8019   5.963   4.230   5.878
 2374SOL     OW 8020   0.013   6.265   2.164
 2374SOL    HW1 8021   0.036   6.326   2.089
 2374SOL    HW2 8022   6.988   6.315   2.234
 2375SOL     OW 8023   1.386   0.156   3.925
 2375SOL    HW1 8024   1.339   0.141   4.012
 2375SOL    HW2 8025   1.422   0.249   3.923
 2376SOL     OW 8026   5.132   3.274   3.616
 2376SOL    HW1 8027   5.058   3.298   3.678
 2376SOL    HW2 8028   5.102   3.289   3.521
 2377SOL     OW 8029   3.625   3.871   5.771
 2377SOL    HW1 8030   3.709   3.904   5.814
 2377SOL    HW2 8031   3.636   3.775   5.746
 2378SOL     OW 8032   0.634   0.699   0.784
 2378SOL    HW1 8033   0.595   0.673   0.695
 2378SOL    HW2 8034   0.712   0.640   0.805
 2379SOL     OW 8035   0.692   4.838   2.625
 2379SOL    HW1 8036   0.699   4.937   2.633
 2379SOL    HW2 8037   0.784   4.798   2.618
 2380SOL     OW 8038   4.092   5.240   6.569
 2380SOL    HW1 8039   4.044   5.158   6.538
 2380SOL    HW2 8040   4.108   5.301   6.491
 2381SOL     OW 8041   2.140   3.601   4.124
 2381SOL    HW1 8042   2.164   3.690   4.163
 2381SOL    HW2 8043   2.046   3.603   4.091
 2382SOL     OW 8044   0.032   5.572   3.154
 2382SOL    HW1 8045   6.957   5.566   3.159
 2382SOL    HW2 8046   0.058   5.667   3.136
 2383SOL     OW 8047   4.993   4.021   5.717
 2383SOL    HW1 8048   5.008   3.977   5.629
 2383SOL    HW2 8049   5.079   4.022   5.769
 2384SOL     OW 8050   0.237   2.843   3.215
 2384SOL    HW1 8051   0.278   2.752   3.205
 2384SOL    HW2 8052   0.289   2.909   3.161
 2385SOL     OW 8053   0.571   0.978   0.505
 2385SOL    HW1 8054   0.570   1.065   0.456
 2385SOL    HW2 8055   0.536   0.906   0.445
 2386SOL     OW 8056   6.661   5.302   5.055
 2386SOL    HW1 8057   6.627   5.388   5.094
 2386SOL    HW2 8058   6.704   5.248   5.127
 2387SOL     OW 8059   0.289   0.741   3.656
 2387SOL    HW1 8060   0.361   0.735   3.586
 2387SOL    HW2 8061   0.331   0.745   3.746
 2388SOL     OW 8062   1.172   3.600   4.818
 2388SOL    HW1 8063   1.092   3.556   4.858
 2388SOL    HW2 8064   1.192   3.684   4.868
 2389SOL     OW 8065   3.605   5.910   3.161
 2389SOL    HW1 8066   3.626   6.006   3.180
 2389SOL    HW2 8067   3.508   5.894   3.176
 2390SOL     OW 8068   5.539   2.456   5.875
 2390SOL    HW1 8069   5.514   2.370   5.832
 2390SOL    HW2 8070   5.548   2.527   5.804
 2391SOL     OW 8071   3.053   3.919   6.680
 2391SOL    HW1 8072   3.046   3.819   6.684
 2391SOL    HW2 8073   3.148   3.946   6.672
 2392SOL     OW 8074   4.286   5.315   5.800
 2392SOL    HW1 8075   4.363   5.377   5.786
 2392SOL    HW2 8076   4.298   5.266   5.887
 2393SOL     OW 8077   3.772   4.869   0.422
 2393SOL    HW1 8078   3.705   4.799   0.397
 2393SOL    HW2 8079   3.726   4.943   0.471
 2394SOL     OW 8080   6.585   2.406   3.393
 2394SOL    HW1 8081   6.509   2.344   3.411
 2394SOL    HW2 8082   6.661   2.356   3.351
 2395SOL     OW 8083   1.427   2.437   3.789
 2395SOL    HW1 8084   1.347   2.425   3.730
 2395SOL    HW2 8085   1.484   2.355   3.785
 2396SOL     OW 8086   6.935   0.259   6.201
 2396SOL    HW1 8087   6.906   0.351   6.229
 2396SOL    HW2 8088   6.884   0.191   6.253
 2397SOL     OW 8089   2.099   4.710   6.211
 2397SOL    HW1 8090   2.136   4.776   6.146
 2397SOL    HW2 8091   2.174   4.666   6.261
 2398SOL     OW 8092   3.962   5.861   4.902
 2398SOL    HW1 8093   4.032   5.930   4.880
 2398SOL    HW2 8094   3.971   5.833   4.998
 2399SOL     OW 8095   2.850   1.582   2.303
 2399SOL    HW1 8096   2.943   1.586   2.340
 2399SOL    HW2 8097   2.798   1.661   2.334
 2400SOL     OW 8098   0.872   2.846   0.369
 2400SOL    HW1 8099   0.919   2.923   0.414
 2400SOL    HW2 8100   0.775   2.850   0.391
 2401SOL     OW 8101   1.193   6.155   0.260
 2401SOL    HW1 8102   1.275   6.104   0.233
 2401SOL    HW2 8103   1.132   6.095   0.312
 2402SOL     OW 8104   0.823   3.504   2.023
 2402SOL    HW1 8105   0.815   3.436   1.951
 2402SOL    HW2 8106   0.735   3.518   2.067
 2403SOL     OW 8107   2.979   4.173   5.260
 2403SOL    HW1 8108   2.964   4.269   5.281
 2403SOL    HW2 8109   2.958   4.117   5.340
 2404SOL     OW 8110   6.205   1.413   2.025
 2404SOL    HW1 8111   6.168   1.477   1.959
 2404SOL    HW2 8112   6.295   1.444   2.056
 2405SOL     OW 8113   1.445   3.205   1.008
 2405SOL    HW1 8114   1.413   3.157   1.090
 2405SOL    HW2 8115   1.397   3.168   0.928
 2406SOL     OW 8116   4.045   5.674   4.706
 2406SOL    HW1 8117   4.020   5.731   4.785
 2406SOL    HW2 8118   4.135   5.633   4.723
 2407SOL     OW 8119   1.877   1.464   3.791
 2407SOL    HW1 8120   1.890   1.436   3.696
 2407SOL    HW2 8121   1.911   1.558   3.803
 2408SOL     OW 8122   3.638   0.201   5.976
 2408SOL    HW1 8123   3.616   0.211   6.074
 2408SOL    HW2 8124   3.713   0.135   5.966
 2409SOL     OW 8125   0.334   3.087   6.879
 2409SOL    HW1 8126   0.430   3.081   6.848
 2409SOL    HW2 8127   0.315   3.180   6.909
 2410SOL     OW 8128   6.987   3.545   4.483
 2410SOL    HW1 8129   0.029   3.588   4.543
 2410SOL    HW2 8130   6.931   3.482   4.536
 2411SOL     OW 8131   3.192   1.338   0.578
 2411SOL    HW1 8132   3.268   1.385   0.533
 2411SOL    HW2 8133   3.213   1.240   0.585
 2412SOL     OW 8134   3.220   1.749   6.852
 2412SOL    HW1 8135   3.184   1.744   6.945
 2412SOL    HW2 8136   3.251   1.658   6.823
 2413SOL     OW 8137   0.252   4.187   6.951
 2413SOL    HW1 8138   0.178   4.231   7.002
 2413SOL    HW2 8139   0.219   4.162   6.860
 2414SOL     OW 8140   0.145   1.694   4.991
 2414SOL    HW1 8141   0.197   1.680   5.075
 2414SOL    HW2 8142   0.208   1.721   4.917
 2415SOL     OW 8143   3.404   4.163   6.501
 2415SOL    HW1 8144   3.412   4.200   6.594
 2415SOL    HW2 8145   3.400   4.238   6.435
 2416SOL     OW 8146   0.066   3.679   3.728
 2416SOL    HW1 8147   0.051   3.764   3.678
 2416SOL    HW2 8148   0.102   3.609   3.666
 2417SOL     OW 8149   3.334   2.463   1.674
 2417SOL    HW1 8150   3.276   2.534   1.635
 2417SOL    HW2 8151   3.428   2.476   1.642
 2418SOL     OW 8152   5.815   3.840   6.137
 2418SOL    HW1 8153   5.907   3.875   6.159
 2418SOL    HW2 8154   5.801   3.753   6.184
 2419SOL     OW 8155   3.866   0.867   3.041
 2419SOL    HW1 8156   3.845   0.806   2.965
 2419SOL    HW2 8157   3.928   0.940   3.009
 2420SOL     OW 8158   1.207   3.839   2.174
 2420SOL    HW1 8159   1.146   3.761   2.167
 2420SOL    HW2 8160   1.291   3.812   2.221
 2421SOL     OW 8161   2.310   6.568   2.879
 2421SOL    HW1 8162   2.214   6.549   2.861
 2421SOL    HW2 8163   2.350   6.492   2.931
 2422SOL     OW 8164   4.174   6.325   0.250
 2422SOL    HW1 8165   4.139   6.365   0.335
 2422SOL    HW2 8166   4.102   6.270   0.208
 2423SOL     OW 8167   3.258   4.918   4.543
 2423SOL    HW1 8168   3.197   4.996   4.558
 2423SOL    HW2 8169   3.228   4.842   4.600
 2424SOL     OW 8170   5.245   6.798   6.149
 2424SOL    HW1 8171   5.169   6.734   6.134
 2424SOL    HW2 8172   5.330   6.756   6.118
 2425SOL     OW 8173   4.008   5.286   5.163
 2425SOL    HW1 8174   4.002   5.235   5.077
 2425SOL    HW2 8175   4.049   5.376   5.146
 2426SOL     OW 8176   3.087   2.377   5.419
 2426SOL    HW1 8177   2.993   2.401   5.395
 2426SOL    HW2 8178   3.148   2.397   5.341
 2427SOL     OW 8179   4.068   1.839   0.832
 2427SOL    HW1 8180   4.081   1.900   0.753
 2427SOL    HW2 8181   4.078   1.892   0.916
 2428SOL     OW 8182   1.774   1.820   2.893
 2428SOL    HW1 8183   1.733   1.810   2.984
 2428SOL    HW2 8184   1.711   1.868   2.833
 2429SOL     OW 8185   5.735   6.135   1.078
 2429SOL    HW1 8186   5.816   6.193   1.077
 2429SOL    HW2 8187   5.703   6.121   0.984
 2430SOL     OW 8188   6.807   0.137   6.979
 2430SOL    HW1 8189   6.883   0.107   0.011
 2430SOL    HW2 8190   6.839   0.206   6.915
 2431SOL     OW 8191   2.071   3.277   1.901
 2431SOL    HW1 8192   2.104   3.282   1.806
 2431SOL    HW2 8193   2.130   3.333   1.959
 2432SOL     OW 8194   2.548   6.032   2.039
 2432SOL    HW1 8195   2.547   6.093   2.118
 2432SOL    HW2 8196   2.643   6.017   2.010
 2433SOL     OW 8197   6.726   4.324   4.297
 2433SOL    HW1 8198   6.777   4.288   4.219
 2433SOL    HW2 8199   6.649   4.378   4.264
 2434SOL     OW 8200   4.606   1.574   2.843
 2434SOL    HW1 8201   4.615   1.505   2.914
 2434SOL    HW2 8202   4.526   1.631   2.863
 2435SOL     OW 8203   6.166   0.027   6.761
 2435SOL    HW1 8204   6.142   0.022   6.664
 2435SOL    HW2 8205   6.187   6.961   6.795
 2436SOL     OW 8206   6.794   2.833   0.957
 2436SOL    HW1 8207   6.782   2.751   0.900
 2436SOL    HW2 8208   6.825   2.909   0.900
 2437SOL     OW 8209   0.433   4.376   1.270
 2437SOL    HW1 8210   0.521   4.406   1.233
 2437SOL    HW2 8211   0.445   4.348   1.365
 2438SOL     OW 8212   3.940   1.253   4.912
 2438SOL    HW1 8213   3.966   1.192   4.987
 2438SOL    HW2 8214   4.020   1.307   4.883
 2439SOL     OW 8215   7.015   5.871   0.513
 2439SOL    HW1 8216   0.083   5.851   0.540
 2439SOL    HW2 8217   6.960   5.787   0.516
 2440SOL     OW 8218   5.966   1.545   5.284
 2440SOL    HW1 8219   5.932   1.558   5.190
 2440SOL    HW2 8220   5.889   1.523   5.344
 2441SOL     OW 8221   6.043   0.916   0.344
 2441SOL    HW1 8222   5.984   0.963   0.410
 2441SOL    HW2 8223   6.023   0.949   0.252
 2442SOL     OW 8224   5.044   2.991   2.335
 2442SOL    HW1 8225   5.117   3.033   2.389
 2442SOL    HW2 8226   4.958   2.995   2.386
 2443SOL     OW 8227   0.141   3.428   1.368
 2443SOL    HW1 8228   0.180   3.432   1.460
 2443SOL    HW2 8229   0.174   3.345   1.322
 2444SOL     OW 8230   3.475   4.891   3.175
 2444SOL    HW1 8231   3.455   4.982   3.213
 2444SOL    HW2 8232   3.438   4.821   3.235
 2445SOL     OW 8233   0.867   2.235   1.055
 2445SOL    HW1 8234   0.795   2.267   1.117
 2445SOL    HW2 8235   0.940   2.191   1.107
 2446SOL     OW 8236   6.877   5.535   1.882
 2446SOL    HW1 8237   6.794   5.528   1.937
 2446SOL    HW2 8238   6.861   5.600   1.807
 2447SOL     OW 8239   1.673   6.620   0.756
 2447SOL    HW1 8240   1.650   6.704   0.805
 2447SOL    HW2 8241   1.632   6.541   0.802
 2448SOL     OW 8242   5.415   1.303   3.886
 2448SOL    HW1 8243   5.356   1.375   3.922
 2448SOL    HW2 8244   5.485   1.344   3.828
 2449SOL     OW 8245   2.057   4.196   1.259
 2449SOL    HW1 8246   2.112   4.252   1.198
 2449SOL    HW2 8247   2.116   4.132   1.309
 2450SOL     OW 8248   0.856   6.778   5.120
 2450SOL    HW1 8249   0.818   6.869   5.135
 2450SOL    HW2 8250   0.951   6.775   5.150
 2451SOL     OW 8251   1.935   0.093   6.478
 2451SOL    HW1 8252   1.872   0.075   6.402
 2451SOL    HW2 8253   2.015   0.034   6.470
 2452SOL     OW 8254   2.435   1.814   4.673
 2452SOL    HW1 8255   2.493   1.890   4.701
 2452SOL    HW2 8256   2.422   1.817   4.574
 2453SOL     OW 8257   1.473   1.450   6.100
 2453SOL    HW1 8258   1.508   1.398   6.178
 2453SOL    HW2 8259   1.373   1.447   6.101
 2454SOL     OW 8260   3.213   6.088   0.481
 2454SOL    HW1 8261   3.118   6.118   0.480
 2454SOL    HW2 8262   3.232   6.032   0.400
 2455SOL     OW 8263   4.167   2.053   0.618
 2455SOL    HW1 8264   4.162   2.152   0.625
 2455SOL    HW2 8265   4.257   2.022   0.651
 2456SOL     OW 8266   0.588   3.804   6.233
 2456SOL    HW1 8267   0.570   3.775   6.326
 2456SOL    HW2 8268   0.673   3.762   6.201
 2457SOL     OW 8269   4.860   1.633   5.782
 2457SOL    HW1 8270   4.889   1.661   5.873
 2457SOL    HW2 8271   4.760   1.627   5.780
 2458SOL     OW 8272   1.175   0.507   2.372
 2458SOL    HW1 8273   1.160   0.410   2.354
 2458SOL    HW2 8274   1.128   0.563   2.303
 2459SOL     OW 8275   2.253   6.777   1.564
 2459SOL    HW1 8276   2.165   6.797   1.521
 2459SOL    HW2 8277   2.308   6.861   1.568
 2460SOL     OW 8278   0.343   0.447   3.858
 2460SOL    HW1 8279   0.259   0.415   3.814
 2460SOL    HW2 8280   0.397   0.368   3.887
 2461SOL     OW 8281   3.558   1.515   3.497
 2461SOL    HW1 8282   3.597   1.443   3.440
 2461SOL    HW2 8283   3.569   1.603   3.452
 2462SOL     OW 8284   0.472   6.166   1.089
 2462SOL    HW1 8285   0.389   6.220   1.077
 2462SOL    HW2 8286   0.509   6.141   0.999
 2463SOL     OW 8287   6.699   6.815   0.888
 2463SOL    HW1 8288   6.695   6.745   0.959
 2463SOL    HW2 8289   6.761   6.888   0.916
 2464SOL     OW 8290   0.545   3.093   4.454
 2464SOL    HW1 8291   0.563   3.000   4.422
 2464SOL    HW2 8292   0.630   3.145   4.456
 2465SOL     OW 8293   6.170   1.021   0.063
 2465SOL    HW1 8294   6.102   1.094   0.071
 2465SOL    HW2 8295   6.254   1.048   0.109
 2466SOL     OW 8296   0.595   2.787   1.489
 2466SOL    HW1 8297   0.689   2.790   1.457
 2466SOL    HW2 8298   0.586   2.842   1.572
 2467SOL     OW 8299   4.679   2.669   4.909
 2467SOL    HW1 8300   4.705   2.691   5.004
 2467SOL    HW2 8301   4.696   2.749   4.851
 2468SOL     OW 8302   3.843   0.167   5.156
 2468SOL    HW1 8303   3.812   0.101   5.088
 2468SOL    HW2 8304   3.896   0.120   5.227
 2469SOL     OW 8305   3.084   2.165   6.201
 2469SOL    HW1 8306   3.140   2.170   6.284
 2469SOL    HW2 8307   2.999   2.117   6.221
 2470SOL     OW 8308   2.012   6.211   6.538
 2470SOL    HW1 8309   1.921   6.231   6.501
 2470SOL    HW2 8310   2.073   6.185   6.463
 2471SOL     OW 8311   2.898   5.571   2.559
 2471SOL    HW1 8312   2.819   5.578   2.499
 2471SOL    HW2 8313   2.891   5.639   2.632
 2472SOL     OW 8314   4.422   0.999   2.465
 2472SOL    HW1 8315   4.407   0.963   2.373
 2472SOL    HW2 8316   4.340   1.048   2.495
 2473SOL     OW 8317   0.375   4.362   3.974
 2473SOL    HW1 8318   0.310   4.311   4.031
 2473SOL    HW2 8319   0.328   4.394   3.891
 2474SOL     OW 8320   1.433   6.445   1.686
 2474SOL    HW1 8321   1.517   6.401   1.656
 2474SOL    HW2 8322   1.358   6.419   1.625
 2475SOL     OW 8323   5.081   2.089   0.423
 2475SOL    HW1 8324   4.995   2.062   0.380
 2475SOL    HW2 8325   5.151   2.019   0.406
 2476SOL     OW 8326   4.662   6.857   0.909
 2476SOL    HW1 8327   4.752   6.815   0.898
 2476SOL    HW2 8328   4.595   6.786   0.931
 2477SOL     OW 8329   3.987   0.035   3.640
 2477SOL    HW1 8330   3.969   6.963   3.629
 2477SOL    HW2 8331   3.919   0.075   3.701
 2478SOL     OW 8332   3.237   0.240   4.415
 2478SOL    HW1 8333   3.149   0.251   4.463
 2478SOL    HW2 8334   3.239   0.151   4.370
 2479SOL     OW 8335   5.143   3.245   0.948
 2479SOL    HW1 8336   5.143   3.230   0.849
 2479SOL    HW2 8337   5.188   3.331   0.969
 2480SOL     OW 8338   3.357   2.211   1.561
 2480SOL    HW1 8339   3.416   2.186   1.639
 2480SOL    HW2 8340   3.312   2.298   1.580
 2481SOL     OW 8341   3.388   0.256   1.656
 2481SOL    HW1 8342   3.441   0.341   1.652
 2481SOL    HW2 8343   3.308   0.265   1.597
 2482SOL     OW 8344   6.524   3.088   0.330
 2482SOL    HW1 8345   6.583   3.141   0.390
 2482SOL    HW2 8346   6.441   3.139   0.310
 2483SOL     OW 8347   2.676   2.268   0.969
 2483SOL    HW1 8348   2.685   2.252   1.067
 2483SOL    HW2 8349   2.599   2.215   0.934
 2484SOL     OW 8350   4.214   0.509   6.717
 2484SOL    HW1 8351   4.224   0.471   6.809
 2484SOL    HW2 8352   4.245   0.604   6.717
 2485SOL     OW 8353   0.342   1.960   6.026
 2485SOL    HW1 8354   0.285   1.973   6.108
 2485SOL    HW2 8355   0.355   2.048   5.981
 2486SOL     OW 8356   0.317   5.423   3.521
 2486SOL    HW1 8357   0.408   5.441   3.483
 2486SOL    HW2 8358   0.254   5.400   3.447
 2487SOL     OW 8359   4.309   5.995   0.124
 2487SOL    HW1 8360   4.279   6.063   0.056
 2487SOL    HW2 8361   4.390   5.948   0.089
 2488SOL     OW 8362   6.860   3.947   0.655
 2488SOL    HW1 8363   6.940   3.887   0.642
 2488SOL    HW2 8364   6.787   3.896   0.700
 2489SOL     OW 8365   5.994   5.074   4.338
 2489SOL    HW1 8366   5.931   5.133   4.388
 2489SOL    HW2 8367   6.037   5.126   4.264
 2490SOL     OW 8368   2.087   5.705   2.819
 2490SOL    HW1 8369   2.157   5.735   2.754
 2490SOL    HW2 8370   2.108   5.738   2.910
 2491SOL     OW 8371   3.697   4.681   1.361
 2491SOL    HW1 8372   3.786   4.722   1.343
 2491SOL    HW2 8373   3.648   4.669   1.275
 2492SOL     OW 8374   6.778   5.525   1.082
 2492SOL    HW1 8375   6.805   5.483   0.995
 2492SOL    HW2 8376   6.806   5.466   1.158
 2493SOL     OW 8377   5.303   6.858   0.725
 2493SOL    HW1 8378   5.331   6.841   0.820
 2493SOL    HW2 8379   5.240   6.786   0.696
 2494SOL     OW 8380   6.745   3.859   0.914
 2494SOL    HW1 8381   6.711   3.765   0.914
 2494SOL    HW2 8382   6.843   3.860   0.934
 2495SOL     OW 8383   0.449   3.723   1.685
 2495SOL    HW1 8384   0.365   3.757   1.728
 2495SOL    HW2 8385   0.475   3.636   1.727
 2496SOL     OW 8386   5.747   4.504   6.735
 2496SOL    HW1 8387   5.749   4.557   6.820
 2496SOL    HW2 8388   5.659   4.458   6.727
 2497SOL     OW 8389   7.025   0.159   2.315
 2497SOL    HW1 8390   6.979   0.247   2.303
 2497SOL    HW2 8391   7.024   0.134   2.412
 2498SOL     OW 8392   1.842   3.262   4.870
 2498SOL    HW1 8393   1.759   3.263   4.814
 2498SOL    HW2 8394   1.839   3.340   4.934
 2499SOL     OW 8395   6.815   3.628   2.651
 2499SOL    HW1 8396   6.750   3.556   2.675
 2499SOL    HW2 8397   6.842   3.618   2.555
 2500SOL     OW 8398   3.970   3.106   1.790
 2500SOL    HW1 8399   4.037   3.123   1.863
 2500SOL    HW2 8400   4.008   3.137   1.703
 2501SOL     OW 8401   6.287   5.699   6.219
 2501SOL    HW1 8402   6.275   5.795   6.246
 2501SOL    HW2 8403   6.220   5.642   6.267
 2502SOL     OW 8404   2.130   6.549   4.299
 2502SOL    HW1 8405   2.055   6.602   4.261
 2502SOL    HW2 8406   2.213   6.565   4.245
 2503SOL     OW 8407   2.857   0.286   5.713
 2503SOL    HW1 8408   2.924   0.351   5.748
 2503SOL    HW2 8409   2.783   0.275   5.779
 2504SOL     OW 8410   3.582   0.210   3.463
 2504SOL    HW1 8411   3.609   0.142   3.532
 2504SOL    HW2 8412   3.484   0.229   3.472
 2505SOL     OW 8413   6.604   4.480   3.931
 2505SOL    HW1 8414   6.519   4.484   3.879
 2505SOL    HW2 8415   6.664   4.555   3.901
 2506SOL     OW 8416   5.923   5.106   6.622
 2506SOL    HW1 8417   5.962   5.040   6.686
 2506SOL    HW2 8418   5.854   5.162   6.668
 2507SOL     OW 8419   0.602   3.255   2.625
 2507SOL    HW1 8420   0.639   3.333   2.677
 2507SOL    HW2 8421   0.505   3.271   2.607
 2508SOL     OW 8422   5.872   1.114   4.025
 2508SOL    HW1 8423   5.966   1.114   4.059
 2508SOL    HW2 8424   5.828   1.201   4.048
 2509SOL     OW 8425   1.051   3.186   5.546
 2509SOL    HW1 8426   1.001   3.224   5.624
 2509SOL    HW2 8427   1.143   3.226   5.543
 2510SOL     OW 8428   2.977   3.741   2.295
 2510SOL    HW1 8429   2.965   3.790   2.381
 2510SOL    HW2 8430   2.913   3.664   2.292
 2511SOL     OW 8431   1.561   0.392   3.924
 2511SOL    HW1 8432   1.609   0.474   3.895
 2511SOL    HW2 8433   1.505   0.412   4.004
 2512SOL     OW 8434   4.087   4.753   3.755
 2512SOL    HW1 8435   4.159   4.822   3.762
 2512SOL    HW2 8436   4.045   4.758   3.664
 2513SOL     OW 8437   2.003   6.019   6.159
 2513SOL    HW1 8438   1.969   6.074   6.083
 2513SOL    HW2 8439   1.982   5.923   6.144
 2514SOL     OW 8440   1.353   1.940   3.311
 2514SOL    HW1 8441   1.354   2.040   3.318
 2514SOL    HW2 8442   1.413   1.911   3.236
 2515SOL     OW 8443   0.630   2.079   1.188
 2515SOL    HW1 8444   0.599   2.024   1.266
 2515SOL    HW2 8445   0.627   2.023   1.105
 2516SOL     OW 8446   5.820   2.301   4.829
 2516SOL    HW1 8447   5.912   2.266   4.810
 2516SOL    HW2 8448   5.800   2.375   4.765
 2517SOL     OW 8449   0.959   1.228   3.607
 2517SOL    HW1 8450   0.878   1.268   3.566
 2517SOL    HW2 8451   1.033   1.226   3.540
 2518SOL     OW 8452   2.386   4.396   0.888
 2518SOL    HW1 8453   2.304   4.380   0.944
 2518SOL    HW2 8454   2.409   4.314   0.837
 2519SOL     OW 8455   1.189   1.548   0.931
 2519SOL    HW1 8456   1.101   1.504   0.914
 2519SOL    HW2 8457   1.260   1.503   0.878
 2520SOL     OW 8458   2.380   2.218   1.217
 2520SOL    HW1 8459   2.478   2.199   1.227
 2520SOL    HW2 8460   2.329   2.170   1.288
 2521SOL     OW 8461   5.664   0.807   4.800
 2521SOL    HW1 8462   5.684   0.831   4.705
 2521SOL    HW2 8463   5.570   0.835   4.822
 2522SOL     OW 8464   1.069   1.738   6.736
 2522SOL    HW1 8465   1.049   1.701   6.646
 2522SOL    HW2 8466   0.992   1.794   6.767
 2523SOL     OW 8467   1.307   4.975   6.689
 2523SOL    HW1 8468   1.297   4.954   6.591
 2523SOL    HW2 8469   1.403   4.966   6.715
 2524SOL     OW 8470   1.116   0.755   4.608
 2524SOL    HW1 8471   1.092   0.685   4.542
 2524SOL    HW2 8472   1.184   0.718   4.672
 2525SOL     OW 8473   6.342   2.633   5.488
 2525SOL    HW1 8474   6.249   2.657   5.515
 2525SOL    HW2 8475   6.401   2.635   5.569
 2526SOL     OW 8476   1.819   6.955   0.670
 2526SOL    HW1 8477   1.769   6.907   0.599
 2526SOL    HW2 8478   1.795   0.026   0.669
 2527SOL     OW 8479   4.159   5.131   6.237
 2527SOL    HW1 8480   4.255   5.142   6.265
 2527SOL    HW2 8481   4.139   5.034   6.226
 2528SOL     OW 8482   4.854   5.748   5.954
 2528SOL    HW1 8483   4.934   5.772   5.900
 2528SOL    HW2 8484   4.871   5.767   6.050
 2529SOL     OW 8485   0.628   6.431   5.648
 2529SOL    HW1 8486   0.701   6.368   5.621
 2529SOL    HW2 8487   0.668   6.509   5.696
 2530SOL     OW 8488   2.640   6.298   6.569
 2530SOL    HW1 8489   2.592   6.380   6.600
 2530SOL    HW2 8490   2.574   6.227   6.545
 2531SOL     OW 8491   6.808   5.617   6.512
 2531SOL    HW1 8492   6.815   5.552   6.587
 2531SOL    HW2 8493   6.733   5.590   6.451
 2532SOL     OW 8494   5.552   6.308   1.639
 2532SOL    HW1 8495   5.571   6.406   1.643
 2532SOL    HW2 8496   5.541   6.280   1.543
 2533SOL     OW 8497   4.652   0.982   3.900
 2533SOL    HW1 8498   4.588   1.058   3.887
 2533SOL    HW2 8499   4.694   0.958   3.813
 2534SOL     OW 8500   4.206   1.221   2.558
 2534SOL    HW1 8501   4.125   1.202   2.614
 2534SOL    HW2 8502   4.236   1.315   2.574
 2535SOL     OW 8503   3.767   2.783   6.292
 2535SOL    HW1 8504   3.763   2.763   6.195
 2535SOL    HW2 8505   3.821   2.713   6.339
 2536SOL     OW 8506   1.330   0.625   1.541
 2536SOL    HW1 8507   1.379   0.589   1.620
 2536SOL    HW2 8508   1.328   0.556   1.468
 2537SOL     OW 8509   3.802   0.493   5.984
 2537SOL    HW1 8510   3.882   0.435   5.999
 2537SOL    HW2 8511   3.772   0.485   5.889
 2538SOL     OW 8512   6.069   3.498   3.620
 2538SOL    HW1 8513   5.977   3.475   3.588
 2538SOL    HW2 8514   6.136   3.450   3.563
 2539SOL     OW 8515   5.392   2.282   5.448
 2539SOL    HW1 8516   5.295   2.299   5.436
 2539SOL    HW2 8517   5.417   2.198   5.400
 2540SOL     OW 8518   2.785   1.753   1.729
 2540SOL    HW1 8519   2.819   1.776   1.821
 2540SOL    HW2 8520   2.759   1.837   1.682
 2541SOL     OW 8521   3.388   6.501   4.062
 2541SOL    HW1 8522   3.441   6.431   4.109
 2541SOL    HW2 8523   3.379   6.478   3.965
 2542SOL     OW 8524   1.996   5.504   5.967
 2542SOL    HW1 8525   2.040   5.415   5.980
 2542SOL    HW2 8526   1.916   5.493   5.908
 2543SOL     OW 8527   0.893   0.716   4.278
 2543SOL    HW1 8528   0.950   0.795   4.299
 2543SOL    HW2 8529   0.805   0.747   4.241
 2544SOL     OW 8530   0.475   5.574   6.787
 2544SOL    HW1 8531   0.451   5.670   6.775
 2544SOL    HW2 8532   0.461   5.548   6.883
 2545SOL     OW 8533   2.434   6.084   3.287
 2545SOL    HW1 8534   2.469   5.997   3.320
 2545SOL    HW2 8535   2.354   6.068   3.230
 2546SOL     OW 8536   0.090   1.246   1.585
 2546SOL    HW1 8537   0.176   1.205   1.614
 2546SOL    HW2 8538   0.098   1.281   1.492
 2547SOL     OW 8539   0.690   3.678   4.986
 2547SOL    HW1 8540   0.704   3.606   5.054
 2547SOL    HW2 8541   0.778   3.722   4.965
 2548SOL     OW 8542   1.162   0.615   5.411
 2548SOL    HW1 8543   1.201   0.678   5.478
 2548SOL    HW2 8544   1.232   0.551   5.381
 2549SOL     OW 8545   6.147   3.187   2.248
 2549SOL    HW1 8546   6.069   3.161   2.191
 2549SOL    HW2 8547   6.115   3.237   2.328
 2550SOL     OW 8548   6.004   5.491   0.050
 2550SOL    HW1 8549   5.969   5.525   0.137
 2550SOL    HW2 8550   5.929   5.451   7.022
 2551SOL     OW 8551   1.492   4.616   0.587
 2551SOL    HW1 8552   1.542   4.535   0.619
 2551SOL    HW2 8553   1.502   4.624   0.487
 2552SOL     OW 8554   1.793   5.646   3.736
 2552SOL    HW1 8555   1.808   5.580   3.809
 2552SOL    HW2 8556   1.796   5.599   3.647
 2553SOL     OW 8557   4.008   3.674   6.700
 2553SOL    HW1 8558   4.012   3.583   6.741
 2553SOL    HW2 8559   4.014   3.743   6.772
 2554SOL     OW 8560   1.255   1.682   0.582
 2554SOL    HW1 8561   1.171   1.723   0.618
 2554SOL    HW2 8562   1.239   1.653   0.487
 2555SOL     OW 8563   6.175   0.281   6.484
 2555SOL    HW1 8564   6.252   0.291   6.548
 2555SOL    HW2 8565   6.145   0.186   6.485
 2556SOL     OW 8566   3.992   5.132   1.117
 2556SOL    HW1 8567   3.908   5.079   1.112
 2556SOL    HW2 8568   4.004   5.183   1.031
 2557SOL     OW 8569   1.684   4.811   6.630
 2557SOL    HW1 8570   1.632   4.728   6.654
 2557SOL    HW2 8571   1.627   4.891   6.647
 2558SOL     OW 8572   4.044   0.569   5.649
 2558SOL    HW1 8573   3.991   0.552   5.566
 2558SOL    HW2 8574   4.069   0.482   5.692
 2559SOL     OW 8575   0.219   5.027   5.048
 2559SOL    HW1 8576   0.250   5.091   4.978
 2559SOL    HW2 8577   0.163   4.955   5.005
 2560SOL     OW 8578   5.935   1.642   0.183
 2560SOL    HW1 8579   5.974   1.559   0.222
 2560SOL    HW2 8580   5.901   1.701   0.256
 2561SOL     OW 8581   2.970   5.930   4.480
 2561SOL    HW1 8582   3.055   5.883   4.457
 2561SOL    HW2 8583   2.900   5.863   4.504
 2562SOL     OW 8584   2.499   3.755   6.712
 2562SOL    HW1 8585   2.456   3.750   6.803
 2562SOL    HW2 8586   2.454   3.826   6.658
 2563SOL     OW 8587   2.296   0.689   1.223
 2563SOL    HW1 8588   2.301   0.723   1.316
 2563SOL    HW2 8589   2.236   0.609   1.220
 2564SOL     OW 8590   1.374   6.396   2.160
 2564SOL    HW1 8591   1.304   6.464   2.137
 2564SOL    HW2 8592   1.386   6.393   2.259
 2565SOL     OW 8593   0.614   0.960   1.515
 2565SOL    HW1 8594   0.563   0.876   1.533
 2565SOL    HW2 8595   0.577   1.005   1.434
 2566SOL     OW 8596   2.626   0.192   5.866
 2566SOL    HW1 8597   2.588   0.277   5.902
 2566SOL    HW2 8598   2.583   0.114   5.913
 2567SOL     OW 8599   1.584   0.842   0.312
 2567SOL    HW1 8600   1.636   0.788   0.246
 2567SOL    HW2 8601   1.543   0.782   0.380
 2568SOL     OW 8602   5.198   3.763   0.130
 2568SOL    HW1 8603   5.233   3.855   0.149
 2568SOL    HW2 8604   5.272   3.707   0.092
 2569SOL     OW 8605   2.992   0.785   2.731
 2569SOL    HW1 8606   3.091   0.801   2.736
 2569SOL    HW2 8607   2.953   0.839   2.657
 2570SOL     OW 8608   5.694   2.583   6.070
 2570SOL    HW1 8609   5.643   2.544   5.993
 2570SOL    HW2 8610   5.737   2.509   6.121
 2571SOL     OW 8611   0.680   4.017   4.540
 2571SOL    HW1 8612   0.765   3.967   4.558
 2571SOL    HW2 8613   0.625   4.022   4.624
 2572SOL     OW 8614   1.439   4.818   3.768
 2572SOL    HW1 8615   1.537   4.798   3.770
 2572SOL    HW2 8616   1.424   4.914   3.792
 2573SOL     OW 8617   1.196   0.231   1.331
 2573SOL    HW1 8618   1.117   0.243   1.390
 2573SOL    HW2 8619   1.262   0.305   1.348
 2574SOL     OW 8620   6.032   3.477   0.810
 2574SOL    HW1 8621   6.081   3.391   0.795
 2574SOL    HW2 8622   5.985   3.473   0.898
 2575SOL     OW 8623   0.527   6.494   6.046
 2575SOL    HW1 8624   0.511   6.459   5.954
 2575SOL    HW2 8625   0.625   6.500   6.064
 2576SOL     OW 8626   4.264   5.958   4.649
 2576SOL    HW1 8627   4.269   5.866   4.688
 2576SOL    HW2 8628   4.216   6.018   4.713
 2577SOL     OW 8629   1.968   4.030   2.819
 2577SOL    HW1 8630   1.997   4.123   2.843
 2577SOL    HW2 8631   1.947   4.026   2.721
 2578SOL     OW 8632   4.129   1.868   2.829
 2578SOL    HW1 8633   4.071   1.919   2.893
 2578SOL    HW2 8634   4.072   1.831   2.755
 2579SOL     OW 8635   0.521   6.595   3.235
 2579SOL    HW1 8636   0.552   6.624   3.145
 2579SOL    HW2 8637   0.585   6.627   3.305
 2580SOL     OW 8638   2.320   2.528   5.854
 2580SOL    HW1 8639   2.290   2.482   5.770
 2580SOL    HW2 8640   2.333   2.625   5.837
 2581SOL     OW 8641   3.407   0.795   5.301
 2581SOL    HW1 8642   3.386   0.783   5.204
 2581SOL    HW2 8643   3.503   0.772   5.317
 2582SOL     OW 8644   6.893   3.485   1.446
 2582SOL    HW1 8645   6.982   3.468   1.403
 2582SOL    HW2 8646   6.907   3.537   1.530
 2583SOL     OW 8647   6.008   0.575   1.064
 2583SOL    HW1 8648   5.966   0.632   0.994
 2583SOL    HW2 8649   6.018   0.481   1.030
 2584SOL     OW 8650   3.646   4.389   6.175
 2584SOL    HW1 8651   3.742   4.409   6.194
 2584SOL    HW2 8652   3.617   4.438   6.093
 2585SOL     OW 8653   3.258   5.042   6.787
 2585SOL    HW1 8654   3.349   5.011   6.759
 2585SOL    HW2 8655   3.189   5.001   6.727
 2586SOL     OW 8656   2.671   0.917   3.613
 2586SOL    HW1 8657   2.612   0.836   3.601
 2586SOL    HW2 8658   2.751   0.908   3.553
 2587SOL     OW 8659   6.415   0.756   4.207
 2587SOL    HW1 8660   6.336   0.716   4.255
 2587SOL    HW2 8661   6.426   0.711   4.119
 2588SOL     OW 8662   4.521   0.369   6.727
 2588SOL    HW1 8663   4.445   0.389   6.789
 2588SOL    HW2 8664   4.505   0.414   6.639
 2589SOL     OW 8665   2.422   6.477   0.647
 2589SOL    HW1 8666   2.398   6.432   0.734
 2589SOL    HW2 8667   2.384   6.569   0.645
 2590SOL     OW 8668   3.042   5.779   0.457
 2590SOL    HW1 8669   2.993   5.770   0.543
 2590SOL    HW2 8670   3.037   5.693   0.407
 2591SOL     OW 8671   5.459   5.329   2.895
 2591SOL    HW1 8672   5.502   5.254   2.844
 2591SOL    HW2 8673   5.530   5.385   2.936
 2592SOL     OW 8674   2.763   3.941   0.661
 2592SOL    HW1 8675   2.786   3.982   0.750
 2592SOL    HW2 8676   2.751   3.843   0.672
 2593SOL     OW 8677   3.601   4.653   0.363
 2593SOL    HW1 8678   3.568   4.640   0.270
 2593SOL    HW2 8679   3.639   4.567   0.397
 2594SOL     OW 8680   1.939   2.844   4.035
 2594SOL    HW1 8681   2.010   2.913   4.024
 2594SOL    HW2 8682   1.849   2.884   4.015
 2595SOL     OW 8683   2.204   1.580   3.005
 2595SOL    HW1 8684   2.276   1.645   2.979
 2595SOL    HW2 8685   2.159   1.546   2.922
 2596SOL     OW 8686   0.788   1.694   0.563
 2596SOL    HW1 8687   0.848   1.771   0.586
 2596SOL    HW2 8688   0.740   1.714   0.478
 2597SOL     OW 8689   6.477   6.732   6.894
 2597SOL    HW1 8690   6.530   6.812   6.866
 2597SOL    HW2 8691   6.437   6.748   6.984
 2598SOL     OW 8692   4.889   2.494   2.763
 2598SOL    HW1 8693   4.909   2.506   2.666
 2598SOL    HW2 8694   4.970   2.455   2.808
 2599SOL     OW 8695   2.590   6.077   2.584
 2599SOL    HW1 8696   2.634   6.024   2.511
 2599SOL    HW2 8697   2.495   6.047   2.595
 2600SOL     OW 8698   5.729   4.009   4.474
 2600SOL    HW1 8699   5.683   3.984   4.559
 2600SOL    HW2 8700   5.710   4.104   4.452
 2601SOL     OW 8701   6.391   1.586   4.323
 2601SOL    HW1 8702   6.455   1.551   4.255
 2601SOL    HW2 8703   6.438   1.600   4.410
 2602SOL     OW 8704   0.892   4.457   2.504
 2602SOL    HW1 8705   0.935   4.368   2.495
 2602SOL    HW2 8706   0.898   4.488   2.599
 2603SOL     OW 8707   2.211   6.224   2.950
 2603SOL    HW1 8708   2.263   6.263   2.874
 2603SOL    HW2 8709   2.230   6.275   3.034
 2604SOL     OW 8710   4.772   2.647   3.583
 2604SOL    HW1 8711   4.715   2.636   3.665
 2604SOL    HW2 8712   4.847   2.711   3.604
 2605SOL     OW 8713   1.441   3.694   1.853
 2605SOL    HW1 8714   1.375   3.620   1.870
 2605SOL    HW2 8715   1.414   3.745   1.772
 2606SOL     OW 8716   5.304   3.720   0.892
 2606SOL    HW1 8717   5.290   3.784   0.967
 2606SOL    HW2 8718   5.369   3.759   0.827
 2607SOL     OW 8719   2.569   2.954   1.438
 2607SOL    HW1 8720   2.568   3.027   1.370
 2607SOL    HW2 8721   2.480   2.946   1.481
 2608SOL     OW 8722   2.594   5.302   5.549
 2608SOL    HW1 8723   2.669   5.236   5.553
 2608SOL    HW2 8724   2.523   5.274   5.614
 2609SOL     OW 8725   0.694   2.328   1.246
 2609SOL    HW1 8726   0.679   2.229   1.245
 2609SOL    HW2 8727   0.689   2.362   1.340
 2610SOL     OW 8728   1.505   3.869   4.945
 2610SOL    HW1 8729   1.496   3.966   4.922
 2610SOL    HW2 8730   1.546   3.821   4.867
 2611SOL     OW 8731   5.260   0.218   6.061
 2611SOL    HW1 8732   5.242   0.139   6.003
 2611SOL    HW2 8733   5.265   0.300   6.005
 2612SOL     OW 8734   6.629   6.572   6.556
 2612SOL    HW1 8735   6.653   6.475   6.553
 2612SOL    HW2 8736   6.551   6.586   6.617
 2613SOL     OW 8737   1.154   6.944   7.017
 2613SOL    HW1 8738   1.151   6.858   6.965
 2613SOL    HW2 8739   1.158   6.924   0.089
 2614SOL     OW 8740   5.967   1.974   0.195
 2614SOL    HW1 8741   6.064   1.959   0.173
 2614SOL    HW2 8742   5.914   1.974   0.110
 2615SOL     OW 8743   0.266   3.600   6.968
 2615SOL    HW1 8744   0.236   3.648   0.024
 2615SOL    HW2 8745   0.278   3.503   6.988
 2616SOL     OW 8746   1.457   1.179   4.886
 2616SOL    HW1 8747   1.530   1.111   4.884
 2616SOL    HW2 8748   1.395   1.164   4.810
 2617SOL     OW 8749   5.068   0.026   1.816
 2617SOL    HW1 8750   5.014   0.021   1.900
 2617SOL    HW2 8751   5.012   0.064   1.743
 2618SOL     OW 8752   1.430   0.001   6.384
 2618SOL    HW1 8753   1.511   0.060   6.379
 2618SOL    HW2 8754   1.429   6.980   6.472
 2619SOL     OW 8755   4.917   1.337   2.825
 2619SOL    HW1 8756   4.852   1.375   2.892
 2619SOL    HW2 8757   4.867   1.298   2.748
 2620SOL     OW 8758   5.949   1.853   1.850
 2620SOL    HW1 8759   5.965   1.937   1.903
 2620SOL    HW2 8760   5.898   1.876   1.767
 2621SOL     OW 8761   2.464   6.320   1.598
 2621SOL    HW1 8762   2.378   6.371   1.598
 2621SOL    HW2 8763   2.446   6.225   1.623
 2622SOL     OW 8764   2.814   3.703   6.972
 2622SOL    HW1 8765   2.900   3.692   6.923
 2622SOL    HW2 8766   2.831   3.707   0.044
 2623SOL     OW 8767   6.960   0.242   3.671
 2623SOL    HW1 8768   6.922   0.318   3.724
 2623SOL    HW2 8769   0.014   0.273   3.620
 2624SOL     OW 8770   1.023   1.811   5.434
 2624SOL    HW1 8771   1.110   1.774   5.467
 2624SOL    HW2 8772   1.039   1.869   5.354
 2625SOL     OW 8773   2.594   5.612   5.965
 2625SOL    HW1 8774   2.564   5.706   5.980
 2625SOL    HW2 8775   2.529   5.549   6.007
 2626SOL     OW 8776   6.937   6.936   6.623
 2626SOL    HW1 8777   6.948   0.009   6.631
 2626SOL    HW2 8778   6.839   6.914   6.626
 2627SOL     OW 8779   2.171   0.941   5.767
 2627SOL    HW1 8780   2.114   0.882   5.824
 2627SOL    HW2 8781   2.232   0.995   5.826
 2628SOL     OW 8782   6.984   4.921   1.440
 2628SOL    HW1 8783   6.998   4.987   1.367
 2628SOL    HW2 8784   7.013   4.961   1.527
 2629SOL     OW 8785   3.394   3.614   2.613
 2629SOL    HW1 8786   3.330   3.671   2.560
 2629SOL    HW2 8787   3.451   3.673   2.670
 2630SOL     OW 8788   3.576   0.534   3.892
 2630SOL    HW1 8789   3.621   0.623   3.903
 2630SOL    HW2 8790   3.643   0.461   3.898
 2631SOL     OW 8791   5.532   6.478   6.987
 2631SOL    HW1 8792   5.515   6.461   6.890
 2631SOL    HW2 8793   5.484   6.561   7.016
 2632SOL     OW 8794   5.807   4.510   1.722
 2632SOL    HW1 8795   5.898   4.553   1.726
 2632SOL    HW2 8796   5.737   4.578   1.741
 2633SOL     OW 8797   0.026   3.350   5.840
 2633SOL    HW1 8798   0.104   3.405   5.808
 2633SOL    HW2 8799   7.021   3.290   5.766
 2634SOL     OW 8800   1.082   1.726   5.886
 2634SOL    HW1 8801   0.987   1.756   5.880
 2634SOL    HW2 8802   1.112   1.693   5.797
 2635SOL     OW 8803   4.103   5.242   3.214
 2635SOL    HW1 8804   4.109   5.236   3.114
 2635SOL    HW2 8805   4.174   5.185   3.254
 2636SOL     OW 8806   3.451   6.226   6.258
 2636SOL    HW1 8807   3.475   6.265   6.347
 2636SOL    HW2 8808   3.376   6.160   6.269
 2637SOL     OW 8809   0.525   0.594   2.817
 2637SOL    HW1 8810   0.481   0.670   2.769
 2637SOL    HW2 8811   0.588   0.631   2.886
 2638SOL     OW 8812   0.641   6.812   4.571
 2638SOL    HW1 8813   0.633   6.791   4.669
 2638SOL    HW2 8814   0.595   6.741   4.518
 2639SOL     OW 8815   4.837   4.798   4.540
 2639SOL    HW1 8816   4.891   4.882   4.534
 2639SOL    HW2 8817   4.876   4.729   4.480
 2640SOL     OW 8818   2.564   1.350   3.478
 2640SOL    HW1 8819   2.498   1.423   3.495
 2640SOL    HW2 8820   2.518   1.274   3.432
 2641SOL     OW 8821   4.875   2.447   0.105
 2641SOL    HW1 8822   4.835   2.403   0.185
 2641SOL    HW2 8823   4.936   2.520   0.133
 2642SOL     OW 8824   0.247   0.080   2.444
 2642SOL    HW1 8825   0.209   0.068   2.352
 2642SOL    HW2 8826   0.173   0.104   2.507
 2643SOL     OW 8827   1.408   4.880   4.156
 2643SOL    HW1 8828   1.431   4.962   4.208
 2643SOL    HW2 8829   1.309   4.867   4.155
 2644SOL     OW 8830   5.637   5.710   4.280
 2644SOL    HW1 8831   5.570   5.673   4.216
 2644SOL    HW2 8832   5.725   5.665   4.265
 2645SOL     OW 8833   5.223   5.472   2.919
 2645SOL    HW1 8834   5.315   5.432   2.914
 2645SOL    HW2 8835   5.156   5.405   2.887
 2646SOL     OW 8836   0.844   2.357   6.574
 2646SOL    HW1 8837   0.792   2.278   6.543
 2646SOL    HW2 8838   0.868   2.414   6.495
 2647SOL     OW 8839   4.251   6.709   2.737
 2647SOL    HW1 8840   4.171   6.717   2.678
 2647SOL    HW2 8841   4.242   6.628   2.794
 2648SOL     OW 8842   1.561   0.389   5.916
 2648SOL    HW1 8843   1.628   0.421   5.849
 2648SOL    HW2 8844   1.577   0.433   6.004
 2649SOL     OW 8845   5.598   1.825   3.465
 2649SOL    HW1 8846   5.605   1.748   3.401
 2649SOL    HW2 8847   5.564   1.906   3.417
 2650SOL     OW 8848   1.994   0.264   4.021
 2650SOL    HW1 8849   1.995   0.191   4.090
 2650SOL    HW2 8850   2.030   0.348   4.061
 2651SOL     OW 8851   4.294   2.028   3.796
 2651SOL    HW1 8852   4.340   2.037   3.884
 2651SOL    HW2 8853   4.333   2.095   3.732
 2652SOL     OW 8854   5.055   3.999   5.392
 2652SOL    HW1 8855   5.107   4.084   5.382
 2652SOL    HW2 8856   4.969   4.007   5.341
 2653SOL     OW 8857   2.265   6.469   6.820
 2653SOL    HW1 8858   2.199   6.418   6.876
 2653SOL    HW2 8859   2.234   6.469   6.725
 2654SOL     OW 8860   0.116   1.309   0.800
 2654SOL    HW1 8861   0.078   1.397   0.770
 2654SOL    HW2 8862   0.074   1.282   0.887
 2655SOL     OW 8863   5.654   6.037   2.742
 2655SOL    HW1 8864   5.625   6.043   2.646
 2655SOL    HW2 8865   5.754   6.032   2.746
 2656SOL     OW 8866   4.528   5.908   4.100
 2656SOL    HW1 8867   4.542   5.900   4.001
 2656SOL    HW2 8868   4.486   5.997   4.120
 2657SOL     OW 8869   1.343   3.229   6.753
 2657SOL    HW1 8870   1.372   3.252   6.660
 2657SOL    HW2 8871   1.374   3.300   6.816
 2658SOL     OW 8872   3.396   4.878   0.007
 2658SOL    HW1 8873   3.450   4.954   6.997
 2658SOL    HW2 8874   3.346   4.907   0.089
 2659SOL     OW 8875   0.061   1.827   5.376
 2659SOL    HW1 8876   0.002   1.747   5.389
 2659SOL    HW2 8877   0.147   1.799   5.332
 2660SOL     OW 8878   0.709   1.318   1.166
 2660SOL    HW1 8879   0.782   1.343   1.230
 2660SOL    HW2 8880   0.748   1.272   1.086
 2661SOL     OW 8881   1.515   0.827   1.527
 2661SOL    HW1 8882   1.476   0.735   1.531
 2661SOL    HW2 8883   1.614   0.820   1.533
 2662SOL     OW 8884   2.661   1.544   1.842
 2662SOL    HW1 8885   2.695   1.629   1.803
 2662SOL    HW2 8886   2.680   1.542   1.940
 2663SOL     OW 8887   3.828   0.486   0.554
 2663SOL    HW1 8888   3.795   0.545   0.628
 2663SOL    HW2 8889   3.751   0.457   0.497
 2664SOL     OW 8890   5.129   3.187   5.559
 2664SOL    HW1 8891   5.208   3.227   5.514
 2664SOL    HW2 8892   5.070   3.259   5.594
 2665SOL     OW 8893   1.690   2.923   3.698
 2665SOL    HW1 8894   1.639   2.883   3.621
 2665SOL    HW2 8895   1.763   2.981   3.663
 2666SOL     OW 8896   1.804   4.296   2.002
 2666SOL    HW1 8897   1.819   4.322   1.907
 2666SOL    HW2 8898   1.840   4.367   2.062
 2667SOL     OW 8899   6.532   2.835   4.845
 2667SOL    HW1 8900   6.630   2.815   4.838
 2667SOL    HW2 8901   6.518   2.933   4.857
 2668SOL     OW 8902   5.719   0.878   3.925
 2668SOL    HW1 8903   5.791   0.933   3.967
 2668SOL    HW2 8904   5.759   0.815   3.858
 2669SOL     OW 8905   2.428   0.915   1.805
 2669SOL    HW1 8906   2.384   0.983   1.745
 2669SOL    HW2 8907   2.421   0.825   1.763
 2670SOL     OW 8908   0.386   0.421   0.194
 2670SOL    HW1 8909   0.485   0.423   0.185
 2670SOL    HW2 8910   0.359   0.341   0.249
 2671SOL     OW 8911   5.505   4.659   5.725
 2671SOL    HW1 8912   5.497   4.753   5.756
 2671SOL    HW2 8913   5.427   4.637   5.665
 2672SOL     OW 8914   2.551   1.417   2.553
 2672SOL    HW1 8915   2.555   1.361   2.636
 2672SOL    HW2 8916   2.613   1.380   2.485
 2673SOL     OW 8917   3.308   6.825   2.742
 2673SOL    HW1 8918   3.401   6.814   2.780
 2673SOL    HW2 8919   3.243   6.774   2.799
 2674SOL     OW 8920   6.773   5.597   3.232
 2674SOL    HW1 8921   6.695   5.551   3.275
 2674SOL    HW2 8922   6.741   5.650   3.154
 2675SOL     OW 8923   4.641   1.044   4.737
 2675SOL    HW1 8924   4.618   0.987   4.815
 2675SOL    HW2 8925   4.606   1.002   4.653
 2676SOL     OW 8926   4.083   3.451   4.196
 2676SOL    HW1 8927   4.157   3.419   4.138
 2676SOL    HW2 8928   4.080   3.551   4.195
 2677SOL     OW 8929   1.977   6.043   7.024
 2677SOL    HW1 8930   1.941   6.073   0.087
 2677SOL    HW2 8931   1.912   5.979   6.981
 2678SOL     OW 8932   3.706   1.770   2.597
 2678SOL    HW1 8933   3.742   1.709   2.527
 2678SOL    HW2 8934   3.607   1.756   2.605
 2679SOL     OW 8935   2.090   3.629   2.397
 2679SOL    HW1 8936   2.029   3.622   2.317
 2679SOL    HW2 8937   2.124   3.538   2.420
 2680SOL     OW 8938   5.566   2.348   6.995
 2680SOL    HW1 8939   5.596   2.423   6.936
 2680SOL    HW2 8940   5.581   2.374   0.065
 2681SOL     OW 8941   2.531   1.844   3.770
 2681SOL    HW1 8942   2.519   1.939   3.797
 2681SOL    HW2 8943   2.619   1.810   3.803
 2682SOL     OW 8944   3.515   3.863   1.946
 2682SOL    HW1 8945   3.467   3.949   1.961
 2682SOL    HW2 8946   3.609   3.872   1.979
 2683SOL     OW 8947   2.166   4.043   1.460
 2683SOL    HW1 8948   2.248   4.086   1.498
 2683SOL    HW2 8949   2.085   4.079   1.507
 2684SOL     OW 8950   6.217   0.712   3.618
 2684SOL    HW1 8951   6.224   0.713   3.518
 2684SOL    HW2 8952   6.304   0.738   3.658
 2685SOL     OW 8953   1.217   6.820   5.899
 2685SOL    HW1 8954   1.254   6.799   5.808
 2685SOL    HW2 8955   1.128   6.866   5.888
 2686SOL     OW 8956   1.469   1.095   5.695
 2686SOL    HW1 8957   1.489   1.193   5.702
 2686SOL    HW2 8958   1.461   1.070   5.598
 2687SOL     OW 8959   4.488   1.793   1.337
 2687SOL    HW1 8960   4.449   1.861   1.398
 2687SOL    HW2 8961   4.463   1.701   1.367
 2688SOL     OW 8962   3.820   2.710   6.684
 2688SOL    HW1 8963   3.848   2.706   6.588
 2688SOL    HW2 8964   3.723   2.735   6.690
 2689SOL     OW 8965   0.497   3.695   2.838
 2689SOL    HW1 8966   0.574   3.746   2.876
 2689SOL    HW2 8967   0.517   3.671   2.743
 2690SOL     OW 8968   5.168   1.125   5.129
 2690SOL    HW1 8969   5.244   1.162   5.076
 2690SOL    HW2 8970   5.166   1.025   5.120
 2691SOL     OW 8971   0.008   3.762   4.917
 2691SOL    HW1 8972   0.025   3.720   5.006
 2691SOL    HW2 8973   6.983   3.848   4.930
 2692SOL     OW 8974   2.681   5.339   1.811
 2692SOL    HW1 8975   2.658   5.244   1.831
 2692SOL    HW2 8976   2.603   5.398   1.834
 2693SOL     OW 8977   1.046   5.234   2.565
 2693SOL    HW1 8978   1.065   5.249   2.662
 2693SOL    HW2 8979   1.082   5.145   2.538
 2694SOL     OW 8980   2.434   0.480   2.337
 2694SOL    HW1 8981   2.388   0.566   2.361
 2694SOL    HW2 8982   2.367   0.416   2.298
 2695SOL     OW 8983   6.949   5.105   3.399
 2695SOL    HW1 8984   6.908   5.131   3.312
 2695SOL    HW2 8985   6.899   5.028   3.439
 2696SOL     OW 8986   4.182   4.866   6.595
 2696SOL    HW1 8987   4.233   4.812   6.529
 2696SOL    HW2 8988   4.207   4.839   6.688
 2697SOL     OW 8989   4.003   2.385   0.308
 2697SOL    HW1 8990   4.004   2.483   0.288
 2697SOL    HW2 8991   4.066   2.338   0.247
 2698SOL     OW 8992   1.387   5.858   6.117
 2698SOL    HW1 8993   1.465   5.840   6.177
 2698SOL    HW2 8994   1.372   5.779   6.057
 2699SOL     OW 8995   2.499   6.709   2.120
 2699SOL    HW1 8996   2.547   6.759   2.192
 2699SOL    HW2 8997   2.565   6.658   2.066
 2700SOL     OW 8998   4.416   1.985   1.776
 2700SOL    HW1 8999   4.409   2.007   1.679
 2700SOL    HW2 9000   4.346   1.918   1.801
 2701SOL     OW 9001   5.299   3.881   5.585
 2701SOL    HW1 9002   5.375   3.919   5.532
 2701SOL    HW2 9003   5.220   3.869   5.525
 2702SOL     OW 9004   2.633   1.186   4.942
 2702SOL    HW1 9005   2.727   1.213   4.962
 2702SOL    HW2 9006   2.632   1.090   4.912
 2703SOL     OW 9007   1.970   6.141   2.886
 2703SOL    HW1 9008   2.067   6.143   2.909
 2703SOL    HW2 9009   1.919   6.196   2.952
 2704SOL     OW 9010   4.439   0.537   3.480
 2704SOL    HW1 9011   4.450   0.515   3.577
 2704SOL    HW2 9012   4.386   0.622   3.470
 2705SOL     OW 9013   1.842   0.187   5.262
 2705SOL    HW1 9014   1.845   0.090   5.240
 2705SOL    HW2 9015   1.749   0.222   5.247
 2706SOL     OW 9016   6.994   4.656   4.121
 2706SOL    HW1 9017   6.962   4.657   4.215
 2706SOL    HW2 9018   0.068   4.662   4.119
 2707SOL     OW 9019   4.743   1.275   3.614
 2707SOL    HW1 9020   4.748   1.202   3.545
 2707SOL    HW2 9021   4.661   1.330   3.597
 2708SOL     OW 9022   4.950   3.393   5.788
 2708SOL    HW1 9023   5.012   3.460   5.827
 2708SOL    HW2 9024   4.870   3.383   5.848
 2709SOL     OW 9025   5.344   1.367   5.555
 2709SOL    HW1 9026   5.360   1.465   5.543
 2709SOL    HW2 9027   5.309   1.328   5.469
 2710SOL     OW 9028   1.342   2.402   4.041
 2710SOL    HW1 9029   1.394   2.430   3.960
 2710SOL    HW2 9030   1.383   2.320   4.081
 2711SOL     OW 9031   4.593   0.523   1.733
 2711SOL    HW1 9032   4.590   0.595   1.664
 2711SOL    HW2 9033   4.578   0.434   1.691
 2712SOL     OW 9034   5.966   6.111   1.414
 2712SOL    HW1 9035   5.876   6.085   1.380
 2712SOL    HW2 9036   5.968   6.209   1.434
 2713SOL     OW 9037   3.986   5.338   5.830
 2713SOL    HW1 9038   4.082   5.350   5.804
 2713SOL    HW2 9039   3.928   5.342   5.748
 2714SOL     OW 9040   3.288   4.330   5.935
 2714SOL    HW1 9041   3.309   4.296   5.843
 2714SOL    HW2 9042   3.352   4.289   6.001
 2715SOL     OW 9043   4.863   6.057   6.639
 2715SOL    HW1 9044   4.903   6.106   6.717
 2715SOL    HW2 9045   4.763   6.060   6.646
 2716SOL     OW 9046   4.340   0.571   2.858
 2716SOL    HW1 9047   4.415   0.636   2.849
 2716SOL    HW2 9048   4.359   0.508   2.934
 2717SOL     OW 9049   0.926   2.275   2.419
 2717SOL    HW1 9050   0.858   2.248   2.351
 2717SOL    HW2 9051   0.880   2.309   2.501
 2718SOL     OW 9052   6.263   1.170   6.001
 2718SOL    HW1 9053   6.300   1.255   5.964
 2718SOL    HW2 9054   6.185   1.190   6.060
 2719SOL     OW 9055   1.345   4.832   3.495
 2719SOL    HW1 9056   1.255   4.871   3.515
 2719SOL    HW2 9057   1.402   4.838   3.577
 2720SOL     OW 9058   2.281   5.706   6.567
 2720SOL    HW1 9059   2.285   5.753   6.479
 2720SOL    HW2 9060   2.233   5.763   6.633
 2721SOL     OW 9061   2.038   6.891   2.578
 2721SOL    HW1 9062   2.135   6.892   2.599
 2721SOL    HW2 9063   2.024   6.865   2.482
 2722SOL     OW 9064   3.365   4.676   6.412
 2722SOL    HW1 9065   3.358   4.679   6.512
 2722SOL    HW2 9066   3.461   4.682   6.385
 2723SOL     OW 9067   4.097   5.589   6.575
 2723SOL    HW1 9068   4.195   5.589   6.595
 2723SOL    HW2 9069   4.079   5.535   6.493
 2724SOL     OW 9070   6.787   5.766   1.719
 2724SOL    HW1 9071   6.700   5.746   1.675
 2724SOL    HW2 9072   6.799   5.865   1.726
 2725SOL     OW 9073   5.924   4.770   3.173
 2725SOL    HW1 9074   5.842   4.742   3.123
 2725SOL    HW2 9075   6.003   4.719   3.139
 2726SOL     OW 9076   6.469   2.017   2.832
 2726SOL    HW1 9077   6.419   2.034   2.747
 2726SOL    HW2 9078   6.499   2.104   2.871
 2727SOL     OW 9079   1.761   5.463   3.524
 2727SOL    HW1 9080   1.853   5.430   3.502
 2727SOL    HW2 9081   1.695   5.418   3.464
 2728SOL     OW 9082   4.966   5.733   5.476
 2728SOL    HW1 9083   4.888   5.790   5.448
 2728SOL    HW2 9084   4.937   5.637   5.482
 2729SOL     OW 9085   6.541   0.235   0.262
 2729SOL    HW1 9086   6.571   0.152   0.216
 2729SOL    HW2 9087   6.548   0.312   0.200
 2730SOL     OW 9088   1.289   5.785   2.496
 2730SOL    HW1 9089   1.198   5.824   2.510
 2730SOL    HW2 9090   1.289   5.728   2.414
 2731SOL     OW 9091   3.540   4.196   4.921
 2731SOL    HW1 9092   3.566   4.201   5.018
 2731SOL    HW2 9093   3.440   4.194   4.914
 2732SOL     OW 9094   4.808   0.458   1.918
 2732SOL    HW1 9095   4.766   0.367   1.916
 2732SOL    HW2 9096   4.753   0.521   1.863
 2733SOL     OW 9097   0.671   6.874   0.421
 2733SOL    HW1 9098   0.766   6.892   0.397
 2733SOL    HW2 9099   0.667   6.830   0.511
 2734SOL     OW 9100   3.371   6.551   2.380
 2734SOL    HW1 9101   3.331   6.589   2.296
 2734SOL    HW2 9102   3.344   6.455   2.389
 2735SOL     OW 9103   1.060   2.040   2.359
 2735SOL    HW1 9104   1.063   2.135   2.389
 2735SOL    HW2 9105   1.059   1.979   2.438
 2736SOL     OW 9106   5.823   3.891   2.526
 2736SOL    HW1 9107   5.841   3.835   2.445
 2736SOL    HW2 9108   5.871   3.853   2.604
 2737SOL     OW 9109   2.749   0.575   5.323
 2737SOL    HW1 9110   2.661   0.553   5.367
 2737SOL    HW2 9111   2.738   0.655   5.264
 2738SOL     OW 9112   5.112   6.015   1.073
 2738SOL    HW1 9113   5.050   6.088   1.104
 2738SOL    HW2 9114   5.092   5.931   1.123
 2739SOL     OW 9115   6.830   5.595   1.461
 2739SOL    HW1 9116   6.756   5.605   1.528
 2739SOL    HW2 9117   6.815   5.511   1.407
 2740SOL     OW 9118   0.036   4.933   3.910
 2740SOL    HW1 9119   6.991   4.864   3.925
 2740SOL    HW2 9120   0.052   4.944   3.812
 2741SOL     OW 9121   1.460   6.750   6.019
 2741SOL    HW1 9122   1.531   6.807   5.976
 2741SOL    HW2 9123   1.372   6.769   5.976
 2742SOL     OW 9124   2.859   5.238   3.134
 2742SOL    HW1 9125   2.919   5.159   3.147
 2742SOL    HW2 9126   2.778   5.209   3.082
 2743SOL     OW 9127   5.162   1.810   2.840
 2743SOL    HW1 9128   5.091   1.801   2.910
 2743SOL    HW2 9129   5.145   1.743   2.767
 2744SOL     OW 9130   3.418   4.103   2.020
 2744SOL    HW1 9131   3.330   4.110   1.974
 2744SOL    HW2 9132   3.405   4.073   2.114
 2745SOL     OW 9133   0.783   5.973   0.140
 2745SOL    HW1 9134   0.825   5.950   0.228
 2745SOL    HW2 9135   0.842   5.940   0.065
 2746SOL     OW 9136   1.687   1.042   3.812
 2746SOL    HW1 9137   1.594   1.012   3.837
 2746SOL    HW2 9138   1.753   1.002   3.875
 2747SOL     OW 9139   4.553   4.604   0.227
 2747SOL    HW1 9140   4.536   4.554   0.141
 2747SOL    HW2 9141   4.480   4.671   0.241
 2748SOL     OW 9142   3.969   0.603   1.143
 2748SOL    HW1 9143   3.939   0.580   1.236
 2748SOL    HW2 9144   4.007   0.521   1.099
 2749SOL     OW 9145   3.432   1.230   0.920
 2749SOL    HW1 9146   3.333   1.227   0.936
 2749SOL    HW2 9147   3.452   1.294   0.846
 2750SOL     OW 9148   2.984   5.710   3.088
 2750SOL    HW1 9149   3.052   5.705   3.015
 2750SOL    HW2 9150   2.944   5.619   3.102
 2751SOL     OW 9151   5.902   4.753   1.159
 2751SOL    HW1 9152   5.830   4.686   1.179
 2751SOL    HW2 9153   5.895   4.783   1.064
 2752SOL     OW 9154   4.031   5.606   6.847
 2752SOL    HW1 9155   4.075   5.621   6.758
 2752SOL    HW2 9156   4.074   5.665   6.916
 2753SOL     OW 9157   5.875   5.454   5.640
 2753SOL    HW1 9158   5.810   5.507   5.694
 2753SOL    HW2 9159   5.964   5.455   5.686
 2754SOL     OW 9160   1.485   0.599   5.595
 2754SOL    HW1 9161   1.446   0.669   5.655
 2754SOL    HW2 9162   1.574   0.570   5.631
 2755SOL     OW 9163   3.186   0.020   2.186
 2755SOL    HW1 9164   3.262   0.082   2.205
 2755SOL    HW2 9165   3.195   7.009   2.093
 2756SOL     OW 9166   4.529   5.861   6.994
 2756SOL    HW1 9167   4.616   5.889   0.010
 2756SOL    HW2 9168   4.518   5.762   7.003
 2757SOL     OW 9169   0.545   5.023   0.782
 2757SOL    HW1 9170   0.624   4.989   0.730
 2757SOL    HW2 9171   0.558   5.120   0.802
 2758SOL     OW 9172   5.208   0.831   4.901
 2758SOL    HW1 9173   5.292   0.871   4.940
 2758SOL    HW2 9174   5.137   0.830   4.971
 2759SOL     OW 9175   4.497   5.227   4.058
 2759SOL    HW1 9176   4.482   5.147   4.116
 2759SOL    HW2 9177   4.409   5.262   4.025
 2760SOL     OW 9178   0.934   6.327   3.719
 2760SOL    HW1 9179   0.898   6.319   3.626
 2760SOL    HW2 9180   1.010   6.392   3.720
 2761SOL     OW 9181   2.400   4.997   4.207
 2761SOL    HW1 9182   2.449   5.013   4.293
 2761SOL    HW2 9183   2.404   4.899   4.184
 2762SOL     OW 9184   2.148   1.379   5.328
 2762SOL    HW1 9185   2.072   1.331   5.371
 2762SOL    HW2 9186   2.234   1.345   5.366
 2763SOL     OW 9187   5.338   0.830   2.367
 2763SOL    HW1 9188   5.257   0.824   2.309
 2763SOL    HW2 9189   5.311   0.828   2.463
 2764SOL     OW 9190   5.845   0.510   1.616
 2764SOL    HW1 9191   5.800   0.552   1.694
 2764SOL    HW2 9192   5.854   0.577   1.542
 2765SOL     OW 9193   5.169   2.177   3.396
 2765SOL    HW1 9194   5.076   2.196   3.427
 2765SOL    HW2 9195   5.174   2.189   3.297
 2766SOL     OW 9196   5.735   0.049   2.735
 2766SOL    HW1 9197   5.791   0.131   2.723
 2766SOL    HW2 9198   5.736   7.021   2.651
 2767SOL     OW 9199   6.271   4.258   5.831
 2767SOL    HW1 9200   6.305   4.352   5.843
 2767SOL    HW2 9201   6.309   4.220   5.747
 2768SOL     OW 9202   6.111   1.361   6.789
 2768SOL    HW1 9203   6.013   1.342   6.791
 2768SOL    HW2 9204   6.162   1.275   6.792
 2769SOL     OW 9205   0.793   4.624   0.918
 2769SOL    HW1 9206   0.844   4.709   0.905
 2769SOL    HW2 9207   0.705   4.644   0.960
 2770SOL     OW 9208   5.909   5.851   2.312
 2770SOL    HW1 9209   5.927   5.947   2.332
 2770SOL    HW2 9210   5.996   5.805   2.291
 2771SOL     OW 9211   4.968   0.867   1.359
 2771SOL    HW1 9212   4.926   0.919   1.434
 2771SOL    HW2 9213   5.002   0.780   1.393
 2772SOL     OW 9214   3.724   1.906   6.798
 2772SOL    HW1 9215   3.716   1.817   6.842
 2772SOL    HW2 9216   3.648   1.919   6.734
 2773SOL     OW 9217   3.004   5.000   0.840
 2773SOL    HW1 9218   2.974   4.997   0.936
 2773SOL    HW2 9219   3.006   4.907   0.803
 2774SOL     OW 9220   5.582   2.948   2.145
 2774SOL    HW1 9221   5.648   2.893   2.093
 2774SOL    HW2 9222   5.600   3.045   2.130
 2775SOL     OW 9223   0.170   0.062   2.062
 2775SOL    HW1 9224   0.222   0.144   2.037
 2775SOL    HW2 9225   0.089   0.089   2.114
 2776SOL     OW 9226   2.879   6.264   6.676
 2776SOL    HW1 9227   2.807   6.283   6.609
 2776SOL    HW2 9228   2.866   6.321   6.756
 2777SOL     OW 9229   1.901   2.023   3.860
 2777SOL    HW1 9230   1.986   2.008   3.911
 2777SOL    HW2 9231   1.898   2.118   3.828
 2778SOL     OW 9232   2.712   2.413   4.765
 2778SOL    HW1 9233   2.791   2.409   4.704
 2778SOL    HW2 9234   2.673   2.321   4.774
 2779SOL     OW 9235   6.409   1.576   1.248
 2779SOL    HW1 9236   6.365   1.600   1.335
 2779SOL    HW2 9237   6.413   1.657   1.189
 2780SOL     OW 9238   3.622   6.047   0.168
 2780SOL    HW1 9239   3.632   6.016   0.263
 2780SOL    HW2 9240   3.526   6.040   0.141
 2781SOL     OW 9241   4.974   4.499   6.596
 2781SOL    HW1 9242   5.045   4.533   6.658
 2781SOL    HW2 9243   5.005   4.507   6.502
 2782SOL     OW 9244   3.371   1.506   5.877
 2782SOL    HW1 9245   3.382   1.588   5.932
 2782SOL    HW2 9246   3.391   1.425   5.933
 2783SOL     OW 9247   0.180   3.742   5.982
 2783SOL    HW1 9248   0.209   3.666   6.041
 2783SOL    HW2 9249   0.228   3.825   6.008
 2784SOL     OW 9250   2.495   2.555   1.786
 2784SOL    HW1 9251   2.489   2.575   1.688
 2784SOL    HW2 9252   2.406   2.567   1.828
 2785SOL     OW 9253   5.956   1.258   2.086
 2785SOL    HW1 9254   6.034   1.319   2.095
 2785SOL    HW2 9255   5.879   1.292   2.140
 2786SOL     OW 9256   3.482   0.621   6.997
 2786SOL    HW1 9257   3.566   0.673   7.013
 2786SOL    HW2 9258   3.479   0.543   0.035
 2787SOL     OW 9259   2.043   3.619   6.129
 2787SOL    HW1 9260   2.061   3.702   6.077
 2787SOL    HW2 9261   2.007   3.643   6.219
 2788SOL     OW 9262   0.059   3.782   6.857
 2788SOL    HW1 9263   0.114   3.710   6.898
 2788SOL    HW2 9264   7.008   3.804   6.917
 2789SOL     OW 9265   0.536   2.846   4.158
 2789SOL    HW1 9266   0.563   2.782   4.087
 2789SOL    HW2 9267   0.594   2.832   4.239
 2790SOL     OW 9268   3.344   6.187   4.277
 2790SOL    HW1 9269   3.311   6.093   4.271
 2790SOL    HW2 9270   3.347   6.227   4.186
 2791SOL     OW 9271   1.854   3.777   2.876
 2791SOL    HW1 9272   1.901   3.864   2.857
 2791SOL    HW2 9273   1.756   3.794   2.886
 2792SOL     OW 9274   1.100   2.516   4.917
 2792SOL    HW1 9275   1.134   2.490   5.008
 2792SOL    HW2 9276   1.014   2.565   4.927
 2793SOL     OW 9277   4.604   0.543   4.329
 2793SOL    HW1 9278   4.690   0.576   4.291
 2793SOL    HW2 9279   4.606   0.444   4.334
 2794SOL     OW 9280   0.966   1.671   1.646
 2794SOL    HW1 9281   0.975   1.767   1.621
 2794SOL    HW2 9282   0.886   1.659   1.705
 2795SOL     OW 9283   1.280   4.117   1.574
 2795SOL    HW1 9284   1.265   4.134   1.477
 2795SOL    HW2 9285   1.239   4.192   1.628
 2796SOL     OW 9286   5.094   4.070   2.184
 2796SOL    HW1 9287   5.162   4.007   2.148
 2796SOL    HW2 9288   5.020   4.018   2.228
 2797SOL     OW 9289   4.704   4.210   5.021
 2797SOL    HW1 9290   4.691   4.172   5.113
 2797SOL    HW2 9291   4.726   4.307   5.028
 2798SOL     OW 9292   1.844   3.647   3.477
 2798SOL    HW1 9293   1.756   3.682   3.511
 2798SOL    HW2 9294   1.896   3.608   3.553
 2799SOL     OW 9295   6.581   5.972   5.716
 2799SOL    HW1 9296   6.559   5.988   5.813
 2799SOL    HW2 9297   6.629   5.885   5.707
 2800SOL     OW 9298   2.747   1.616   6.615
 2800SOL    HW1 9299   2.667   1.595   6.559
 2800SOL    HW2 9300   2.728   1.696   6.672
 2801SOL     OW 9301   3.860   5.419   2.557
 2801SOL    HW1 9302   3.959   5.413   2.545
 2801SOL    HW2 9303   3.815   5.418   2.467
 2802SOL     OW 9304   6.172   0.605   6.223
 2802SOL    HW1 9305   6.109   0.536   6.187
 2802SOL    HW2 9306   6.187   0.675   6.153
 2803SOL     OW 9307   2.040   5.829   5.621
 2803SOL    HW1 9308   1.993   5.778   5.549
 2803SOL    HW2 9309   2.132   5.792   5.634
 2804SOL     OW 9310   0.171   4.695   2.286
 2804SOL    HW1 9311   0.110   4.743   2.224
 2804SOL    HW2 9312   0.201   4.609   2.244
 2805SOL     OW 9313   5.410   3.593   6.697
 2805SOL    HW1 9314   5.376   3.608   6.604
 2805SOL    HW2 9315   5.390   3.673   6.753
 2806SOL     OW 9316   6.657   5.455   2.643
 2806SOL    HW1 9317   6.627   5.503   2.560
 2806SOL    HW2 9318   6.649   5.357   2.629
 2807SOL     OW 9319   3.918   4.889   3.950
 2807SOL    HW1 9320   3.941   4.805   3.901
 2807SOL    HW2 9321   3.824   4.883   3.983
 2808SOL     OW 9322   4.387   5.971   4.412
 2808SOL    HW1 9323   4.338   5.965   4.499
 2808SOL    HW2 9324   4.429   6.061   4.404
 2809SOL     OW 9325   5.486   2.985   0.339
 2809SOL    HW1 9326   5.574   2.950   0.371
 2809SOL    HW2 9327   5.457   2.934   0.259
 2810SOL     OW 9328   1.409   0.965   6.189
 2810SOL    HW1 9329   1.457   1.052   6.199
 2810SOL    HW2 9330   1.312   0.978   6.208
 2811SOL     OW 9331   6.882   1.002   3.962
 2811SOL    HW1 9332   6.893   0.916   4.012
 2811SOL    HW2 9333   6.962   1.018   3.905
 2812SOL     OW 9334   4.514   4.499   2.473
 2812SOL    HW1 9335   4.440   4.462   2.415
 2812SOL    HW2 9336   4.474   4.542   2.554
 2813SOL     OW 9337   6.228   1.772   6.244
 2813SOL    HW1 9338   6.165   1.798   6.318
 2813SOL    HW2 9339   6.319   1.809   6.263
 2814SOL     OW 9340   5.545   4.301   4.687
 2814SOL    HW1 9341   5.518   4.385   4.734
 2814SOL    HW2 9342   5.479   4.281   4.614
 2815SOL     OW 9343   0.256   0.939   4.369
 2815SOL    HW1 9344   0.252   0.940   4.469
 2815SOL    HW2 9345   0.164   0.956   4.332
 2816SOL     OW 9346   5.307   6.260   2.914
 2816SOL    HW1 9347   5.388   6.206   2.937
 2816SOL    HW2 9348   5.233   6.198   2.887
 2817SOL     OW 9349   1.268   1.604   1.463
 2817SOL    HW1 9350   1.204   1.639   1.395
 2817SOL    HW2 9351   1.232   1.519   1.501
 2818SOL     OW 9352   0.819   3.166   6.801
 2818SOL    HW1 9353   0.846   3.249   6.752
 2818SOL    HW2 9354   0.767   3.107   6.740
 2819SOL     OW 9355   6.256   3.320   1.189
 2819SOL    HW1 9356   6.187   3.281   1.128
 2819SOL    HW2 9357   6.294   3.247   1.246
 2820SOL     OW 9358   5.126   2.610   3.899
 2820SOL    HW1 9359   5.031   2.595   3.870
 2820SOL    HW2 9360   5.164   2.524   3.934
 2821SOL     OW 9361   1.878   3.338   3.757
 2821SOL    HW1 9362   1.790   3.298   3.732
 2821SOL    HW2 9363   1.878   3.435   3.735
 2822SOL     OW 9364   3.143   1.840   0.903
 2822SOL    HW1 9365   3.227   1.850   0.849
 2822SOL    HW2 9366   3.079   1.780   0.855
 2823SOL     OW 9367   1.904   6.782   3.910
 2823SOL    HW1 9368   1.860   6.856   3.860
 2823SOL    HW2 9369   1.863   6.695   3.884
 2824SOL     OW 9370   2.928   2.151   5.575
 2824SOL    HW1 9371   2.946   2.074   5.636
 2824SOL    HW2 9372   3.014   2.198   5.555
 2825SOL     OW 9373   6.595   6.419   1.243
 2825SOL    HW1 9374   6.562   6.339   1.192
 2825SOL    HW2 9375   6.691   6.406   1.266
 2826SOL     OW 9376   4.832   3.156   4.570
 2826SOL    HW1 9377   4.848   3.077   4.511
 2826SOL    HW2 9378   4.782   3.226   4.519
 2827SOL     OW 9379   6.380   0.438   6.948
 2827SOL    HW1 9380   6.400   0.532   6.977
 2827SOL    HW2 9381   6.448   0.376   6.988
 2828SOL     OW 9382   3.883   2.106   6.755
 2828SOL    HW1 9383   3.923   2.120   6.665
 2828SOL    HW2 9384   3.824   2.026   6.754
 2829SOL     OW 9385   3.010   0.689   6.805
 2829SOL    HW1 9386   2.970   0.697   6.896
 2829SOL    HW2 9387   3.110   0.685   6.813
 2830SOL     OW 9388   3.334   3.631   6.699
 2830SOL    HW1 9389   3.285   3.670   6.777
 2830SOL    HW2 9390   3.331   3.696   6.623
 2831SOL     OW 9391   6.770   5.932   3.843
 2831SOL    HW1 9392   6.800   5.859   3.783
 2831SOL    HW2 9393   6.688   5.903   3.892
 2832SOL     OW 9394   0.577   1.312   1.889
 2832SOL    HW1 9395   0.580   1.404   1.927
 2832SOL    HW2 9396   0.484   1.275   1.899
 2833SOL     OW 9397   6.729   3.312   2.606
 2833SOL    HW1 9398   6.726   3.350   2.699
 2833SOL    HW2 9399   6.726   3.212   2.611
 2834SOL     OW 9400   4.382   0.676   5.577
 2834SOL    HW1 9401   4.415   0.608   5.642
 2834SOL    HW2 9402   4.293   0.711   5.608
 2835SOL     OW 9403   6.712   5.983   3.423
 2835SOL    HW1 9404   6.782   5.914   3.403
 2835SOL    HW2 9405   6.752   6.056   3.478
 2836SOL     OW 9406   6.434   0.514   0.602
 2836SOL    HW1 9407   6.354   0.509   0.543
 2836SOL    HW2 9408   6.424   0.451   0.679
 2837SOL     OW 9409   6.253   3.114   3.531
 2837SOL    HW1 9410   6.165   3.143   3.568
 2837SOL    HW2 9411   6.248   3.018   3.503
 2838SOL     OW 9412   1.874   4.284   4.306
 2838SOL    HW1 9413   1.928   4.337   4.241
 2838SOL    HW2 9414   1.832   4.346   4.373
 2839SOL     OW 9415   4.666   2.749   0.740
 2839SOL    HW1 9416   4.726   2.828   0.753
 2839SOL    HW2 9417   4.574   2.780   0.714
 2840SOL     OW 9418   6.348   3.031   5.039
 2840SOL    HW1 9419   6.439   3.055   5.006
 2840SOL    HW2 9420   6.279   3.057   4.972
 2841SOL     OW 9421   0.343   6.593   1.031
 2841SOL    HW1 9422   0.291   6.527   1.086
 2841SOL    HW2 9423   0.296   6.608   0.944
 2842SOL     OW 9424   5.841   3.109   2.798
 2842SOL    HW1 9425   5.802   3.035   2.854
 2842SOL    HW2 9426   5.842   3.080   2.702
 2843SOL     OW 9427   4.331   1.252   4.110
 2843SOL    HW1 9428   4.314   1.184   4.181
 2843SOL    HW2 9429   4.269   1.236   4.033
 2844SOL     OW 9430   0.815   3.941   5.836
 2844SOL    HW1 9431   0.769   4.006   5.897
 2844SOL    HW2 9432   0.830   3.984   5.747
 2845SOL     OW 9433   0.117   4.221   6.195
 2845SOL    HW1 9434   0.026   4.180   6.185
 2845SOL    HW2 9435   0.152   4.246   6.104
 2846SOL     OW 9436   5.276   1.164   5.946
 2846SOL    HW1 9437   5.176   1.168   5.943
 2846SOL    HW2 9438   5.306   1.140   6.038
 2847SOL     OW 9439   4.601   4.356   4.193
 2847SOL    HW1 9440   4.534   4.430   4.188
 2847SOL    HW2 9441   4.586   4.303   4.276
 2848SOL     OW 9442   2.128   6.672   5.353
 2848SOL    HW1 9443   2.226   6.687   5.368
 2848SOL    HW2 9444   2.084   6.653   5.441
 2849SOL     OW 9445   1.984   2.915   1.666
 2849SOL    HW1 9446   1.988   2.987   1.597
 2849SOL    HW2 9447   2.042   2.839   1.638
 2850SOL     OW 9448   3.979   1.276   0.870
 2850SOL    HW1 9449   3.896   1.332   0.877
 2850SOL    HW2 9450   3.955   1.179   0.875
 2851SOL     OW 9451   2.434   5.414   6.103
 2851SOL    HW1 9452   2.434   5.484   6.174
 2851SOL    HW2 9453   2.417   5.325   6.144
 2852SOL     OW 9454   0.276   2.755   6.509
 2852SOL    HW1 9455   0.241   2.746   6.416
 2852SOL    HW2 9456   0.373   2.731   6.510
 2853SOL     OW 9457   3.812   2.414   1.506
 2853SOL    HW1 9458   3.758   2.469   1.570
 2853SOL    HW2 9459   3.752   2.350   1.458
 2854SOL     OW 9460   0.935   1.152   3.253
 2854SOL    HW1 9461   0.888   1.082   3.306
 2854SOL    HW2 9462   1.014   1.111   3.206
 2855SOL     OW 9463   3.157   1.573   5.065
 2855SOL    HW1 9464   3.061   1.596   5.046
 2855SOL    HW2 9465   3.212   1.593   4.984
 2856SOL     OW 9466   2.289   2.059   5.422
 2856SOL    HW1 9467   2.206   2.113   5.440
 2856SOL    HW2 9468   2.269   1.989   5.353
 2857SOL     OW 9469   3.437   3.617   3.326
 2857SOL    HW1 9470   3.402   3.703   3.289
 2857SOL    HW2 9471   3.501   3.576   3.261
 2858SOL     OW 9472   5.609   2.282   3.182
 2858SOL    HW1 9473   5.698   2.237   3.182
 2858SOL    HW2 9474   5.590   2.317   3.091
 2859SOL     OW 9475   5.462   6.479   0.311
 2859SOL    HW1 9476   5.454   6.576   0.336
 2859SOL    HW2 9477   5.546   6.466   0.258
 2860SOL     OW 9478   4.243   2.209   1.058
 2860SOL    HW1 9479   4.192   2.224   1.143
 2860SOL    HW2 9480   4.310   2.282   1.047
 2861SOL     OW 9481   3.975   5.255   6.090
 2861SOL    HW1 9482   4.005   5.293   6.003
 2861SOL    HW2 9483   4.054   5.216   6.139
 2862SOL     OW 9484   6.507   6.867   3.901
 2862SOL    HW1 9485   6.426   6.811   3.919
 2862SOL    HW2 9486   6.499   6.910   3.811
 2863SOL     OW 9487   0.129   1.290   0.213
 2863SOL    HW1 9488   0.047   1.305   0.158
 2863SOL    HW2 9489   0.103   1.265   0.306
 2864SOL     OW 9490   3.507   1.783   0.508
 2864SOL    HW1 9491   3.578   1.715   0.524
 2864SOL    HW2 9492   3.542   1.857   0.450
 2865SOL     OW 9493   4.886   5.095   5.246
 2865SOL    HW1 9494   4.790   5.121   5.234
 2865SOL    HW2 9495   4.935   5.109   5.161
 2866SOL     OW 9496   0.170   6.933   6.493
 2866SOL    HW1 9497   0.091   6.910   6.549
 2866SOL    HW2 9498   0.139   6.967   6.404
 2867SOL     OW 9499   6.712   4.598   3.327
 2867SOL    HW1 9500   6.626   4.581   3.374
 2867SOL    HW2 9501   6.718   4.539   3.246
 2868SOL     OW 9502   1.802   5.395   4.618
 2868SOL    HW1 9503   1.840   5.448   4.693
 2868SOL    HW2 9504   1.703   5.408   4.615
 2869SOL     OW 9505   6.155   0.876   2.031
 2869SOL    HW1 9506   6.192   0.967   2.045
 2869SOL    HW2 9507   6.150   0.827   2.118
 2870SOL     OW 9508   4.590   2.098   2.573
 2870SOL    HW1 9509   4.634   2.060   2.492
 2870SOL    HW2 9510   4.508   2.148   2.546
 2871SOL     OW 9511   1.442   1.617   5.855
 2871SOL    HW1 9512   1.391   1.693   5.895
 2871SOL    HW2 9513   1.448   1.542   5.921
 2872SOL     OW 9514   1.661   6.432   3.920
 2872SOL    HW1 9515   1.729   6.412   3.851
 2872SOL    HW2 9516   1.702   6.424   4.011
 2873SOL     OW 9517   0.034   5.822   1.948
 2873SOL    HW1 9518   0.050   5.772   2.033
 2873SOL    HW2 9519   0.074   5.771   1.871
 2874SOL     OW 9520   5.479   1.469   2.582
 2874SOL    HW1 9521   5.537   1.442   2.506
 2874SOL    HW2 9522   5.384   1.479   2.551
 2875SOL     OW 9523   2.757   4.902   1.381
 2875SOL    HW1 9524   2.808   4.985   1.358
 2875SOL    HW2 9525   2.660   4.916   1.363
 2876SOL     OW 9526   6.967   2.213   1.974
 2876SOL    HW1 9527   6.869   2.210   1.998
 2876SOL    HW2 9528   7.001   2.306   1.988
 2877SOL     OW 9529   2.322   4.159   5.904
 2877SOL    HW1 9530   2.346   4.100   5.826
 2877SOL    HW2 9531   2.342   4.254   5.881
 2878SOL     OW 9532   3.435   5.003   0.524
 2878SOL    HW1 9533   3.373   5.060   0.577
 2878SOL    HW2 9534   3.530   5.032   0.541
 2879SOL     OW 9535   4.512   4.450   0.002
 2879SOL    HW1 9536   4.470   4.377   0.057
 2879SOL    HW2 9537   4.524   4.417   6.934
 2880SOL     OW 9538   1.518   0.073   1.899
 2880SOL    HW1 9539   1.477   0.063   1.808
 2880SOL    HW2 9540   1.530   7.009   1.941
 2881SOL     OW 9541   0.245   0.402   6.461
 2881SOL    HW1 9542   0.150   0.394   6.490
 2881SOL    HW2 9543   0.301   0.431   6.539
 2882SOL     OW 9544   6.925   3.398   3.424
 2882SOL    HW1 9545   6.900   3.383   3.329
 2882SOL    HW2 9546   6.984   3.324   3.456
 2883SOL     OW 9547   4.487   6.045   2.406
 2883SOL    HW1 9548   4.524   5.974   2.346
 2883SOL    HW2 9549   4.468   6.128   2.353
 2884SOL     OW 9550   1.498   6.043   2.801
 2884SOL    HW1 9551   1.489   6.029   2.702
 2884SOL    HW2 9552   1.592   6.070   2.822
 2885SOL     OW 9553   0.812   2.433   3.953
 2885SOL    HW1 9554   0.817   2.525   3.914
 2885SOL    HW2 9555   0.877   2.374   3.906
 2886SOL     OW 9556   2.730   2.983   6.360
 2886SOL    HW1 9557   2.818   2.991   6.406
 2886SOL    HW2 9558   2.701   2.888   6.358
 2887SOL     OW 9559   2.910   1.670   4.988
 2887SOL    HW1 9560   2.828   1.669   4.930
 2887SOL    HW2 9561   2.941   1.765   4.999
 2888SOL     OW 9562   6.969   4.968   0.244
 2888SOL    HW1 9563   7.025   5.030   0.300
 2888SOL    HW2 9564   6.875   4.967   0.278
 2889SOL     OW 9565   0.746   6.899   1.129
 2889SOL    HW1 9566   0.672   6.834   1.148
 2889SOL    HW2 9567   0.738   6.932   1.035
 2890SOL     OW 9568   2.960   0.470   0.705
 2890SOL    HW1 9569   3.030   0.415   0.751
 2890SOL    HW2 9570   3.005   0.542   0.651
 2891SOL     OW 9571   2.970   4.841   4.673
 2891SOL    HW1 9572   2.966   4.852   4.574
 2891SOL    HW2 9573   2.904   4.771   4.701
 2892SOL     OW 9574   4.365   4.186   5.303
 2892SOL    HW1 9575   4.281   4.240   5.315
 2892SOL    HW2 9576   4.341   4.089   5.298
 2893SOL     OW 9577   3.409   1.249   5.996
 2893SOL    HW1 9578   3.420   1.186   5.920
 2893SOL    HW2 9579   3.317   1.241   6.033
 2894SOL     OW 9580   3.392   2.636   1.311
 2894SOL    HW1 9581   3.293   2.647   1.309
 2894SOL    HW2 9582   3.417   2.551   1.265
 2895SOL     OW 9583   3.238   3.121   0.114
 2895SOL    HW1 9584   3.213   3.163   0.027
 2895SOL    HW2 9585   3.288   3.037   0.097
 2896SOL     OW 9586   2.414   5.101   0.792
 2896SOL    HW1 9587   2.477   5.124   0.867
 2896SOL    HW2 9588   2.414   5.175   0.725
 2897SOL     OW 9589   1.202   6.705   3.523
 2897SOL    HW1 9590   1.173   6.655   3.442
 2897SOL    HW2 9591   1.254   6.645   3.583
 2898SOL     OW 9592   2.447   4.656   2.791
 2898SOL    HW1 9593   2.545   4.667   2.774
 2898SOL    HW2 9594   2.405   4.608   2.713
 2899SOL     OW 9595   6.034   1.300   0.557
 2899SOL    HW1 9596   6.041   1.396   0.584
 2899SOL    HW2 9597   5.937   1.273   0.553
 2900SOL     OW 9598   3.219   5.590   6.638
 2900SOL    HW1 9599   3.141   5.627   6.587
 2900SOL    HW2 9600   3.303   5.635   6.607
 2901SOL     OW 9601   2.681   6.899   1.027
 2901SOL    HW1 9602   2.603   6.904   1.089
 2901SOL    HW2 9603   2.696   6.988   0.984
 2902SOL     OW 9604   5.460   4.947   0.894
 2902SOL    HW1 9605   5.471   4.878   0.966
 2902SOL    HW2 9606   5.519   4.924   0.817
 2903SOL     OW 9607   2.748   2.451   1.691
 2903SOL    HW1 9608   2.663   2.490   1.726
 2903SOL    HW2 9609   2.813   2.441   1.767
 2904SOL     OW 9610   2.290   2.597   4.216
 2904SOL    HW1 9611   2.380   2.611   4.256
 2904SOL    HW2 9612   2.282   2.651   4.132
 2905SOL     OW 9613   1.691   2.238   1.874
 2905SOL    HW1 9614   1.708   2.164   1.810
 2905SOL    HW2 9615   1.703   2.326   1.827
 2906SOL     OW 9616   5.346   5.431   2.110
 2906SOL    HW1 9617   5.310   5.514   2.068
 2906SOL    HW2 9618   5.272   5.367   2.128
 2907SOL     OW 9619   6.235   0.630   4.379
 2907SOL    HW1 9620   6.272   0.537   4.385
 2907SOL    HW2 9621   6.136   0.627   4.381
 2908SOL     OW 9622   3.844   6.197   5.497
 2908SOL    HW1 9623   3.790   6.115   5.474
 2908SOL    HW2 9624   3.937   6.185   5.465
 2909SOL     OW 9625   1.664   5.967   5.241
 2909SOL    HW1 9626   1.639   5.906   5.316
 2909SOL    HW2 9627   1.597   6.041   5.235
 2910SOL     OW 9628   4.811   6.433   5.366
 2910SOL    HW1 9629   4.851   6.480   5.288
 2910SOL    HW2 9630   4.844   6.474   5.451
 2911SOL     OW 9631   2.233   4.420   3.709
 2911SOL    HW1 9632   2.329   4.437   3.729
 2911SOL    HW2 9633   2.181   4.416   3.794
 2912SOL     OW 9634   2.876   5.219   0.818
 2912SOL    HW1 9635   2.922   5.290   0.765
 2912SOL    HW2 9636   2.932   5.136   0.820
 2913SOL     OW 9637   1.070   3.574   2.224
 2913SOL    HW1 9638   0.980   3.571   2.268
 2913SOL    HW2 9639   1.079   3.496   2.161
 2914SOL     OW 9640   5.451   4.894   5.817
 2914SOL    HW1 9641   5.394   4.954   5.759
 2914SOL    HW2 9642   5.405   4.880   5.905
 2915SOL     OW 9643   4.466   1.502   4.018
 2915SOL    HW1 9644   4.429   1.415   4.051
 2915SOL    HW2 9645   4.391   1.563   3.993
 2916SOL     OW 9646   4.552   6.025   4.710
 2916SOL    HW1 9647   4.627   5.973   4.671
 2916SOL    HW2 9648   4.465   5.981   4.689
 2917SOL     OW 9649   4.568   0.650   1.982
 2917SOL    HW1 9650   4.587   0.607   1.893
 2917SOL    HW2 9651   4.469   0.659   1.994
 2918SOL     OW 9652   0.658   3.327   4.237
 2918SOL    HW1 9653   0.623   3.237   4.212
 2918SOL    HW2 9654   0.597   3.398   4.201
 2919SOL     OW 9655   6.006   6.169   0.582
 2919SOL    HW1 9656   6.075   6.137   0.517
 2919SOL    HW2 9657   6.051   6.206   0.663
 2920SOL     OW 9658   4.523   2.009   2.827
 2920SOL    HW1 9659   4.488   2.102   2.826
 2920SOL    HW2 9660   4.560   1.986   2.737
 2921SOL     OW 9661   6.996   0.295   1.401
 2921SOL    HW1 9662   6.908   0.271   1.441
 2921SOL    HW2 9663   7.001   0.394   1.387
 2922SOL     OW 9664   4.530   6.356   5.112
 2922SOL    HW1 9665   4.615   6.313   5.083
 2922SOL    HW2 9666   4.548   6.417   5.189
 2923SOL     OW 9667   0.106   4.506   0.096
 2923SOL    HW1 9668   0.083   4.413   0.127
 2923SOL    HW2 9669   0.205   4.512   0.081
 2924SOL     OW 9670   6.311   0.245   5.700
 2924SOL    HW1 9671   6.316   0.291   5.789
 2924SOL    HW2 9672   6.269   0.155   5.711
 2925SOL     OW 9673   5.765   3.418   1.394
 2925SOL    HW1 9674   5.673   3.380   1.381
 2925SOL    HW2 9675   5.766   3.513   1.366
 2926SOL     OW 9676   6.860   1.294   3.801
 2926SOL    HW1 9677   6.866   1.394   3.804
 2926SOL    HW2 9678   6.764   1.267   3.796
 2927SOL     OW 9679   0.909   3.273   2.329
 2927SOL    HW1 9680   0.867   3.196   2.378
 2927SOL    HW2 9681   0.861   3.287   2.242
 2928SOL     OW 9682   5.325   5.972   1.286
 2928SOL    HW1 9683   5.348   5.884   1.246
 2928SOL    HW2 9684   5.380   6.044   1.243
 2929SOL     OW 9685   0.676   0.251   6.093
 2929SOL    HW1 9686   0.577   0.260   6.080
 2929SOL    HW2 9687   0.695   0.212   6.183
 2930SOL     OW 9688   2.984   6.188   4.193
 2930SOL    HW1 9689   2.961   6.285   4.189
 2930SOL    HW2 9690   3.017   6.165   4.285
 2931SOL     OW 9691   3.904   4.736   6.738
 2931SOL    HW1 9692   3.903   4.725   6.639
 2931SOL    HW2 9693   3.812   4.726   6.774
 2932SOL     OW 9694   1.346   4.588   2.053
 2932SOL    HW1 9695   1.322   4.651   2.127
 2932SOL    HW2 9696   1.440   4.557   2.066
 2933SOL     OW 9697   4.838   2.374   3.439
 2933SOL    HW1 9698   4.873   2.465   3.462
 2933SOL    HW2 9699   4.738   2.374   3.448
 2934SOL     OW 9700   2.106   0.954   0.734
 2934SOL    HW1 9701   2.196   0.921   0.763
 2934SOL    HW2 9702   2.079   0.908   0.650
 2935SOL     OW 9703   6.577   1.772   1.517
 2935SOL    HW1 9704   6.590   1.675   1.540
 2935SOL    HW2 9705   6.628   1.793   1.434
 2936SOL     OW 9706   3.385   5.502   0.650
 2936SOL    HW1 9707   3.353   5.597   0.641
 2936SOL    HW2 9708   3.418   5.469   0.562
 2937SOL     OW 9709   2.713   4.632   0.177
 2937SOL    HW1 9710   2.624   4.627   0.222
 2937SOL    HW2 9711   2.704   4.603   0.082
 2938SOL     OW 9712   5.426   4.725   5.283
 2938SOL    HW1 9713   5.477   4.661   5.340
 2938SOL    HW2 9714   5.467   4.816   5.291
 2939SOL     OW 9715   0.203   6.634   6.276
 2939SOL    HW1 9716   0.202   6.707   6.209
 2939SOL    HW2 9717   0.276   6.569   6.253
 2940SOL     OW 9718   4.033   7.008   5.305
 2940SOL    HW1 9719   4.067   6.955   5.227
 2940SOL    HW2 9720   3.999   6.946   5.376
 2941SOL     OW 9721   3.558   1.752   5.250
 2941SOL    HW1 9722   3.594   1.679   5.308
 2941SOL    HW2 9723   3.458   1.744   5.245
 2942SOL     OW 9724   3.656   6.334   4.410
 2942SOL    HW1 9725   3.677   6.430   4.427
 2942SOL    HW2 9726   3.692   6.277   4.484
 2943SOL     OW 9727   5.221   4.197   2.585
 2943SOL    HW1 9728   5.289   4.139   2.541
 2943SOL    HW2 9729   5.134   4.190   2.537
 2944SOL     OW 9730   4.532   6.306   6.980
 2944SOL    HW1 9731   4.516   6.380   0.020
 2944SOL    HW2 9732   4.445   6.268   6.950
 2945SOL     OW 9733   3.080   3.946   3.287
 2945SOL    HW1 9734   3.019   3.877   3.326
 2945SOL    HW2 9735   3.075   4.030   3.342
 2946SOL     OW 9736   0.378   5.919   5.971
 2946SOL    HW1 9737   0.386   5.955   5.878
 2946SOL    HW2 9738   0.296   5.957   6.014
 2947SOL     OW 9739   0.455   5.312   0.270
 2947SOL    HW1 9740   0.380   5.268   0.220
 2947SOL    HW2 9741   0.477   5.258   0.352
 2948SOL     OW 9742   5.910   4.028   5.486
 2948SOL    HW1 9743   5.859   4.114   5.477
 2948SOL    HW2 9744   5.848   3.954   5.509
 2949SOL     OW 9745   0.811   6.085   0.975
 2949SOL    HW1 9746   0.731   6.056   0.922
 2949SOL    HW2 9747   0.847   6.170   0.936
 2950SOL     OW 9748   5.065   3.509   4.715
 2950SOL    HW1 9749   5.145   3.540   4.663
 2950SOL    HW2 9750   5.047   3.574   4.789
 2951SOL     OW 9751   5.933   0.801   0.930
 2951SOL    HW1 9752   5.987   0.883   0.913
 2951SOL    HW2 9753   5.888   0.809   1.019
 2952SOL     OW 9754   1.075   3.924   1.781
 2952SOL    HW1 9755   1.040   3.860   1.849
 2952SOL    HW2 9756   1.050   4.018   1.806
 2953SOL     OW 9757   5.745   1.036   2.386
 2953SOL    HW1 9758   5.843   1.053   2.388
 2953SOL    HW2 9759   5.699   1.099   2.448
 2954SOL     OW 9760   6.042   6.132   1.079
 2954SOL    HW1 9761   5.992   6.045   1.085
 2954SOL    HW2 9762   6.126   6.126   1.132
 2955SOL     OW 9763   6.588   2.601   0.530
 2955SOL    HW1 9764   6.503   2.582   0.579
 2955SOL    HW2 9765   6.627   2.515   0.497
 2956SOL     OW 9766   6.597   5.231   3.003
 2956SOL    HW1 9767   6.518   5.182   3.040
 2956SOL    HW2 9768   6.566   5.302   2.940
 2957SOL     OW 9769   0.715   5.181   1.552
 2957SOL    HW1 9770   0.645   5.242   1.515
 2957SOL    HW2 9771   0.758   5.130   1.478
 2958SOL     OW 9772   3.518   4.977   6.743
 2958SOL    HW1 9773   3.557   4.922   6.817
 2958SOL    HW2 9774   3.583   4.983   6.667
 2959SOL     OW 9775   4.187   5.676   0.479
 2959SOL    HW1 9776   4.166   5.724   0.394
 2959SOL    HW2 9777   4.281   5.696   0.506
 2960SOL     OW 9778   2.753   1.528   0.095
 2960SOL    HW1 9779   2.728   1.481   0.011
 2960SOL    HW2 9780   2.734   1.470   0.173
 2961SOL     OW 9781   6.036   1.903   4.330
 2961SOL    HW1 9782   6.018   1.993   4.289
 2961SOL    HW2 9783   6.095   1.850   4.269
 2962SOL     OW 9784   4.137   0.738   2.648
 2962SOL    HW1 9785   4.156   0.774   2.740
 2962SOL    HW2 9786   4.141   0.638   2.650
 2963SOL     OW 9787   2.099   3.658   5.053
 2963SOL    HW1 9788   2.087   3.755   5.075
 2963SOL    HW2 9789   2.145   3.649   4.964
 2964SOL     OW 9790   2.834   6.058   0.266
 2964SOL    HW1 9791   2.889   5.996   0.210
 2964SOL    HW2 9792   2.737   6.037   0.255
 2965SOL     OW 9793   0.347   2.495   5.934
 2965SOL    HW1 9794   0.287   2.561   5.890
 2965SOL    HW2 9795   0.442   2.516   5.911
 2966SOL     OW 9796   4.899   4.502   3.533
 2966SOL    HW1 9797   4.812   4.487   3.580
 2966SOL    HW2 9798   4.942   4.585   3.568
 2967SOL     OW 9799   5.934   2.518   3.550
 2967SOL    HW1 9800   5.862   2.453   3.574
 2967SOL    HW2 9801   5.893   2.608   3.534
 2968SOL     OW 9802   6.538   3.481   3.391
 2968SOL    HW1 9803   6.535   3.577   3.421
 2968SOL    HW2 9804   6.578   3.425   3.463
 2969SOL     OW 9805   4.329   0.985   4.284
 2969SOL    HW1 9806   4.275   0.920   4.337
 2969SOL    HW2 9807   4.424   0.954   4.280
 2970SOL     OW 9808   1.058   4.564   6.205
 2970SOL    HW1 9809   1.029   4.652   6.168
 2970SOL    HW2 9810   1.115   4.516   6.137
 2971SOL     OW 9811   5.180   3.533   2.736
 2971SOL    HW1 9812   5.084   3.520   2.759
 2971SOL    HW2 9813   5.197   3.629   2.716
 2972SOL     OW 9814   1.047   4.558   5.881
 2972SOL    HW1 9815   1.121   4.609   5.838
 2972SOL    HW2 9816   1.049   4.464   5.848
 2973SOL     OW 9817   5.678   0.012   4.464
 2973SOL    HW1 9818   5.728   0.096   4.445
 2973SOL    HW2 9819   5.613   7.020   4.390
 2974SOL     OW 9820   0.168   4.067   2.130
 2974SOL    HW1 9821   0.167   4.164   2.104
 2974SOL    HW2 9822   0.173   4.059   2.229
 2975SOL     OW 9823   0.364   1.447   3.972
 2975SOL    HW1 9824   0.425   1.524   3.953
 2975SOL    HW2 9825   0.336   1.450   4.067
 2976SOL     OW 9826   2.310   6.411   1.846
 2976SOL    HW1 9827   2.384   6.436   1.909
 2976SOL    HW2 9828   2.294   6.313   1.852
 2977SOL     OW 9829   3.362   6.217   3.987
 2977SOL    HW1 9830   3.422   6.180   3.916
 2977SOL    HW2 9831   3.268   6.219   3.952
 2978SOL     OW 9832   3.797   0.098   6.518
 2978SOL    HW1 9833   3.884   0.107   6.565
 2978SOL    HW2 9834   3.754   0.011   6.544
 2979SOL     OW 9835   3.664   1.350   3.288
 2979SOL    HW1 9836   3.732   1.313   3.225
 2979SOL    HW2 9837   3.580   1.372   3.238
 2980SOL     OW 9838   7.016   5.957   4.027
 2980SOL    HW1 9839   0.034   5.868   4.019
 2980SOL    HW2 9840   6.958   5.973   3.947
 2981SOL     OW 9841   1.705   1.746   5.430
 2981SOL    HW1 9842   1.699   1.689   5.347
 2981SOL    HW2 9843   1.646   1.707   5.501
 2982SOL     OW 9844   5.149   6.182   2.478
 2982SOL    HW1 9845   5.239   6.161   2.516
 2982SOL    HW2 9846   5.103   6.249   2.537
 2983SOL     OW 9847   6.588   7.022   2.738
 2983SOL    HW1 9848   6.623   0.074   2.685
 2983SOL    HW2 9849   6.548   6.955   2.676
 2984SOL     OW 9850   5.599   4.709   1.724
 2984SOL    HW1 9851   5.595   4.799   1.682
 2984SOL    HW2 9852   5.507   4.670   1.731
 2985SOL     OW 9853   6.517   2.097   3.171
 2985SOL    HW1 9854   6.505   2.000   3.148
 2985SOL    HW2 9855   6.517   2.151   3.087
 2986SOL     OW 9856   2.305   3.745   5.285
 2986SOL    HW1 9857   2.358   3.823   5.250
 2986SOL    HW2 9858   2.250   3.707   5.211
 2987SOL     OW 9859   4.700   1.593   5.074
 2987SOL    HW1 9860   4.780   1.644   5.105
 2987SOL    HW2 9861   4.619   1.622   5.125
 2988SOL     OW 9862   0.735   6.438   1.978
 2988SOL    HW1 9863   0.649   6.425   1.929
 2988SOL    HW2 9864   0.786   6.352   1.981
 2989SOL     OW 9865   6.219   5.770   0.577
 2989SOL    HW1 9866   6.296   5.820   0.617
 2989SOL    HW2 9867   6.194   5.813   0.490
 2990SOL     OW 9868   3.231   1.007   1.525
 2990SOL    HW1 9869   3.257   1.096   1.487
 2990SOL    HW2 9870   3.131   1.003   1.532
 2991SOL     OW 9871   6.156   4.639   0.148
 2991SOL    HW1 9872   6.085   4.610   0.212
 2991SOL    HW2 9873   6.204   4.559   0.114
 2992SOL     OW 9874   4.373   4.580   6.727
 2992SOL    HW1 9875   4.452   4.524   6.754
 2992SOL    HW2 9876   4.290   4.540   6.765
 2993SOL     OW 9877   1.931   4.981   0.230
 2993SOL    HW1 9878   1.961   4.888   0.249
 2993SOL    HW2 9879   1.915   5.029   0.316
 2994SOL     OW 9880   4.022   6.357   6.974
 2994SOL    HW1 9881   3.983   6.283   0.004
 2994SOL    HW2 9882   3.954   6.429   6.961
 2995SOL     OW 9883   2.638   1.225   5.560
 2995SOL    HW1 9884   2.613   1.140   5.514
 2995SOL    HW2 9885   2.701   1.277   5.502
 2996SOL     OW 9886   4.226   5.783   5.684
 2996SOL    HW1 9887   4.143   5.727   5.689
 2996SOL    HW2 9888   4.246   5.804   5.588
 2997SOL     OW 9889   4.557   6.050   0.590
 2997SOL    HW1 9890   4.648   6.056   0.547
 2997SOL    HW2 9891   4.523   6.142   0.608
 2998SOL     OW 9892   6.053   5.296   5.361
 2998SOL    HW1 9893   6.046   5.198   5.343
 2998SOL    HW2 9894   6.054   5.346   5.274
 2999SOL     OW 9895   2.835   0.238   2.443
 2999SOL    HW1 9896   2.914   0.223   2.383
 2999SOL    HW2 9897   2.812   0.152   2.489
 3000SOL     OW 9898   1.229   2.031   4.485
 3000SOL    HW1 9899   1.297   2.061   4.552
 3000SOL    HW2 9900   1.244   1.935   4.463
 3001SOL     OW 9901   4.841   6.600   5.616
 3001SOL    HW1 9902   4.889   6.654   5.547
 3001SOL    HW2 9903   4.745   6.630   5.620
 3002SOL     OW 9904   3.080   0.742   5.882
 3002SOL    HW1 9905   3.065   0.697   5.970
 3002SOL    HW2 9906   3.097   0.840   5.896
 3003SOL     OW 9907   2.439   0.114   6.074
 3003SOL    HW1 9908   2.475   0.136   6.165
 3003SOL    HW2 9909   2.423   0.016   6.067
 3004SOL     OW 9910   6.568   3.176   5.375
 3004SOL    HW1 9911   6.497   3.235   5.413
 3004SOL    HW2 9912   6.594   3.208   5.283
 3005SOL     OW 9913   4.420   2.438   1.055
 3005SOL    HW1 9914   4.506   2.387   1.052
 3005SOL    HW2 9915   4.421   2.501   1.132
 3006SOL     OW 9916   4.697   0.183   1.005
 3006SOL    HW1 9917   4.753   0.164   0.924
 3006SOL    HW2 9918   4.684   0.098   1.057
 3007SOL     OW 9919   6.315   5.260   1.846
 3007SOL    HW1 9920   6.367   5.310   1.778
 3007SOL    HW2 9921   6.339   5.293   1.938
 3008SOL     OW 9922   5.203   6.054   5.208
 3008SOL    HW1 9923   5.228   5.974   5.153
 3008SOL    HW2 9924   5.264   6.059   5.287
 3009SOL     OW 9925   1.549   0.805   2.612
 3009SOL    HW1 9926   1.532   0.815   2.710
 3009SOL    HW2 9927   1.502   0.724   2.578
 3010SOL     OW 9928   2.779   6.723   2.790
 3010SOL    HW1 9929   2.699   6.782   2.805
 3010SOL    HW2 9930   2.841   6.729   2.868
 3011SOL     OW 9931   5.660   0.543   0.087
 3011SOL    HW1 9932   5.744   0.580   0.127
 3011SOL    HW2 9933   5.678   0.451   0.051
 3012SOL     OW 9934   6.891   4.363   1.879
 3012SOL    HW1 9935   6.803   4.330   1.846
 3012SOL    HW2 9936   6.901   4.460   1.858
 3013SOL     OW 9937   6.262   3.609   2.125
 3013SOL    HW1 9938   6.355   3.603   2.163
 3013SOL    HW2 9939   6.249   3.700   2.085
 3014SOL     OW 9940   5.264   0.310   5.053
 3014SOL    HW1 9941   5.221   0.328   4.964
 3014SOL    HW2 9942   5.228   0.374   5.121
 3015SOL     OW 9943   3.200   1.508   0.080
 3015SOL    HW1 9944   3.245   1.448   0.014
 3015SOL    HW2 9945   3.270   1.551   0.138
 3016SOL     OW 9946   3.898   5.979   3.347
 3016SOL    HW1 9947   3.884   5.889   3.306
 3016SOL    HW2 9948   3.992   6.009   3.329
 3017SOL     OW 9949   6.925   5.826   1.355
 3017SOL    HW1 9950   6.884   5.885   1.424
 3017SOL    HW2 9951   6.914   5.730   1.382
 3018SOL     OW 9952   3.852   0.044   6.006
 3018SOL    HW1 9953   3.919   0.107   5.967
 3018SOL    HW2 9954   3.887   0.007   6.092
 3019SOL     OW 9955   5.236   6.746   2.059
 3019SOL    HW1 9956   5.136   6.751   2.050
 3019SOL    HW2 9957   5.274   6.693   1.984
 3020SOL     OW 9958   2.333   0.848   1.456
 3020SOL    HW1 9959   2.371   0.874   1.367
 3020SOL    HW2 9960   2.408   0.832   1.520
 3021SOL     OW 9961   4.316   0.901   6.090
 3021SOL    HW1 9962   4.257   0.981   6.075
 3021SOL    HW2 9963   4.411   0.929   6.081
 3022SOL     OW 9964   6.481   0.113   2.227
 3022SOL    HW1 9965   6.472   0.014   2.211
 3022SOL    HW2 9966   6.562   0.147   2.180
 3023SOL     OW 9967   5.653   0.045   1.586
 3023SOL    HW1 9968   5.570   0.001   1.550
 3023SOL    HW2 9969   5.693   0.103   1.515
 3024SOL     OW 9970   3.451   7.004   6.331
 3024SOL    HW1 9971   3.528   0.034   6.299
 3024SOL    HW2 9972   3.367   0.033   6.329
 3025SOL     OW 9973   2.241   2.540   1.929
 3025SOL    HW1 9974   2.202   2.451   1.909
 3025SOL    HW2 9975   2.175   2.594   1.982
 3026SOL     OW 9976   2.297   5.527   0.141
 3026SOL    HW1 9977   2.199   5.517   0.125
 3026SOL    HW2 9978   2.331   5.604   0.088
 3027SOL     OW 9979   1.439   1.296   3.820
 3027SOL    HW1 9980   1.421   1.222   3.756
 3027SOL    HW2 9981   1.528   1.337   3.798
 3028SOL     OW 9982   1.157   0.624   4.133
 3028SOL    HW1 9983   1.132   0.637   4.229
 3028SOL    HW2 9984   1.153   0.712   4.085
 3029SOL     OW 9985   5.535   5.213   6.157
 3029SOL    HW1 9986   5.569   5.269   6.082
 3029SOL    HW2 9987   5.578   5.123   6.153
 3030SOL     OW 9988   1.117   1.564   5.672
 3030SOL    HW1 9989   1.057   1.486   5.693
 3030SOL    HW2 9990   1.123   1.575   5.573
 3031SOL     OW 9991   0.708   5.204   6.572
 3031SOL    HW1 9992   0.608   5.212   6.578
 3031SOL    HW2 9993   0.734   5.107   6.580
 3032SOL     OW 9994   3.866   6.900   5.517
 3032SOL    HW1 9995   3.814   6.984   5.529
 3032SOL    HW2 9996   3.804   6.826   5.489
 3033SOL     OW 9997   5.723   4.974   5.810
 3033SOL    HW1 9998   5.633   4.934   5.794
 3033SOL    HW2 9999   5.743   5.041   5.739
 3034SOL     OW10000   2.771   6.713   4.250
 3034SOL    HW110001   2.721   6.781   4.196
 3034SOL    HW210002   2.859   6.750   4.278
 3035SOL     OW10003   6.687   6.863   6.609
 3035SOL    HW110004   6.664   6.766   6.597
 3035SOL    HW210005   6.641   6.898   6.690
 3036SOL     OW10006   0.788   4.796   5.511
 3036SOL    HW110007   0.794   4.826   5.607
 3036SOL    HW210008   0.716   4.847   5.465
 3037SOL     OW10009   6.293   6.916   5.660
 3037SOL    HW110010   6.301   6.817   5.670
 3037SOL    HW210011   6.226   6.937   5.589
 3038SOL     OW10012   5.994   6.584   5.719
 3038SOL    HW110013   5.981   6.490   5.749
 3038SOL    HW210014   6.091   6.602   5.704
 3039SOL     OW10015   0.083   4.833   0.042
 3039SOL    HW110016   0.018   4.884   0.098
 3039SOL    HW210017   0.040   4.810   6.980
 3040SOL     OW10018   2.198   1.868   0.017
 3040SOL    HW110019   2.172   1.960   7.013
 3040SOL    HW210020   2.287   1.871   0.063
 3041SOL     OW10021   1.350   2.507   5.977
 3041SOL    HW110022   1.435   2.546   6.010
 3041SOL    HW210023   1.353   2.501   5.877
 3042SOL     OW10024   5.512   6.828   2.001
 3042SOL    HW110025   5.459   6.911   1.986
 3042SOL    HW210026   5.450   6.749   2.004
 3043SOL     OW10027   6.524   4.971   6.950
 3043SOL    HW110028   6.475   5.053   6.919
 3043SOL    HW210029   6.562   4.986   0.015
 3044SOL     OW10030   2.799   3.346   5.816
 3044SOL    HW110031   2.866   3.300   5.758
 3044SOL    HW210032   2.833   3.437   5.839
 3045SOL     OW10033   5.304   2.116   4.449
 3045SOL    HW110034   5.253   2.202   4.461
 3045SOL    HW210035   5.394   2.125   4.491
 3046SOL     OW10036   1.886   2.384   6.320
 3046SOL    HW110037   1.905   2.286   6.324
 3046SOL    HW210038   1.968   2.433   6.293
 3047SOL     OW10039   6.845   4.644   1.766
 3047SOL    HW110040   6.900   4.724   1.792
 3047SOL    HW210041   6.817   4.653   1.670
 3048SOL     OW10042   3.067   2.602   1.677
 3048SOL    HW110043   3.051   2.526   1.614
 3048SOL    HW210044   3.032   2.579   1.767
 3049SOL     OW10045   1.017   0.489   1.395
 3049SOL    HW110046   0.970   0.453   1.314
 3049SOL    HW210047   1.009   0.589   1.396
 3050SOL     OW10048   2.173   6.749   3.968
 3050SOL    HW110049   2.195   6.655   3.941
 3050SOL    HW210050   2.082   6.773   3.934
 3051SOL     OW10051   2.644   4.233   5.640
 3051SOL    HW110052   2.616   4.292   5.716
 3051SOL    HW210053   2.671   4.143   5.675
 3052SOL     OW10054   5.039   6.698   2.929
 3052SOL    HW110055   5.037   6.601   2.954
 3052SOL    HW210056   4.946   6.733   2.922
 3053SOL     OW10057   4.711   6.821   1.615
 3053SOL    HW110058   4.772   6.759   1.665
 3053SOL    HW210059   4.765   6.876   1.552
 3054SOL     OW10060   1.982   4.260   5.476
 3054SOL    HW110061   1.953   4.177   5.428
 3054SOL    HW210062   2.081   4.257   5.491
 3055SOL     OW10063   5.884   6.516   2.667
 3055SOL    HW110064   5.833   6.534   2.751
 3055SOL    HW210065   5.954   6.447   2.684
 3056SOL     OW10066   6.222   0.791   1.620
 3056SOL    HW110067   6.253   0.758   1.709
 3056SOL    HW210068   6.133   0.837   1.632
 3057SOL     OW10069   6.552   6.052   2.654
 3057SOL    HW110070   6.467   6.013   2.618
 3057SOL    HW210071   6.544   6.065   2.753
 3058SOL     OW10072   6.444   5.237   1.441
 3058SOL    HW110073   6.485   5.168   1.381
 3058SOL    HW210074   6.344   5.229   1.438
 3059SOL     OW10075   2.056   2.740   5.338
 3059SOL    HW110076   2.080   2.826   5.294
 3059SOL    HW210077   2.129   2.712   5.400
 3060SOL     OW10078   0.184   6.331   0.451
 3060SOL    HW110079   0.134   6.372   0.527
 3060SOL    HW210080   0.235   6.403   0.403
 3061SOL     OW10081   0.500   0.632   5.855
 3061SOL    HW110082   0.409   0.590   5.855
 3061SOL    HW210083   0.503   0.704   5.925
 3062SOL     OW10084   3.206   5.457   6.104
 3062SOL    HW110085   3.253   5.456   6.192
 3062SOL    HW210086   3.149   5.375   6.095
 3063SOL     OW10087   2.321   5.843   0.480
 3063SOL    HW110088   2.419   5.859   0.488
 3063SOL    HW210089   2.274   5.929   0.460
 3064SOL     OW10090   6.819   4.580   3.714
 3064SOL    HW110091   6.759   4.634   3.656
 3064SOL    HW210092   6.792   4.484   3.710
 3065SOL     OW10093   2.831   1.058   1.265
 3065SOL    HW110094   2.924   1.035   1.235
 3065SOL    HW210095   2.815   1.156   1.251
 3066SOL     OW10096   5.318   5.880   0.708
 3066SOL    HW110097   5.343   5.881   0.611
 3066SOL    HW210098   5.307   5.785   0.739
 3067SOL     OW10099   4.222   6.734   3.202
 3067SOL    HW110100   4.248   6.810   3.143
 3067SOL    HW210101   4.190   6.657   3.146
 3068SOL     OW10102   5.667   4.585   0.447
 3068SOL    HW110103   5.601   4.605   0.519
 3068SOL    HW210104   5.675   4.486   0.436
 3069SOL     OW10105   0.705   5.166   3.875
 3069SOL    HW110106   0.639   5.101   3.913
 3069SOL    HW210107   0.770   5.118   3.817
 3070SOL     OW10108   3.909   1.552   4.620
 3070SOL    HW110109   3.914   1.651   4.607
 3070SOL    HW210110   3.964   1.506   4.549
 3071SOL     OW10111   5.343   7.001   3.985
 3071SOL    HW110112   5.291   0.016   4.059
 3071SOL    HW210113   5.300   6.916   3.956
 3072SOL     OW10114   0.901   0.560   1.770
 3072SOL    HW110115   0.916   0.640   1.712
 3072SOL    HW210116   0.828   0.505   1.731
 3073SOL     OW10117   1.635   2.420   4.637
 3073SOL    HW110118   1.684   2.335   4.658
 3073SOL    HW210119   1.656   2.488   4.706
 3074SOL     OW10120   4.627   3.503   5.958
 3074SOL    HW110121   4.631   3.425   5.895
 3074SOL    HW210122   4.716   3.516   6.001
 3075SOL     OW10123   6.868   6.014   0.755
 3075SOL    HW110124   6.843   6.101   0.713
 3075SOL    HW210125   6.913   5.955   0.688
 3076SOL     OW10126   0.562   0.729   5.047
 3076SOL    HW110127   0.648   0.780   5.047
 3076SOL    HW210128   0.576   0.640   5.004
 3077SOL     OW10129   5.441   4.267   4.124
 3077SOL    HW110130   5.385   4.204   4.178
 3077SOL    HW210131   5.434   4.359   4.161
 3078SOL     OW10132   2.210   2.784   0.237
 3078SOL    HW110133   2.120   2.794   0.281
 3078SOL    HW210134   2.243   2.874   0.210
 3079SOL     OW10135   5.540   2.554   6.403
 3079SOL    HW110136   5.530   2.547   6.502
 3079SOL    HW210137   5.481   2.487   6.359
 3080SOL     OW10138   6.108   6.453   1.131
 3080SOL    HW110139   6.139   6.544   1.104
 3080SOL    HW210140   6.170   6.415   1.199
 3081SOL     OW10141   0.108   4.590   5.930
 3081SOL    HW110142   0.044   4.651   5.975
 3081SOL    HW210143   0.132   4.628   5.840
 3082SOL     OW10144   2.137   0.062   2.018
 3082SOL    HW110145   2.214   0.004   1.994
 3082SOL    HW210146   2.132   0.139   1.954
 3083SOL     OW10147   3.519   0.471   2.249
 3083SOL    HW110148   3.469   0.506   2.328
 3083SOL    HW210149   3.499   0.529   2.169
 3084SOL     OW10150   4.607   6.417   3.880
 3084SOL    HW110151   4.561   6.379   3.800
 3084SOL    HW210152   4.548   6.486   3.922
 3085SOL     OW10153   1.090   5.452   1.874
 3085SOL    HW110154   1.165   5.519   1.877
 3085SOL    HW210155   1.005   5.498   1.849
 3086SOL     OW10156   5.831   1.931   3.943
 3086SOL    HW110157   5.774   1.911   3.863
 3086SOL    HW210158   5.789   2.004   3.996
 3087SOL     OW10159   5.656   3.746   2.177
 3087SOL    HW110160   5.571   3.743   2.124
 3087SOL    HW210161   5.723   3.802   2.130
 3088SOL     OW10162   2.904   3.780   6.436
 3088SOL    HW110163   2.935   3.685   6.432
 3088SOL    HW210164   2.918   3.816   6.528
 3089SOL     OW10165   2.838   2.099   0.850
 3089SOL    HW110166   2.776   2.172   0.878
 3089SOL    HW210167   2.932   2.133   0.851
 3090SOL     OW10168   0.016   1.840   1.249
 3090SOL    HW110169   0.104   1.872   1.216
 3090SOL    HW210170   0.020   1.826   1.348
 3091SOL     OW10171   2.492   6.839   0.582
 3091SOL    HW110172   2.556   6.775   0.540
 3091SOL    HW210173   2.431   6.789   0.644
 3092SOL     OW10174   4.155   6.197   0.616
 3092SOL    HW110175   4.193   6.187   0.524
 3092SOL    HW210176   4.198   6.276   0.661
 3093SOL     OW10177   4.933   6.000   3.844
 3093SOL    HW110178   4.863   6.021   3.912
 3093SOL    HW210179   5.021   6.035   3.875
 3094SOL     OW10180   3.143   5.542   5.737
 3094SOL    HW110181   3.126   5.630   5.692
 3094SOL    HW210182   3.218   5.552   5.802
 3095SOL     OW10183   2.189   4.884   4.868
 3095SOL    HW110184   2.107   4.827   4.863
 3095SOL    HW210185   2.264   4.829   4.906
 3096SOL     OW10186   0.139   0.635   5.560
 3096SOL    HW110187   0.115   0.557   5.618
 3096SOL    HW210188   0.079   0.712   5.582
 3097SOL     OW10189   1.657   2.266   0.279
 3097SOL    HW110190   1.675   2.278   0.377
 3097SOL    HW210191   1.615   2.348   0.242
 3098SOL     OW10192   4.021   2.317   0.559
 3098SOL    HW110193   4.028   2.330   0.460
 3098SOL    HW210194   3.936   2.357   0.592
 3099SOL     OW10195   1.129   5.840   5.347
 3099SOL    HW110196   1.141   5.857   5.249
 3099SOL    HW210197   1.165   5.917   5.399
 3100SOL     OW10198   5.858   6.300   6.609
 3100SOL    HW110199   5.834   6.372   6.674
 3100SOL    HW210200   5.910   6.229   6.656
 3101SOL     OW10201   4.289   0.115   1.217
 3101SOL    HW110202   4.246   0.025   1.210
 3101SOL    HW210203   4.219   0.183   1.242
 3102SOL     OW10204   0.633   5.897   0.498
 3102SOL    HW110205   0.641   5.988   0.456
 3102SOL    HW210206   0.551   5.851   0.464
 3103SOL     OW10207   4.178   3.716   1.813
 3103SOL    HW110208   4.212   3.808   1.791
 3103SOL    HW210209   4.078   3.715   1.809
 3104SOL     OW10210   6.174   5.733   3.897
 3104SOL    HW110211   6.228   5.668   3.950
 3104SOL    HW210212   6.176   5.823   3.941
 3105SOL     OW10213   5.890   5.762   3.306
 3105SOL    HW110214   5.965   5.739   3.245
 3105SOL    HW210215   5.812   5.794   3.252
 3106SOL     OW10216   0.033   3.184   4.667
 3106SOL    HW110217   0.052   3.212   4.573
 3106SOL    HW210218   0.105   3.123   4.700
 3107SOL     OW10219   3.082   6.525   3.841
 3107SOL    HW110220   3.025   6.572   3.774
 3107SOL    HW210221   3.066   6.565   3.932
 3108SOL     OW10222   3.538   1.047   3.068
 3108SOL    HW110223   3.592   0.995   3.135
 3108SOL    HW210224   3.452   1.076   3.110
 3109SOL     OW10225   4.997   5.740   3.250
 3109SOL    HW110226   4.933   5.806   3.210
 3109SOL    HW210227   4.946   5.663   3.287
 3110SOL     OW10228   1.270   3.034   1.834
 3110SOL    HW110229   1.347   2.980   1.867
 3110SOL    HW210230   1.294   3.076   1.747
 3111SOL     OW10231   6.475   4.841   2.788
 3111SOL    HW110232   6.383   4.880   2.792
 3111SOL    HW210233   6.543   4.914   2.790
 3112SOL     OW10234   2.603   3.801   6.365
 3112SOL    HW110235   2.645   3.733   6.425
 3112SOL    HW210236   2.672   3.834   6.300
 3113SOL     OW10237   4.142   6.433   4.430
 3113SOL    HW110238   4.130   6.345   4.385
 3113SOL    HW210239   4.173   6.500   4.363
 3114SOL     OW10240   5.519   5.686   0.943
 3114SOL    HW110241   5.431   5.652   0.911
 3114SOL    HW210242   5.561   5.742   0.872
 3115SOL     OW10243   2.612   3.366   1.787
 3115SOL    HW110244   2.682   3.412   1.840
 3115SOL    HW210245   2.524   3.413   1.798
 3116SOL     OW10246   0.446   1.669   0.146
 3116SOL    HW110247   0.391   1.726   0.086
 3116SOL    HW210248   0.444   1.574   0.113
 3117SOL     OW10249   3.986   3.912   5.583
 3117SOL    HW110250   3.905   3.858   5.561
 3117SOL    HW210251   4.000   3.981   5.512
 3118SOL     OW10252   5.713   5.237   6.776
 3118SOL    HW110253   5.700   5.259   6.873
 3118SOL    HW210254   5.664   5.305   6.720
 3119SOL     OW10255   2.228   5.012   6.410
 3119SOL    HW110256   2.164   4.953   6.361
 3119SOL    HW210257   2.235   4.981   6.505
 3120SOL     OW10258   2.307   6.024   6.093
 3120SOL    HW110259   2.210   6.027   6.070
 3120SOL    HW210260   2.333   6.109   6.138
 3121SOL     OW10261   0.328   6.200   3.192
 3121SOL    HW110262   0.297   6.154   3.275
 3121SOL    HW210263   0.354   6.131   3.123
 3122SOL     OW10264   2.896   5.758   0.690
 3122SOL    HW110265   2.799   5.774   0.706
 3122SOL    HW210266   2.945   5.762   0.777
 3123SOL     OW10267   3.727   6.570   4.520
 3123SOL    HW110268   3.658   6.634   4.553
 3123SOL    HW210269   3.798   6.558   4.589
 3124SOL     OW10270   3.808   0.580   6.263
 3124SOL    HW110271   3.905   0.566   6.284
 3124SOL    HW210272   3.793   0.564   6.165
 3125SOL     OW10273   0.008   1.918   5.804
 3125SOL    HW110274   0.050   1.918   5.713
 3125SOL    HW210275   7.021   2.012   5.835
 3126SOL     OW10276   3.695   6.335   0.112
 3126SOL    HW110277   3.753   6.258   0.140
 3126SOL    HW210278   3.681   6.396   0.190
 3127SOL     OW10279   1.240   1.283   3.522
 3127SOL    HW110280   1.180   1.364   3.529
 3127SOL    HW210281   1.303   1.296   3.445
 3128SOL     OW10282   1.517   0.783   0.806
 3128SOL    HW110283   1.602   0.835   0.808
 3128SOL    HW210284   1.474   0.793   0.716
 3129SOL     OW10285   1.884   3.093   3.598
 3129SOL    HW110286   1.947   3.073   3.674
 3129SOL    HW210287   1.882   3.191   3.582
 3130SOL     OW10288   2.123   5.915   3.484
 3130SOL    HW110289   2.172   6.002   3.479
 3130SOL    HW210290   2.028   5.932   3.510
 3131SOL     OW10291   0.657   3.630   4.291
 3131SOL    HW110292   0.703   3.544   4.313
 3131SOL    HW210293   0.558   3.619   4.303
 3132SOL     OW10294   5.438   5.464   5.038
 3132SOL    HW110295   5.383   5.435   5.116
 3132SOL    HW210296   5.511   5.397   5.022
 3133SOL     OW10297   2.515   1.776   3.254
 3133SOL    HW110298   2.562   1.789   3.341
 3133SOL    HW210299   2.427   1.824   3.255
 3134SOL     OW10300   5.577   2.855   1.783
 3134SOL    HW110301   5.478   2.851   1.771
 3134SOL    HW210302   5.605   2.949   1.801
 3135SOL     OW10303   2.628   1.820   3.497
 3135SOL    HW110304   2.699   1.754   3.518
 3135SOL    HW210305   2.568   1.832   3.576
 3136SOL     OW10306   6.409   0.045   4.961
 3136SOL    HW110307   6.448   7.006   4.895
 3136SOL    HW210308   6.473   0.057   5.037
 3137SOL     OW10309   0.297   1.432   4.956
 3137SOL    HW110310   0.392   1.414   4.929
 3137SOL    HW210311   0.287   1.416   5.054
 3138SOL     OW10312   5.457   1.748   4.539
 3138SOL    HW110313   5.511   1.691   4.600
 3138SOL    HW210314   5.360   1.723   4.545
 3139SOL     OW10315   4.989   5.949   4.890
 3139SOL    HW110316   5.061   5.977   4.827
 3139SOL    HW210317   5.003   5.853   4.916
 3140SOL     OW10318   6.240   5.929   6.366
 3140SOL    HW110319   6.219   6.023   6.392
 3140SOL    HW210320   6.175   5.867   6.410
 3141SOL     OW10321   0.827   5.642   0.892
 3141SOL    HW110322   0.827   5.571   0.963
 3141SOL    HW210323   0.920   5.653   0.856
 3142SOL     OW10324   3.599   6.735   0.061
 3142SOL    HW110325   3.514   6.734   0.008
 3142SOL    HW210326   3.608   6.823   0.108
 3143SOL     OW10327   0.356   1.645   0.973
 3143SOL    HW110328   0.408   1.563   1.001
 3143SOL    HW210329   0.357   1.711   1.048
 3144SOL     OW10330   1.654   3.073   6.781
 3144SOL    HW110331   1.703   2.987   6.791
 3144SOL    HW210332   1.563   3.064   6.821
 3145SOL     OW10333   3.098   5.368   3.745
 3145SOL    HW110334   3.021   5.414   3.789
 3145SOL    HW210335   3.065   5.315   3.667
 3146SOL     OW10336   2.147   0.299   3.732
 3146SOL    HW110337   2.118   0.209   3.700
 3146SOL    HW210338   2.196   0.346   3.659
 3147SOL     OW10339   3.846   4.620   0.740
 3147SOL    HW110340   3.897   4.686   0.684
 3147SOL    HW210341   3.875   4.527   0.717
 3148SOL     OW10342   3.426   5.850   4.930
 3148SOL    HW110343   3.498   5.837   4.862
 3148SOL    HW210344   3.400   5.761   4.968
 3149SOL     OW10345   2.796   6.417   6.034
 3149SOL    HW110346   2.894   6.440   6.029
 3149SOL    HW210347   2.743   6.494   6.000
 3150SOL     OW10348   0.169   0.241   4.118
 3150SOL    HW110349   0.226   0.193   4.052
 3150SOL    HW210350   0.096   0.291   4.069
 3151SOL     OW10351   4.109   6.915   0.932
 3151SOL    HW110352   4.031   6.854   0.939
 3151SOL    HW210353   4.078   7.006   0.905
 3152SOL     OW10354   1.564   4.777   0.016
 3152SOL    HW110355   1.474   4.790   7.000
 3152SOL    HW210356   1.635   4.799   6.975
 3153SOL     OW10357   6.988   4.401   2.860
 3153SOL    HW110358   0.016   4.317   2.859
 3153SOL    HW210359   6.961   4.424   2.767
 3154SOL     OW10360   5.629   2.114   6.400
 3154SOL    HW110361   5.709   2.097   6.342
 3154SOL    HW210362   5.546   2.109   6.344
 3155SOL     OW10363   4.348   6.153   0.402
 3155SOL    HW110364   4.335   6.165   0.304
 3155SOL    HW210365   4.396   6.067   0.420
 3156SOL     OW10366   3.324   3.211   2.953
 3156SOL    HW110367   3.242   3.154   2.964
 3156SOL    HW210368   3.309   3.277   2.880
 3157SOL     OW10369   1.948   3.002   5.062
 3157SOL    HW110370   1.902   3.090   5.053
 3157SOL    HW210371   2.032   3.015   5.115
 3158SOL     OW10372   4.696   6.171   1.392
 3158SOL    HW110373   4.774   6.205   1.444
 3158SOL    HW210374   4.727   6.104   1.325
 3159SOL     OW10375   5.240   4.493   0.514
 3159SOL    HW110376   5.184   4.446   0.446
 3159SOL    HW210377   5.322   4.439   0.532
 3160SOL     OW10378   5.810   4.733   0.640
 3160SOL    HW110379   5.752   4.689   0.571
 3160SOL    HW210380   5.895   4.764   0.596
 3161SOL     OW10381   0.778   1.586   3.271
 3161SOL    HW110382   0.851   1.596   3.203
 3161SOL    HW210383   0.746   1.676   3.299
 3162SOL     OW10384   6.455   0.222   6.131
 3162SOL    HW110385   6.407   0.286   6.072
 3162SOL    HW210386   6.514   0.272   6.194
 3163SOL     OW10387   2.221   4.626   5.776
 3163SOL    HW110388   2.231   4.581   5.687
 3163SOL    HW210389   2.157   4.573   5.832
 3164SOL     OW10390   6.254   5.295   6.194
 3164SOL    HW110391   6.201   5.298   6.110
 3164SOL    HW210392   6.281   5.201   6.213
 3165SOL     OW10393   0.315   2.518   1.718
 3165SOL    HW110394   0.395   2.476   1.761
 3165SOL    HW210395   0.238   2.455   1.722
 3166SOL     OW10396   4.594   2.983   6.126
 3166SOL    HW110397   4.625   2.893   6.095
 3166SOL    HW210398   4.544   2.974   6.212
 3167SOL     OW10399   0.132   4.038   1.654
 3167SOL    HW110400   0.099   3.999   1.568
 3167SOL    HW210401   0.079   4.119   1.677
 3168SOL     OW10402   5.678   3.046   0.665
 3168SOL    HW110403   5.743   3.064   0.591
 3168SOL    HW210404   5.723   2.996   0.738
 3169SOL     OW10405   1.880   2.348   4.986
 3169SOL    HW110406   1.971   2.369   5.023
 3169SOL    HW210407   1.821   2.316   5.060
 3170SOL     OW10408   4.170   0.198   5.449
 3170SOL    HW110409   4.178   0.280   5.393
 3170SOL    HW210410   4.110   0.132   5.404
 3171SOL     OW10411   6.422   6.688   3.185
 3171SOL    HW110412   6.385   6.773   3.221
 3171SOL    HW210413   6.508   6.707   3.137
 3172SOL     OW10414   6.002   0.040   5.585
 3172SOL    HW110415   6.004   7.013   5.670
 3172SOL    HW210416   5.936   0.114   5.593
 3173SOL     OW10417   2.308   1.154   1.714
 3173SOL    HW110418   2.237   1.171   1.645
 3173SOL    HW210419   2.316   1.234   1.774
 3174SOL     OW10420   2.259   3.470   6.798
 3174SOL    HW110421   2.230   3.554   6.843
 3174SOL    HW210422   2.216   3.391   6.843
 3175SOL     OW10423   6.760   6.074   0.137
 3175SOL    HW110424   6.688   6.025   0.088
 3175SOL    HW210425   6.844   6.072   0.083
 3176SOL     OW10426   1.034   5.836   6.613
 3176SOL    HW110427   0.946   5.861   6.654
 3176SOL    HW210428   1.046   5.737   6.618
 3177SOL     OW10429   1.121   0.015   3.894
 3177SOL    HW110430   1.062   0.064   3.959
 3177SOL    HW210431   1.123   0.064   3.807
 3178SOL     OW10432   2.644   3.501   6.961
 3178SOL    HW110433   2.595   3.474   6.878
 3178SOL    HW210434   2.699   3.582   6.943
 3179SOL     OW10435   1.065   2.288   3.914
 3179SOL    HW110436   1.032   2.243   3.996
 3179SOL    HW210437   1.164   2.277   3.907
 3180SOL     OW10438   6.085   1.180   6.422
 3180SOL    HW110439   6.145   1.222   6.490
 3180SOL    HW210440   6.042   1.099   6.462
 3181SOL     OW10441   0.539   1.555   2.666
 3181SOL    HW110442   0.577   1.557   2.573
 3181SOL    HW210443   0.604   1.596   2.729
 3182SOL     OW10444   1.606   4.586   5.574
 3182SOL    HW110445   1.644   4.506   5.528
 3182SOL    HW210446   1.644   4.592   5.667
 3183SOL     OW10447   4.586   2.867   1.316
 3183SOL    HW110448   4.529   2.792   1.350
 3183SOL    HW210449   4.616   2.847   1.223
 3184SOL     OW10450   0.872   2.208   3.718
 3184SOL    HW110451   0.905   2.216   3.624
 3184SOL    HW210452   0.949   2.218   3.782
 3185SOL     OW10453   0.447   6.343   0.137
 3185SOL    HW110454   0.466   6.254   0.179
 3185SOL    HW210455   0.519   6.366   0.072
 3186SOL     OW10456   3.214   0.741   1.760
 3186SOL    HW110457   3.130   0.767   1.713
 3186SOL    HW210458   3.227   0.799   1.840
 3187SOL     OW10459   2.746   4.275   6.879
 3187SOL    HW110460   2.759   4.183   6.916
 3187SOL    HW210461   2.677   4.323   6.934
 3188SOL     OW10462   3.988   6.925   3.077
 3188SOL    HW110463   3.973   7.015   3.117
 3188SOL    HW210464   4.080   6.921   3.038
 3189SOL     OW10465   6.689   6.704   2.237
 3189SOL    HW110466   6.764   6.671   2.178
 3189SOL    HW210467   6.629   6.627   2.258
 3190SOL     OW10468   0.878   6.948   1.385
 3190SOL    HW110469   0.836   6.924   1.297
 3190SOL    HW210470   0.829   6.902   1.459
 3191SOL     OW10471   3.412   0.741   0.337
 3191SOL    HW110472   3.332   0.755   0.394
 3191SOL    HW210473   3.388   0.755   0.241
 3192SOL     OW10474   5.710   2.337   3.652
 3192SOL    HW110475   5.736   2.247   3.686
 3192SOL    HW210476   5.636   2.329   3.585
 3193SOL     OW10477   5.102   4.334   1.103
 3193SOL    HW110478   5.043   4.305   1.178
 3193SOL    HW210479   5.148   4.420   1.128
 3194SOL     OW10480   1.702   4.887   5.244
 3194SOL    HW110481   1.704   4.846   5.335
 3194SOL    HW210482   1.786   4.940   5.230
 3195SOL     OW10483   0.487   4.312   3.474
 3195SOL    HW110484   0.471   4.213   3.469
 3195SOL    HW210485   0.412   4.360   3.428
 3196SOL     OW10486   0.292   6.974   5.678
 3196SOL    HW110487   0.351   6.902   5.716
 3196SOL    HW210488   0.250   7.025   5.753
 3197SOL     OW10489   0.485   4.384   4.666
 3197SOL    HW110490   0.429   4.463   4.690
 3197SOL    HW210491   0.463   4.353   4.573
 3198SOL     OW10492   5.752   6.533   0.283
 3198SOL    HW110493   5.804   6.514   0.366
 3198SOL    HW210494   5.777   6.468   0.212
 3199SOL     OW10495   3.613   1.739   3.387
 3199SOL    HW110496   3.666   1.823   3.375
 3199SOL    HW210497   3.516   1.759   3.381
 3200SOL     OW10498   6.851   2.273   0.526
 3200SOL    HW110499   6.777   2.315   0.474
 3200SOL    HW210500   6.842   2.174   0.524
 3201SOL     OW10501   4.745   4.804   3.525
 3201SOL    HW110502   4.792   4.718   3.548
 3201SOL    HW210503   4.647   4.789   3.522
 3202SOL     OW10504   1.275   5.749   1.622
 3202SOL    HW110505   1.211   5.714   1.554
 3202SOL    HW210506   1.359   5.780   1.577
 3203SOL     OW10507   5.094   0.113   0.996
 3203SOL    HW110508   5.058   0.059   0.920
 3203SOL    HW210509   5.170   0.170   0.963
 3204SOL     OW10510   6.361   5.936   1.943
 3204SOL    HW110511   6.383   5.922   2.039
 3204SOL    HW210512   6.279   5.883   1.919
 3205SOL     OW10513   0.859   3.752   4.012
 3205SOL    HW110514   0.828   3.827   4.071
 3205SOL    HW210515   0.938   3.707   4.054
 3206SOL     OW10516   1.423   0.065   0.256
 3206SOL    HW110517   1.412   0.158   0.292
 3206SOL    HW210518   1.370   0.001   0.313
 3207SOL     OW10519   1.297   1.939   2.704
 3207SOL    HW110520   1.349   1.990   2.636
 3207SOL    HW210521   1.292   1.993   2.788
 3208SOL     OW10522   6.365   0.339   4.422
 3208SOL    HW110523   6.446   0.361   4.477
 3208SOL    HW210524   6.344   0.241   4.432
 3209SOL     OW10525   2.104   0.537   3.054
 3209SOL    HW110526   2.169   0.595   3.103
 3209SOL    HW210527   2.019   0.532   3.106
 3210SOL     OW10528   0.496   4.829   2.075
 3210SOL    HW110529   0.418   4.887   2.099
 3210SOL    HW210530   0.520   4.772   2.153
 3211SOL     OW10531   0.512   4.027   2.898
 3211SOL    HW110532   0.467   4.079   2.971
 3211SOL    HW210533   0.592   4.077   2.866
 3212SOL     OW10534   5.258   2.952   5.656
 3212SOL    HW110535   5.209   3.035   5.628
 3212SOL    HW210536   5.211   2.871   5.621
 3213SOL     OW10537   5.407   6.932   1.526
 3213SOL    HW110538   5.385   7.007   1.464
 3213SOL    HW210539   5.323   6.887   1.555
 3214SOL     OW10540   4.014   4.258   6.528
 3214SOL    HW110541   3.954   4.179   6.531
 3214SOL    HW210542   4.052   4.268   6.436
 3215SOL     OW10543   6.074   1.422   0.292
 3215SOL    HW110544   6.171   1.408   0.274
 3215SOL    HW210545   6.049   1.379   0.379
 3216SOL     OW10546   5.385   6.626   4.744
 3216SOL    HW110547   5.437   6.545   4.772
 3216SOL    HW210548   5.345   6.610   4.654
 3217SOL     OW10549   6.568   4.228   0.140
 3217SOL    HW110550   6.474   4.238   0.107
 3217SOL    HW210551   6.617   4.315   0.130
 3218SOL     OW10552   3.673   1.520   1.960
 3218SOL    HW110553   3.598   1.585   1.966
 3218SOL    HW210554   3.672   1.476   1.870
 3219SOL     OW10555   0.307   0.132   3.864
 3219SOL    HW110556   0.295   0.032   3.858
 3219SOL    HW210557   0.277   0.173   3.778
 3220SOL     OW10558   6.376   3.159   6.451
 3220SOL    HW110559   6.447   3.104   6.406
 3220SOL    HW210560   6.418   3.219   6.519
 3221SOL     OW10561   3.794   0.762   1.924
 3221SOL    HW110562   3.769   0.717   2.010
 3221SOL    HW210563   3.723   0.827   1.898
 3222SOL     OW10564   6.511   4.042   1.893
 3222SOL    HW110565   6.536   3.981   1.969
 3222SOL    HW210566   6.411   4.051   1.890
 3223SOL     OW10567   2.313   4.120   3.969
 3223SOL    HW110568   2.302   4.088   3.875
 3223SOL    HW210569   2.272   4.210   3.979
 3224SOL     OW10570   3.106   6.288   1.188
 3224SOL    HW110571   3.164   6.307   1.267
 3224SOL    HW210572   3.108   6.190   1.168
 3225SOL     OW10573   1.896   2.882   1.048
 3225SOL    HW110574   1.927   2.887   1.143
 3225SOL    HW210575   1.800   2.909   1.043
 3226SOL     OW10576   6.854   0.511   3.767
 3226SOL    HW110577   6.826   0.543   3.677
 3226SOL    HW210578   6.934   0.561   3.798
 3227SOL     OW10579   1.842   2.333   5.785
 3227SOL    HW110580   1.931   2.294   5.766
 3227SOL    HW210581   1.826   2.333   5.884
 3228SOL     OW10582   4.998   3.438   5.013
 3228SOL    HW110583   4.932   3.513   5.008
 3228SOL    HW210584   4.981   3.375   4.938
 3229SOL     OW10585   4.793   1.549   5.355
 3229SOL    HW110586   4.712   1.593   5.315
 3229SOL    HW210587   4.849   1.509   5.283
 3230SOL     OW10588   1.428   0.134   3.636
 3230SOL    HW110589   1.393   0.117   3.728
 3230SOL    HW210590   1.352   0.143   3.572
 3231SOL     OW10591   4.919   4.471   0.611
 3231SOL    HW110592   4.894   4.504   0.702
 3231SOL    HW210593   4.999   4.522   0.578
 3232SOL     OW10594   1.406   4.107   2.855
 3232SOL    HW110595   1.343   4.185   2.862
 3232SOL    HW210596   1.500   4.141   2.854
 3233SOL     OW10597   1.939   4.361   0.930
 3233SOL    HW110598   2.012   4.428   0.947
 3233SOL    HW210599   1.960   4.310   0.847
 3234SOL     OW10600   6.836   2.039   5.018
 3234SOL    HW110601   6.775   1.961   5.009
 3234SOL    HW210602   6.782   2.123   5.019
 3235SOL     OW10603   5.478   0.678   1.925
 3235SOL    HW110604   5.512   0.708   2.014
 3235SOL    HW210605   5.460   0.758   1.868
 3236SOL     OW10606   0.160   2.497   1.329
 3236SOL    HW110607   0.131   2.424   1.391
 3236SOL    HW210608   0.251   2.529   1.356
 3237SOL     OW10609   2.911   6.110   4.760
 3237SOL    HW110610   2.860   6.098   4.675
 3237SOL    HW210611   2.952   6.022   4.787
 3238SOL     OW10612   6.585   6.302   6.461
 3238SOL    HW110613   6.625   6.215   6.433
 3238SOL    HW210614   6.549   6.349   6.381
 3239SOL     OW10615   0.927   6.305   5.217
 3239SOL    HW110616   0.843   6.347   5.186
 3239SOL    HW210617   0.991   6.375   5.247
 3240SOL     OW10618   0.677   2.376   4.546
 3240SOL    HW110619   0.640   2.289   4.514
 3240SOL    HW210620   0.750   2.359   4.612
 3241SOL     OW10621   4.095   6.847   5.093
 3241SOL    HW110622   4.003   6.808   5.090
 3241SOL    HW210623   4.108   6.907   5.014
 3242SOL     OW10624   3.439   0.188   0.425
 3242SOL    HW110625   3.449   0.222   0.332
 3242SOL    HW210626   3.526   0.148   0.456
 3243SOL     OW10627   3.754   5.018   1.184
 3243SOL    HW110628   3.787   4.970   1.266
 3243SOL    HW210629   3.686   4.961   1.138
 3244SOL     OW10630   0.960   6.775   5.560
 3244SOL    HW110631   1.027   6.805   5.491
 3244SOL    HW210632   0.873   6.755   5.515
 3245SOL     OW10633   3.422   2.021   5.954
 3245SOL    HW110634   3.490   2.040   5.883
 3245SOL    HW210635   3.344   2.083   5.943
 3246SOL     OW10636   5.429   5.970   3.543
 3246SOL    HW110637   5.515   5.985   3.494
 3246SOL    HW210638   5.374   5.902   3.493
 3247SOL     OW10639   6.420   3.110   5.852
 3247SOL    HW110640   6.354   3.054   5.904
 3247SOL    HW210641   6.371   3.163   5.783
 3248SOL     OW10642   4.762   4.008   2.850
 3248SOL    HW110643   4.791   4.095   2.809
 3248SOL    HW210644   4.677   4.021   2.900
 3249SOL     OW10645   3.306   4.698   5.725
 3249SOL    HW110646   3.384   4.647   5.688
 3249SOL    HW210647   3.316   4.707   5.824
 3250SOL     OW10648   4.825   5.083   1.401
 3250SOL    HW110649   4.794   5.060   1.308
 3250SOL    HW210650   4.918   5.050   1.415
 3251SOL     OW10651   3.497   0.928   3.788
 3251SOL    HW110652   3.410   0.927   3.837
 3251SOL    HW210653   3.490   0.989   3.710
 3252SOL     OW10654   3.714   2.073   3.630
 3252SOL    HW110655   3.666   2.034   3.708
 3252SOL    HW210656   3.656   2.143   3.587
 3253SOL     OW10657   4.900   4.328   1.417
 3253SOL    HW110658   4.925   4.315   1.513
 3253SOL    HW210659   4.886   4.239   1.374
 3254SOL     OW10660   6.397   4.358   2.788
 3254SOL    HW110661   6.385   4.288   2.718
 3254SOL    HW210662   6.408   4.314   2.877
 3255SOL     OW10663   3.808   5.017   0.823
 3255SOL    HW110664   3.773   4.923   0.819
 3255SOL    HW210665   3.737   5.078   0.857
 3256SOL     OW10666   6.700   6.652   5.136
 3256SOL    HW110667   6.743   6.563   5.146
 3256SOL    HW210668   6.762   6.715   5.091
 3257SOL     OW10669   2.753   1.326   1.246
 3257SOL    HW110670   2.696   1.368   1.175
 3257SOL    HW210671   2.714   1.346   1.336
 3258SOL     OW10672   5.169   6.652   1.023
 3258SOL    HW110673   5.219   6.578   0.977
 3258SOL    HW210674   5.219   6.680   1.105
 3259SOL     OW10675   5.751   5.875   3.635
 3259SOL    HW110676   5.814   5.947   3.663
 3259SOL    HW210677   5.706   5.838   3.716
 3260SOL     OW10678   2.556   1.635   1.461
 3260SOL    HW110679   2.634   1.666   1.516
 3260SOL    HW210680   2.533   1.705   1.394
 3261SOL     OW10681   4.912   6.442   4.237
 3261SOL    HW110682   4.947   6.354   4.269
 3261SOL    HW210683   4.915   6.445   4.137
 3262SOL     OW10684   3.963   1.943   4.168
 3262SOL    HW110685   3.893   1.878   4.139
 3262SOL    HW210686   3.990   1.924   4.262
 3263SOL     OW10687   3.065   4.834   3.362
 3263SOL    HW110688   2.966   4.827   3.369
 3263SOL    HW210689   3.107   4.789   3.440
 3264SOL     OW10690   5.744   4.974   6.201
 3264SOL    HW110691   5.785   4.917   6.130
 3264SOL    HW210692   5.665   4.927   6.240
 3265SOL     OW10693   5.482   0.298   5.713
 3265SOL    HW110694   5.537   0.376   5.744
 3265SOL    HW210695   5.428   0.324   5.633
 3266SOL     OW10696   1.361   2.833   6.453
 3266SOL    HW110697   1.281   2.884   6.422
 3266SOL    HW210698   1.444   2.883   6.429
 3267SOL     OW10699   5.253   3.191   2.152
 3267SOL    HW110700   5.213   3.101   2.132
 3267SOL    HW210701   5.180   3.253   2.182
 3268SOL     OW10702   1.832   5.647   6.804
 3268SOL    HW110703   1.860   5.723   6.746
 3268SOL    HW210704   1.740   5.664   6.839
 3269SOL     OW10705   3.859   3.506   0.922
 3269SOL    HW110706   3.770   3.483   0.961
 3269SOL    HW210707   3.903   3.576   0.979
 3270SOL     OW10708   6.552   5.200   3.843
 3270SOL    HW110709   6.649   5.209   3.823
 3270SOL    HW210710   6.538   5.202   3.942
 3271SOL     OW10711   4.835   7.002   1.441
 3271SOL    HW110712   4.913   6.955   1.400
 3271SOL    HW210713   4.778   0.017   1.369
 3272SOL     OW10714   4.800   5.774   6.620
 3272SOL    HW110715   4.735   5.787   6.545
 3272SOL    HW210716   4.841   5.862   6.644
 3273SOL     OW10717   1.110   0.611   2.902
 3273SOL    HW110718   1.131   0.543   2.831
 3273SOL    HW210719   1.188   0.672   2.913
 3274SOL     OW10720   2.595   1.396   0.271
 3274SOL    HW110721   2.569   1.490   0.251
 3274SOL    HW210722   2.578   1.339   0.191
 3275SOL     OW10723   4.597   0.588   6.976
 3275SOL    HW110724   4.517   0.565   0.006
 3275SOL    HW210725   4.578   0.670   6.921
 3276SOL     OW10726   1.804   6.358   0.124
 3276SOL    HW110727   1.865   6.313   0.190
 3276SOL    HW210728   1.858   6.401   0.052
 3277SOL     OW10729   0.136   6.105   6.803
 3277SOL    HW110730   0.069   6.108   6.877
 3277SOL    HW210731   0.149   6.197   6.766
 3278SOL     OW10732   1.115   0.621   0.017
 3278SOL    HW110733   1.172   0.617   6.960
 3278SOL    HW210734   1.122   0.712   0.058
 3279SOL     OW10735   2.057   6.913   1.398
 3279SOL    HW110736   2.094   7.003   1.371
 3279SOL    HW210737   2.070   6.849   1.322
 3280SOL     OW10738   3.055   6.035   3.759
 3280SOL    HW110739   3.044   5.942   3.723
 3280SOL    HW210740   3.072   6.031   3.857
 3281SOL     OW10741   1.798   6.563   0.500
 3281SOL    HW110742   1.766   6.606   0.415
 3281SOL    HW210743   1.746   6.600   0.577
 3282SOL     OW10744   2.429   5.150   2.437
 3282SOL    HW110745   2.430   5.051   2.450
 3282SOL    HW210746   2.352   5.175   2.378
 3283SOL     OW10747   2.114   0.252   3.333
 3283SOL    HW110748   2.045   0.182   3.350
 3283SOL    HW210749   2.074   0.342   3.351
 3284SOL     OW10750   1.541   5.233   5.416
 3284SOL    HW110751   1.597   5.246   5.335
 3284SOL    HW210752   1.523   5.322   5.458
 3285SOL     OW10753   0.510   3.095   4.059
 3285SOL    HW110754   0.419   3.121   4.091
 3285SOL    HW210755   0.527   2.999   4.083
 3286SOL     OW10756   4.723   4.481   6.224
 3286SOL    HW110757   4.691   4.531   6.304
 3286SOL    HW210758   4.654   4.488   6.151
 3287SOL     OW10759   6.935   3.172   1.669
 3287SOL    HW110760   6.946   3.184   1.570
 3287SOL    HW210761   6.912   3.260   1.710
 3288SOL     OW10762   0.936   6.882   0.430
 3288SOL    HW110763   0.968   6.966   0.385
 3288SOL    HW210764   0.985   6.803   0.392
 3289SOL     OW10765   1.185   6.675   3.940
 3289SOL    HW110766   1.158   6.633   4.027
 3289SOL    HW210767   1.243   6.754   3.958
 3290SOL     OW10768   0.334   4.959   3.521
 3290SOL    HW110769   0.351   5.035   3.458
 3290SOL    HW210770   0.280   4.992   3.599
 3291SOL     OW10771   1.629   1.375   2.013
 3291SOL    HW110772   1.645   1.300   1.950
 3291SOL    HW210773   1.716   1.419   2.036
 3292SOL     OW10774   0.383   6.035   4.664
 3292SOL    HW110775   0.434   5.954   4.691
 3292SOL    HW210776   0.397   6.052   4.566
 3293SOL     OW10777   5.876   0.581   3.406
 3293SOL    HW110778   5.924   0.529   3.477
 3293SOL    HW210779   5.935   0.588   3.326
 3294SOL     OW10780   6.994   6.778   0.769
 3294SOL    HW110781   7.024   6.872   0.752
 3294SOL    HW210782   6.936   6.748   0.693
 3295SOL     OW10783   2.025   3.086   5.822
 3295SOL    HW110784   2.020   3.175   5.778
 3295SOL    HW210785   2.116   3.047   5.809
 3296SOL     OW10786   1.342   6.363   2.446
 3296SOL    HW110787   1.373   6.458   2.451
 3296SOL    HW210788   1.264   6.350   2.508
 3297SOL     OW10789   3.547   1.248   5.590
 3297SOL    HW110790   3.524   1.346   5.590
 3297SOL    HW210791   3.525   1.208   5.501
 3298SOL     OW10792   0.599   4.470   2.869
 3298SOL    HW110793   0.554   4.558   2.888
 3298SOL    HW210794   0.536   4.411   2.818
 3299SOL     OW10795   0.891   1.254   4.313
 3299SOL    HW110796   0.899   1.238   4.411
 3299SOL    HW210797   0.971   1.304   4.281
 3300SOL     OW10798   0.387   6.966   4.557
 3300SOL    HW110799   0.486   6.964   4.564
 3300SOL    HW210800   0.359   6.943   4.464
 3301SOL     OW10801   6.767   3.868   2.770
 3301SOL    HW110802   6.773   3.863   2.870
 3301SOL    HW210803   6.777   3.777   2.731
 3302SOL     OW10804   0.915   6.066   5.382
 3302SOL    HW110805   0.929   6.134   5.310
 3302SOL    HW210806   0.825   6.024   5.371
 3303SOL     OW10807   2.936   3.737   4.307
 3303SOL    HW110808   2.861   3.780   4.257
 3303SOL    HW210809   3.023   3.780   4.283
 3304SOL     OW10810   1.654   0.859   3.397
 3304SOL    HW110811   1.655   0.892   3.303
 3304SOL    HW210812   1.559   0.841   3.424
 3305SOL     OW10813   1.047   3.017   0.506
 3305SOL    HW110814   1.086   2.948   0.567
 3305SOL    HW210815   1.086   3.106   0.528
 3306SOL     OW10816   1.311   2.577   1.737
 3306SOL    HW110817   1.339   2.580   1.832
 3306SOL    HW210818   1.380   2.529   1.683
 3307SOL     OW10819   0.913   0.193   6.798
 3307SOL    HW110820   1.006   0.206   6.765
 3307SOL    HW210821   0.902   0.239   6.886
 3308SOL     OW10822   4.730   5.977   1.175
 3308SOL    HW110823   4.648   6.005   1.126
 3308SOL    HW210824   4.736   5.877   1.174
 3309SOL     OW10825   1.488   4.778   1.717
 3309SOL    HW110826   1.438   4.848   1.769
 3309SOL    HW210827   1.445   4.689   1.732
 3310SOL     OW10828   1.727   6.486   2.393
 3310SOL    HW110829   1.733   6.386   2.384
 3310SOL    HW210830   1.659   6.510   2.462
 3311SOL     OW10831   4.157   5.757   0.740
 3311SOL    HW110832   4.136   5.685   0.806
 3311SOL    HW210833   4.163   5.718   0.649
 3312SOL     OW10834   1.253   2.770   5.877
 3312SOL    HW110835   1.309   2.688   5.889
 3312SOL    HW210836   1.298   2.832   5.813
 3313SOL     OW10837   5.957   6.635   4.543
 3313SOL    HW110838   5.926   6.711   4.485
 3313SOL    HW210839   5.950   6.662   4.639
 3314SOL     OW10840   0.493   4.513   6.535
 3314SOL    HW110841   0.586   4.543   6.517
 3314SOL    HW210842   0.445   4.582   6.590
 3315SOL     OW10843   6.546   2.970   3.384
 3315SOL    HW110844   6.537   2.928   3.474
 3315SOL    HW210845   6.497   2.915   3.316
 3316SOL     OW10846   4.338   0.743   6.751
 3316SOL    HW110847   4.433   0.753   6.781
 3316SOL    HW210848   4.289   0.829   6.763
 3317SOL     OW10849   4.553   2.448   1.353
 3317SOL    HW110850   4.639   2.474   1.308
 3317SOL    HW210851   4.501   2.530   1.376
 3318SOL     OW10852   2.816   5.384   5.962
 3318SOL    HW110853   2.854   5.371   6.054
 3318SOL    HW210854   2.752   5.461   5.963
 3319SOL     OW10855   0.176   6.273   6.423
 3319SOL    HW110856   0.267   6.293   6.389
 3319SOL    HW210857   0.164   6.174   6.432
 3320SOL     OW10858   1.334   0.310   0.783
 3320SOL    HW110859   1.356   0.373   0.857
 3320SOL    HW210860   1.263   0.247   0.813
 3321SOL     OW10861   3.770   3.680   4.305
 3321SOL    HW110862   3.807   3.649   4.217
 3321SOL    HW210863   3.780   3.607   4.373
 3322SOL     OW10864   4.518   2.521   2.490
 3322SOL    HW110865   4.456   2.443   2.485
 3322SOL    HW210866   4.554   2.529   2.583
 3323SOL     OW10867   1.809   4.859   0.638
 3323SOL    HW110868   1.843   4.794   0.570
 3323SOL    HW210869   1.729   4.821   0.684
 3324SOL     OW10870   6.311   3.124   1.372
 3324SOL    HW110871   6.268   3.122   1.462
 3324SOL    HW210872   6.399   3.078   1.375
 3325SOL     OW10873   1.164   4.921   5.508
 3325SOL    HW110874   1.170   4.994   5.576
 3325SOL    HW210875   1.248   4.867   5.510
 3326SOL     OW10876   5.549   0.195   2.513
 3326SOL    HW110877   5.458   0.167   2.544
 3326SOL    HW210878   5.612   0.119   2.524
 3327SOL     OW10879   4.852   5.972   2.131
 3327SOL    HW110880   4.848   5.948   2.034
 3327SOL    HW210881   4.767   5.946   2.175
 3328SOL     OW10882   6.547   6.254   3.988
 3328SOL    HW110883   6.532   6.278   4.084
 3328SOL    HW210884   6.542   6.336   3.932
 3329SOL     OW10885   5.435   0.691   5.975
 3329SOL    HW110886   5.404   0.635   6.053
 3329SOL    HW210887   5.358   0.744   5.939
 3330SOL     OW10888   6.455   7.007   2.967
 3330SOL    HW110889   6.504   6.996   2.881
 3330SOL    HW210890   6.378   6.943   2.970
 3331SOL     OW10891   1.418   3.779   2.320
 3331SOL    HW110892   1.471   3.739   2.245
 3331SOL    HW210893   1.469   3.770   2.406
 3332SOL     OW10894   4.294   4.995   0.506
 3332SOL    HW110895   4.317   4.920   0.445
 3332SOL    HW210896   4.208   5.037   0.476
 3333SOL     OW10897   1.814   3.911   0.810
 3333SOL    HW110898   1.888   3.850   0.839
 3333SOL    HW210899   1.819   3.997   0.860
 3334SOL     OW10900   1.530   2.210   2.582
 3334SOL    HW110901   1.491   2.127   2.542
 3334SOL    HW210902   1.580   2.261   2.512
 3335SOL     OW10903   4.110   4.338   5.909
 3335SOL    HW110904   4.125   4.241   5.891
 3335SOL    HW210905   4.168   4.368   5.985
 3336SOL     OW10906   3.747   5.744   5.960
 3336SOL    HW110907   3.831   5.704   5.998
 3336SOL    HW210908   3.755   5.844   5.961
 3337SOL     OW10909   2.990   3.255   3.950
 3337SOL    HW110910   2.961   3.344   3.984
 3337SOL    HW210911   3.022   3.199   4.026
 3338SOL     OW10912   2.501   3.271   1.467
 3338SOL    HW110913   2.536   3.365   1.469
 3338SOL    HW210914   2.426   3.265   1.401
 3339SOL     OW10915   0.972   6.646   6.559
 3339SOL    HW110916   0.888   6.699   6.545
 3339SOL    HW210917   1.004   6.611   6.471
 3340SOL     OW10918   4.983   1.010   6.155
 3340SOL    HW110919   4.965   0.948   6.232
 3340SOL    HW210920   4.976   1.105   6.187
 3341SOL     OW10921   1.548   4.417   1.366
 3341SOL    HW110922   1.449   4.404   1.366
 3341SOL    HW210923   1.588   4.369   1.288
 3342SOL     OW10924   5.881   6.980   1.903
 3342SOL    HW110925   5.833   6.971   1.990
 3342SOL    HW210926   5.860   6.902   1.844
 3343SOL     OW10927   3.319   5.336   0.859
 3343SOL    HW110928   3.370   5.365   0.939
 3343SOL    HW210929   3.309   5.414   0.796
 3344SOL     OW10930   1.118   3.447   1.359
 3344SOL    HW110931   1.154   3.442   1.266
 3344SOL    HW210932   1.126   3.541   1.393
 3345SOL     OW10933   5.362   5.209   1.119
 3345SOL    HW110934   5.436   5.170   1.063
 3345SOL    HW210935   5.313   5.136   1.166
 3346SOL     OW10936   1.245   0.847   6.908
 3346SOL    HW110937   1.158   0.826   6.863
 3346SOL    HW210938   1.228   0.910   6.985
 3347SOL     OW10939   1.030   4.318   5.784
 3347SOL    HW110940   1.083   4.234   5.798
 3347SOL    HW210941   0.937   4.294   5.754
 3348SOL     OW10942   3.559   4.163   5.972
 3348SOL    HW110943   3.593   4.114   6.053
 3348SOL    HW210944   3.627   4.230   5.944
 3349SOL     OW10945   1.794   5.611   1.665
 3349SOL    HW110946   1.745   5.535   1.622
 3349SOL    HW210947   1.739   5.648   1.740
 3350SOL     OW10948   2.576   5.310   5.272
 3350SOL    HW110949   2.596   5.312   5.370
 3350SOL    HW210950   2.607   5.223   5.233
 3351SOL     OW10951   5.768   6.910   1.208
 3351SOL    HW110952   5.736   7.003   1.225
 3351SOL    HW210953   5.866   6.912   1.188
 3352SOL     OW10954   5.704   1.208   0.190
 3352SOL    HW110955   5.622   1.240   0.142
 3352SOL    HW210956   5.700   1.237   0.286
 3353SOL     OW10957   4.044   0.695   6.322
 3353SOL    HW110958   4.133   0.708   6.278
 3353SOL    HW210959   4.047   0.729   6.415
 3354SOL     OW10960   2.178   2.327   0.456
 3354SOL    HW110961   2.180   2.304   0.553
 3354SOL    HW210962   2.111   2.269   0.409
 3355SOL     OW10963   1.584   1.354   5.093
 3355SOL    HW110964   1.530   1.313   5.020
 3355SOL    HW210965   1.618   1.281   5.154
 3356SOL     OW10966   3.417   1.072   5.769
 3356SOL    HW110967   3.322   1.085   5.797
 3356SOL    HW210968   3.442   1.140   5.700
 3357SOL     OW10969   3.073   3.925   3.784
 3357SOL    HW110970   3.010   3.848   3.773
 3357SOL    HW210971   3.100   3.933   3.880
 3358SOL     OW10972   0.051   2.044   1.573
 3358SOL    HW110973   0.020   2.138   1.557
 3358SOL    HW210974   7.016   1.999   1.639
 3359SOL     OW10975   1.080   0.174   3.675
 3359SOL    HW110976   1.007   0.223   3.721
 3359SOL    HW210977   1.082   0.198   3.578
 3360SOL     OW10978   1.257   5.582   4.915
 3360SOL    HW110979   1.322   5.630   4.974
 3360SOL    HW210980   1.174   5.636   4.905
 3361SOL     OW10981   0.487   6.675   4.394
 3361SOL    HW110982   0.438   6.760   4.373
 3361SOL    HW210983   0.488   6.616   4.313
 3362SOL     OW10984   3.600   0.439   4.213
 3362SOL    HW110985   3.575   0.368   4.279
 3362SOL    HW210986   3.527   0.449   4.146
 3363SOL     OW10987   4.696   3.324   0.816
 3363SOL    HW110988   4.782   3.283   0.786
 3363SOL    HW210989   4.672   3.288   0.906
 3364SOL     OW10990   1.643   3.311   1.372
 3364SOL    HW110991   1.709   3.335   1.300
 3364SOL    HW210992   1.631   3.388   1.434
 3365SOL     OW10993   1.021   2.773   2.774
 3365SOL    HW110994   1.055   2.705   2.838
 3365SOL    HW210995   0.969   2.843   2.823
 3366SOL     OW10996   5.998   3.380   4.300
 3366SOL    HW110997   5.957   3.441   4.367
 3366SOL    HW210998   6.087   3.417   4.272
 3367SOL     OW10999   3.332   3.044   4.029
 3367SOL    HW111000   3.302   3.042   3.934
 3367SOL    HW211001   3.263   3.091   4.084
 3368SOL     OW11002   2.347   0.971   3.564
 3368SOL    HW111003   2.391   1.024   3.491
 3368SOL    HW211004   2.416   0.917   3.612
 3369SOL     OW11005   5.128   2.559   1.360
 3369SOL    HW111006   5.224   2.529   1.357
 3369SOL    HW211007   5.118   2.646   1.312
 3370SOL     OW11008   0.557   5.364   2.764
 3370SOL    HW111009   0.460   5.357   2.742
 3370SOL    HW211010   0.576   5.311   2.847
 3371SOL     OW11011   2.459   2.630   1.273
 3371SOL    HW111012   2.466   2.705   1.207
 3371SOL    HW211013   2.550   2.593   1.291
 3372SOL     OW11014   5.749   2.719   3.449
 3372SOL    HW111015   5.693   2.637   3.455
 3372SOL    HW211016   5.803   2.717   3.365
 3373SOL     OW11017   0.160   4.576   0.694
 3373SOL    HW111018   0.122   4.650   0.749
 3373SOL    HW211019   0.243   4.608   0.648
 3374SOL     OW11020   1.129   5.499   3.867
 3374SOL    HW111021   1.082   5.478   3.953
 3374SOL    HW211022   1.156   5.595   3.867
 3375SOL     OW11023   0.040   6.281   5.434
 3375SOL    HW111024   6.993   6.340   5.472
 3375SOL    HW211025   0.100   6.252   5.508
 3376SOL     OW11026   3.277   3.887   4.901
 3376SOL    HW111027   3.268   3.985   4.922
 3376SOL    HW211028   3.194   3.839   4.929
 3377SOL     OW11029   0.124   5.668   4.151
 3377SOL    HW111030   0.044   5.614   4.124
 3377SOL    HW211031   0.196   5.606   4.184
 3378SOL     OW11032   1.326   5.649   0.262
 3378SOL    HW111033   1.319   5.677   0.357
 3378SOL    HW211034   1.234   5.634   0.225
 3379SOL     OW11035   5.674   4.514   4.217
 3379SOL    HW111036   5.755   4.544   4.266
 3379SOL    HW211037   5.593   4.555   4.258
 3380SOL     OW11038   2.003   5.392   1.872
 3380SOL    HW111039   2.026   5.467   1.811
 3380SOL    HW211040   2.051   5.404   1.959
 3381SOL     OW11041   3.064   3.957   6.289
 3381SOL    HW111042   3.007   3.884   6.327
 3381SOL    HW211043   3.008   4.038   6.272
 3382SOL     OW11044   0.280   3.893   6.674
 3382SOL    HW111045   0.335   3.844   6.741
 3382SOL    HW211046   0.187   3.904   6.708
 3383SOL     OW11047   3.318   5.750   0.622
 3383SOL    HW111048   3.325   5.795   0.533
 3383SOL    HW211049   3.240   5.788   0.672
 3384SOL     OW11050   2.893   2.830   6.591
 3384SOL    HW111051   2.907   2.738   6.627
 3384SOL    HW211052   2.981   2.873   6.572
 3385SOL     OW11053   5.600   2.733   4.776
 3385SOL    HW111054   5.529   2.687   4.830
 3385SOL    HW211055   5.558   2.797   4.712
 3386SOL     OW11056   7.015   5.040   5.584
 3386SOL    HW111057   0.014   4.965   5.521
 3386SOL    HW211058   6.917   5.058   5.576
 3387SOL     OW11059   6.102   0.052   2.768
 3387SOL    HW111060   6.081   0.099   2.682
 3387SOL    HW211061   6.115   0.120   2.841
 3388SOL     OW11062   0.941   3.963   0.146
 3388SOL    HW111063   0.875   4.023   0.101
 3388SOL    HW211064   0.901   3.871   0.155
 3389SOL     OW11065   6.625   5.065   6.114
 3389SOL    HW111066   6.608   5.057   6.016
 3389SOL    HW211067   6.537   5.065   6.162
 3390SOL     OW11068   3.020   5.508   0.890
 3390SOL    HW111069   3.009   5.458   0.804
 3390SOL    HW211070   3.010   5.444   0.966
 3391SOL     OW11071   5.441   4.142   5.785
 3391SOL    HW111072   5.488   4.196   5.855
 3391SOL    HW211073   5.418   4.200   5.707
 3392SOL     OW11074   5.183   6.239   6.066
 3392SOL    HW111075   5.263   6.289   6.100
 3392SOL    HW211076   5.126   6.210   6.143
 3393SOL     OW11077   3.487   0.487   0.862
 3393SOL    HW111078   3.459   0.411   0.803
 3393SOL    HW211079   3.557   0.542   0.815
 3394SOL     OW11080   2.719   6.028   1.719
 3394SOL    HW111081   2.746   6.123   1.731
 3394SOL    HW211082   2.777   5.985   1.650
 3395SOL     OW11083   1.973   6.430   3.423
 3395SOL    HW111084   2.042   6.413   3.494
 3395SOL    HW211085   1.936   6.523   3.435
 3396SOL     OW11086   4.419   0.601   4.108
 3396SOL    HW111087   4.343   0.662   4.129
 3396SOL    HW211088   4.473   0.584   4.190
 3397SOL     OW11089   2.275   6.272   1.165
 3397SOL    HW111090   2.175   6.269   1.159
 3397SOL    HW211091   2.303   6.362   1.201
 3398SOL     OW11092   6.675   0.933   6.865
 3398SOL    HW111093   6.614   0.895   6.934
 3398SOL    HW211094   6.635   1.016   6.827
 3399SOL     OW11095   0.115   5.746   2.209
 3399SOL    HW111096   0.100   5.838   2.246
 3399SOL    HW211097   0.137   5.684   2.285
 3400SOL     OW11098   3.651   2.969   5.855
 3400SOL    HW111099   3.562   2.931   5.877
 3400SOL    HW211100   3.702   2.987   5.940
 3401SOL     OW11101   6.650   3.110   4.340
 3401SOL    HW111102   6.684   3.113   4.434
 3401SOL    HW211103   6.722   3.136   4.277
 3402SOL     OW11104   5.258   3.322   6.937
 3402SOL    HW111105   5.274   3.259   6.861
 3402SOL    HW211106   5.275   3.275   7.024
 3403SOL     OW11107   5.371   6.854   4.409
 3403SOL    HW111108   5.397   6.899   4.495
 3403SOL    HW211109   5.452   6.839   4.353
 3404SOL     OW11110   5.271   4.636   3.360
 3404SOL    HW111111   5.193   4.639   3.298
 3404SOL    HW211112   5.306   4.728   3.374
 3405SOL     OW11113   4.260   5.994   1.466
 3405SOL    HW111114   4.302   6.015   1.554
 3405SOL    HW211115   4.161   5.982   1.479
 3406SOL     OW11116   4.448   5.040   1.177
 3406SOL    HW111117   4.414   5.079   1.091
 3406SOL    HW211118   4.419   4.945   1.184
 3407SOL     OW11119   1.569   2.501   0.463
 3407SOL    HW111120   1.479   2.514   0.421
 3407SOL    HW211121   1.565   2.423   0.525
 3408SOL     OW11122   3.738   6.358   3.626
 3408SOL    HW111123   3.719   6.264   3.599
 3408SOL    HW211124   3.665   6.417   3.593
 3409SOL     OW11125   4.494   1.714   6.929
 3409SOL    HW111126   4.482   1.713   0.003
 3409SOL    HW211127   4.443   1.792   6.891
 3410SOL     OW11128   6.988   0.416   2.257
 3410SOL    HW111129   7.006   0.463   2.343
 3410SOL    HW211130   0.045   0.418   2.200
 3411SOL     OW11131   5.789   3.395   6.164
 3411SOL    HW111132   5.884   3.425   6.149
 3411SOL    HW211133   5.780   3.362   6.258
 3412SOL     OW11134   5.401   3.274   3.540
 3412SOL    HW111135   5.303   3.259   3.553
 3412SOL    HW211136   5.421   3.285   3.443
 3413SOL     OW11137   0.693   2.587   1.071
 3413SOL    HW111138   0.630   2.548   1.004
 3413SOL    HW211139   0.727   2.515   1.132
 3414SOL     OW11140   3.809   3.044   2.097
 3414SOL    HW111141   3.765   3.049   2.008
 3414SOL    HW211142   3.792   2.953   2.137
 3415SOL     OW11143   2.408   0.973   6.585
 3415SOL    HW111144   2.420   0.880   6.548
 3415SOL    HW211145   2.317   0.980   6.627
 3416SOL     OW11146   5.171   6.767   5.688
 3416SOL    HW111147   5.237   6.741   5.618
 3416SOL    HW211148   5.164   6.695   5.757
 3417SOL     OW11149   5.773   0.699   2.202
 3417SOL    HW111150   5.680   0.724   2.175
 3417SOL    HW211151   5.818   0.777   2.246
 3418SOL     OW11152   4.068   5.799   1.083
 3418SOL    HW111153   4.021   5.809   1.170
 3418SOL    HW211154   4.054   5.881   1.028
 3419SOL     OW11155   3.128   4.749   5.209
 3419SOL    HW111156   3.053   4.684   5.201
 3419SOL    HW211157   3.214   4.699   5.221
 3420SOL     OW11158   4.054   0.905   1.571
 3420SOL    HW111159   4.149   0.933   1.570
 3420SOL    HW211160   4.018   0.910   1.664
 3421SOL     OW11161   0.487   1.009   4.271
 3421SOL    HW111162   0.395   0.992   4.304
 3421SOL    HW211163   0.484   1.077   4.197
 3422SOL     OW11164   3.366   5.518   1.498
 3422SOL    HW111165   3.366   5.465   1.413
 3422SOL    HW211166   3.288   5.491   1.554
 3423SOL     OW11167   1.942   4.921   6.324
 3423SOL    HW111168   1.995   4.841   6.299
 3423SOL    HW211169   1.930   4.923   6.424
 3424SOL     OW11170   5.436   6.827   2.363
 3424SOL    HW111171   5.418   6.848   2.267
 3424SOL    HW211172   5.472   6.734   2.371
 3425SOL     OW11173   5.401   2.841   6.454
 3425SOL    HW111174   5.491   2.849   6.411
 3425SOL    HW211175   5.331   2.835   6.383
 3426SOL     OW11176   6.820   5.496   6.751
 3426SOL    HW111177   6.902   5.484   6.807
 3426SOL    HW211178   6.740   5.462   6.801
 3427SOL     OW11179   1.775   1.410   6.936
 3427SOL    HW111180   1.697   1.451   6.889
 3427SOL    HW211181   1.831   1.360   6.870
 3428SOL     OW11182   4.580   0.263   4.125
 3428SOL    HW111183   4.519   0.231   4.053
 3428SOL    HW211184   4.531   0.263   4.213
 3429SOL     OW11185   4.302   5.963   0.869
 3429SOL    HW111186   4.327   6.035   0.803
 3429SOL    HW211187   4.280   5.879   0.819
 3430SOL     OW11188   2.300   4.258   6.670
 3430SOL    HW111189   2.322   4.166   6.637
 3430SOL    HW211190   2.219   4.292   6.623
 3431SOL     OW11191   1.064   4.365   2.874
 3431SOL    HW111192   1.041   4.270   2.852
 3431SOL    HW211193   1.149   4.368   2.926
 3432SOL     OW11194   0.255   5.262   6.808
 3432SOL    HW111195   0.199   5.268   6.891
 3432SOL    HW211196   0.348   5.292   6.828
 3433SOL     OW11197   0.800   0.797   0.517
 3433SOL    HW111198   0.725   0.854   0.551
 3433SOL    HW211199   0.764   0.707   0.493
 3434SOL     OW11200   4.333   2.266   2.444
 3434SOL    HW111201   4.301   2.246   2.351
 3434SOL    HW211202   4.270   2.226   2.511
 3435SOL     OW11203   2.511   2.842   1.084
 3435SOL    HW111204   2.459   2.921   1.117
 3435SOL    HW211205   2.591   2.874   1.032
 3436SOL     OW11206   4.327   5.521   5.386
 3436SOL    HW111207   4.316   5.499   5.289
 3436SOL    HW211208   4.237   5.533   5.428
 3437SOL     OW11209   1.455   6.732   0.261
 3437SOL    HW111210   1.545   6.702   0.231
 3437SOL    HW211211   1.385   6.697   0.199
 3438SOL     OW11212   2.152   4.289   0.234
 3438SOL    HW111213   2.129   4.299   0.137
 3438SOL    HW211214   2.148   4.193   0.260
 3439SOL     OW11215   2.722   5.946   1.213
 3439SOL    HW111216   2.643   6.000   1.181
 3439SOL    HW211217   2.770   5.909   1.134
 3440SOL     OW11218   4.196   4.045   5.837
 3440SOL    HW111219   4.159   3.986   5.765
 3440SOL    HW211220   4.292   4.066   5.815
 3441SOL     OW11221   6.868   5.322   4.866
 3441SOL    HW111222   6.816   5.327   4.951
 3441SOL    HW211223   6.964   5.299   4.886
 3442SOL     OW11224   0.942   1.871   0.359
 3442SOL    HW111225   0.942   1.948   0.423
 3442SOL    HW211226   0.874   1.888   0.287
 3443SOL     OW11227   0.213   5.617   2.411
 3443SOL    HW111228   0.131   5.568   2.442
 3443SOL    HW211229   0.243   5.680   2.483
 3444SOL     OW11230   0.931   4.011   6.587
 3444SOL    HW111231   0.965   3.951   6.660
 3444SOL    HW211232   0.946   3.968   6.498
 3445SOL     OW11233   6.104   5.406   4.394
 3445SOL    HW111234   6.116   5.370   4.302
 3445SOL    HW211235   6.120   5.333   4.461
 3446SOL     OW11236   4.757   1.337   0.351
 3446SOL    HW111237   4.794   1.396   0.279
 3446SOL    HW211238   4.685   1.386   0.400
 3447SOL     OW11239   5.637   1.684   5.771
 3447SOL    HW111240   5.594   1.665   5.860
 3447SOL    HW211241   5.607   1.773   5.738
 3448SOL     OW11242   0.818   5.170   5.119
 3448SOL    HW111243   0.811   5.251   5.060
 3448SOL    HW211244   0.912   5.160   5.151
 3449SOL     OW11245   1.874   3.776   4.806
 3449SOL    HW111246   1.962   3.731   4.791
 3449SOL    HW211247   1.800   3.710   4.794
 3450SOL     OW11248   2.232   6.616   2.411
 3450SOL    HW111249   2.176   6.698   2.424
 3450SOL    HW211250   2.201   6.544   2.472
 3451SOL     OW11251   1.969   1.862   0.776
 3451SOL    HW111252   1.974   1.890   0.872
 3451SOL    HW211253   1.961   1.943   0.718
 3452SOL     OW11254   4.749   1.177   5.819
 3452SOL    HW111255   4.847   1.190   5.830
 3452SOL    HW211256   4.719   1.216   5.732
 3453SOL     OW11257   4.245   5.797   5.387
 3453SOL    HW111258   4.291   5.709   5.389
 3453SOL    HW211259   4.312   5.870   5.376
 3454SOL     OW11260   1.171   3.084   3.626
 3454SOL    HW111261   1.193   3.019   3.698
 3454SOL    HW211262   1.082   3.060   3.586
 3455SOL     OW11263   1.421   4.121   6.678
 3455SOL    HW111264   1.462   4.105   6.589
 3455SOL    HW211265   1.389   4.216   6.684
 3456SOL     OW11266   4.332   5.347   2.982
 3456SOL    HW111267   4.404   5.410   2.954
 3456SOL    HW211268   4.327   5.271   2.918
 3457SOL     OW11269   4.193   4.105   6.725
 3457SOL    HW111270   4.121   4.124   6.658
 3457SOL    HW211271   4.156   4.113   6.817
 3458SOL     OW11272   4.628   2.069   0.884
 3458SOL    HW111273   4.673   2.025   0.807
 3458SOL    HW211274   4.592   2.000   0.947
 3459SOL     OW11275   6.828   6.715   2.822
 3459SOL    HW111276   6.917   6.672   2.836
 3459SOL    HW211277   6.772   6.658   2.762
 3460SOL     OW11278   4.514   1.069   5.325
 3460SOL    HW111279   4.581   1.129   5.369
 3460SOL    HW211280   4.479   1.003   5.391
 3461SOL     OW11281   4.585   4.363   3.436
 3461SOL    HW111282   4.608   4.376   3.533
 3461SOL    HW211283   4.647   4.295   3.397
 3462SOL     OW11284   1.326   4.368   6.727
 3462SOL    HW111285   1.239   4.384   6.680
 3462SOL    HW211286   1.334   4.432   6.804
 3463SOL     OW11287   5.648   4.141   0.060
 3463SOL    HW111288   5.716   4.071   0.037
 3463SOL    HW211289   5.622   4.190   7.003
 3464SOL     OW11290   0.055   4.740   3.663
 3464SOL    HW111291   6.998   4.690   3.637
 3464SOL    HW211292   0.064   4.821   3.605
 3465SOL     OW11293   0.856   2.800   1.341
 3465SOL    HW111294   0.924   2.853   1.393
 3465SOL    HW211295   0.816   2.859   1.270
 3466SOL     OW11296   5.993   3.857   3.251
 3466SOL    HW111297   5.901   3.852   3.290
 3466SOL    HW211298   6.039   3.769   3.262
 3467SOL     OW11299   1.574   2.328   5.690
 3467SOL    HW111300   1.674   2.330   5.698
 3467SOL    HW211301   1.536   2.282   5.770
 3468SOL     OW11302   4.718   5.560   1.994
 3468SOL    HW111303   4.618   5.563   1.999
 3468SOL    HW211304   4.754   5.516   2.077
 3469SOL     OW11305   4.837   3.881   0.176
 3469SOL    HW111306   4.926   3.844   0.152
 3469SOL    HW211307   4.768   3.845   0.114
 3470SOL     OW11308   6.493   5.479   0.505
 3470SOL    HW111309   6.468   5.568   0.542
 3470SOL    HW211310   6.429   5.410   0.539
 3471SOL     OW11311   4.521   6.779   4.720
 3471SOL    HW111312   4.502   6.703   4.782
 3471SOL    HW211313   4.497   6.753   4.627
 3472SOL     OW11314   3.898   0.100   4.673
 3472SOL    HW111315   3.998   0.099   4.664
 3472SOL    HW211316   3.870   0.181   4.724
 3473SOL     OW11317   4.134   6.422   4.038
 3473SOL    HW111318   4.107   6.383   4.127
 3473SOL    HW211319   4.161   6.348   3.977
 3474SOL     OW11320   4.322   4.846   0.280
 3474SOL    HW111321   4.225   4.850   0.258
 3474SOL    HW211322   4.375   4.878   0.202
 3475SOL     OW11323   1.167   5.389   5.577
 3475SOL    HW111324   1.129   5.421   5.665
 3475SOL    HW211325   1.229   5.313   5.594
 3476SOL     OW11326   3.916   1.560   3.537
 3476SOL    HW111327   3.933   1.592   3.445
 3476SOL    HW211328   3.902   1.638   3.598
 3477SOL     OW11329   4.466   5.712   2.337
 3477SOL    HW111330   4.366   5.713   2.340
 3477SOL    HW211331   4.500   5.645   2.403
 3478SOL     OW11332   3.605   4.374   0.439
 3478SOL    HW111333   3.580   4.363   0.535
 3478SOL    HW211334   3.616   4.284   0.397
 3479SOL     OW11335   1.972   0.620   0.248
 3479SOL    HW111336   1.965   0.576   0.337
 3479SOL    HW211337   2.046   0.579   0.196
 3480SOL     OW11338   1.150   6.305   4.380
 3480SOL    HW111339   1.232   6.249   4.396
 3480SOL    HW211340   1.095   6.309   4.464
 3481SOL     OW11341   2.288   5.582   0.419
 3481SOL    HW111342   2.281   5.682   0.428
 3481SOL    HW211343   2.313   5.559   0.325
 3482SOL     OW11344   0.330   2.251   1.633
 3482SOL    HW111345   0.354   2.155   1.615
 3482SOL    HW211346   0.243   2.272   1.589
 3483SOL     OW11347   3.990   1.090   1.163
 3483SOL    HW111348   4.029   1.006   1.200
 3483SOL    HW211349   3.943   1.070   1.077
 3484SOL     OW11350   3.750   4.121   3.109
 3484SOL    HW111351   3.659   4.161   3.095
 3484SOL    HW211352   3.772   4.120   3.206
 3485SOL     OW11353   6.022   2.199   4.639
 3485SOL    HW111354   6.082   2.278   4.620
 3485SOL    HW211355   5.968   2.178   4.557
 3486SOL     OW11356   5.845   1.383   3.242
 3486SOL    HW111357   5.772   1.315   3.241
 3486SOL    HW211358   5.838   1.440   3.159
 3487SOL     OW11359   1.601   0.386   0.709
 3487SOL    HW111360   1.511   0.380   0.752
 3487SOL    HW211361   1.594   0.437   0.623
 3488SOL     OW11362   6.421   3.670   5.187
 3488SOL    HW111363   6.428   3.618   5.273
 3488SOL    HW211364   6.437   3.608   5.110
 3489SOL     OW11365   3.229   5.199   7.008
 3489SOL    HW111366   3.252   5.289   6.971
 3489SOL    HW211367   3.213   5.136   6.932
 3490SOL     OW11368   4.649   3.752   7.013
 3490SOL    HW111369   4.601   3.839   7.018
 3490SOL    HW211370   4.582   3.677   7.006
 3491SOL     OW11371   5.514   2.901   5.087
 3491SOL    HW111372   5.592   2.863   5.137
 3491SOL    HW211373   5.535   2.903   4.989
 3492SOL     OW11374   6.675   4.232   6.650
 3492SOL    HW111375   6.642   4.174   6.576
 3492SOL    HW211376   6.773   4.249   6.638
 3493SOL     OW11377   6.267   4.611   0.924
 3493SOL    HW111378   6.243   4.697   0.881
 3493SOL    HW211379   6.226   4.535   0.874
 3494SOL     OW11380   3.540   6.719   1.402
 3494SOL    HW111381   3.506   6.806   1.365
 3494SOL    HW211382   3.492   6.644   1.357
 3495SOL     OW11383   6.131   4.553   6.318
 3495SOL    HW111384   6.138   4.567   6.417
 3495SOL    HW211385   6.048   4.502   6.297
 3496SOL     OW11386   0.206   6.123   0.990
 3496SOL    HW111387   0.196   6.212   1.033
 3496SOL    HW211388   0.126   6.067   1.012
 3497SOL     OW11389   2.833   0.054   4.995
 3497SOL    HW111390   2.860   0.077   4.902
 3497SOL    HW211391   2.904   0.082   5.059
 3498SOL     OW11392   0.955   1.620   0.284
 3498SOL    HW111393   0.965   1.713   0.317
 3498SOL    HW211394   1.034   1.566   0.312
 3499SOL     OW11395   6.425   3.989   3.752
 3499SOL    HW111396   6.383   4.063   3.701
 3499SOL    HW211397   6.401   3.996   3.849
 3500SOL     OW11398   6.002   2.780   1.263
 3500SOL    HW111399   6.032   2.798   1.357
 3500SOL    HW211400   6.077   2.737   1.213
 3501SOL     OW11401   0.515   4.720   3.106
 3501SOL    HW111402   0.481   4.764   3.189
 3501SOL    HW211403   0.441   4.714   3.038
 3502SOL     OW11404   1.080   5.950   1.060
 3502SOL    HW111405   1.065   6.003   0.976
 3502SOL    HW211406   0.997   5.950   1.115
 3503SOL     OW11407   3.386   6.917   3.665
 3503SOL    HW111408   3.382   6.913   3.565
 3503SOL    HW211409   3.476   6.949   3.693
 3504SOL     OW11410   2.178   3.282   3.037
 3504SOL    HW111411   2.197   3.233   2.952
 3504SOL    HW211412   2.147   3.374   3.016
 3505SOL     OW11413   4.268   6.418   4.672
 3505SOL    HW111414   4.252   6.416   4.574
 3505SOL    HW211415   4.337   6.350   4.696
 3506SOL     OW11416   6.731   4.450   2.403
 3506SOL    HW111417   6.769   4.413   2.318
 3506SOL    HW211418   6.637   4.480   2.387
 3507SOL     OW11419   6.745   0.431   5.988
 3507SOL    HW111420   6.706   0.514   5.947
 3507SOL    HW211421   6.724   0.430   6.086
 3508SOL     OW11422   6.639   4.518   6.918
 3508SOL    HW111423   6.722   4.461   6.920
 3508SOL    HW211424   6.644   4.580   6.840
 3509SOL     OW11425   5.195   6.691   6.932
 3509SOL    HW111426   5.155   6.775   6.896
 3509SOL    HW211427   5.293   6.707   6.951
 3510SOL     OW11428   2.180   1.384   2.390
 3510SOL    HW111429   2.263   1.349   2.346
 3510SOL    HW211430   2.203   1.417   2.482
 3511SOL     OW11431   1.132   0.883   4.044
 3511SOL    HW111432   1.150   0.881   3.946
 3511SOL    HW211433   1.060   0.950   4.064
 3512SOL     OW11434   4.077   3.241   1.514
 3512SOL    HW111435   4.100   3.338   1.524
 3512SOL    HW211436   4.160   3.189   1.497
 3513SOL     OW11437   6.445   4.600   1.129
 3513SOL    HW111438   6.384   4.618   1.051
 3513SOL    HW211439   6.431   4.507   1.162
 3514SOL     OW11440   2.654   5.908   2.836
 3514SOL    HW111441   2.716   5.981   2.805
 3514SOL    HW211442   2.563   5.946   2.851
 3515SOL     OW11443   3.721   5.739   3.329
 3515SOL    HW111444   3.671   5.653   3.321
 3515SOL    HW211445   3.701   5.796   3.250
 3516SOL     OW11446   1.275   1.357   0.528
 3516SOL    HW111447   1.251   1.409   0.446
 3516SOL    HW211448   1.252   1.261   0.514
 3517SOL     OW11449   0.420   0.474   6.699
 3517SOL    HW111450   0.452   0.490   6.793
 3517SOL    HW211451   0.440   0.379   6.673
 3518SOL     OW11452   4.048   3.635   6.228
 3518SOL    HW111453   4.005   3.703   6.170
 3518SOL    HW211454   4.044   3.545   6.183
 3519SOL     OW11455   3.618   0.498   0.354
 3519SOL    HW111456   3.602   0.473   0.259
 3519SOL    HW211457   3.530   0.504   0.402
 3520SOL     OW11458   3.782   4.983   1.496
 3520SOL    HW111459   3.866   4.993   1.549
 3520SOL    HW211460   3.722   5.061   1.513
 3521SOL     OW11461   6.790   2.074   5.672
 3521SOL    HW111462   6.877   2.074   5.624
 3521SOL    HW211463   6.716   2.061   5.606
 3522SOL     OW11464   2.393   0.646   0.977
 3522SOL    HW111465   2.353   0.679   1.063
 3522SOL    HW211466   2.493   0.656   0.981
 3523SOL     OW11467   2.479   4.455   5.130
 3523SOL    HW111468   2.402   4.420   5.183
 3523SOL    HW211469   2.467   4.432   5.034
 3524SOL     OW11470   3.105   1.736   3.725
 3524SOL    HW111471   3.183   1.790   3.694
 3524SOL    HW211472   3.131   1.640   3.730
 3525SOL     OW11473   1.515   3.039   3.439
 3525SOL    HW111474   1.548   2.945   3.448
 3525SOL    HW211475   1.536   3.074   3.348
 3526SOL     OW11476   3.386   6.067   3.435
 3526SOL    HW111477   3.375   6.006   3.356
 3526SOL    HW211478   3.471   6.118   3.426
 3527SOL     OW11479   6.310   3.857   6.975
 3527SOL    HW111480   6.255   3.796   6.917
 3527SOL    HW211481   6.332   3.940   6.925
 3528SOL     OW11482   1.321   0.017   4.684
 3528SOL    HW111483   1.416   0.045   4.670
 3528SOL    HW211484   1.272   0.088   4.734
 3529SOL     OW11485   3.790   5.659   0.622
 3529SOL    HW111486   3.796   5.720   0.701
 3529SOL    HW211487   3.730   5.582   0.644
 3530SOL     OW11488   2.047   5.609   3.244
 3530SOL    HW111489   2.084   5.623   3.336
 3530SOL    HW211490   1.947   5.607   3.249
 3531SOL     OW11491   4.978   4.785   7.000
 3531SOL    HW111492   4.957   4.703   6.948
 3531SOL    HW211493   4.951   4.772   0.070
 3532SOL     OW11494   2.638   6.612   0.526
 3532SOL    HW111495   2.726   6.576   0.560
 3532SOL    HW211496   2.563   6.562   0.568
 3533SOL     OW11497   1.659   0.973   3.148
 3533SOL    HW111498   1.670   1.045   3.080
 3533SOL    HW211499   1.743   0.919   3.154
 3534SOL     OW11500   5.170   0.111   4.137
 3534SOL    HW111501   5.179   0.122   4.236
 3534SOL    HW211502   5.080   0.143   4.108
 3535SOL     OW11503   4.793   5.624   0.264
 3535SOL    HW111504   4.736   5.701   0.296
 3535SOL    HW211505   4.850   5.591   0.339
 3536SOL     OW11506   2.080   3.387   2.568
 3536SOL    HW111507   1.999   3.358   2.518
 3536SOL    HW211508   2.057   3.464   2.627
 3537SOL     OW11509   3.130   4.844   2.351
 3537SOL    HW111510   3.080   4.829   2.265
 3537SOL    HW211511   3.105   4.774   2.417
 3538SOL     OW11512   3.782   0.369   3.380
 3538SOL    HW111513   3.702   0.312   3.400
 3538SOL    HW211514   3.863   0.312   3.373
 3539SOL     OW11515   4.874   5.391   5.018
 3539SOL    HW111516   4.879   5.305   4.967
 3539SOL    HW211517   4.908   5.377   5.111
 3540SOL     OW11518   4.420   4.720   6.479
 3540SOL    HW111519   4.406   4.673   6.566
 3540SOL    HW211520   4.509   4.765   6.479
 3541SOL     OW11521   0.287   2.857   2.458
 3541SOL    HW111522   0.355   2.784   2.451
 3541SOL    HW211523   0.292   2.898   2.550
 3542SOL     OW11524   5.721   1.558   6.995
 3542SOL    HW111525   5.633   1.597   7.023
 3542SOL    HW211526   5.782   1.553   0.048
 3543SOL     OW11527   0.074   3.380   4.108
 3543SOL    HW111528   0.122   3.466   4.123
 3543SOL    HW211529   0.072   3.360   4.010
 3544SOL     OW11530   3.010   4.610   6.088
 3544SOL    HW111531   2.911   4.597   6.093
 3544SOL    HW211532   3.030   4.695   6.039
 3545SOL     OW11533   3.116   6.656   0.895
 3545SOL    HW111534   3.126   6.701   0.983
 3545SOL    HW211535   3.103   6.558   0.909
 3546SOL     OW11536   6.626   4.813   1.145
 3546SOL    HW111537   6.699   4.808   1.214
 3546SOL    HW211538   6.585   4.722   1.134
 3547SOL     OW11539   1.188   3.623   4.540
 3547SOL    HW111540   1.153   3.608   4.632
 3547SOL    HW211541   1.282   3.656   4.545
 3548SOL     OW11542   6.413   0.528   5.764
 3548SOL    HW111543   6.456   0.503   5.677
 3548SOL    HW211544   6.479   0.576   5.822
 3549SOL     OW11545   2.403   6.831   6.597
 3549SOL    HW111546   2.471   6.786   6.539
 3549SOL    HW211547   2.402   6.789   6.687
 3550SOL     OW11548   5.891   1.999   5.502
 3550SOL    HW111549   5.883   2.063   5.578
 3550SOL    HW211550   5.943   1.919   5.531
 3551SOL     OW11551   6.114   1.276   4.734
 3551SOL    HW111552   6.060   1.275   4.818
 3551SOL    HW211553   6.149   1.184   4.715
 3552SOL     OW11554   6.842   0.609   3.211
 3552SOL    HW111555   6.775   0.535   3.219
 3552SOL    HW211556   6.928   0.573   3.176
 3553SOL     OW11557   5.643   6.288   6.184
 3553SOL    HW111558   5.641   6.191   6.160
 3553SOL    HW211559   5.549   6.323   6.189
 3554SOL     OW11560   5.372   4.325   6.072
 3554SOL    HW111561   5.358   4.404   6.011
 3554SOL    HW211562   5.468   4.321   6.099
 3555SOL     OW11563   2.922   1.474   5.600
 3555SOL    HW111564   3.018   1.499   5.598
 3555SOL    HW211565   2.888   1.463   5.506
 3556SOL     OW11566   5.877   1.540   0.581
 3556SOL    HW111567   5.783   1.555   0.549
 3556SOL    HW211568   5.932   1.621   0.561
 3557SOL     OW11569   4.892   6.318   1.522
 3557SOL    HW111570   4.979   6.287   1.561
 3557SOL    HW211571   4.910   6.387   1.452
 3558SOL     OW11572   4.268   5.716   2.562
 3558SOL    HW111573   4.348   5.656   2.563
 3558SOL    HW211574   4.212   5.697   2.481
 3559SOL     OW11575   4.268   6.326   5.886
 3559SOL    HW111576   4.308   6.252   5.833
 3559SOL    HW211577   4.168   6.317   5.885
 3560SOL     OW11578   2.212   6.004   4.599
 3560SOL    HW111579   2.225   5.986   4.696
 3560SOL    HW211580   2.191   5.918   4.552
 3561SOL     OW11581   3.820   3.164   6.154
 3561SOL    HW111582   3.856   3.105   6.225
 3561SOL    HW211583   3.863   3.142   6.066
 3562SOL     OW11584   3.273   1.095   0.504
 3562SOL    HW111585   3.237   1.002   0.517
 3562SOL    HW211586   3.305   1.105   0.410
 3563SOL     OW11587   0.104   2.253   6.971
 3563SOL    HW111588   0.171   2.291   0.010
 3563SOL    HW211589   0.011   2.268   7.007
 3564SOL     OW11590   6.269   3.592   3.042
 3564SOL    HW111591   6.265   3.553   2.950
 3564SOL    HW211592   6.267   3.692   3.036
 3565SOL     OW11593   5.041   6.960   4.628
 3565SOL    HW111594   4.995   0.017   4.657
 3565SOL    HW211595   4.979   6.882   4.636
 3566SOL     OW11596   0.810   1.066   5.485
 3566SOL    HW111597   0.722   1.111   5.504
 3566SOL    HW211598   0.885   1.127   5.509
 3567SOL     OW11599   0.338   4.669   6.683
 3567SOL    HW111600   0.262   4.734   6.684
 3567SOL    HW211601   0.384   4.670   6.772
 3568SOL     OW11602   3.480   4.108   5.441
 3568SOL    HW111603   3.464   4.139   5.535
 3568SOL    HW211604   3.454   4.012   5.432
 3569SOL     OW11605   1.865   0.782   3.148
 3569SOL    HW111606   1.838   0.771   3.053
 3569SOL    HW211607   1.870   0.693   3.193
 3570SOL     OW11608   6.767   2.032   4.615
 3570SOL    HW111609   6.760   2.057   4.519
 3570SOL    HW211610   6.820   2.102   4.664
 3571SOL     OW11611   6.480   5.322   4.337
 3571SOL    HW111612   6.483   5.251   4.407
 3571SOL    HW211613   6.573   5.356   4.320
 3572SOL     OW11614   5.774   6.939   5.114
 3572SOL    HW111615   5.771   6.841   5.095
 3572SOL    HW211616   5.701   6.963   5.178
 3573SOL     OW11617   0.559   2.375   1.742
 3573SOL    HW111618   0.602   2.305   1.800
 3573SOL    HW211619   0.489   2.333   1.684
 3574SOL     OW11620   6.763   3.707   0.223
 3574SOL    HW111621   6.698   3.776   0.190
 3574SOL    HW211622   6.714   3.621   0.239
 3575SOL     OW11623   6.117   0.179   2.526
 3575SOL    HW111624   6.199   0.210   2.477
 3575SOL    HW211625   6.055   0.133   2.463
 3576SOL     OW11626   0.660   0.997   0.776
 3576SOL    HW111627   0.608   1.047   0.708
 3576SOL    HW211628   0.649   0.898   0.762
 3577SOL     OW11629   2.618   4.955   0.024
 3577SOL    HW111630   2.609   4.882   6.982
 3577SOL    HW211631   2.586   5.041   7.010
 3578SOL     OW11632   3.356   4.559   1.625
 3578SOL    HW111633   3.409   4.572   1.710
 3578SOL    HW211634   3.282   4.627   1.622
 3579SOL     OW11635   1.769   3.437   5.573
 3579SOL    HW111636   1.828   3.439   5.492
 3579SOL    HW211637   1.801   3.506   5.639
 3580SOL     OW11638   5.769   2.132   1.317
 3580SOL    HW111639   5.800   2.037   1.318
 3580SOL    HW211640   5.742   2.157   1.224
 3581SOL     OW11641   0.024   0.918   2.907
 3581SOL    HW111642   0.016   0.946   2.812
 3581SOL    HW211643   6.960   0.923   2.951
 3582SOL     OW11644   0.410   0.191   6.033
 3582SOL    HW111645   0.313   0.180   6.013
 3582SOL    HW211646   0.449   0.103   6.060
 3583SOL     OW11647   1.550   6.237   1.540
 3583SOL    HW111648   1.574   6.191   1.454
 3583SOL    HW211649   1.472   6.191   1.582
 3584SOL     OW11650   5.472   0.611   5.064
 3584SOL    HW111651   5.548   0.675   5.066
 3584SOL    HW211652   5.468   0.566   4.975
 3585SOL     OW11653   2.652   4.648   3.585
 3585SOL    HW111654   2.595   4.576   3.625
 3585SOL    HW211655   2.674   4.716   3.655
 3586SOL     OW11656   1.158   1.125   6.643
 3586SOL    HW111657   1.223   1.200   6.627
 3586SOL    HW211658   1.176   1.051   6.578
 3587SOL     OW11659   3.738   6.676   6.300
 3587SOL    HW111660   3.777   6.759   6.261
 3587SOL    HW211661   3.639   6.688   6.312
 3588SOL     OW11662   2.736   2.573   5.591
 3588SOL    HW111663   2.796   2.521   5.652
 3588SOL    HW211664   2.651   2.594   5.638
 3589SOL     OW11665   3.109   6.321   4.840
 3589SOL    HW111666   3.033   6.262   4.867
 3589SOL    HW211667   3.077   6.386   4.770
 3590SOL     OW11668   1.445   5.298   0.047
 3590SOL    HW111669   1.416   5.274   6.980
 3590SOL    HW211670   1.538   5.265   0.062
 3591SOL     OW11671   5.207   1.065   5.460
 3591SOL    HW111672   5.299   1.034   5.484
 3591SOL    HW211673   5.212   1.130   5.384
 3592SOL     OW11674   5.970   1.981   2.088
 3592SOL    HW111675   5.963   2.070   2.133
 3592SOL    HW211676   5.885   1.929   2.101
 3593SOL     OW11677   1.177   5.534   4.329
 3593SOL    HW111678   1.130   5.558   4.244
 3593SOL    HW211679   1.109   5.520   4.402
 3594SOL     OW11680   3.957   1.417   4.123
 3594SOL    HW111681   3.933   1.320   4.132
 3594SOL    HW211682   4.009   1.430   4.039
 3595SOL     OW11683   2.383   6.505   6.187
 3595SOL    HW111684   2.339   6.434   6.134
 3595SOL    HW211685   2.313   6.562   6.231
 3596SOL     OW11686   0.120   3.709   3.397
 3596SOL    HW111687   0.220   3.712   3.406
 3596SOL    HW211688   0.095   3.643   3.326
 3597SOL     OW11689   3.968   6.815   4.415
 3597SOL    HW111690   3.880   6.789   4.376
 3597SOL    HW211691   3.987   6.759   4.496
 3598SOL     OW11692   1.962   0.280   7.000
 3598SOL    HW111693   1.930   0.187   7.018
 3598SOL    HW211694   2.057   0.289   0.007
 3599SOL     OW11695   0.301   1.736   4.643
 3599SOL    HW111696   0.280   1.638   4.646
 3599SOL    HW211697   0.220   1.787   4.615
 3600SOL     OW11698   6.552   6.910   1.206
 3600SOL    HW111699   6.470   6.918   1.262
 3600SOL    HW211700   6.615   6.845   1.248
 3601SOL     OW11701   6.667   3.668   6.156
 3601SOL    HW111702   6.724   3.597   6.116
 3601SOL    HW211703   6.716   3.712   6.231
 3602SOL     OW11704   3.159   2.486   1.273
 3602SOL    HW111705   3.089   2.473   1.343
 3602SOL    HW211706   3.221   2.408   1.273
 3603SOL     OW11707   3.806   4.879   4.616
 3603SOL    HW111708   3.852   4.857   4.530
 3603SOL    HW211709   3.714   4.914   4.597
 3604SOL     OW11710   6.231   4.132   3.132
 3604SOL    HW111711   6.153   4.177   3.088
 3604SOL    HW211712   6.207   4.111   3.227
 3605SOL     OW11713   6.128   1.784   6.523
 3605SOL    HW111714   6.139   1.880   6.545
 3605SOL    HW211715   6.172   1.728   6.593
 3606SOL     OW11716   2.048   4.339   2.883
 3606SOL    HW111717   2.102   4.339   2.967
 3606SOL    HW211718   2.000   4.426   2.874
 3607SOL     OW11719   4.712   0.085   5.886
 3607SOL    HW111720   4.685   0.173   5.924
 3607SOL    HW211721   4.774   0.039   5.951
 3608SOL     OW11722   0.533   3.085   3.158
 3608SOL    HW111723   0.520   2.987   3.142
 3608SOL    HW211724   0.536   3.133   3.071
 3609SOL     OW11725   6.801   0.633   3.539
 3609SOL    HW111726   6.888   0.600   3.502
 3609SOL    HW211727   6.793   0.731   3.522
 3610SOL     OW11728   1.312   5.340   5.911
 3610SOL    HW111729   1.273   5.423   5.872
 3610SOL    HW211730   1.287   5.333   6.007
 3611SOL     OW11731   5.331   5.388   5.284
 3611SOL    HW111732   5.419   5.376   5.331
 3611SOL    HW211733   5.290   5.474   5.313
 3612SOL     OW11734   2.292   6.164   0.760
 3612SOL    HW111735   2.349   6.153   0.842
 3612SOL    HW211736   2.350   6.161   0.678
 3613SOL     OW11737   5.401   5.135   6.376
 3613SOL    HW111738   5.415   5.040   6.401
 3613SOL    HW211739   5.416   5.147   6.278
 3614SOL     OW11740   3.654   2.985   4.429
 3614SOL    HW111741   3.562   2.954   4.404
 3614SOL    HW211742   3.646   3.067   4.486
 3615SOL     OW11743   5.247   7.020   5.589
 3615SOL    HW111744   5.223   6.939   5.642
 3615SOL    HW211745   5.221   7.006   5.493
 3616SOL     OW11746   6.134   1.482   4.461
 3616SOL    HW111747   6.129   1.384   4.441
 3616SOL    HW211748   6.194   1.526   4.395
 3617SOL     OW11749   0.248   0.984   0.519
 3617SOL    HW111750   0.325   0.953   0.463
 3617SOL    HW211751   0.282   1.014   0.608
 3618SOL     OW11752   3.127   6.127   6.543
 3618SOL    HW111753   3.044   6.136   6.599
 3618SOL    HW211754   3.160   6.218   6.519
 3619SOL     OW11755   5.256   3.649   3.478
 3619SOL    HW111756   5.165   3.656   3.519
 3619SOL    HW211757   5.313   3.726   3.509
 3620SOL     OW11758   5.865   1.452   4.995
 3620SOL    HW111759   5.825   1.416   4.910
 3620SOL    HW211760   5.962   1.428   4.998
 3621SOL     OW11761   1.315   2.616   5.499
 3621SOL    HW111762   1.305   2.714   5.483
 3621SOL    HW211763   1.400   2.584   5.457
 3622SOL     OW11764   0.859   4.037   0.737
 3622SOL    HW111765   0.948   4.079   0.719
 3622SOL    HW211766   0.872   3.952   0.788
 3623SOL     OW11767   6.499   4.843   4.527
 3623SOL    HW111768   6.597   4.839   4.509
 3623SOL    HW211769   6.449   4.800   4.452
 3624SOL     OW11770   2.578   0.332   1.444
 3624SOL    HW111771   2.589   0.430   1.458
 3624SOL    HW211772   2.594   0.310   1.348
 3625SOL     OW11773   1.106   2.671   4.322
 3625SOL    HW111774   1.109   2.656   4.223
 3625SOL    HW211775   1.177   2.615   4.366
 3626SOL     OW11776   2.375   4.009   5.685
 3626SOL    HW111777   2.355   3.911   5.678
 3626SOL    HW211778   2.431   4.038   5.608
 3627SOL     OW11779   3.556   3.397   3.742
 3627SOL    HW111780   3.532   3.416   3.837
 3627SOL    HW211781   3.655   3.401   3.731
 3628SOL     OW11782   2.409   6.028   4.354
 3628SOL    HW111783   2.343   5.969   4.306
 3628SOL    HW211784   2.401   6.013   4.452
 3629SOL     OW11785   5.886   3.355   5.185
 3629SOL    HW111786   5.860   3.284   5.119
 3629SOL    HW211787   5.806   3.381   5.239
 3630SOL     OW11788   5.959   1.080   4.927
 3630SOL    HW111789   5.938   1.012   4.857
 3630SOL    HW211790   5.876   1.100   4.980
 3631SOL     OW11791   2.165   0.848   3.892
 3631SOL    HW111792   2.210   0.935   3.870
 3631SOL    HW211793   2.084   0.866   3.947
 3632SOL     OW11794   4.742   6.740   5.939
 3632SOL    HW111795   4.820   6.706   5.886
 3632SOL    HW211796   4.767   6.824   5.987
 3633SOL     OW11797   1.074   2.527   5.590
 3633SOL    HW111798   1.135   2.448   5.586
 3633SOL    HW211799   1.116   2.605   5.544
 3634SOL     OW11800   3.322   4.981   5.759
 3634SOL    HW111801   3.312   5.070   5.713
 3634SOL    HW211802   3.236   4.930   5.752
 3635SOL     OW11803   2.300   1.611   5.041
 3635SOL    HW111804   2.209   1.584   5.075
 3635SOL    HW211805   2.311   1.579   4.947
 3636SOL     OW11806   1.443   6.220   1.046
 3636SOL    HW111807   1.369   6.255   1.103
 3636SOL    HW211808   1.412   6.137   1.000
 3637SOL     OW11809   4.943   0.599   1.680
 3637SOL    HW111810   4.903   0.655   1.752
 3637SOL    HW211811   4.912   0.505   1.689
 3638SOL     OW11812   6.473   4.593   3.458
 3638SOL    HW111813   6.471   4.508   3.405
 3638SOL    HW211814   6.391   4.601   3.513
 3639SOL     OW11815   2.728   6.338   0.207
 3639SOL    HW111816   2.790   6.403   0.253
 3639SOL    HW211817   2.777   6.253   0.188
 3640SOL     OW11818   2.547   6.835   1.768
 3640SOL    HW111819   2.621   6.865   1.708
 3640SOL    HW211820   2.462   6.880   1.742
 3641SOL     OW11821   2.189   0.694   4.670
 3641SOL    HW111822   2.166   0.678   4.766
 3641SOL    HW211823   2.119   0.752   4.628
 3642SOL     OW11824   6.208   6.655   2.133
 3642SOL    HW111825   6.113   6.623   2.141
 3642SOL    HW211826   6.244   6.627   2.044
 3643SOL     OW11827   3.627   6.051   4.751
 3643SOL    HW111828   3.666   5.962   4.775
 3643SOL    HW211829   3.573   6.085   4.829
 3644SOL     OW11830   6.374   7.014   1.656
 3644SOL    HW111831   6.290   6.959   1.656
 3644SOL    HW211832   6.361   0.070   1.711
 3645SOL     OW11833   4.424   5.726   3.222
 3645SOL    HW111834   4.368   5.743   3.303
 3645SOL    HW211835   4.397   5.639   3.181
 3646SOL     OW11836   0.373   5.309   5.063
 3646SOL    HW111837   0.330   5.395   5.036
 3646SOL    HW211838   0.455   5.295   5.008
 3647SOL     OW11839   2.824   3.213   0.899
 3647SOL    HW111840   2.861   3.279   0.963
 3647SOL    HW211841   2.831   3.121   0.938
 3648SOL     OW11842   3.053   0.016   3.277
 3648SOL    HW111843   3.080   0.096   3.224
 3648SOL    HW211844   2.957   0.025   3.304
 3649SOL     OW11845   3.240   3.281   1.797
 3649SOL    HW111846   3.262   3.369   1.754
 3649SOL    HW211847   3.147   3.285   1.835
 3650SOL     OW11848   5.644   6.905   0.826
 3650SOL    HW111849   5.676   6.931   0.734
 3650SOL    HW211850   5.673   6.974   0.892
 3651SOL     OW11851   1.565   6.201   2.432
 3651SOL    HW111852   1.533   6.113   2.466
 3651SOL    HW211853   1.497   6.272   2.454
 3652SOL     OW11854   4.714   5.669   2.660
 3652SOL    HW111855   4.806   5.645   2.690
 3652SOL    HW211856   4.710   5.666   2.560
 3653SOL     OW11857   6.318   2.830   4.669
 3653SOL    HW111858   6.406   2.811   4.713
 3653SOL    HW211859   6.334   2.863   4.576
 3654SOL     OW11860   2.058   0.325   1.938
 3654SOL    HW111861   1.969   0.340   1.982
 3654SOL    HW211862   2.044   0.301   1.842
 3655SOL     OW11863   6.614   1.573   3.657
 3655SOL    HW111864   6.621   1.550   3.754
 3655SOL    HW211865   6.668   1.508   3.604
 3656SOL     OW11866   2.401   1.760   2.938
 3656SOL    HW111867   2.389   1.858   2.920
 3656SOL    HW211868   2.490   1.745   2.981
 3657SOL     OW11869   4.543   5.349   2.152
 3657SOL    HW111870   4.478   5.378   2.223
 3657SOL    HW211871   4.501   5.361   2.062
 3658SOL     OW11872   2.143   5.269   5.932
 3658SOL    HW111873   2.093   5.254   5.846
 3658SOL    HW211874   2.196   5.187   5.954
 3659SOL     OW11875   1.186   4.067   0.188
 3659SOL    HW111876   1.246   4.069   0.108
 3659SOL    HW211877   1.111   4.002   0.173
 3660SOL     OW11878   4.415   4.538   0.987
 3660SOL    HW111879   4.446   4.609   0.924
 3660SOL    HW211880   4.315   4.529   0.980
 3661SOL     OW11881   5.530   1.515   1.305
 3661SOL    HW111882   5.454   1.487   1.247
 3661SOL    HW211883   5.495   1.561   1.386
 3662SOL     OW11884   1.599   6.149   4.689
 3662SOL    HW111885   1.533   6.182   4.623
 3662SOL    HW211886   1.598   6.208   4.770
 3663SOL     OW11887   1.492   3.387   5.672
 3663SOL    HW111888   1.439   3.471   5.660
 3663SOL    HW211889   1.590   3.407   5.661
 3664SOL     OW11890   3.361   6.733   2.164
 3664SOL    HW111891   3.451   6.702   2.134
 3664SOL    HW211892   3.367   6.765   2.259
 3665SOL     OW11893   1.723   1.416   5.622
 3665SOL    HW111894   1.760   1.498   5.665
 3665SOL    HW211895   1.623   1.421   5.622
 3666SOL     OW11896   1.236   4.662   3.851
 3666SOL    HW111897   1.323   4.693   3.813
 3666SOL    HW211898   1.180   4.741   3.876
 3667SOL     OW11899   0.819   1.617   0.039
 3667SOL    HW111900   0.748   1.675   0.001
 3667SOL    HW211901   0.872   1.667   0.107
 3668SOL     OW11902   1.766   6.691   2.218
 3668SOL    HW111903   1.743   6.621   2.287
 3668SOL    HW211904   1.848   6.663   2.168
 3669SOL     OW11905   5.294   1.527   4.007
 3669SOL    HW111906   5.286   1.560   3.913
 3669SOL    HW211907   5.305   1.606   4.068
 3670SOL     OW11908   2.543   5.850   6.442
 3670SOL    HW111909   2.638   5.872   6.464
 3670SOL    HW211910   2.532   5.751   6.434
 3671SOL     OW11911   2.347   0.468   3.579
 3671SOL    HW111912   2.280   0.537   3.606
 3671SOL    HW211913   2.412   0.454   3.653
 3672SOL     OW11914   6.354   6.946   0.497
 3672SOL    HW111915   6.403   7.016   0.549
 3672SOL    HW211916   6.413   6.910   0.425
 3673SOL     OW11917   4.530   6.818   6.490
 3673SOL    HW111918   4.486   6.832   6.578
 3673SOL    HW211919   4.486   6.876   6.421
 3674SOL     OW11920   1.046   5.985   0.705
 3674SOL    HW111921   1.038   6.038   0.789
 3674SOL    HW211922   1.142   5.982   0.677
 3675SOL     OW11923   2.358   2.342   4.286
 3675SOL    HW111924   2.325   2.432   4.258
 3675SOL    HW211925   2.426   2.353   4.359
 3676SOL     OW11926   1.287   4.495   2.495
 3676SOL    HW111927   1.259   4.544   2.577
 3676SOL    HW211928   1.309   4.400   2.518
 3677SOL     OW11929   5.922   0.414   3.840
 3677SOL    HW111930   5.928   0.492   3.902
 3677SOL    HW211931   5.862   0.344   3.881
 3678SOL     OW11932   0.921   1.938   3.938
 3678SOL    HW111933   0.876   2.010   3.991
 3678SOL    HW211934   1.019   1.958   3.931
 3679SOL     OW11935   6.814   0.557   1.859
 3679SOL    HW111936   6.799   0.528   1.953
 3679SOL    HW211937   6.890   0.622   1.855
 3680SOL     OW11938   5.837   4.282   4.707
 3680SOL    HW111939   5.880   4.343   4.641
 3680SOL    HW211940   5.751   4.247   4.670
 3681SOL     OW11941   5.344   6.337   4.602
 3681SOL    HW111942   5.353   6.430   4.563
 3681SOL    HW211943   5.352   6.270   4.528
 3682SOL     OW11944   0.803   2.572   6.800
 3682SOL    HW111945   0.712   2.531   6.787
 3682SOL    HW211946   0.864   2.542   6.726
 3683SOL     OW11947   5.390   6.269   3.366
 3683SOL    HW111948   5.393   6.182   3.318
 3683SOL    HW211949   5.466   6.274   3.431
 3684SOL     OW11950   1.890   3.180   1.019
 3684SOL    HW111951   1.982   3.172   0.980
 3684SOL    HW211952   1.897   3.188   1.118
 3685SOL     OW11953   5.601   6.955   6.079
 3685SOL    HW111954   5.585   7.004   5.994
 3685SOL    HW211955   5.681   6.895   6.069
 3686SOL     OW11956   6.904   4.373   0.946
 3686SOL    HW111957   6.991   4.335   0.914
 3686SOL    HW211958   6.921   4.461   0.989
 3687SOL     OW11959   3.710   1.627   0.407
 3687SOL    HW111960   3.803   1.595   0.390
 3687SOL    HW211961   3.647   1.581   0.344
 3688SOL     OW11962   6.785   3.432   0.326
 3688SOL    HW111963   6.791   3.337   0.357
 3688SOL    HW211964   6.692   3.449   0.292
 3689SOL     OW11965   2.066   6.824   3.572
 3689SOL    HW111966   2.135   6.753   3.558
 3689SOL    HW211967   1.978   6.781   3.591
 3690SOL     OW11968   4.845   5.636   4.697
 3690SOL    HW111969   4.795   5.719   4.672
 3690SOL    HW211970   4.785   5.557   4.689
 3691SOL     OW11971   3.091   3.025   5.922
 3691SOL    HW111972   3.153   3.042   5.846
 3691SOL    HW211973   3.143   3.013   6.006
 3692SOL     OW11974   0.178   0.058   5.892
 3692SOL    HW111975   0.150   6.998   5.937
 3692SOL    HW211976   0.098   0.116   5.879
 3693SOL     OW11977   1.739   1.120   3.556
 3693SOL    HW111978   1.683   1.052   3.509
 3693SOL    HW211979   1.722   1.115   3.654
 3694SOL     OW11980   2.103   5.373   3.064
 3694SOL    HW111981   2.080   5.462   3.104
 3694SOL    HW211982   2.088   5.377   2.965
 3695SOL     OW11983   1.790   2.247   0.925
 3695SOL    HW111984   1.771   2.210   0.834
 3695SOL    HW211985   1.883   2.221   0.952
 3696SOL     OW11986   3.077   6.506   5.674
 3696SOL    HW111987   3.027   6.436   5.726
 3696SOL    HW211988   3.045   6.597   5.700
 3697SOL     OW11989   5.092   0.669   3.946
 3697SOL    HW111990   5.065   0.580   3.982
 3697SOL    HW211991   5.102   0.734   4.022
 3698SOL     OW11992   3.557   0.230   6.601
 3698SOL    HW111993   3.590   0.137   6.586
 3698SOL    HW211994   3.593   0.290   6.529
 3699SOL     OW11995   0.504   5.128   1.747
 3699SOL    HW111996   0.568   5.205   1.741
 3699SOL    HW211997   0.548   5.046   1.709
 3700SOL     OW11998   6.807   0.923   3.652
 3700SOL    HW111999   6.854   0.883   3.731
 3700SOL    HW212000   6.864   0.993   3.611
 3701SOL     OW12001   5.379   0.691   3.879
 3701SOL    HW112002   5.407   0.741   3.796
 3701SOL    HW212003   5.279   0.687   3.883
 3702SOL     OW12004   5.229   0.815   6.426
 3702SOL    HW112005   5.168   0.893   6.436
 3702SOL    HW212006   5.324   0.844   6.439
 3703SOL     OW12007   3.516   4.929   0.838
 3703SOL    HW112008   3.427   4.924   0.883
 3703SOL    HW212009   3.510   4.891   0.746
 3704SOL     OW12010   3.179   6.548   1.592
 3704SOL    HW112011   3.232   6.547   1.677
 3704SOL    HW212012   3.120   6.630   1.591
 3705SOL     OW12013   6.595   1.336   4.180
 3705SOL    HW112014   6.694   1.325   4.175
 3705SOL    HW212015   6.559   1.281   4.255
 3706SOL     OW12016   3.181   2.166   3.290
 3706SOL    HW112017   3.159   2.183   3.194
 3706SOL    HW212018   3.271   2.124   3.297
 3707SOL     OW12019   4.406   2.411   5.432
 3707SOL    HW112020   4.394   2.507   5.457
 3707SOL    HW212021   4.412   2.356   5.515
 3708SOL     OW12022   6.823   0.395   6.828
 3708SOL    HW112023   6.764   0.475   6.827
 3708SOL    HW212024   6.916   0.422   6.852
 3709SOL     OW12025   6.185   0.237   6.988
 3709SOL    HW112026   6.192   0.177   6.909
 3709SOL    HW212027   6.210   0.330   6.961
 3710SOL     OW12028   0.458   4.672   6.928
 3710SOL    HW112029   0.443   4.638   7.021
 3710SOL    HW212030   0.549   4.647   6.898
 3711SOL     OW12031   6.650   5.179   2.573
 3711SOL    HW112032   6.695   5.118   2.508
 3711SOL    HW212033   6.643   5.133   2.661
 3712SOL     OW12034   1.653   0.593   6.537
 3712SOL    HW112035   1.594   0.582   6.617
 3712SOL    HW212036   1.623   0.672   6.483
 3713SOL     OW12037   3.947   5.018   6.010
 3713SOL    HW112038   4.039   4.979   6.000
 3713SOL    HW212039   3.955   5.116   6.030
 3714SOL     OW12040   4.571   1.694   5.270
 3714SOL    HW112041   4.604   1.788   5.280
 3714SOL    HW212042   4.472   1.692   5.282
 3715SOL     OW12043   5.314   4.023   3.893
 3715SOL    HW112044   5.251   4.098   3.874
 3715SOL    HW212045   5.369   4.006   3.811
 3716SOL     OW12046   0.670   1.366   4.162
 3716SOL    HW112047   0.621   1.296   4.111
 3716SOL    HW212048   0.749   1.324   4.207
 3717SOL     OW12049   5.980   0.659   6.825
 3717SOL    HW112050   5.885   0.681   6.848
 3717SOL    HW212051   6.033   0.649   6.909
 3718SOL     OW12052   0.516   5.831   6.732
 3718SOL    HW112053   0.464   5.886   6.797
 3718SOL    HW212054   0.489   5.857   6.639
 3719SOL     OW12055   3.427   4.738   0.584
 3719SOL    HW112056   3.488   4.703   0.512
 3719SOL    HW212057   3.389   4.826   0.556
 3720SOL     OW12058   0.154   1.187   5.813
 3720SOL    HW112059   0.232   1.249   5.805
 3720SOL    HW212060   0.178   1.097   5.779
 3721SOL     OW12061   4.994   3.159   0.053
 3721SOL    HW112062   4.984   3.184   6.983
 3721SOL    HW212063   5.091   3.159   0.077
 3722SOL     OW12064   5.718   6.023   1.319
 3722SOL    HW112065   5.711   6.074   1.233
 3722SOL    HW212066   5.709   5.925   1.300
 3723SOL     OW12067   5.044   0.908   0.196
 3723SOL    HW112068   4.992   0.993   0.204
 3723SOL    HW212069   4.984   0.830   0.215
 3724SOL     OW12070   0.509   4.329   5.839
 3724SOL    HW112071   0.573   4.396   5.800
 3724SOL    HW212072   0.448   4.376   5.903
 3725SOL     OW12073   5.710   6.153   0.807
 3725SOL    HW112074   5.617   6.181   0.782
 3725SOL    HW212075   5.776   6.217   0.768
 3726SOL     OW12076   6.309   2.643   1.306
 3726SOL    HW112077   6.372   2.716   1.331
 3726SOL    HW212078   6.261   2.611   1.388
 3727SOL     OW12079   2.562   2.782   5.255
 3727SOL    HW112080   2.549   2.881   5.242
 3727SOL    HW212081   2.659   2.760   5.246
 3728SOL     OW12082   0.470   3.743   6.797
 3728SOL    HW112083   0.412   3.695   6.863
 3728SOL    HW212084   0.550   3.686   6.776
 3729SOL     OW12085   0.749   3.192   3.992
 3729SOL    HW112086   0.786   3.170   3.902
 3729SOL    HW212087   0.660   3.148   4.003
 3730SOL     OW12088   2.094   0.347   0.886
 3730SOL    HW112089   2.134   0.438   0.872
 3730SOL    HW212090   2.125   0.286   0.813
 3731SOL     OW12091   3.050   5.428   6.759
 3731SOL    HW112092   3.120   5.489   6.720
 3731SOL    HW212093   2.960   5.456   6.726
 3732SOL     OW12094   2.128   3.536   4.377
 3732SOL    HW112095   2.146   3.545   4.279
 3732SOL    HW212096   2.131   3.626   4.420
 3733SOL     OW12097   3.503   3.732   0.901
 3733SOL    HW112098   3.543   3.722   0.993
 3733SOL    HW212099   3.457   3.820   0.894
 3734SOL     OW12100   4.510   0.155   3.553
 3734SOL    HW112101   4.542   0.204   3.472
 3734SOL    HW212102   4.550   0.064   3.555
 3735SOL     OW12103   3.499   1.981   1.992
 3735SOL    HW112104   3.400   1.984   2.006
 3735SOL    HW212105   3.541   2.063   2.031
 3736SOL     OW12106   5.001   1.109   5.895
 3736SOL    HW112107   5.022   1.020   5.935
 3736SOL    HW212108   5.008   1.103   5.795
 3737SOL     OW12109   3.731   6.626   3.991
 3737SOL    HW112110   3.786   6.624   3.907
 3737SOL    HW212111   3.710   6.532   4.019
 3738SOL     OW12112   6.994   0.041   4.142
 3738SOL    HW112113   0.052   0.092   4.122
 3738SOL    HW212114   6.917   0.104   4.149
 3739SOL     OW12115   0.621   3.081   1.170
 3739SOL    HW112116   0.536   3.132   1.180
 3739SOL    HW212117   0.667   3.074   1.259
 3740SOL     OW12118   5.384   0.235   6.894
 3740SOL    HW112119   5.473   0.267   6.927
 3740SOL    HW212120   5.396   0.187   6.807
 3741SOL     OW12121   3.256   2.007   6.946
 3741SOL    HW112122   3.214   1.939   6.887
 3741SOL    HW212123   3.286   1.964   0.005
 3742SOL     OW12124   3.458   3.454   5.724
 3742SOL    HW112125   3.442   3.393   5.802
 3742SOL    HW212126   3.416   3.543   5.742
 3743SOL     OW12127   0.886   5.777   6.274
 3743SOL    HW112128   0.874   5.690   6.322
 3743SOL    HW212129   0.982   5.804   6.276
 3744SOL     OW12130   6.378   5.556   3.052
 3744SOL    HW112131   6.390   5.496   3.130
 3744SOL    HW212132   6.425   5.518   2.972
 3745SOL     OW12133   4.973   5.093   2.143
 3745SOL    HW112134   4.902   5.068   2.209
 3745SOL    HW212135   4.945   5.065   2.052
 3746SOL     OW12136   4.215   1.531   1.657
 3746SOL    HW112137   4.245   1.466   1.727
 3746SOL    HW212138   4.138   1.492   1.607
 3747SOL     OW12139   3.267   0.556   0.706
 3747SOL    HW112140   3.252   0.575   0.803
 3747SOL    HW212141   3.336   0.484   0.697
 3748SOL     OW12142   5.145   0.227   1.485
 3748SOL    HW112143   5.205   0.176   1.424
 3748SOL    HW212144   5.199   0.287   1.543
 3749SOL     OW12145   1.444   0.841   3.936
 3749SOL    HW112146   1.470   0.797   4.022
 3749SOL    HW212147   1.381   0.781   3.886
 3750SOL     OW12148   0.214   4.033   6.391
 3750SOL    HW112149   0.313   4.030   6.382
 3750SOL    HW212150   0.176   4.097   6.324
 3751SOL     OW12151   1.556   5.025   1.289
 3751SOL    HW112152   1.634   5.007   1.230
 3751SOL    HW212153   1.575   5.105   1.346
 3752SOL     OW12154   5.149   5.968   6.875
 3752SOL    HW112155   5.186   6.020   6.798
 3752SOL    HW212156   5.163   5.871   6.860
 3753SOL     OW12157   0.735   0.355   3.301
 3753SOL    HW112158   0.802   0.429   3.304
 3753SOL    HW212159   0.763   0.283   3.364
 3754SOL     OW12160   2.923   1.310   1.509
 3754SOL    HW112161   2.857   1.383   1.532
 3754SOL    HW212162   2.970   1.334   1.424
 3755SOL     OW12163   2.493   5.754   4.044
 3755SOL    HW112164   2.454   5.744   4.135
 3755SOL    HW212165   2.535   5.845   4.035
 3756SOL     OW12166   1.625   6.840   0.504
 3756SOL    HW112167   1.597   6.784   0.426
 3756SOL    HW212168   1.550   6.843   0.570
 3757SOL     OW12169   0.147   4.428   0.392
 3757SOL    HW112170   0.230   4.372   0.386
 3757SOL    HW212171   0.085   4.387   0.459
 3758SOL     OW12172   1.388   6.452   3.917
 3758SOL    HW112173   1.360   6.511   3.992
 3758SOL    HW212174   1.486   6.435   3.922
 3759SOL     OW12175   4.757   0.456   4.009
 3759SOL    HW112176   4.680   0.403   4.043
 3759SOL    HW212177   4.773   0.433   3.913
 3760SOL     OW12178   1.193   1.086   3.148
 3760SOL    HW112179   1.202   1.019   3.222
 3760SOL    HW212180   1.274   1.144   3.146
 3761SOL     OW12181   4.905   1.758   5.539
 3761SOL    HW112182   4.886   1.728   5.633
 3761SOL    HW212183   4.855   1.699   5.475
 3762SOL     OW12184   0.553   2.346   3.946
 3762SOL    HW112185   0.646   2.380   3.958
 3762SOL    HW212186   0.514   2.323   4.035
 3763SOL     OW12187   0.382   5.805   6.489
 3763SOL    HW112188   0.292   5.764   6.504
 3763SOL    HW212189   0.385   5.847   6.398
 3764SOL     OW12190   3.292   1.285   2.741
 3764SOL    HW112191   3.227   1.323   2.807
 3764SOL    HW212192   3.345   1.360   2.699
 3765SOL     OW12193   5.440   2.950   2.871
 3765SOL    HW112194   5.479   3.041   2.863
 3765SOL    HW212195   5.340   2.956   2.875
 3766SOL     OW12196   1.543   2.742   2.278
 3766SOL    HW112197   1.569   2.664   2.222
 3766SOL    HW212198   1.556   2.827   2.225
 3767SOL     OW12199   1.902   6.135   5.930
 3767SOL    HW112200   1.928   6.073   5.857
 3767SOL    HW212201   1.882   6.225   5.892
 3768SOL     OW12202   1.607   6.729   2.721
 3768SOL    HW112203   1.705   6.722   2.706
 3768SOL    HW212204   1.576   6.823   2.705
 3769SOL     OW12205   5.200   5.240   4.672
 3769SOL    HW112206   5.214   5.323   4.727
 3769SOL    HW212207   5.284   5.186   4.672
 3770SOL     OW12208   3.043   0.066   1.387
 3770SOL    HW112209   3.027   0.112   1.475
 3770SOL    HW212210   3.088   7.004   1.403
 3771SOL     OW12211   6.906   6.009   5.568
 3771SOL    HW112212   6.882   5.921   5.608
 3771SOL    HW212213   6.898   6.081   5.637
 3772SOL     OW12214   2.160   6.269   2.134
 3772SOL    HW112215   2.175   6.367   2.123
 3772SOL    HW212216   2.209   6.220   2.061
 3773SOL     OW12217   4.566   4.758   6.933
 3773SOL    HW112218   4.564   4.663   6.962
 3773SOL    HW212219   4.586   4.762   6.835
 3774SOL     OW12220   6.715   4.585   1.519
 3774SOL    HW112221   6.747   4.615   1.429
 3774SOL    HW212222   6.632   4.634   1.543
 3775SOL     OW12223   5.479   5.528   4.500
 3775SOL    HW112224   5.545   5.599   4.525
 3775SOL    HW212225   5.457   5.474   4.581
 3776SOL     OW12226   4.174   2.948   6.280
 3776SOL    HW112227   4.205   3.042   6.296
 3776SOL    HW212228   4.232   2.906   6.210
 3777SOL     OW12229   2.857   5.019   4.000
 3777SOL    HW112230   2.788   5.026   3.928
 3777SOL    HW212231   2.948   5.018   3.957
 3778SOL     OW12232   2.830   4.925   6.659
 3778SOL    HW112233   2.861   4.846   6.712
 3778SOL    HW212234   2.890   4.937   6.580
 3779SOL     OW12235   6.918   4.826   6.486
 3779SOL    HW112236   7.003   4.879   6.478
 3779SOL    HW212237   6.923   4.747   6.425
 3780SOL     OW12238   5.954   3.082   2.089
 3780SOL    HW112239   5.930   2.986   2.087
 3780SOL    HW212240   5.900   3.132   2.021
 3781SOL     OW12241   1.724   6.633   5.792
 3781SOL    HW112242   1.700   6.723   5.830
 3781SOL    HW212243   1.659   6.610   5.719
 3782SOL     OW12244   3.799   5.319   0.526
 3782SOL    HW112245   3.778   5.376   0.605
 3782SOL    HW212246   3.893   5.334   0.497
 3783SOL     OW12247   4.512   4.812   5.288
 3783SOL    HW112248   4.570   4.847   5.361
 3783SOL    HW212249   4.554   4.832   5.199
 3784SOL     OW12250   5.715   3.173   5.016
 3784SOL    HW112251   5.616   3.185   5.015
 3784SOL    HW212252   5.739   3.088   4.969
 3785SOL     OW12253   1.271   2.816   2.647
 3785SOL    HW112254   1.182   2.801   2.689
 3785SOL    HW212255   1.310   2.903   2.679
 3786SOL     OW12256   1.843   2.847   5.501
 3786SOL    HW112257   1.779   2.779   5.536
 3786SOL    HW212258   1.887   2.813   5.418
 3787SOL     OW12259   4.945   5.886   4.285
 3787SOL    HW112260   4.972   5.848   4.196
 3787SOL    HW212261   4.849   5.913   4.281
 3788SOL     OW12262   5.846   3.172   5.856
 3788SOL    HW112263   5.749   3.189   5.874
 3788SOL    HW212264   5.900   3.190   5.938
 3789SOL     OW12265   2.083   3.364   1.368
 3789SOL    HW112266   2.061   3.413   1.284
 3789SOL    HW212267   2.036   3.276   1.368
 3790SOL     OW12268   1.353   6.788   1.413
 3790SOL    HW112269   1.273   6.847   1.405
 3790SOL    HW212270   1.402   6.787   1.326
 3791SOL     OW12271   4.776   0.520   4.770
 3791SOL    HW112272   4.717   0.544   4.693
 3791SOL    HW212273   4.734   0.551   4.855
 3792SOL     OW12274   6.114   6.907   3.824
 3792SOL    HW112275   6.126   6.814   3.859
 3792SOL    HW212276   6.036   6.949   3.870
 3793SOL     OW12277   4.468   4.054   0.239
 3793SOL    HW112278   4.532   4.131   0.251
 3793SOL    HW212279   4.441   4.020   0.329
 3794SOL     OW12280   1.355   5.229   6.783
 3794SOL    HW112281   1.332   5.134   6.758
 3794SOL    HW212282   1.358   5.284   6.700
 3795SOL     OW12283   3.481   6.267   0.890
 3795SOL    HW112284   3.558   6.225   0.939
 3795SOL    HW212285   3.512   6.350   0.844
 3796SOL     OW12286   5.679   0.700   6.872
 3796SOL    HW112287   5.618   0.769   6.911
 3796SOL    HW212288   5.700   0.631   6.942
 3797SOL     OW12289   0.197   3.185   1.240
 3797SOL    HW112290   0.240   3.096   1.236
 3797SOL    HW212291   0.224   3.240   1.160
 3798SOL     OW12292   1.185   5.145   3.550
 3798SOL    HW112293   1.188   5.176   3.645
 3798SOL    HW212294   1.137   5.058   3.545
 3799SOL     OW12295   6.387   1.410   3.077
 3799SOL    HW112296   6.358   1.331   3.132
 3799SOL    HW212297   6.392   1.490   3.136
 3800SOL     OW12298   5.505   2.665   2.920
 3800SOL    HW112299   5.447   2.644   2.999
 3800SOL    HW212300   5.516   2.764   2.912
 3801SOL     OW12301   6.273   1.427   1.013
 3801SOL    HW112302   6.332   1.489   1.064
 3801SOL    HW212303   6.236   1.358   1.075
 3802SOL     OW12304   6.832   3.446   2.325
 3802SOL    HW112305   6.760   3.493   2.274
 3802SOL    HW212306   6.791   3.381   2.389
 3803SOL     OW12307   4.440   3.991   5.592
 3803SOL    HW112308   4.402   4.083   5.588
 3803SOL    HW212309   4.482   3.976   5.682
 3804SOL     OW12310   3.648   6.143   3.450
 3804SOL    HW112311   3.681   6.079   3.520
 3804SOL    HW212312   3.704   6.133   3.368
 3805SOL     OW12313   2.515   2.180   6.946
 3805SOL    HW112314   2.476   2.112   6.884
 3805SOL    HW212315   2.574   2.134   7.012
 3806SOL     OW12316   2.165   4.561   2.012
 3806SOL    HW112317   2.082   4.534   2.060
 3806SOL    HW212318   2.141   4.598   1.922
 3807SOL     OW12319   0.744   4.442   3.561
 3807SOL    HW112320   0.658   4.430   3.512
 3807SOL    HW212321   0.747   4.381   3.640
 3808SOL     OW12322   2.843   7.022   5.840
 3808SOL    HW112323   2.893   7.008   5.754
 3808SOL    HW212324   2.762   0.052   5.823
 3809SOL     OW12325   5.425   1.403   2.122
 3809SOL    HW112326   5.388   1.317   2.088
 3809SOL    HW212327   5.503   1.431   2.066
 3810SOL     OW12328   5.263   2.194   3.121
 3810SOL    HW112329   5.279   2.271   3.060
 3810SOL    HW212330   5.323   2.117   3.096
 3811SOL     OW12331   6.942   6.225   5.719
 3811SOL    HW112332   6.907   6.261   5.806
 3811SOL    HW212333   0.014   6.245   5.712
 3812SOL     OW12334   3.828   5.789   0.361
 3812SOL    HW112335   3.921   5.820   0.342
 3812SOL    HW212336   3.820   5.767   0.459
 3813SOL     OW12337   5.831   3.429   0.004
 3813SOL    HW112338   5.732   3.442   0.010
 3813SOL    HW212339   5.865   3.395   0.092
 3814SOL     OW12340   0.496   0.349   5.097
 3814SOL    HW112341   0.450   0.418   5.153
 3814SOL    HW212342   0.562   0.393   5.037
 3815SOL     OW12343   5.322   2.375   6.316
 3815SOL    HW112344   5.248   2.408   6.257
 3815SOL    HW212345   5.284   2.349   6.405
 3816SOL     OW12346   6.710   6.630   1.081
 3816SOL    HW112347   6.673   6.551   1.129
 3816SOL    HW212348   6.754   6.691   1.146
 3817SOL     OW12349   3.879   3.741   1.709
 3817SOL    HW112350   3.806   3.705   1.651
 3817SOL    HW212351   3.902   3.675   1.780
 3818SOL     OW12352   4.821   5.800   2.394
 3818SOL    HW112353   4.828   5.867   2.468
 3818SOL    HW212354   4.854   5.841   2.309
 3819SOL     OW12355   6.523   3.517   3.106
 3819SOL    HW112356   6.530   3.445   3.175
 3819SOL    HW212357   6.427   3.534   3.085
 3820SOL     OW12358   3.350   6.638   5.875
 3820SOL    HW112359   3.332   6.712   5.940
 3820SOL    HW212360   3.264   6.600   5.842
 3821SOL     OW12361   2.050   6.897   0.444
 3821SOL    HW112362   2.043   6.839   0.363
 3821SOL    HW212363   1.988   6.975   0.435
 3822SOL     OW12364   5.199   6.998   2.258
 3822SOL    HW112365   5.230   0.060   2.220
 3822SOL    HW212366   5.187   6.932   2.183
 3823SOL     OW12367   5.440   5.754   4.816
 3823SOL    HW112368   5.487   5.837   4.787
 3823SOL    HW212369   5.487   5.716   4.896
 3824SOL     OW12370   1.948   2.651   0.917
 3824SOL    HW112371   1.948   2.598   1.003
 3824SOL    HW212372   1.905   2.739   0.933
 3825SOL     OW12373   0.443   5.047   5.722
 3825SOL    HW112374   0.458   5.087   5.632
 3825SOL    HW212375   0.458   5.117   5.793
 3826SOL     OW12376   4.960   3.753   3.529
 3826SOL    HW112377   4.976   3.786   3.436
 3826SOL    HW212378   4.943   3.654   3.527
 3827SOL     OW12379   0.351   1.829   6.964
 3827SOL    HW112380   0.302   1.908   7.001
 3827SOL    HW212381   0.299   1.791   6.887
 3828SOL     OW12382   3.419   3.003   4.683
 3828SOL    HW112383   3.348   2.980   4.616
 3828SOL    HW212384   3.400   2.956   4.769
 3829SOL     OW12385   0.498   3.273   1.375
 3829SOL    HW112386   0.586   3.272   1.423
 3829SOL    HW212387   0.464   3.367   1.368
 3830SOL     OW12388   5.502   6.969   3.724
 3830SOL    HW112389   5.422   6.958   3.666
 3830SOL    HW212390   5.473   6.985   3.819
 3831SOL     OW12391   4.980   2.634   3.388
 3831SOL    HW112392   4.952   2.608   3.295
 3831SOL    HW212393   4.903   2.678   3.435
 3832SOL     OW12394   6.242   1.416   3.669
 3832SOL    HW112395   6.237   1.408   3.768
 3832SOL    HW212396   6.149   1.410   3.631
 3833SOL     OW12397   1.646   3.053   5.276
 3833SOL    HW112398   1.680   3.125   5.216
 3833SOL    HW212399   1.720   3.024   5.338
 3834SOL     OW12400   5.224   4.576   1.179
 3834SOL    HW112401   5.202   4.671   1.156
 3834SOL    HW212402   5.178   4.550   1.264
 3835SOL     OW12403   4.306   5.516   5.100
 3835SOL    HW112404   4.353   5.480   5.019
 3835SOL    HW212405   4.213   5.544   5.075
 3836SOL     OW12406   6.944   6.974   4.424
 3836SOL    HW112407   6.957   6.998   4.328
 3836SOL    HW212408   7.024   6.924   4.457
 3837SOL     OW12409   4.656   4.496   5.613
 3837SOL    HW112410   4.683   4.553   5.535
 3837SOL    HW212411   4.604   4.551   5.678
 3838SOL     OW12412   6.640   0.406   4.213
 3838SOL    HW112413   6.664   0.442   4.303
 3838SOL    HW212414   6.656   0.476   4.143
 3839SOL     OW12415   4.806   0.336   3.771
 3839SOL    HW112416   4.782   0.245   3.736
 3839SOL    HW212417   4.801   0.402   3.696
 3840SOL     OW12418   3.893   1.347   6.483
 3840SOL    HW112419   3.915   1.425   6.424
 3840SOL    HW212420   3.940   1.265   6.449
 3841SOL     OW12421   6.144   4.072   3.621
 3841SOL    HW112422   6.129   4.104   3.715
 3841SOL    HW212423   6.105   3.981   3.611
 3842SOL     OW12424   1.785   4.205   5.756
 3842SOL    HW112425   1.867   4.239   5.710
 3842SOL    HW212426   1.810   4.133   5.820
 3843SOL     OW12427   5.792   2.473   6.327
 3843SOL    HW112428   5.838   2.428   6.403
 3843SOL    HW212429   5.696   2.490   6.350
 3844SOL     OW12430   6.668   0.270   1.042
 3844SOL    HW112431   6.571   0.276   1.020
 3844SOL    HW212432   6.689   0.179   1.079
 3845SOL     OW12433   2.081   5.837   0.199
 3845SOL    HW112434   2.048   5.780   0.124
 3845SOL    HW212435   2.159   5.892   0.167
 3846SOL     OW12436   0.312   3.283   2.829
 3846SOL    HW112437   0.379   3.209   2.825
 3846SOL    HW212438   0.351   3.360   2.881
 3847SOL     OW12439   0.633   1.807   6.971
 3847SOL    HW112440   0.539   1.775   6.953
 3847SOL    HW212441   0.685   1.804   6.886
 3848SOL     OW12442   6.487   4.523   2.200
 3848SOL    HW112443   6.411   4.578   2.165
 3848SOL    HW212444   6.494   4.439   2.147
 3849SOL     OW12445   0.721   4.158   5.987
 3849SOL    HW112446   0.670   4.185   5.905
 3849SOL    HW212447   0.791   4.227   6.007
 3850SOL     OW12448   3.101   2.715   1.132
 3850SOL    HW112449   3.131   2.643   1.196
 3850SOL    HW212450   3.152   2.799   1.152
 3851SOL     OW12451   0.525   6.036   3.053
 3851SOL    HW112452   0.463   5.964   3.086
 3851SOL    HW212453   0.596   6.052   3.122
 3852SOL     OW12454   2.071   0.928   5.032
 3852SOL    HW112455   2.087   0.849   4.972
 3852SOL    HW212456   2.154   0.946   5.085
 3853SOL     OW12457   2.940   0.841   3.364
 3853SOL    HW112458   2.984   0.786   3.293
 3853SOL    HW212459   2.996   0.841   3.447
 3854SOL     OW12460   0.499   1.831   2.044
 3854SOL    HW112461   0.413   1.784   2.025
 3854SOL    HW212462   0.485   1.930   2.043
 3855SOL     OW12463   3.467   6.577   6.603
 3855SOL    HW112464   3.484   6.637   6.525
 3855SOL    HW212465   3.402   6.621   6.665
 3856SOL     OW12466   7.016   2.314   6.370
 3856SOL    HW112467   0.027   2.387   6.427
 3856SOL    HW212468   6.944   2.350   6.311
 3857SOL     OW12469   2.518   0.629   6.067
 3857SOL    HW112470   2.445   0.597   6.007
 3857SOL    HW212471   2.596   0.659   6.012
 3858SOL     OW12472   4.307   0.948   4.019
 3858SOL    HW112473   4.293   0.956   4.117
 3858SOL    HW212474   4.388   0.892   4.001
 3859SOL     OW12475   6.177   6.796   1.710
 3859SOL    HW112476   6.238   6.735   1.762
 3859SOL    HW212477   6.097   6.745   1.680
 3860SOL     OW12478   1.618   7.013   4.228
 3860SOL    HW112479   1.599   0.086   4.234
 3860SOL    HW212480   1.618   6.985   4.132
 3861SOL     OW12481   2.910   5.720   1.793
 3861SOL    HW112482   2.927   5.631   1.833
 3861SOL    HW212483   2.822   5.719   1.744
 3862SOL     OW12484   1.578   1.002   4.255
 3862SOL    HW112485   1.619   0.964   4.172
 3862SOL    HW212486   1.647   1.053   4.307
 3863SOL     OW12487   3.526   0.812   0.582
 3863SOL    HW112488   3.439   0.853   0.609
 3863SOL    HW212489   3.519   0.778   0.488
 3864SOL     OW12490   1.542   0.373   4.609
 3864SOL    HW112491   1.571   0.277   4.607
 3864SOL    HW212492   1.505   0.398   4.519
 3865SOL     OW12493   5.107   1.395   0.744
 3865SOL    HW112494   5.167   1.411   0.666
 3865SOL    HW212495   5.119   1.469   0.811
 3866SOL     OW12496   3.234   1.260   6.494
 3866SOL    HW112497   3.211   1.328   6.423
 3866SOL    HW212498   3.327   1.276   6.526
 3867SOL     OW12499   0.171   2.983   2.258
 3867SOL    HW112500   0.188   2.912   2.327
 3867SOL    HW212501   0.112   2.945   2.187
 3868SOL     OW12502   4.278   0.393   6.949
 3868SOL    HW112503   4.282   0.455   0.002
 3868SOL    HW212504   4.308   0.302   6.977
 3869SOL     OW12505   4.718   1.152   4.299
 3869SOL    HW112506   4.783   1.096   4.350
 3869SOL    HW212507   4.760   1.182   4.213
 3870SOL     OW12508   0.069   0.896   5.940
 3870SOL    HW112509   7.006   0.914   5.985
 3870SOL    HW212510   0.140   0.886   6.010
 3871SOL     OW12511   2.739   5.951   4.296
 3871SOL    HW112512   2.668   5.941   4.365
 3871SOL    HW212513   2.828   5.934   4.338
 3872SOL     OW12514   2.884   3.412   5.287
 3872SOL    HW112515   2.919   3.428   5.194
 3872SOL    HW212516   2.905   3.491   5.345
 3873SOL     OW12517   4.142   1.942   0.246
 3873SOL    HW112518   4.213   2.007   0.219
 3873SOL    HW212519   4.169   1.849   0.219
 3874SOL     OW12520   2.389   1.233   1.002
 3874SOL    HW112521   2.440   1.148   0.986
 3874SOL    HW212522   2.333   1.254   0.921
 3875SOL     OW12523   1.040   2.034   6.415
 3875SOL    HW112524   1.048   2.115   6.357
 3875SOL    HW212525   1.016   1.955   6.358
 3876SOL     OW12526   3.254   5.353   2.321
 3876SOL    HW112527   3.298   5.360   2.410
 3876SOL    HW212528   3.164   5.310   2.332
 3877SOL     OW12529   0.364   1.702   6.006
 3877SOL    HW112530   0.361   1.802   6.000
 3877SOL    HW212531   0.275   1.665   5.980
 3878SOL     OW12532   5.024   1.355   4.663
 3878SOL    HW112533   4.939   1.347   4.716
 3878SOL    HW212534   5.101   1.366   4.725
 3879SOL     OW12535   5.092   5.924   0.288
 3879SOL    HW112536   5.087   6.019   0.256
 3879SOL    HW212537   5.183   5.887   0.269
 3880SOL     OW12538   4.845   4.648   4.112
 3880SOL    HW112539   4.932   4.618   4.150
 3880SOL    HW212540   4.783   4.674   4.186
 3881SOL     OW12541   1.068   3.318   0.242
 3881SOL    HW112542   1.097   3.275   0.328
 3881SOL    HW212543   0.987   3.271   0.207
 3882SOL     OW12544   0.438   1.894   5.454
 3882SOL    HW112545   0.480   1.985   5.446
 3882SOL    HW212546   0.448   1.861   5.547
 3883SOL     OW12547   4.336   6.045   3.848
 3883SOL    HW112548   4.422   6.000   3.824
 3883SOL    HW212549   4.309   6.106   3.773
 3884SOL     OW12550   0.584   3.580   2.102
 3884SOL    HW112551   0.516   3.634   2.052
 3884SOL    HW212552   0.537   3.514   2.160
 3885SOL     OW12553   4.223   5.969   2.473
 3885SOL    HW112554   4.249   5.876   2.501
 3885SOL    HW212555   4.302   6.016   2.434
 3886SOL     OW12556   2.738   6.074   5.877
 3886SOL    HW112557   2.782   6.023   5.951
 3886SOL    HW212558   2.734   6.017   5.795
 3887SOL     OW12559   1.702   5.958   1.975
 3887SOL    HW112560   1.621   5.949   1.916
 3887SOL    HW212561   1.738   5.867   1.995
 3888SOL     OW12562   5.747   5.097   3.998
 3888SOL    HW112563   5.808   5.153   3.942
 3888SOL    HW212564   5.716   5.150   4.077
 3889SOL     OW12565   5.523   4.325   0.516
 3889SOL    HW112566   5.581   4.247   0.542
 3889SOL    HW212567   5.490   4.312   0.423
 3890SOL     OW12568   5.148   2.985   4.168
 3890SOL    HW112569   5.126   2.955   4.076
 3890SOL    HW212570   5.097   3.069   4.189
 3891SOL     OW12571   5.141   5.637   3.599
 3891SOL    HW112572   5.215   5.646   3.532
 3891SOL    HW212573   5.083   5.559   3.573
 3892SOL     OW12574   6.753   2.120   1.632
 3892SOL    HW112575   6.659   2.087   1.637
 3892SOL    HW212576   6.807   2.080   1.706
 3893SOL     OW12577   4.095   3.814   2.471
 3893SOL    HW112578   4.011   3.868   2.460
 3893SOL    HW212579   4.144   3.810   2.384
 3894SOL     OW12580   4.241   0.517   5.867
 3894SOL    HW112581   4.333   0.477   5.869
 3894SOL    HW212582   4.248   0.616   5.855
 3895SOL     OW12583   0.625   0.324   3.982
 3895SOL    HW112584   0.665   0.259   4.048
 3895SOL    HW212585   0.675   0.411   3.988
 3896SOL     OW12586   1.826   1.432   6.033
 3896SOL    HW112587   1.901   1.366   6.023
 3896SOL    HW212588   1.857   1.509   6.088
 3897SOL     OW12589   4.009   5.853   1.530
 3897SOL    HW112590   3.921   5.872   1.573
 3897SOL    HW212591   3.996   5.793   1.451
 3898SOL     OW12592   3.794   3.276   1.503
 3898SOL    HW112593   3.888   3.244   1.516
 3898SOL    HW212594   3.731   3.200   1.517
 3899SOL     OW12595   3.562   0.359   5.548
 3899SOL    HW112596   3.516   0.447   5.560
 3899SOL    HW212597   3.520   0.309   5.472
 3900SOL     OW12598   4.698   4.201   3.064
 3900SOL    HW112599   4.713   4.239   3.155
 3900SOL    HW212600   4.767   4.238   3.001
 3901SOL     OW12601   2.816   1.247   6.857
 3901SOL    HW112602   2.870   1.201   6.787
 3901SOL    HW212603   2.851   1.340   6.871
 3902SOL     OW12604   5.180   3.100   2.544
 3902SOL    HW112605   5.259   3.149   2.507
 3902SOL    HW212606   5.207   3.052   2.628
 3903SOL     OW12607   3.042   4.339   6.027
 3903SOL    HW112608   3.029   4.438   6.035
 3903SOL    HW212609   3.137   4.320   6.005
 3904SOL     OW12610   1.816   0.366   0.999
 3904SOL    HW112611   1.908   0.361   0.959
 3904SOL    HW212612   1.810   0.303   1.077
 3905SOL     OW12613   6.884   6.378   4.835
 3905SOL    HW112614   6.932   6.404   4.920
 3905SOL    HW212615   6.849   6.460   4.791
 3906SOL     OW12616   6.861   6.619   4.675
 3906SOL    HW112617   6.877   6.612   4.576
 3906SOL    HW212618   6.923   6.687   4.714
 3907SOL     OW12619   6.171   2.318   3.469
 3907SOL    HW112620   6.179   2.406   3.424
 3907SOL    HW212621   6.074   2.299   3.488
 3908SOL     OW12622   2.899   4.149   6.170
 3908SOL    HW112623   2.966   4.205   6.120
 3908SOL    HW212624   2.810   4.195   6.168
 3909SOL     OW12625   5.961   6.010   3.726
 3909SOL    HW112626   5.935   6.106   3.733
 3909SOL    HW212627   6.053   6.003   3.687
 3910SOL     OW12628   3.630   3.331   2.864
 3910SOL    HW112629   3.570   3.411   2.876
 3910SOL    HW212630   3.712   3.359   2.814
 3911SOL     OW12631   6.477   2.459   5.201
 3911SOL    HW112632   6.383   2.479   5.170
 3911SOL    HW212633   6.537   2.534   5.173
 3912SOL     OW12634   4.935   2.959   5.990
 3912SOL    HW112635   5.030   2.956   5.960
 3912SOL    HW212636   4.927   2.913   6.079
 3913SOL     OW12637   1.287   6.532   1.456
 3913SOL    HW112638   1.189   6.552   1.461
 3913SOL    HW212639   1.338   6.617   1.459
 3914SOL     OW12640   3.124   5.776   5.601
 3914SOL    HW112641   3.083   5.863   5.630
 3914SOL    HW212642   3.166   5.788   5.511
 3915SOL     OW12643   6.625   6.209   1.576
 3915SOL    HW112644   6.604   6.305   1.592
 3915SOL    HW212645   6.541   6.158   1.559
 3916SOL     OW12646   0.821   7.011   3.163
 3916SOL    HW112647   0.865   0.070   3.134
 3916SOL    HW212648   0.746   0.007   3.226
 3917SOL     OW12649   2.155   0.539   0.084
 3917SOL    HW112650   2.172   0.441   0.076
 3917SOL    HW212651   2.111   0.572   0.001
 3918SOL     OW12652   5.572   3.314   0.025
 3918SOL    HW112653   5.548   3.295   0.121
 3918SOL    HW212654   5.630   3.241   7.016
 3919SOL     OW12655   3.260   6.950   0.692
 3919SOL    HW112656   3.278   6.946   0.593
 3919SOL    HW212657   3.342   6.982   0.739
 3920SOL     OW12658   2.069   1.756   6.712
 3920SOL    HW112659   1.985   1.739   6.661
 3920SOL    HW212660   2.053   1.737   6.809
 3921SOL     OW12661   0.859   3.669   1.669
 3921SOL    HW112662   0.830   3.753   1.623
 3921SOL    HW212663   0.871   3.687   1.767
 3922SOL     OW12664   1.361   5.138   1.156
 3922SOL    HW112665   1.351   5.222   1.209
 3922SOL    HW212666   1.416   5.073   1.208
 3923SOL     OW12667   6.574   0.646   0.895
 3923SOL    HW112668   6.608   0.727   0.847
 3923SOL    HW212669   6.650   0.594   0.932
 3924SOL     OW12670   6.265   5.326   4.765
 3924SOL    HW112671   6.297   5.419   4.747
 3924SOL    HW212672   6.314   5.262   4.705
 3925SOL     OW12673   1.595   5.165   1.685
 3925SOL    HW112674   1.621   5.169   1.588
 3925SOL    HW212675   1.649   5.095   1.731
 3926SOL     OW12676   3.616   5.326   2.719
 3926SOL    HW112677   3.597   5.327   2.817
 3926SOL    HW212678   3.712   5.351   2.703
 3927SOL     OW12679   0.941   3.399   6.574
 3927SOL    HW112680   1.032   3.435   6.598
 3927SOL    HW212681   0.933   3.394   6.475
 3928SOL     OW12682   6.090   5.343   6.616
 3928SOL    HW112683   6.093   5.245   6.636
 3928SOL    HW212684   6.134   5.360   6.528
 3929SOL     OW12685   0.588   1.495   4.404
 3929SOL    HW112686   0.521   1.437   4.450
 3929SOL    HW212687   0.606   1.458   4.312
 3930SOL     OW12688   3.188   1.754   4.011
 3930SOL    HW112689   3.256   1.682   4.002
 3930SOL    HW212690   3.134   1.760   3.927
 3931SOL     OW12691   5.078   0.101   2.683
 3931SOL    HW112692   5.100   0.198   2.671
 3931SOL    HW212693   5.144   0.059   2.744
 3932SOL     OW12694   1.605   1.571   4.260
 3932SOL    HW112695   1.575   1.491   4.311
 3932SOL    HW212696   1.536   1.597   4.193
 3933SOL     OW12697   1.466   0.126   5.889
 3933SOL    HW112698   1.414   0.104   5.971
 3933SOL    HW212699   1.504   0.218   5.897
 3934SOL     OW12700   5.475   6.242   6.752
 3934SOL    HW112701   5.463   6.180   6.675
 3934SOL    HW212702   5.533   6.319   6.724
 3935SOL     OW12703   5.013   6.814   1.351
 3935SOL    HW112704   4.956   6.733   1.336
 3935SOL    HW212705   5.076   6.797   1.426
 3936SOL     OW12706   0.591   4.432   2.400
 3936SOL    HW112707   0.687   4.430   2.429
 3936SOL    HW212708   0.584   4.478   2.311
 3937SOL     OW12709   0.071   1.649   2.605
 3937SOL    HW112710   0.025   1.561   2.619
 3937SOL    HW212711   0.007   1.723   2.625
 3938SOL     OW12712   0.368   2.586   3.159
 3938SOL    HW112713   0.387   2.536   3.243
 3938SOL    HW212714   0.365   2.522   3.082
 3939SOL     OW12715   2.484   2.148   1.745
 3939SOL    HW112716   2.487   2.049   1.731
 3939SOL    HW212717   2.553   2.174   1.813
 3940SOL     OW12718   4.088   3.750   1.519
 3940SOL    HW112719   4.031   3.763   1.600
 3940SOL    HW212720   4.125   3.838   1.489
 3941SOL     OW12721   4.622   3.024   6.612
 3941SOL    HW112722   4.544   3.047   6.670
 3941SOL    HW212723   4.695   2.984   6.668
 3942SOL     OW12724   0.057   0.496   0.110
 3942SOL    HW112725   0.031   0.589   0.135
 3942SOL    HW212726   0.064   0.489   0.010
 3943SOL     OW12727   0.211   3.105   5.091
 3943SOL    HW112728   0.129   3.140   5.137
 3943SOL    HW212729   0.235   3.166   5.015
 3944SOL     OW12730   5.337   1.417   4.797
 3944SOL    HW112731   5.321   1.514   4.780
 3944SOL    HW212732   5.333   1.366   4.711
 3945SOL     OW12733   6.999   0.957   0.704
 3945SOL    HW112734   0.042   0.914   0.763
 3945SOL    HW212735   6.910   0.912   0.718
 3946SOL     OW12736   4.027   4.930   3.133
 3946SOL    HW112737   3.944   4.906   3.082
 3946SOL    HW212738   4.019   5.023   3.168
 3947SOL     OW12739   6.487   4.406   6.271
 3947SOL    HW112740   6.409   4.354   6.306
 3947SOL    HW212741   6.548   4.429   6.347
 3948SOL     OW12742   5.815   3.730   1.008
 3948SOL    HW112743   5.867   3.656   1.051
 3948SOL    HW212744   5.819   3.811   1.066
 3949SOL     OW12745   5.602   6.243   3.520
 3949SOL    HW112746   5.671   6.313   3.539
 3949SOL    HW212747   5.646   6.163   3.479
 3950SOL     OW12748   2.031   6.194   0.706
 3950SOL    HW112749   1.969   6.229   0.776
 3950SOL    HW212750   2.125   6.211   0.734
 3951SOL     OW12751   5.631   6.820   1.735
 3951SOL    HW112752   5.615   6.914   1.704
 3951SOL    HW212753   5.590   6.807   1.825
 3952SOL     OW12754   5.790   2.061   6.960
 3952SOL    HW112755   5.753   1.973   6.929
 3952SOL    HW212756   5.721   2.109   7.014
 3953SOL     OW12757   3.814   4.040   2.835
 3953SOL    HW112758   3.874   3.963   2.818
 3953SOL    HW212759   3.803   4.054   2.933
 3954SOL     OW12760   4.332   5.083   5.914
 3954SOL    HW112761   4.323   5.021   5.836
 3954SOL    HW212762   4.378   5.036   5.989
 3955SOL     OW12763   4.427   0.897   4.623
 3955SOL    HW112764   4.414   0.948   4.708
 3955SOL    HW212765   4.338   0.879   4.582
 3956SOL     OW12766   2.482   1.216   2.013
 3956SOL    HW112767   2.448   1.302   1.977
 3956SOL    HW212768   2.576   1.201   1.981
 3957SOL     OW12769   3.663   0.860   4.431
 3957SOL    HW112770   3.707   0.843   4.519
 3957SOL    HW212771   3.701   0.943   4.390
 3958SOL     OW12772   5.615   0.072   5.299
 3958SOL    HW112773   5.601   0.049   5.395
 3958SOL    HW212774   5.571   0.003   5.242
 3959SOL     OW12775   4.889   5.201   0.158
 3959SOL    HW112776   4.791   5.214   0.173
 3959SOL    HW212777   4.934   5.291   0.150
 3960SOL     OW12778   6.063   1.580   4.761
 3960SOL    HW112779   6.036   1.620   4.674
 3960SOL    HW212780   6.103   1.490   4.746
 3961SOL     OW12781   5.493   6.246   4.129
 3961SOL    HW112782   5.585   6.218   4.101
 3961SOL    HW212783   5.478   6.222   4.225
 3962SOL     OW12784   6.796   5.627   5.152
 3962SOL    HW112785   6.802   5.717   5.109
 3962SOL    HW212786   6.884   5.605   5.194
 3963SOL     OW12787   4.571   6.569   1.943
 3963SOL    HW112788   4.666   6.571   1.973
 3963SOL    HW212789   4.529   6.658   1.961
 3964SOL     OW12790   5.498   2.832   3.314
 3964SOL    HW112791   5.553   2.769   3.370
 3964SOL    HW212792   5.558   2.900   3.273
 3965SOL     OW12793   5.024   4.104   4.391
 3965SOL    HW112794   4.981   4.074   4.476
 3965SOL    HW212795   4.981   4.188   4.358
 3966SOL     OW12796   2.614   6.726   6.482
 3966SOL    HW112797   2.621   6.657   6.411
 3966SOL    HW212798   2.699   6.779   6.486
 3967SOL     OW12799   2.036   4.464   3.528
 3967SOL    HW112800   2.114   4.458   3.589
 3967SOL    HW212801   1.973   4.535   3.561
 3968SOL     OW12802   3.599   7.005   0.483
 3968SOL    HW112803   3.570   6.946   0.557
 3968SOL    HW212804   3.697   7.024   0.492
 3969SOL     OW12805   0.821   4.994   3.041
 3969SOL    HW112806   0.844   5.071   3.101
 3969SOL    HW212807   0.847   5.015   2.947
 3970SOL     OW12808   5.093   6.321   2.117
 3970SOL    HW112809   4.996   6.302   2.131
 3970SOL    HW212810   5.121   6.287   2.027
 3971SOL     OW12811   2.081   6.165   3.717
 3971SOL    HW112812   2.157   6.135   3.659
 3971SOL    HW212813   1.994   6.144   3.673
 3972SOL     OW12814   1.268   3.588   6.856
 3972SOL    HW112815   1.193   3.612   6.918
 3972SOL    HW212816   1.328   3.523   6.901
 3973SOL     OW12817   1.788   5.003   1.150
 3973SOL    HW112818   1.769   5.020   1.054
 3973SOL    HW212819   1.864   4.939   1.158
 3974SOL     OW12820   2.489   1.677   5.411
 3974SOL    HW112821   2.413   1.668   5.476
 3974SOL    HW212822   2.576   1.677   5.460
 3975SOL     OW12823   6.234   2.964   6.583
 3975SOL    HW112824   6.322   2.918   6.588
 3975SOL    HW212825   6.244   3.052   6.536
 3976SOL     OW12826   1.836   4.670   2.713
 3976SOL    HW112827   1.765   4.719   2.763
 3976SOL    HW212828   1.919   4.663   2.770
 3977SOL     OW12829   1.037   3.081   6.935
 3977SOL    HW112830   1.090   3.166   6.933
 3977SOL    HW212831   0.943   3.100   6.906
 3978SOL     OW12832   6.108   4.069   3.893
 3978SOL    HW112833   6.136   4.125   3.971
 3978SOL    HW212834   6.135   3.974   3.910
 3979SOL     OW12835   4.216   6.372   6.210
 3979SOL    HW112836   4.145   6.362   6.140
 3979SOL    HW212837   4.280   6.444   6.183
 3980SOL     OW12838   5.589   5.760   5.938
 3980SOL    HW112839   5.679   5.763   5.893
 3980SOL    HW212840   5.542   5.847   5.925
 3981SOL     OW12841   4.665   5.910   0.294
 3981SOL    HW112842   4.657   5.972   0.216
 3981SOL    HW212843   4.747   5.934   0.347
 3982SOL     OW12844   2.820   5.991   3.453
 3982SOL    HW112845   2.809   5.958   3.360
 3982SOL    HW212846   2.837   6.089   3.452
 3983SOL     OW12847   3.485   5.604   4.460
 3983SOL    HW112848   3.391   5.572   4.459
 3983SOL    HW212849   3.487   5.704   4.461
 3984SOL     OW12850   6.449   2.629   3.444
 3984SOL    HW112851   6.514   2.672   3.507
 3984SOL    HW212852   6.492   2.551   3.400
 3985SOL     OW12853   3.973   4.999   6.484
 3985SOL    HW112854   3.988   4.964   6.391
 3985SOL    HW212855   4.044   4.963   6.545
 3986SOL     OW12856   5.461   0.638   2.896
 3986SOL    HW112857   5.406   0.554   2.900
 3986SOL    HW212858   5.401   0.717   2.906
 3987SOL     OW12859   3.489   5.548   5.063
 3987SOL    HW112860   3.482   5.500   5.151
 3987SOL    HW212861   3.465   5.485   4.989
 3988SOL     OW12862   3.785   5.817   1.155
 3988SOL    HW112863   3.809   5.913   1.170
 3988SOL    HW212864   3.724   5.787   1.229
 3989SOL     OW12865   5.348   2.099   0.779
 3989SOL    HW112866   5.274   2.161   0.753
 3989SOL    HW212867   5.330   2.060   0.869
 3990SOL     OW12868   6.437   2.104   2.566
 3990SOL    HW112869   6.469   2.198   2.561
 3990SOL    HW212870   6.337   2.104   2.572
 3991SOL     OW12871   6.046   0.547   3.178
 3991SOL    HW112872   6.021   0.578   3.086
 3991SOL    HW212873   6.137   0.506   3.176
 3992SOL     OW12874   3.346   2.126   0.958
 3992SOL    HW112875   3.383   2.115   0.866
 3992SOL    HW212876   3.257   2.171   0.953
 3993SOL     OW12877   0.763   3.019   1.902
 3993SOL    HW112878   0.712   2.989   1.983
 3993SOL    HW212879   0.860   3.024   1.923
 3994SOL     OW12880   2.515   6.266   4.261
 3994SOL    HW112881   2.476   6.176   4.281
 3994SOL    HW212882   2.482   6.332   4.329
 3995SOL     OW12883   1.920   1.715   4.472
 3995SOL    HW112884   1.956   1.790   4.415
 3995SOL    HW212885   1.930   1.629   4.422
 3996SOL     OW12886   6.922   6.538   4.415
 3996SOL    HW112887   7.015   6.525   4.380
 3996SOL    HW212888   6.860   6.552   4.338
 3997SOL     OW12889   4.188   0.752   4.395
 3997SOL    HW112890   4.201   0.717   4.488
 3997SOL    HW212891   4.105   0.712   4.355
 3998SOL     OW12892   4.766   1.736   3.102
 3998SOL    HW112893   4.819   1.799   3.159
 3998SOL    HW212894   4.670   1.740   3.129
 3999SOL     OW12895   5.057   1.905   4.617
 3999SOL    HW112896   5.022   1.986   4.569
 3999SOL    HW212897   5.147   1.926   4.655
 4000SOL     OW12898   4.244   6.630   4.246
 4000SOL    HW112899   4.195   6.715   4.228
 4000SOL    HW212900   4.271   6.588   4.160
 4001SOL     OW12901   1.224   2.074   4.226
 4001SOL    HW112902   1.223   2.077   4.326
 4001SOL    HW212903   1.282   1.999   4.195
 4002SOL     OW12904   2.456   4.214   1.811
 4002SOL    HW112905   2.397   4.139   1.841
 4002SOL    HW212906   2.468   4.279   1.885
 4003SOL     OW12907   3.885   2.053   5.046
 4003SOL    HW112908   3.862   1.974   5.103
 4003SOL    HW212909   3.867   2.137   5.097
 4004SOL     OW12910   6.453   1.798   5.349
 4004SOL    HW112911   6.471   1.845   5.263
 4004SOL    HW212912   6.366   1.749   5.344
 4005SOL     OW12913   5.855   4.653   5.331
 4005SOL    HW112914   5.889   4.717   5.262
 4005SOL    HW212915   5.886   4.561   5.308
 4006SOL     OW12916   3.775   5.689   2.667
 4006SOL    HW112917   3.840   5.624   2.629
 4006SOL    HW212918   3.825   5.768   2.703
 4007SOL     OW12919   6.960   1.616   6.432
 4007SOL    HW112920   0.015   1.569   6.466
 4007SOL    HW212921   6.877   1.570   6.464
 4008SOL     OW12922   2.791   2.124   5.293
 4008SOL    HW112923   2.824   2.166   5.378
 4008SOL    HW212924   2.814   2.182   5.216
 4009SOL     OW12925   3.245   3.435   2.767
 4009SOL    HW112926   3.167   3.388   2.725
 4009SOL    HW212927   3.288   3.494   2.699
 4010SOL     OW12928   1.524   2.717   6.708
 4010SOL    HW112929   1.517   2.675   6.617
 4010SOL    HW212930   1.452   2.786   6.718
 4011SOL     OW12931   0.806   2.804   0.797
 4011SOL    HW112932   0.881   2.738   0.790
 4011SOL    HW212933   0.719   2.757   0.785
 4012SOL     OW12934   5.601   3.095   3.624
 4012SOL    HW112935   5.663   3.100   3.546
 4012SOL    HW212936   5.522   3.154   3.609
 4013SOL     OW12937   4.545   2.306   3.411
 4013SOL    HW112938   4.525   2.233   3.345
 4013SOL    HW212939   4.555   2.393   3.362
 4014SOL     OW12940   5.956   6.124   2.346
 4014SOL    HW112941   5.877   6.181   2.368
 4014SOL    HW212942   6.012   6.169   2.277
 4015SOL     OW12943   4.567   3.452   6.981
 4015SOL    HW112944   4.567   3.440   0.055
 4015SOL    HW212945   4.532   3.369   6.938
 4016SOL     OW12946   3.412   5.890   5.213
 4016SOL    HW112947   3.447   5.983   5.208
 4016SOL    HW212948   3.460   5.832   5.146
 4017SOL     OW12949   6.218   6.786   6.798
 4017SOL    HW112950   6.300   6.729   6.787
 4017SOL    HW212951   6.153   6.765   6.726
 4018SOL     OW12952   1.486   6.698   6.901
 4018SOL    HW112953   1.492   6.626   6.971
 4018SOL    HW212954   1.499   6.787   6.945
 4019SOL     OW12955   4.747   5.219   2.965
 4019SOL    HW112956   4.712   5.307   2.996
 4019SOL    HW212957   4.776   5.227   2.869
 4020SOL     OW12958   5.303   1.738   5.187
 4020SOL    HW112959   5.401   1.725   5.206
 4020SOL    HW212960   5.288   1.831   5.155
 4021SOL     OW12961   4.578   4.360   6.780
 4021SOL    HW112962   4.532   4.274   6.758
 4021SOL    HW212963   4.677   4.346   6.775
 4022SOL     OW12964   5.027   0.461   0.817
 4022SOL    HW112965   5.099   0.392   0.820
 4022SOL    HW212966   5.051   0.532   0.750
 4023SOL     OW12967   6.660   0.046   5.313
 4023SOL    HW112968   6.720   6.996   5.341
 4023SOL    HW212969   6.606   0.076   5.392
 4024SOL     OW12970   4.343   4.653   4.745
 4024SOL    HW112971   4.424   4.600   4.771
 4024SOL    HW212972   4.268   4.631   4.807
 4025SOL     OW12973   1.079   3.925   3.898
 4025SOL    HW112974   1.141   3.879   3.834
 4025SOL    HW212975   1.007   3.862   3.925
 4026SOL     OW12976   5.223   6.998   4.861
 4026SOL    HW112977   5.185   7.004   4.769
 4026SOL    HW212978   5.148   6.995   4.927
 4027SOL     OW12979   3.241   5.110   2.581
 4027SOL    HW112980   3.283   5.200   2.568
 4027SOL    HW212981   3.299   5.040   2.539
 4028SOL     OW12982   2.581   6.290   3.404
 4028SOL    HW112983   2.535   6.216   3.355
 4028SOL    HW212984   2.678   6.268   3.416
 4029SOL     OW12985   1.971   4.125   3.748
 4029SOL    HW112986   1.896   4.070   3.711
 4029SOL    HW212987   1.984   4.206   3.691
 4030SOL     OW12988   1.554   1.713   6.171
 4030SOL    HW112989   1.476   1.703   6.233
 4030SOL    HW212990   1.550   1.645   6.099
 4031SOL     OW12991   5.970   5.846   4.163
 4031SOL    HW112992   5.938   5.911   4.232
 4031SOL    HW212993   5.934   5.755   4.184
 4032SOL     OW12994   3.773   6.936   5.012
 4032SOL    HW112995   3.779   6.925   4.913
 4032SOL    HW212996   3.682   6.967   5.037
 4033SOL     OW12997   3.597   3.942   6.173
 4033SOL    HW112998   3.507   3.970   6.206
 4033SOL    HW212999   3.650   3.905   6.249
 4034SOL     OW13000   5.724   3.089   5.357
 4034SOL    HW113001   5.656   3.109   5.428
 4034SOL    HW213002   5.700   3.136   5.273
 4035SOL     OW13003   0.612   5.716   1.422
 4035SOL    HW113004   0.540   5.737   1.357
 4035SOL    HW213005   0.587   5.751   1.512
 4036SOL     OW13006   7.024   5.995   2.540
 4036SOL    HW113007   6.928   5.978   2.520
 4036SOL    HW213008   0.008   6.034   2.631
 4037SOL     OW13009   0.184   3.968   5.600
 4037SOL    HW113010   0.254   4.028   5.639
 4037SOL    HW213011   0.177   3.886   5.656
 4038SOL     OW13012   5.788   5.325   3.376
 4038SOL    HW113013   5.762   5.338   3.472
 4038SOL    HW213014   5.886   5.307   3.370
 4039SOL     OW13015   2.786   5.905   0.955
 4039SOL    HW113016   2.873   5.954   0.948
 4039SOL    HW213017   2.733   5.921   0.871
 4040SOL     OW13018   3.258   6.794   0.240
 4040SOL    HW113019   3.172   6.786   0.190
 4040SOL    HW213020   3.257   6.732   0.318
 4041SOL     OW13021   0.688   6.134   3.229
 4041SOL    HW113022   0.650   6.221   3.259
 4041SOL    HW213023   0.693   6.071   3.306
 4042SOL     OW13024   6.049   6.079   2.610
 4042SOL    HW113025   6.020   6.130   2.529
 4042SOL    HW213026   5.991   5.998   2.620
 4043SOL     OW13027   6.413   3.700   1.434
 4043SOL    HW113028   6.356   3.669   1.358
 4043SOL    HW213029   6.360   3.762   1.492
 4044SOL     OW13030   5.971   5.120   2.565
 4044SOL    HW113031   5.895   5.179   2.591
 4044SOL    HW213032   6.035   5.171   2.508
 4045SOL     OW13033   2.466   4.645   5.901
 4045SOL    HW113034   2.393   4.670   5.838
 4045SOL    HW213035   2.545   4.704   5.886
 4046SOL     OW13036   6.999   3.404   0.688
 4046SOL    HW113037   7.005   3.404   0.788
 4046SOL    HW213038   6.919   3.456   0.659
 4047SOL     OW13039   2.978   3.842   2.549
 4047SOL    HW113040   2.932   3.767   2.596
 4047SOL    HW213041   3.044   3.885   2.612
 4048SOL     OW13042   4.601   2.481   0.763
 4048SOL    HW113043   4.644   2.571   0.752
 4048SOL    HW213044   4.506   2.493   0.792
 4049SOL     OW13045   6.787   0.707   6.766
 4049SOL    HW113046   6.867   0.728   6.709
 4049SOL    HW213047   6.756   0.790   6.812
 4050SOL     OW13048   3.495   0.998   2.580
 4050SOL    HW113049   3.520   0.905   2.553
 4050SOL    HW213050   3.459   0.997   2.673
 4051SOL     OW13051   1.538   4.184   1.092
 4051SOL    HW113052   1.504   4.160   1.183
 4051SOL    HW213053   1.615   4.247   1.101
 4052SOL     OW13054   1.578   6.838   1.204
 4052SOL    HW113055   1.613   6.747   1.182
 4052SOL    HW213056   1.651   6.894   1.241
 4053SOL     OW13057   2.522   5.230   3.399
 4053SOL    HW113058   2.558   5.137   3.408
 4053SOL    HW213059   2.452   5.233   3.327
 4054SOL     OW13060   5.452   1.446   6.890
 4054SOL    HW113061   5.532   1.491   6.932
 4054SOL    HW213062   5.466   1.347   6.889
 4055SOL     OW13063   4.790   3.442   6.832
 4055SOL    HW113064   4.765   3.457   6.737
 4055SOL    HW213065   4.707   3.441   6.888
 4056SOL     OW13066   4.404   2.850   0.377
 4056SOL    HW113067   4.421   2.943   0.344
 4056SOL    HW213068   4.320   2.815   0.336
 4057SOL     OW13069   6.113   2.636   0.468
 4057SOL    HW113070   6.075   2.615   0.557
 4057SOL    HW213071   6.104   2.734   0.450
 4058SOL     OW13072   0.817   1.642   3.588
 4058SOL    HW113073   0.755   1.568   3.561
 4058SOL    HW213074   0.788   1.681   3.675
 4059SOL     OW13075   7.024   2.047   5.500
 4059SOL    HW113076   0.072   2.112   5.483
 4059SOL    HW213077   0.020   1.959   5.458
 4060SOL     OW13078   3.501   6.035   5.697
 4060SOL    HW113079   3.461   5.949   5.729
 4060SOL    HW213080   3.473   6.110   5.757
 4061SOL     OW13081   2.270   2.985   1.459
 4061SOL    HW113082   2.265   3.012   1.556
 4061SOL    HW213083   2.252   2.887   1.452
 4062SOL     OW13084   2.978   6.523   2.770
 4062SOL    HW113085   3.025   6.518   2.681
 4062SOL    HW213086   2.897   6.581   2.762
 4063SOL     OW13087   2.765   5.622   6.421
 4063SOL    HW113088   2.667   5.599   6.420
 4063SOL    HW213089   2.800   5.621   6.328
 4064SOL     OW13090   6.713   0.016   3.931
 4064SOL    HW113091   6.620   7.005   3.934
 4064SOL    HW213092   6.710   0.115   3.918
 4065SOL     OW13093   0.593   4.573   6.081
 4065SOL    HW113094   0.499   4.547   6.056
 4065SOL    HW213095   0.637   4.496   6.127
 4066SOL     OW13096   4.972   5.422   1.342
 4066SOL    HW113097   4.962   5.519   1.367
 4066SOL    HW213098   4.893   5.371   1.373
 4067SOL     OW13099   5.685   0.839   1.342
 4067SOL    HW113100   5.604   0.897   1.345
 4067SOL    HW213101   5.697   0.803   1.250
 4068SOL     OW13102   5.397   0.968   4.230
 4068SOL    HW113103   5.440   0.892   4.182
 4068SOL    HW213104   5.464   1.042   4.242
 4069SOL     OW13105   6.647   6.250   1.006
 4069SOL    HW113106   6.646   6.166   1.060
 4069SOL    HW213107   6.740   6.285   1.001
 4070SOL     OW13108   6.667   3.891   3.363
 4070SOL    HW113109   6.737   3.821   3.373
 4070SOL    HW213110   6.592   3.856   3.307
 4071SOL     OW13111   2.873   0.516   4.098
 4071SOL    HW113112   2.892   0.422   4.069
 4071SOL    HW213113   2.925   0.537   4.181
 4072SOL     OW13114   0.960   0.183   4.463
 4072SOL    HW113115   0.863   0.163   4.477
 4072SOL    HW213116   0.982   0.271   4.504
 4073SOL     OW13117   2.637   5.022   2.151
 4073SOL    HW113118   2.627   5.038   2.052
 4073SOL    HW213119   2.591   4.937   2.176
 4074SOL     OW13120   0.160   3.349   0.483
 4074SOL    HW113121   0.076   3.375   0.530
 4074SOL    HW213122   0.238   3.365   0.543
 4075SOL     OW13123   5.464   0.233   3.918
 4075SOL    HW113124   5.423   0.312   3.965
 4075SOL    HW213125   5.401   0.155   3.923
 4076SOL     OW13126   1.756   2.753   3.035
 4076SOL    HW113127   1.684   2.820   3.015
 4076SOL    HW213128   1.782   2.762   3.132
 4077SOL     OW13129   3.959   0.735   0.896
 4077SOL    HW113130   3.956   0.714   0.994
 4077SOL    HW213131   4.045   0.702   0.858
 4078SOL     OW13132   4.878   4.733   3.114
 4078SOL    HW113133   4.898   4.779   3.201
 4078SOL    HW213134   4.856   4.802   3.044
 4079SOL     OW13135   5.038   0.396   4.338
 4079SOL    HW113136   4.980   0.353   4.407
 4079SOL    HW213137   5.099   0.461   4.382
 4080SOL     OW13138   2.934   3.662   3.767
 4080SOL    HW113139   2.885   3.618   3.842
 4080SOL    HW213140   2.977   3.593   3.710
 4081SOL     OW13141   2.471   1.626   0.159
 4081SOL    HW113142   2.374   1.603   0.148
 4081SOL    HW213143   2.517   1.617   0.070
 4082SOL     OW13144   1.209   1.514   6.037
 4082SOL    HW113145   1.200   1.422   6.000
 4082SOL    HW213146   1.129   1.568   6.011
 4083SOL     OW13147   6.130   5.256   2.416
 4083SOL    HW113148   6.215   5.309   2.413
 4083SOL    HW213149   6.145   5.167   2.374
 4084SOL     OW13150   4.824   6.519   2.026
 4084SOL    HW113151   4.810   6.566   2.113
 4084SOL    HW213152   4.847   6.423   2.043
 4085SOL     OW13153   2.373   4.520   2.571
 4085SOL    HW113154   2.435   4.473   2.508
 4085SOL    HW213155   2.297   4.459   2.595
 4086SOL     OW13156   5.704   5.355   4.948
 4086SOL    HW113157   5.735   5.262   4.931
 4086SOL    HW213158   5.723   5.379   5.043
 4087SOL     OW13159   2.004   0.786   2.427
 4087SOL    HW113160   1.992   0.700   2.477
 4087SOL    HW213161   2.037   0.857   2.489
 4088SOL     OW13162   0.245   1.643   5.724
 4088SOL    HW113163   0.345   1.645   5.722
 4088SOL    HW213164   0.211   1.601   5.640
 4089SOL     OW13165   1.351   0.693   2.951
 4089SOL    HW113166   1.358   0.791   2.936
 4089SOL    HW213167   1.443   0.653   2.956
 4090SOL     OW13168   3.326   2.441   5.583
 4090SOL    HW113169   3.390   2.477   5.515
 4090SOL    HW213170   3.244   2.408   5.538
 4091SOL     OW13171   3.326   6.130   2.036
 4091SOL    HW113172   3.305   6.037   2.064
 4091SOL    HW213173   3.264   6.157   1.962
 4092SOL     OW13174   5.434   1.798   6.260
 4092SOL    HW113175   5.402   1.881   6.214
 4092SOL    HW213176   5.532   1.787   6.245
 4093SOL     OW13177   5.540   3.929   2.575
 4093SOL    HW113178   5.516   3.877   2.657
 4093SOL    HW213179   5.639   3.945   2.574
 4094SOL     OW13180   6.879   6.657   0.250
 4094SOL    HW113181   6.793   6.636   0.204
 4094SOL    HW213182   6.956   6.630   0.191
 4095SOL     OW13183   2.044   5.255   0.876
 4095SOL    HW113184   1.955   5.210   0.865
 4095SOL    HW213185   2.089   5.262   0.787
 4096SOL     OW13186   0.700   0.106   6.364
 4096SOL    HW113187   0.736   0.013   6.361
 4096SOL    HW213188   0.600   0.104   6.366
 4097SOL     OW13189   1.112   3.901   5.588
 4097SOL    HW113190   1.063   3.930   5.505
 4097SOL    HW213191   1.188   3.964   5.605
 4098SOL     OW13192   1.501   5.933   2.169
 4098SOL    HW113193   1.574   5.920   2.102
 4098SOL    HW213194   1.485   5.847   2.218
 4099SOL     OW13195   6.982   3.440   5.509
 4099SOL    HW113196   7.010   3.347   5.532
 4099SOL    HW213197   6.924   3.476   5.581
 4100SOL     OW13198   2.512   0.383   3.383
 4100SOL    HW113199   2.441   0.414   3.447
 4100SOL    HW213200   2.469   0.347   3.301
 4101SOL     OW13201   6.329   6.442   5.898
 4101SOL    HW113202   6.391   6.365   5.883
 4101SOL    HW213203   6.267   6.420   5.974
 4102SOL     OW13204   1.667   5.771   0.383
 4102SOL    HW113205   1.765   5.775   0.402
 4102SOL    HW213206   1.648   5.693   0.323
 4103SOL     OW13207   2.334   5.128   2.902
 4103SOL    HW113208   2.328   5.219   2.860
 4103SOL    HW213209   2.381   5.065   2.840
 4104SOL     OW13210   1.534   6.183   4.975
 4104SOL    HW113211   1.462   6.249   4.956
 4104SOL    HW213212   1.497   6.108   5.029
 4105SOL     OW13213   3.589   6.504   1.865
 4105SOL    HW113214   3.607   6.571   1.794
 4105SOL    HW213215   3.624   6.537   1.953
 4106SOL     OW13216   1.710   0.231   2.711
 4106SOL    HW113217   1.675   0.260   2.801
 4106SOL    HW213218   1.798   0.185   2.723
 4107SOL     OW13219   1.682   1.760   0.872
 4107SOL    HW113220   1.671   1.786   0.968
 4107SOL    HW213221   1.689   1.660   0.865
 4108SOL     OW13222   6.969   6.695   5.027
 4108SOL    HW113223   7.008   6.740   4.947
 4108SOL    HW213224   0.004   6.620   5.055
 4109SOL     OW13225   4.787   6.812   4.698
 4109SOL    HW113226   4.836   6.725   4.703
 4109SOL    HW213227   4.690   6.798   4.718
 4110SOL     OW13228   3.895   3.062   0.571
 4110SOL    HW113229   3.899   3.139   0.507
 4110SOL    HW213230   3.987   3.043   0.606
 4111SOL     OW13231   5.646   4.703   3.940
 4111SOL    HW113232   5.643   4.673   4.035
 4111SOL    HW213233   5.740   4.696   3.906
 4112SOL     OW13234   4.051   5.854   5.201
 4112SOL    HW113235   3.954   5.846   5.222
 4112SOL    HW213236   4.104   5.808   5.272
 4113SOL     OW13237   4.985   5.398   5.254
 4113SOL    HW113238   5.077   5.434   5.241
 4113SOL    HW213239   4.950   5.427   5.344
 4114SOL     OW13240   6.755   0.904   2.751
 4114SOL    HW113241   6.678   0.955   2.714
 4114SOL    HW213242   6.767   0.926   2.848
 4115SOL     OW13243   3.999   6.055   4.420
 4115SOL    HW113244   4.028   5.978   4.477
 4115SOL    HW213245   3.915   6.094   4.457
 4116SOL     OW13246   6.268   3.212   4.120
 4116SOL    HW113247   6.286   3.143   4.190
 4116SOL    HW213248   6.186   3.187   4.069
 4117SOL     OW13249   0.259   1.447   2.972
 4117SOL    HW113250   0.353   1.413   2.972
 4117SOL    HW213251   0.222   1.441   2.880
 4118SOL     OW13252   1.329   0.106   1.686
 4118SOL    HW113253   1.308   0.204   1.681
 4118SOL    HW213254   1.248   0.054   1.660
 4119SOL     OW13255   6.993   0.833   5.097
 4119SOL    HW113256   6.998   0.852   5.195
 4119SOL    HW213257   7.010   0.735   5.082
 4120SOL     OW13258   1.818   0.770   6.204
 4120SOL    HW113259   1.822   0.743   6.107
 4120SOL    HW213260   1.891   0.836   6.223
 4121SOL     OW13261   6.621   1.072   1.399
 4121SOL    HW113262   6.530   1.033   1.382
 4121SOL    HW213263   6.690   1.001   1.387
 4122SOL     OW13264   0.883   4.887   3.302
 4122SOL    HW113265   0.806   4.919   3.358
 4122SOL    HW213266   0.859   4.892   3.205
 4123SOL     OW13267   5.694   4.404   1.444
 4123SOL    HW113268   5.729   4.435   1.533
 4123SOL    HW213269   5.759   4.340   1.404
 4124SOL     OW13270   6.380   6.807   0.100
 4124SOL    HW113271   6.449   6.776   0.165
 4124SOL    HW213272   6.345   6.896   0.129
 4125SOL     OW13273   0.034   2.572   6.491
 4125SOL    HW113274   0.110   2.638   6.487
 4125SOL    HW213275   6.984   2.612   6.542
 4126SOL     OW13276   1.307   3.995   4.079
 4126SOL    HW113277   1.395   4.035   4.055
 4126SOL    HW213278   1.239   4.021   4.010
 4127SOL     OW13279   4.933   2.401   3.763
 4127SOL    HW113280   4.987   2.317   3.756
 4127SOL    HW213281   4.837   2.377   3.780
 4128SOL     OW13282   6.732   2.334   6.017
 4128SOL    HW113283   6.761   2.369   6.106
 4128SOL    HW213284   6.704   2.238   6.026
 4129SOL     OW13285   3.484   0.622   1.745
 4129SOL    HW113286   3.391   0.659   1.758
 4129SOL    HW213287   3.495   0.590   1.651
 4130SOL     OW13288   5.307   2.499   6.914
 4130SOL    HW113289   5.207   2.507   6.908
 4130SOL    HW213290   5.330   2.423   6.975
 4131SOL     OW13291   4.720   6.101   4.022
 4131SOL    HW113292   4.682   6.183   3.981
 4131SOL    HW213293   4.671   6.080   4.107
 4132SOL     OW13294   6.625   4.171   3.268
 4132SOL    HW113295   6.621   4.087   3.323
 4132SOL    HW213296   6.545   4.227   3.286
 4133SOL     OW13297   5.353   6.333   3.881
 4133SOL    HW113298   5.395   6.309   3.969
 4133SOL    HW213299   5.418   6.386   3.826
 4134SOL     OW13300   1.247   3.444   1.101
 4134SOL    HW113301   1.338   3.485   1.106
 4134SOL    HW213302   1.232   3.405   1.010
 4135SOL     OW13303   5.902   1.387   1.007
 4135SOL    HW113304   5.843   1.313   1.041
 4135SOL    HW213305   5.972   1.407   1.075
 4136SOL     OW13306   0.903   4.855   0.268
 4136SOL    HW113307   0.874   4.819   0.179
 4136SOL    HW213308   0.984   4.805   0.300
 4137SOL     OW13309   0.163   2.825   5.908
 4137SOL    HW113310   0.171   2.915   5.953
 4137SOL    HW213311   0.112   2.835   5.823
 4138SOL     OW13312   5.404   6.967   6.282
 4138SOL    HW113313   5.474   6.972   6.211
 4138SOL    HW213314   5.338   6.896   6.259
 4139SOL     OW13315   1.507   4.524   2.324
 4139SOL    HW113316   1.533   4.598   2.262
 4139SOL    HW213317   1.448   4.561   2.396
 4140SOL     OW13318   2.224   0.044   6.855
 4140SOL    HW113319   2.323   0.029   6.846
 4140SOL    HW213320   2.186   7.000   6.916
 4141SOL     OW13321   5.311   0.428   5.919
 4141SOL    HW113322   5.403   0.451   5.887
 4141SOL    HW213323   5.249   0.424   5.841
 4142SOL     OW13324   6.801   6.556   1.499
 4142SOL    HW113325   6.876   6.523   1.555
 4142SOL    HW213326   6.714   6.528   1.540
 4143SOL     OW13327   6.708   4.030   6.840
 4143SOL    HW113328   6.700   4.093   6.763
 4143SOL    HW213329   6.686   3.938   6.811
 4144SOL     OW13330   4.246   0.363   1.656
 4144SOL    HW113331   4.303   0.444   1.671
 4144SOL    HW213332   4.170   0.364   1.722
 4145SOL     OW13333   5.715   0.741   1.106
 4145SOL    HW113334   5.673   0.776   1.023
 4145SOL    HW213335   5.723   0.642   1.101
 4146SOL     OW13336   4.186   0.197   2.685
 4146SOL    HW113337   4.142   0.154   2.764
 4146SOL    HW213338   4.253   0.134   2.646
 4147SOL     OW13339   4.877   4.507   7.001
 4147SOL    HW113340   4.819   4.483   0.053
 4147SOL    HW213341   4.853   4.448   6.923
 4148SOL     OW13342   2.703   1.420   6.004
 4148SOL    HW113343   2.653   1.394   5.921
 4148SOL    HW213344   2.673   1.362   6.080
 4149SOL     OW13345   1.686   3.349   6.423
 4149SOL    HW113346   1.762   3.323   6.363
 4149SOL    HW213347   1.658   3.270   6.477
 4150SOL     OW13348   6.095   1.497   0.818
 4150SOL    HW113349   6.015   1.449   0.852
 4150SOL    HW213350   6.169   1.491   0.885
 4151SOL     OW13351   2.823   5.820   4.890
 4151SOL    HW113352   2.771   5.776   4.963
 4151SOL    HW213353   2.904   5.865   4.928
 4152SOL     OW13354   3.029   4.295   1.245
 4152SOL    HW113355   2.992   4.212   1.204
 4152SOL    HW213356   3.094   4.338   1.182
 4153SOL     OW13357   6.786   6.106   1.379
 4153SOL    HW113358   6.737   6.178   1.428
 4153SOL    HW213359   6.884   6.128   1.377
 4154SOL     OW13360   0.403   6.440   4.606
 4154SOL    HW113361   0.392   6.409   4.512
 4154SOL    HW213362   0.407   6.540   4.609
 4155SOL     OW13363   5.787   1.316   1.712
 4155SOL    HW113364   5.769   1.258   1.633
 4155SOL    HW213365   5.735   1.401   1.705
 4156SOL     OW13366   0.683   4.539   5.705
 4156SOL    HW113367   0.732   4.581   5.782
 4156SOL    HW213368   0.647   4.610   5.645
 4157SOL     OW13369   5.326   6.065   0.911
 4157SOL    HW113370   5.323   5.987   0.849
 4157SOL    HW213371   5.257   6.055   0.982
 4158SOL     OW13372   6.880   2.350   0.785
 4158SOL    HW113373   6.803   2.311   0.835
 4158SOL    HW213374   6.869   2.333   0.688
 4159SOL     OW13375   3.226   0.556   4.579
 4159SOL    HW113376   3.281   0.536   4.498
 4159SOL    HW213377   3.280   0.611   4.643
 4160SOL     OW13378   1.885   0.208   5.645
 4160SOL    HW113379   1.886   0.271   5.567
 4160SOL    HW213380   1.961   0.230   5.707
 4161SOL     OW13381   3.369   2.900   3.627
 4161SOL    HW113382   3.351   2.808   3.592
 4161SOL    HW213383   3.303   2.922   3.699
 4162SOL     OW13384   5.492   6.001   1.514
 4162SOL    HW113385   5.424   6.005   1.441
 4162SOL    HW213386   5.584   6.001   1.475
 4163SOL     OW13387   3.596   5.755   1.338
 4163SOL    HW113388   3.526   5.739   1.268
 4163SOL    HW213389   3.615   5.669   1.386
 4164SOL     OW13390   5.623   1.861   6.871
 4164SOL    HW113391   5.568   1.905   6.800
 4164SOL    HW213392   5.566   1.799   6.924
 4165SOL     OW13393   3.611   1.847   4.209
 4165SOL    HW113394   3.702   1.809   4.197
 4165SOL    HW213395   3.617   1.946   4.221
 4166SOL     OW13396   6.193   2.243   2.305
 4166SOL    HW113397   6.195   2.158   2.357
 4166SOL    HW213398   6.154   2.225   2.214
 4167SOL     OW13399   3.949   5.432   4.474
 4167SOL    HW113400   3.961   5.508   4.538
 4167SOL    HW213401   3.886   5.460   4.401
 4168SOL     OW13402   5.231   4.186   6.529
 4168SOL    HW113403   5.147   4.150   6.570
 4168SOL    HW213404   5.208   4.259   6.465
 4169SOL     OW13405   5.072   3.622   6.627
 4169SOL    HW113406   5.147   3.602   6.563
 4169SOL    HW213407   5.106   3.620   6.721
 4170SOL     OW13408   1.114   3.222   5.165
 4170SOL    HW113409   1.155   3.146   5.214
 4170SOL    HW213410   1.139   3.217   5.068
 4171SOL     OW13411   0.355   1.125   6.281
 4171SOL    HW113412   0.424   1.072   6.230
 4171SOL    HW213413   0.277   1.143   6.222
 4172SOL     OW13414   2.612   2.748   6.388
 4172SOL    HW113415   2.567   2.674   6.339
 4172SOL    HW213416   2.665   2.710   6.464
 4173SOL     OW13417   5.193   1.334   5.308
 4173SOL    HW113418   5.228   1.413   5.256
 4173SOL    HW213419   5.134   1.279   5.249
 4174SOL     OW13420   3.611   6.871   4.026
 4174SOL    HW113421   3.659   6.786   4.006
 4174SOL    HW213422   3.519   6.850   4.057
 4175SOL     OW13423   1.106   4.634   6.833
 4175SOL    HW113424   1.183   4.607   6.891
 4175SOL    HW213425   1.131   4.624   6.737
 4176SOL     OW13426   4.838   7.025   5.459
 4176SOL    HW113427   4.901   0.077   5.461
 4176SOL    HW213428   4.744   0.033   5.473
 4177SOL     OW13429   4.081   5.527   3.016
 4177SOL    HW113430   4.110   5.459   3.083
 4177SOL    HW213431   4.155   5.543   2.951
 4178SOL     OW13432   3.923   6.328   1.263
 4178SOL    HW113433   3.829   6.357   1.245
 4178SOL    HW213434   3.986   6.388   1.214
 4179SOL     OW13435   4.357   2.142   6.852
 4179SOL    HW113436   4.392   2.168   6.941
 4179SOL    HW213437   4.264   2.178   6.841
 4180SOL     OW13438   3.809   4.204   6.969
 4180SOL    HW113439   3.734   4.241   7.023
 4180SOL    HW213440   3.778   4.122   6.920
 4181SOL     OW13441   5.724   6.262   5.868
 4181SOL    HW113442   5.715   6.244   5.966
 4181SOL    HW213443   5.656   6.330   5.840
 4182SOL     OW13444   0.323   5.914   5.337
 4182SOL    HW113445   0.230   5.950   5.330
 4182SOL    HW213446   0.383   5.965   5.276
 4183SOL     OW13447   4.863   1.993   0.225
 4183SOL    HW113448   4.873   2.043   0.139
 4183SOL    HW213449   4.787   2.031   0.278
 4184SOL     OW13450   3.061   5.386   3.237
 4184SOL    HW113451   2.986   5.351   3.181
 4184SOL    HW213452   3.133   5.422   3.178
 4185SOL     OW13453   4.800   4.185   3.339
 4185SOL    HW113454   4.809   4.146   3.430
 4185SOL    HW213455   4.828   4.117   3.271
 4186SOL     OW13456   2.286   5.246   6.728
 4186SOL    HW113457   2.340   5.269   6.647
 4186SOL    HW213458   2.254   5.330   6.772
 4187SOL     OW13459   2.624   4.221   6.087
 4187SOL    HW113460   2.557   4.264   6.148
 4187SOL    HW213461   2.581   4.146   6.037
 4188SOL     OW13462   5.341   0.479   6.606
 4188SOL    HW113463   5.301   0.502   6.695
 4188SOL    HW213464   5.439   0.497   6.608
 4189SOL     OW13465   5.238   5.129   2.915
 4189SOL    HW113466   5.214   5.140   2.818
 4189SOL    HW213467   5.313   5.191   2.938
 4190SOL     OW13468   6.324   6.621   1.900
 4190SOL    HW113469   6.401   6.557   1.895
 4190SOL    HW213470   6.359   6.714   1.911
 4191SOL     OW13471   4.173   2.679   6.430
 4191SOL    HW113472   4.175   2.779   6.422
 4191SOL    HW213473   4.193   2.653   6.525
 4192SOL     OW13474   1.731   3.834   6.192
 4192SOL    HW113475   1.689   3.753   6.150
 4192SOL    HW213476   1.813   3.806   6.242
 4193SOL     OW13477   6.850   0.302   0.637
 4193SOL    HW113478   6.751   0.301   0.618
 4193SOL    HW213479   6.875   0.391   0.674
 4194SOL     OW13480   5.730   0.530   6.371
 4194SOL    HW113481   5.797   0.468   6.330
 4194SOL    HW213482   5.733   0.618   6.324
 4195SOL     OW13483   2.726   6.241   0.982
 4195SOL    HW113484   2.772   6.288   1.057
 4195SOL    HW213485   2.782   6.249   0.899
 4196SOL     OW13486   0.462   2.875   3.629
 4196SOL    HW113487   0.472   2.911   3.536
 4196SOL    HW213488   0.386   2.922   3.674
 4197SOL     OW13489   3.928   0.554   0.234
 4197SOL    HW113490   3.885   0.624   0.292
 4197SOL    HW213491   4.025   0.547   0.258
 4198SOL     OW13492   0.036   2.444   2.128
 4198SOL    HW113493   6.979   2.461   2.183
 4198SOL    HW213494   0.099   2.521   2.137
 4199SOL     OW13495   0.707   3.622   6.699
 4199SOL    HW113496   0.678   3.586   6.610
 4199SOL    HW213497   0.805   3.641   6.698
 4200SOL     OW13498   5.000   1.887   3.451
 4200SOL    HW113499   5.076   1.857   3.508
 4200SOL    HW213500   4.968   1.977   3.482
 4201SOL     OW13501   5.445   0.004   4.609
 4201SOL    HW113502   5.539   0.007   4.574
 4201SOL    HW213503   5.439   0.059   4.693
 4202SOL     OW13504   4.650   4.028   1.627
 4202SOL    HW113505   4.593   4.096   1.672
 4202SOL    HW213506   4.592   3.958   1.586
 4203SOL     OW13507   6.164   4.104   5.420
 4203SOL    HW113508   6.073   4.062   5.424
 4203SOL    HW213509   6.224   4.047   5.364
 4204SOL     OW13510   1.583   4.186   6.163
 4204SOL    HW113511   1.681   4.189   6.143
 4204SOL    HW213512   1.555   4.271   6.208
 4205SOL     OW13513   5.195   6.083   5.826
 4205SOL    HW113514   5.132   6.096   5.749
 4205SOL    HW213515   5.172   6.147   5.900
 4206SOL     OW13516   2.642   2.031   4.337
 4206SOL    HW113517   2.612   2.074   4.252
 4206SOL    HW213518   2.741   2.042   4.347
 4207SOL     OW13519   1.735   2.523   1.781
 4207SOL    HW113520   1.647   2.515   1.735
 4207SOL    HW213521   1.807   2.485   1.723
 4208SOL     OW13522   2.764   2.342   3.565
 4208SOL    HW113523   2.849   2.307   3.524
 4208SOL    HW213524   2.784   2.378   3.656
 4209SOL     OW13525   6.563   5.619   2.428
 4209SOL    HW113526   6.599   5.682   2.359
 4209SOL    HW213527   6.482   5.659   2.471
 4210SOL     OW13528   2.950   4.419   5.352
 4210SOL    HW113529   2.919   4.489   5.287
 4210SOL    HW213530   2.920   4.443   5.444
 4211SOL     OW13531   4.052   2.837   5.548
 4211SOL    HW113532   4.091   2.917   5.594
 4211SOL    HW213533   4.095   2.754   5.584
 4212SOL     OW13534   0.962   2.372   3.195
 4212SOL    HW113535   0.979   2.282   3.235
 4212SOL    HW213536   0.863   2.388   3.190
 4213SOL     OW13537   4.000   0.222   3.987
 4213SOL    HW113538   3.956   0.156   3.926
 4213SOL    HW213539   4.096   0.198   3.997
 4214SOL     OW13540   6.464   6.071   3.503
 4214SOL    HW113541   6.373   6.077   3.463
 4214SOL    HW213542   6.524   6.020   3.442
 4215SOL     OW13543   5.932   0.167   5.162
 4215SOL    HW113544   5.867   0.234   5.128
 4215SOL    HW213545   5.888   0.078   5.171
 4216SOL     OW13546   2.687   5.508   2.358
 4216SOL    HW113547   2.606   5.559   2.388
 4216SOL    HW213548   2.664   5.411   2.349
 4217SOL     OW13549   1.309   0.928   3.368
 4217SOL    HW113550   1.359   1.013   3.348
 4217SOL    HW213551   1.329   0.899   3.461
 4218SOL     OW13552   3.300   0.837   2.010
 4218SOL    HW113553   3.284   0.816   2.107
 4218SOL    HW213554   3.362   0.915   2.002
 4219SOL     OW13555   3.778   5.175   3.508
 4219SOL    HW113556   3.696   5.119   3.498
 4219SOL    HW213557   3.814   5.165   3.600
 4220SOL     OW13558   6.034   2.277   1.360
 4220SOL    HW113559   6.062   2.238   1.448
 4220SOL    HW213560   5.975   2.213   1.312
 4221SOL     OW13561   0.562   6.193   0.447
 4221SOL    HW113562   0.607   6.203   0.536
 4221SOL    HW213563   0.470   6.156   0.460
 4222SOL     OW13564   4.973   3.253   4.791
 4222SOL    HW113565   5.025   3.335   4.769
 4222SOL    HW213566   4.937   3.212   4.708
 4223SOL     OW13567   3.316   3.982   2.239
 4223SOL    HW113568   3.314   4.038   2.322
 4223SOL    HW213569   3.224   3.976   2.201
 4224SOL     OW13570   4.821   4.409   4.752
 4224SOL    HW113571   4.776   4.322   4.732
 4224SOL    HW213572   4.920   4.396   4.755
 4225SOL     OW13573   0.951   2.182   6.077
 4225SOL    HW113574   0.865   2.143   6.110
 4225SOL    HW213575   1.005   2.213   6.155
 4226SOL     OW13576   6.217   4.719   4.575
 4226SOL    HW113577   6.261   4.678   4.494
 4226SOL    HW213578   6.288   4.748   4.640
 4227SOL     OW13579   5.257   5.177   1.474
 4227SOL    HW113580   5.194   5.149   1.546
 4227SOL    HW213581   5.299   5.264   1.499
 4228SOL     OW13582   1.484   4.405   3.587
 4228SOL    HW113583   1.534   4.489   3.567
 4228SOL    HW213584   1.531   4.328   3.544
 4229SOL     OW13585   6.039   6.232   5.280
 4229SOL    HW113586   6.052   6.240   5.378
 4229SOL    HW213587   5.992   6.146   5.259
 4230SOL     OW13588   0.314   1.069   1.704
 4230SOL    HW113589   0.339   1.067   1.800
 4230SOL    HW213590   0.360   1.145   1.659
 4231SOL     OW13591   0.759   0.481   6.595
 4231SOL    HW113592   0.799   0.504   6.506
 4231SOL    HW213593   0.726   0.387   6.594
 4232SOL     OW13594   1.709   4.754   3.819
 4232SOL    HW113595   1.739   4.848   3.802
 4232SOL    HW213596   1.681   4.746   3.915
 4233SOL     OW13597   4.302   5.415   2.278
 4233SOL    HW113598   4.227   5.365   2.235
 4233SOL    HW213599   4.335   5.364   2.358
 4234SOL     OW13600   3.386   5.549   5.912
 4234SOL    HW113601   3.469   5.494   5.924
 4234SOL    HW213602   3.334   5.548   5.997
 4235SOL     OW13603   6.760   6.051   6.417
 4235SOL    HW113604   6.749   6.036   6.515
 4235SOL    HW213605   6.829   6.122   6.402
 4236SOL     OW13606   0.618   5.205   2.983
 4236SOL    HW113607   0.689   5.249   3.038
 4236SOL    HW213608   0.652   5.117   2.950
 4237SOL     OW13609   6.633   4.769   3.582
 4237SOL    HW113610   6.568   4.708   3.538
 4237SOL    HW213611   6.584   4.844   3.626
 4238SOL     OW13612   2.738   5.644   2.822
 4238SOL    HW113613   2.748   5.620   2.918
 4238SOL    HW213614   2.728   5.744   2.813
 4239SOL     OW13615   4.278   1.201   3.536
 4239SOL    HW113616   4.352   1.134   3.526
 4239SOL    HW213617   4.208   1.164   3.597
 4240SOL     OW13618   5.928   6.677   2.185
 4240SOL    HW113619   5.923   6.773   2.155
 4240SOL    HW213620   5.934   6.675   2.285
 4241SOL     OW13621   6.652   4.679   0.387
 4241SOL    HW113622   6.686   4.682   0.480
 4241SOL    HW213623   6.671   4.767   0.342
 4242SOL     OW13624   3.490   2.161   3.527
 4242SOL    HW113625   3.400   2.182   3.566
 4242SOL    HW213626   3.479   2.139   3.430
 4243SOL     OW13627   3.797   2.153   2.911
 4243SOL    HW113628   3.813   2.058   2.939
 4243SOL    HW213629   3.837   2.168   2.820
 4244SOL     OW13630   3.131   3.069   4.772
 4244SOL    HW113631   3.085   3.120   4.845
 4244SOL    HW213632   3.215   3.029   4.807
 4245SOL     OW13633   6.365   0.404   6.692
 4245SOL    HW113634   6.352   0.415   6.790
 4245SOL    HW213635   6.422   0.478   6.656
 4246SOL     OW13636   0.089   4.424   6.367
 4246SOL    HW113637   0.146   4.410   6.448
 4246SOL    HW213638   0.101   4.348   6.304
 4247SOL     OW13639   7.025   6.084   4.841
 4247SOL    HW113640   7.003   6.168   4.792
 4247SOL    HW213641   0.089   6.093   4.885
 4248SOL     OW13642   2.329   3.714   6.217
 4248SOL    HW113643   2.428   3.721   6.231
 4248SOL    HW213644   2.284   3.697   6.305
 4249SOL     OW13645   5.516   3.712   6.064
 4249SOL    HW113646   5.569   3.713   5.979
 4249SOL    HW213647   5.574   3.679   6.139
 4250SOL     OW13648   0.374   3.985   3.658
 4250SOL    HW113649   0.365   3.893   3.698
 4250SOL    HW213650   0.465   4.021   3.680
 4251SOL     OW13651   5.489   4.692   6.764
 4251SOL    HW113652   5.529   4.754   6.697
 4251SOL    HW213653   5.556   4.674   6.836
 4252SOL     OW13654   6.351   5.297   5.012
 4252SOL    HW113655   6.443   5.335   5.019
 4252SOL    HW213656   6.333   5.271   4.918
 4253SOL     OW13657   3.341   5.918   3.190
 4253SOL    HW113658   3.266   5.871   3.235
 4253SOL    HW213659   3.313   5.946   3.098
 4254SOL     OW13660   2.794   3.739   1.526
 4254SOL    HW113661   2.722   3.697   1.581
 4254SOL    HW213662   2.856   3.790   1.586
 4255SOL     OW13663   0.414   2.379   4.186
 4255SOL    HW113664   0.380   2.455   4.130
 4255SOL    HW213665   0.411   2.404   4.283
 4256SOL     OW13666   2.021   0.949   2.211
 4256SOL    HW113667   2.009   0.935   2.309
 4256SOL    HW213668   2.119   0.952   2.189
 4257SOL     OW13669   4.395   2.127   5.210
 4257SOL    HW113670   4.405   2.054   5.143
 4257SOL    HW213671   4.372   2.088   5.299
 4258SOL     OW13672   5.281   5.989   2.866
 4258SOL    HW113673   5.237   5.939   2.792
 4258SOL    HW213674   5.289   5.929   2.946
 4259SOL     OW13675   2.334   3.038   1.167
 4259SOL    HW113676   2.284   2.975   1.107
 4259SOL    HW213677   2.313   3.016   1.263
 4260SOL     OW13678   3.737   5.558   4.368
 4260SOL    HW113679   3.660   5.542   4.430
 4260SOL    HW213680   3.744   5.656   4.350
 4261SOL     OW13681   0.721   1.678   2.855
 4261SOL    HW113682   0.671   1.728   2.926
 4261SOL    HW213683   0.816   1.709   2.852
 4262SOL     OW13684   0.402   6.398   6.280
 4262SOL    HW113685   0.474   6.357   6.337
 4262SOL    HW213686   0.442   6.427   6.193
 4263SOL     OW13687   4.410   5.044   6.646
 4263SOL    HW113688   4.329   4.989   6.626
 4263SOL    HW213689   4.383   5.126   6.697
 4264SOL     OW13690   0.748   0.369   1.303
 4264SOL    HW113691   0.748   0.469   1.306
 4264SOL    HW213692   0.653   0.337   1.302
 4265SOL     OW13693   1.656   1.752   0.126
 4265SOL    HW113694   1.676   1.759   0.029
 4265SOL    HW213695   1.740   1.766   0.179
 4266SOL     OW13696   3.517   4.626   1.173
 4266SOL    HW113697   3.554   4.626   1.080
 4266SOL    HW213698   3.457   4.547   1.185
 4267SOL     OW13699   1.312   4.579   5.770
 4267SOL    HW113700   1.345   4.664   5.729
 4267SOL    HW213701   1.287   4.514   5.698
 4268SOL     OW13702   1.944   0.868   1.028
 4268SOL    HW113703   1.946   0.801   1.101
 4268SOL    HW213704   1.851   0.904   1.018
 4269SOL     OW13705   2.637   4.223   0.759
 4269SOL    HW113706   2.553   4.179   0.792
 4269SOL    HW213707   2.716   4.184   0.805
 4270SOL     OW13708   3.561   2.730   6.464
 4270SOL    HW113709   3.526   2.640   6.441
 4270SOL    HW213710   3.616   2.765   6.388
 4271SOL     OW13711   1.249   0.742   0.973
 4271SOL    HW113712   1.236   0.791   1.059
 4271SOL    HW213713   1.340   0.761   0.937
 4272SOL     OW13714   0.176   4.073   3.966
 4272SOL    HW113715   0.155   4.106   3.874
 4272SOL    HW213716   0.165   3.973   3.969
 4273SOL     OW13717   5.641   6.940   4.035
 4273SOL    HW113718   5.715   7.002   4.008
 4273SOL    HW213719   5.600   6.898   3.954
 4274SOL     OW13720   2.294   0.385   3.942
 4274SOL    HW113721   2.313   0.305   3.999
 4274SOL    HW213722   2.258   0.355   3.854
 4275SOL     OW13723   0.576   0.400   5.702
 4275SOL    HW113724   0.540   0.485   5.739
 4275SOL    HW213725   0.588   0.334   5.777
 4276SOL     OW13726   1.942   4.655   2.459
 4276SOL    HW113727   2.025   4.709   2.444
 4276SOL    HW213728   1.912   4.667   2.553
 4277SOL     OW13729   0.609   5.515   5.768
 4277SOL    HW113730   0.638   5.479   5.679
 4277SOL    HW213731   0.683   5.504   5.834
 4278SOL     OW13732   1.388   6.746   6.288
 4278SOL    HW113733   1.401   6.740   6.189
 4278SOL    HW213734   1.424   6.833   6.321
 4279SOL     OW13735   3.059   5.740   3.809
 4279SOL    HW113736   3.016   5.753   3.720
 4279SOL    HW213737   3.081   5.643   3.821
 4280SOL     OW13738   4.976   2.871   3.611
 4280SOL    HW113739   5.057   2.907   3.657
 4280SOL    HW213740   4.902   2.939   3.616
 4281SOL     OW13741   2.442   4.144   5.373
 4281SOL    HW113742   2.519   4.207   5.366
 4281SOL    HW213743   2.446   4.079   5.297
 4282SOL     OW13744   0.501   2.988   0.664
 4282SOL    HW113745   0.473   2.995   0.760
 4282SOL    HW213746   0.456   3.060   0.611
 4283SOL     OW13747   2.503   0.978   4.632
 4283SOL    HW113748   2.535   1.071   4.614
 4283SOL    HW213749   2.440   0.980   4.710
 4284SOL     OW13750   0.143   2.019   3.349
 4284SOL    HW113751   0.103   2.022   3.440
 4284SOL    HW213752   0.154   2.113   3.315
 4285SOL     OW13753   0.985   5.726   4.910
 4285SOL    HW113754   0.888   5.732   4.890
 4285SOL    HW213755   1.006   5.779   4.992
 4286SOL     OW13756   4.633   5.862   6.433
 4286SOL    HW113757   4.545   5.865   6.385
 4286SOL    HW213758   4.685   5.944   6.412
 4287SOL     OW13759   3.988   6.310   5.879
 4287SOL    HW113760   3.935   6.388   5.848
 4287SOL    HW213761   3.961   6.229   5.827
 4288SOL     OW13762   1.066   5.811   3.286
 4288SOL    HW113763   1.142   5.838   3.227
 4288SOL    HW213764   1.054   5.879   3.359
 4289SOL     OW13765   6.821   4.058   0.392
 4289SOL    HW113766   6.888   4.017   0.331
 4289SOL    HW213767   6.851   4.046   0.487
 4290SOL     OW13768   1.990   1.632   3.187
 4290SOL    HW113769   2.018   1.726   3.209
 4290SOL    HW213770   2.065   1.584   3.143
 4291SOL     OW13771   6.744   4.251   1.145
 4291SOL    HW113772   6.655   4.239   1.099
 4291SOL    HW213773   6.810   4.288   1.079
 4292SOL     OW13774   5.973   5.261   6.063
 4292SOL    HW113775   5.994   5.250   6.161
 4292SOL    HW213776   5.876   5.280   6.052
 4293SOL     OW13777   0.428   2.259   6.612
 4293SOL    HW113778   0.333   2.270   6.641
 4293SOL    HW213779   0.471   2.187   6.666
 4294SOL     OW13780   4.896   1.954   6.069
 4294SOL    HW113781   4.814   1.967   6.124
 4294SOL    HW213782   4.950   2.039   6.069
 4295SOL     OW13783   3.770   5.997   5.976
 4295SOL    HW113784   3.723   6.075   6.016
 4295SOL    HW213785   3.836   6.028   5.907
 4296SOL     OW13786   2.794   1.370   2.834
 4296SOL    HW113787   2.822   1.459   2.795
 4296SOL    HW213788   2.724   1.329   2.776
 4297SOL     OW13789   5.560   0.377   0.449
 4297SOL    HW113790   5.596   0.308   0.387
 4297SOL    HW213791   5.527   0.456   0.397
 4298SOL     OW13792   1.931   5.311   1.524
 4298SOL    HW113793   1.970   5.358   1.603
 4298SOL    HW213794   1.951   5.362   1.440
 4299SOL     OW13795   0.980   5.001   5.310
 4299SOL    HW113796   0.884   4.975   5.304
 4299SOL    HW213797   1.020   4.963   5.393
 4300SOL     OW13798   6.003   6.518   5.403
 4300SOL    HW113799   5.990   6.430   5.357
 4300SOL    HW213800   5.918   6.543   5.449
 4301SOL     OW13801   2.769   1.004   0.555
 4301SOL    HW113802   2.672   0.984   0.543
 4301SOL    HW213803   2.790   1.093   0.517
 4302SOL     OW13804   1.183   0.001   6.511
 4302SOL    HW113805   1.249   0.027   6.440
 4302SOL    HW213806   1.171   0.078   6.574
 4303SOL     OW13807   6.559   4.307   1.465
 4303SOL    HW113808   6.566   4.220   1.513
 4303SOL    HW213809   6.646   4.355   1.471
 4304SOL     OW13810   3.035   3.195   5.015
 4304SOL    HW113811   2.981   3.175   5.097
 4304SOL    HW213812   3.072   3.287   5.021
 4305SOL     OW13813   6.682   1.151   5.231
 4305SOL    HW113814   6.722   1.237   5.263
 4305SOL    HW213815   6.722   1.127   5.142
 4306SOL     OW13816   6.123   6.312   6.052
 4306SOL    HW113817   6.061   6.320   6.129
 4306SOL    HW213818   6.172   6.224   6.057
 4307SOL     OW13819   5.264   3.131   0.116
 4307SOL    HW113820   5.276   3.200   0.187
 4307SOL    HW213821   5.311   3.047   0.144
 4308SOL     OW13822   3.605   6.520   5.288
 4308SOL    HW113823   3.696   6.519   5.329
 4308SOL    HW213824   3.613   6.506   5.190
 4309SOL     OW13825   1.959   0.714   1.258
 4309SOL    HW113826   1.983   0.751   1.348
 4309SOL    HW213827   1.990   0.619   1.252
 4310SOL     OW13828   1.605   0.621   3.037
 4310SOL    HW113829   1.674   0.667   2.981
 4310SOL    HW213830   1.619   0.522   3.032
 4311SOL     OW13831   1.121   5.737   4.679
 4311SOL    HW113832   1.086   5.690   4.598
 4311SOL    HW213833   1.060   5.721   4.757
 4312SOL     OW13834   1.535   5.760   1.514
 4312SOL    HW113835   1.576   5.678   1.474
 4312SOL    HW213836   1.593   5.839   1.496
 4313SOL     OW13837   5.216   0.941   1.419
 4313SOL    HW113838   5.119   0.947   1.392
 4313SOL    HW213839   5.255   0.857   1.383
 4314SOL     OW13840   5.902   3.486   1.989
 4314SOL    HW113841   5.874   3.492   2.085
 4314SOL    HW213842   5.999   3.466   1.983
 4315SOL     OW13843   2.268   1.536   2.622
 4315SOL    HW113844   2.247   1.629   2.592
 4315SOL    HW213845   2.361   1.513   2.596
 4316SOL     OW13846   0.669   0.933   2.378
 4316SOL    HW113847   0.613   0.905   2.300
 4316SOL    HW213848   0.648   0.876   2.457
 4317SOL     OW13849   4.190   0.377   3.486
 4317SOL    HW113850   4.230   0.308   3.426
 4317SOL    HW213851   4.262   0.441   3.516
 4318SOL     OW13852   6.268   2.306   4.758
 4318SOL    HW113853   6.232   2.256   4.837
 4318SOL    HW213854   6.226   2.397   4.754
 4319SOL     OW13855   2.928   3.126   6.162
 4319SOL    HW113856   2.953   3.168   6.249
 4319SOL    HW213857   3.009   3.114   6.105
 4320SOL     OW13858   0.341   5.666   3.631
 4320SOL    HW113859   0.291   5.677   3.717
 4320SOL    HW213860   0.327   5.573   3.596
 4321SOL     OW13861   0.673   0.543   4.909
 4321SOL    HW113862   0.692   0.588   4.822
 4321SOL    HW213863   0.759   0.515   4.951
 4322SOL     OW13864   5.749   1.366   1.303
 4322SOL    HW113865   5.738   1.296   1.233
 4322SOL    HW213866   5.665   1.418   1.312
 4323SOL     OW13867   0.255   2.062   3.898
 4323SOL    HW113868   0.206   2.063   3.986
 4323SOL    HW213869   0.201   2.110   3.830
 4324SOL     OW13870   5.642   2.777   6.264
 4324SOL    HW113871   5.625   2.710   6.337
 4324SOL    HW213872   5.665   2.729   6.180
 4325SOL     OW13873   1.588   2.234   6.255
 4325SOL    HW113874   1.505   2.290   6.258
 4325SOL    HW213875   1.565   2.140   6.283
 4326SOL     OW13876   6.612   2.678   5.084
 4326SOL    HW113877   6.550   2.695   5.008
 4326SOL    HW213878   6.703   2.714   5.063
 4327SOL     OW13879   5.539   0.881   3.293
 4327SOL    HW113880   5.550   0.827   3.209
 4327SOL    HW213881   5.617   0.866   3.353
 4328SOL     OW13882   5.807   5.132   0.225
 4328SOL    HW113883   5.845   5.124   0.317
 4328SOL    HW213884   5.712   5.103   0.225
 4329SOL     OW13885   5.054   1.610   6.767
 4329SOL    HW113886   5.148   1.629   6.740
 4329SOL    HW213887   5.003   1.577   6.687
 4330SOL     OW13888   1.167   0.905   6.487
 4330SOL    HW113889   1.076   0.884   6.524
 4330SOL    HW213890   1.226   0.825   6.497
 4331SOL     OW13891   5.509   2.205   6.613
 4331SOL    HW113892   5.578   2.180   6.545
 4331SOL    HW213893   5.539   2.287   6.662
 4332SOL     OW13894   5.589   3.155   1.757
 4332SOL    HW113895   5.525   3.169   1.681
 4332SOL    HW213896   5.543   3.173   1.844
 4333SOL     OW13897   6.271   1.410   5.403
 4333SOL    HW113898   6.358   1.453   5.429
 4333SOL    HW213899   6.207   1.480   5.372
 4334SOL     OW13900   4.441   0.151   1.548
 4334SOL    HW113901   4.409   0.236   1.589
 4334SOL    HW213902   4.489   0.171   1.462
 4335SOL     OW13903   3.807   4.477   5.742
 4335SOL    HW113904   3.822   4.499   5.839
 4335SOL    HW213905   3.893   4.485   5.693
 4336SOL     OW13906   1.029   6.456   5.563
 4336SOL    HW113907   0.946   6.510   5.578
 4336SOL    HW213908   1.084   6.456   5.647
 4337SOL     OW13909   0.398   5.618   0.250
 4337SOL    HW113910   0.413   5.711   0.283
 4337SOL    HW213911   0.383   5.557   0.329
 4338SOL     OW13912   5.571   6.160   3.761
 4338SOL    HW113913   5.601   6.164   3.666
 4338SOL    HW213914   5.487   6.213   3.771
 4339SOL     OW13915   6.798   1.269   6.866
 4339SOL    HW113916   6.704   1.244   6.843
 4339SOL    HW213917   6.862   1.217   6.809
 4340SOL     OW13918   4.451   3.437   1.730
 4340SOL    HW113919   4.453   3.339   1.710
 4340SOL    HW213920   4.542   3.476   1.716
 4341SOL     OW13921   0.901   3.692   0.223
 4341SOL    HW113922   0.819   3.642   0.251
 4341SOL    HW213923   0.952   3.720   0.305
 4342SOL     OW13924   6.949   2.062   3.116
 4342SOL    HW113925   6.906   2.129   3.176
 4342SOL    HW213926   7.003   1.998   3.171
 4343SOL     OW13927   2.729   1.841   1.436
 4343SOL    HW113928   2.646   1.864   1.385
 4343SOL    HW213929   2.808   1.882   1.391
 4344SOL     OW13930   2.151   3.826   2.577
 4344SOL    HW113931   2.251   3.832   2.575
 4344SOL    HW213932   2.121   3.750   2.518
 4345SOL     OW13933   2.419   1.646   5.968
 4345SOL    HW113934   2.495   1.632   5.905
 4345SOL    HW213935   2.393   1.742   5.969
 4346SOL     OW13936   6.625   3.566   0.954
 4346SOL    HW113937   6.529   3.554   0.978
 4346SOL    HW213938   6.683   3.548   1.035
 4347SOL     OW13939   5.310   5.830   2.391
 4347SOL    HW113940   5.399   5.854   2.352
 4347SOL    HW213941   5.240   5.889   2.353
 4348SOL     OW13942   1.351   4.098   6.995
 4348SOL    HW113943   1.319   4.032   6.927
 4348SOL    HW213944   1.436   4.139   6.963
 4349SOL     OW13945   6.757   1.031   1.823
 4349SOL    HW113946   6.849   1.013   1.789
 4349SOL    HW213947   6.755   1.117   1.872
 4350SOL     OW13948   4.481   7.022   3.303
 4350SOL    HW113949   4.438   0.075   3.347
 4350SOL    HW213950   4.514   6.959   3.374
 4351SOL     OW13951   3.109   6.887   6.948
 4351SOL    HW113952   3.130   6.979   6.982
 4351SOL    HW213953   3.178   6.823   6.980
 4352SOL     OW13954   6.139   1.613   2.681
 4352SOL    HW113955   6.077   1.559   2.625
 4352SOL    HW213956   6.093   1.697   2.710
 4353SOL     OW13957   3.148   5.871   1.841
 4353SOL    HW113958   3.052   5.848   1.859
 4353SOL    HW213959   3.178   5.827   1.757
 4354SOL     OW13960   2.596   0.615   1.435
 4354SOL    HW113961   2.611   0.687   1.367
 4354SOL    HW213962   2.679   0.603   1.490
 4355SOL     OW13963   4.790   0.087   0.461
 4355SOL    HW113964   4.723   0.029   0.507
 4355SOL    HW213965   4.771   0.091   0.363
 4356SOL     OW13966   3.650   4.281   0.129
 4356SOL    HW113967   3.650   4.223   0.210
 4356SOL    HW213968   3.556   4.308   0.107
 4357SOL     OW13969   6.155   0.752   0.005
 4357SOL    HW113970   6.172   0.840   0.048
 4357SOL    HW213971   6.161   0.679   0.073
 4358SOL     OW13972   6.272   0.757   0.757
 4358SOL    HW113973   6.181   0.772   0.719
 4358SOL    HW213974   6.336   0.738   0.683
 4359SOL     OW13975   5.724   3.295   4.260
 4359SOL    HW113976   5.815   3.266   4.289
 4359SOL    HW213977   5.706   3.261   4.168
 4360SOL     OW13978   2.173   3.180   0.939
 4360SOL    HW113979   2.181   3.080   0.942
 4360SOL    HW213980   2.232   3.215   0.866
 4361SOL     OW13981   5.869   1.962   2.487
 4361SOL    HW113982   5.931   1.921   2.554
 4361SOL    HW213983   5.776   1.963   2.523
 4362SOL     OW13984   5.056   3.963   2.943
 4362SOL    HW113985   5.122   4.033   2.971
 4362SOL    HW213986   4.965   4.004   2.938
 4363SOL     OW13987   5.307   0.560   6.183
 4363SOL    HW113988   5.271   0.575   6.275
 4363SOL    HW213989   5.299   0.463   6.160
 4364SOL     OW13990   3.486   3.756   4.581
 4364SOL    HW113991   3.523   3.847   4.601
 4364SOL    HW213992   3.481   3.744   4.482
 4365SOL     OW13993   4.229   1.456   1.088
 4365SOL    HW113994   4.156   1.418   1.031
 4365SOL    HW213995   4.216   1.555   1.096
 4366SOL     OW13996   5.378   4.777   0.542
 4366SOL    HW113997   5.319   4.697   0.531
 4366SOL    HW213998   5.424   4.797   0.456
 4367SOL     OW13999   6.941   0.066   0.684
 4367SOL    HW114000   6.913   0.160   0.665
 4367SOL    HW214001   6.877   0.002   0.641
 4368SOL     OW14002   4.400   4.559   1.948
 4368SOL    HW114003   4.324   4.530   1.890
 4368SOL    HW214004   4.456   4.479   1.972
 4369SOL     OW14005   3.002   5.656   1.452
 4369SOL    HW114006   2.910   5.671   1.487
 4369SOL    HW214007   3.007   5.564   1.413
 4370SOL     OW14008   5.679   4.334   2.117
 4370SOL    HW114009   5.601   4.323   2.179
 4370SOL    HW214010   5.764   4.328   2.169
 4371SOL     OW14011   0.614   2.086   2.426
 4371SOL    HW114012   0.660   2.055   2.343
 4371SOL    HW214013   0.577   2.007   2.476
 4372SOL     OW14014   5.033   0.256   3.281
 4372SOL    HW114015   5.110   0.237   3.220
 4372SOL    HW214016   5.060   0.323   3.350
 4373SOL     OW14017   6.903   1.921   6.412
 4373SOL    HW114018   6.896   1.822   6.399
 4373SOL    HW214019   6.962   1.960   6.341
 4374SOL     OW14020   3.425   1.448   1.380
 4374SOL    HW114021   3.507   1.466   1.435
 4374SOL    HW214022   3.346   1.492   1.422
 4375SOL     OW14023   3.523   5.812   4.165
 4375SOL    HW114024   3.606   5.783   4.213
 4375SOL    HW214025   3.547   5.852   4.077
 4376SOL     OW14026   0.098   2.158   4.496
 4376SOL    HW114027   0.044   2.192   4.419
 4376SOL    HW214028   0.195   2.167   4.475
 4377SOL     OW14029   6.807   5.257   6.159
 4377SOL    HW114030   6.734   5.193   6.134
 4377SOL    HW214031   6.860   5.220   6.235
 4378SOL     OW14032   3.357   1.525   4.010
 4378SOL    HW114033   3.404   1.441   3.984
 4378SOL    HW214034   3.409   1.572   4.082
 4379SOL     OW14035   3.540   2.063   6.192
 4379SOL    HW114036   3.497   2.037   6.106
 4379SOL    HW214037   3.489   2.024   6.268
 4380SOL     OW14038   0.436   2.110   3.293
 4380SOL    HW114039   0.356   2.058   3.264
 4380SOL    HW214040   0.504   2.048   3.331
 4381SOL     OW14041   1.413   5.916   6.950
 4381SOL    HW114042   1.489   5.859   6.920
 4381SOL    HW214043   1.389   5.893   0.019
 4382SOL     OW14044   0.741   5.197   4.447
 4382SOL    HW114045   0.746   5.266   4.375
 4382SOL    HW214046   0.700   5.114   4.411
 4383SOL     OW14047   6.720   4.174   0.769
 4383SOL    HW114048   6.770   4.252   0.806
 4383SOL    HW214049   6.777   4.092   0.775
 4384SOL     OW14050   5.057   6.954   3.710
 4384SOL    HW114051   5.156   6.953   3.694
 4384SOL    HW214052   5.016   6.871   3.672
 4385SOL     OW14053   4.607   1.566   5.716
 4385SOL    HW114054   4.607   1.539   5.620
 4385SOL    HW214055   4.568   1.658   5.725
 4386SOL     OW14056   1.819   3.242   4.550
 4386SOL    HW114057   1.897   3.275   4.498
 4386SOL    HW214058   1.741   3.302   4.534
 4387SOL     OW14059   5.507   1.893   0.664
 4387SOL    HW114060   5.444   1.960   0.701
 4387SOL    HW214061   5.580   1.940   0.614
 4388SOL     OW14062   4.928   3.585   0.016
 4388SOL    HW114063   4.887   3.533   6.967
 4388SOL    HW214064   4.870   3.664   0.037
 4389SOL     OW14065   1.510   2.003   6.970
 4389SOL    HW114066   1.420   2.012   6.927
 4389SOL    HW214067   1.563   1.933   6.922
 4390SOL     OW14068   6.929   1.734   1.032
 4390SOL    HW114069   6.978   1.658   0.991
 4390SOL    HW214070   6.986   1.777   1.102
 4391SOL     OW14071   0.781   5.441   0.664
 4391SOL    HW114072   0.794   5.497   0.583
 4391SOL    HW214073   0.686   5.410   0.669
 4392SOL     OW14074   1.093   3.078   5.897
 4392SOL    HW114075   1.160   3.014   5.936
 4392SOL    HW214076   1.035   3.112   5.971
 4393SOL     OW14077   5.969   0.199   1.941
 4393SOL    HW114078   5.980   0.217   2.039
 4393SOL    HW214079   5.930   0.108   1.928
 4394SOL     OW14080   0.544   0.453   2.403
 4394SOL    HW114081   0.609   0.450   2.328
 4394SOL    HW214082   0.513   0.360   2.425
 4395SOL     OW14083   1.870   4.493   2.235
 4395SOL    HW114084   1.879   4.543   2.321
 4395SOL    HW214085   1.884   4.557   2.159
 4396SOL     OW14086   3.380   1.025   2.817
 4396SOL    HW114087   3.440   1.036   2.896
 4396SOL    HW214088   3.330   1.110   2.801
 4397SOL     OW14089   3.506   1.320   4.815
 4397SOL    HW114090   3.459   1.243   4.859
 4397SOL    HW214091   3.512   1.396   4.880
 4398SOL     OW14092   2.238   3.499   5.497
 4398SOL    HW114093   2.154   3.520   5.547
 4398SOL    HW214094   2.224   3.520   5.400
 4399SOL     OW14095   2.766   6.603   1.512
 4399SOL    HW114096   2.819   6.624   1.430
 4399SOL    HW214097   2.669   6.593   1.487
 4400SOL     OW14098   1.823   6.060   4.817
 4400SOL    HW114099   1.752   6.099   4.759
 4400SOL    HW214100   1.798   5.966   4.841
 4401SOL     OW14101   2.912   6.996   6.304
 4401SOL    HW114102   2.859   0.051   6.277
 4401SOL    HW214103   2.884   6.918   6.249
 4402SOL     OW14104   2.183   1.057   2.865
 4402SOL    HW114105   2.142   1.007   2.941
 4402SOL    HW214106   2.233   1.136   2.901
 4403SOL     OW14107   0.443   5.320   2.092
 4403SOL    HW114108   0.413   5.332   1.998
 4403SOL    HW214109   0.488   5.404   2.123
 4404SOL     OW14110   0.824   6.626   5.767
 4404SOL    HW114111   0.841   6.662   5.859
 4404SOL    HW214112   0.846   6.696   5.699
 4405SOL     OW14113   1.963   5.256   2.326
 4405SOL    HW114114   1.906   5.182   2.362
 4405SOL    HW214115   2.059   5.238   2.349
 4406SOL     OW14116   6.254   4.102   1.874
 4406SOL    HW114117   6.272   4.110   1.777
 4406SOL    HW214118   6.169   4.150   1.896
 4407SOL     OW14119   5.832   6.710   0.871
 4407SOL    HW114120   5.881   6.795   0.891
 4407SOL    HW214121   5.743   6.732   0.833
 4408SOL     OW14122   4.283   0.806   0.769
 4408SOL    HW114123   4.247   0.713   0.780
 4408SOL    HW214124   4.283   0.851   0.858
 4409SOL     OW14125   2.849   0.800   4.048
 4409SOL    HW114126   2.752   0.811   4.030
 4409SOL    HW214127   2.864   0.720   4.107
 4410SOL     OW14128   0.612   0.200   0.942
 4410SOL    HW114129   0.692   0.259   0.951
 4410SOL    HW214130   0.529   0.255   0.958
 4411SOL     OW14131   4.471   4.461   5.374
 4411SOL    HW114132   4.436   4.369   5.358
 4411SOL    HW214133   4.537   4.458   5.449
 4412SOL     OW14134   4.466   6.196   1.917
 4412SOL    HW114135   4.554   6.216   1.874
 4412SOL    HW214136   4.449   6.262   1.991
 4413SOL     OW14137   4.294   5.650   3.724
 4413SOL    HW114138   4.217   5.591   3.701
 4413SOL    HW214139   4.376   5.620   3.675
 4414SOL     OW14140   5.249   3.549   1.448
 4414SOL    HW114141   5.276   3.457   1.419
 4414SOL    HW214142   5.222   3.602   1.368
 4415SOL     OW14143   1.563   3.921   1.002
 4415SOL    HW114144   1.612   3.948   0.919
 4415SOL    HW214145   1.557   3.999   1.064
 4416SOL     OW14146   4.937   2.956   4.393
 4416SOL    HW114147   4.906   2.961   4.298
 4416SOL    HW214148   5.032   2.926   4.395
 4417SOL     OW14149   6.999   4.311   1.601
 4417SOL    HW114150   6.955   4.289   1.514
 4417SOL    HW214151   6.932   4.305   1.675
 4418SOL     OW14152   6.290   0.780   5.752
 4418SOL    HW114153   6.329   0.689   5.740
 4418SOL    HW214154   6.313   0.815   5.843
 4419SOL     OW14155   6.715   6.055   6.697
 4419SOL    HW114156   6.724   6.138   6.753
 4419SOL    HW214157   6.706   5.975   6.756
 4420SOL     OW14158   4.064   1.943   1.084
 4420SOL    HW114159   3.972   1.971   1.112
 4420SOL    HW214160   4.124   2.022   1.079
 4421SOL     OW14161   1.971   2.830   0.340
 4421SOL    HW114162   1.947   2.871   0.428
 4421SOL    HW214163   1.955   2.897   0.267
 4422SOL     OW14164   0.203   3.074   6.021
 4422SOL    HW114165   0.223   3.120   5.935
 4422SOL    HW214166   0.284   3.074   6.079
 4423SOL     OW14167   6.142   4.393   4.423
 4423SOL    HW114168   6.126   4.350   4.511
 4423SOL    HW214169   6.078   4.468   4.409
 4424SOL     OW14170   4.550   6.045   2.714
 4424SOL    HW114171   4.540   5.952   2.748
 4424SOL    HW214172   4.543   6.044   2.614
 4425SOL     OW14173   0.836   5.854   1.384
 4425SOL    HW114174   0.751   5.806   1.405
 4425SOL    HW214175   0.817   5.928   1.320
 4426SOL     OW14176   0.240   0.480   4.289
 4426SOL    HW114177   0.175   0.534   4.343
 4426SOL    HW214178   0.190   0.411   4.236
 4427SOL     OW14179   2.283   5.920   2.217
 4427SOL    HW114180   2.207   5.895   2.278
 4427SOL    HW214181   2.352   5.847   2.218
 4428SOL     OW14182   6.599   5.357   3.308
 4428SOL    HW114183   6.631   5.333   3.216
 4428SOL    HW214184   6.676   5.354   3.372
 4429SOL     OW14185   2.705   6.420   3.159
 4429SOL    HW114186   2.662   6.390   3.244
 4429SOL    HW214187   2.788   6.472   3.181
 4430SOL     OW14188   6.130   3.478   5.195
 4430SOL    HW114189   6.150   3.507   5.288
 4430SOL    HW214190   6.065   3.402   5.196
 4431SOL     OW14191   4.396   6.576   4.847
 4431SOL    HW114192   4.350   6.519   4.779
 4431SOL    HW214193   4.369   6.546   4.939
 4432SOL     OW14194   0.838   3.373   5.958
 4432SOL    HW114195   0.843   3.286   6.007
 4432SOL    HW214196   0.922   3.386   5.905
 4433SOL     OW14197   1.064   0.571   4.403
 4433SOL    HW114198   1.034   0.494   4.459
 4433SOL    HW214199   0.987   0.604   4.349
 4434SOL     OW14200   7.013   0.758   1.846
 4434SOL    HW114201   7.020   0.840   1.788
 4434SOL    HW214202   0.072   0.705   1.838
 4435SOL     OW14203   2.333   4.221   0.509
 4435SOL    HW114204   2.431   4.233   0.493
 4435SOL    HW214205   2.295   4.306   0.547
 4436SOL     OW14206   4.496   2.248   1.827
 4436SOL    HW114207   4.474   2.150   1.830
 4436SOL    HW214208   4.495   2.279   1.732
 4437SOL     OW14209   6.520   4.657   0.130
 4437SOL    HW114210   6.502   4.683   0.035
 4437SOL    HW214211   6.548   4.561   0.134
 4438SOL     OW14212   4.469   1.304   4.609
 4438SOL    HW114213   4.481   1.342   4.518
 4438SOL    HW214214   4.553   1.258   4.638
 4439SOL     OW14215   2.112   5.827   3.048
 4439SOL    HW114216   2.064   5.760   3.106
 4439SOL    HW214217   2.144   5.903   3.105
 4440SOL     OW14218   1.269   4.885   4.984
 4440SOL    HW114219   1.347   4.841   4.940
 4440SOL    HW214220   1.291   4.902   5.080
 4441SOL     OW14221   6.781   1.703   1.304
 4441SOL    HW114222   6.873   1.738   1.286
 4441SOL    HW214223   6.751   1.647   1.227
 4442SOL     OW14224   2.234   4.761   1.326
 4442SOL    HW114225   2.191   4.796   1.409
 4442SOL    HW214226   2.251   4.663   1.337
 4443SOL     OW14227   0.432   5.867   6.230
 4443SOL    HW114228   0.503   5.937   6.225
 4443SOL    HW214229   0.372   5.874   6.150
 4444SOL     OW14230   5.654   5.396   0.277
 4444SOL    HW114231   5.729   5.367   0.336
 4444SOL    HW214232   5.662   5.493   0.257
 4445SOL     OW14233   1.973   4.193   0.024
 4445SOL    HW114234   1.923   4.154   0.101
 4445SOL    HW214235   2.028   4.121   7.006
 4446SOL     OW14236   4.385   1.680   2.044
 4446SOL    HW114237   4.380   1.620   2.124
 4446SOL    HW214238   4.300   1.732   2.037
 4447SOL     OW14239   4.045   5.542   5.011
 4447SOL    HW114240   4.040   5.497   4.922
 4447SOL    HW214241   3.964   5.600   5.024
 4448SOL     OW14242   3.380   6.802   2.477
 4448SOL    HW114243   3.357   6.832   2.569
 4448SOL    HW214244   3.361   6.704   2.468
 4449SOL     OW14245   4.081   1.855   5.775
 4449SOL    HW114246   4.060   1.794   5.852
 4449SOL    HW214247   4.089   1.800   5.691
 4450SOL     OW14248   2.049   6.495   0.573
 4450SOL    HW114249   1.956   6.496   0.536
 4450SOL    HW214250   2.055   6.562   0.648
 4451SOL     OW14251   4.643   5.499   3.072
 4451SOL    HW114252   4.586   5.483   3.153
 4451SOL    HW214253   4.686   5.589   3.079
 4452SOL     OW14254   4.992   5.160   3.735
 4452SOL    HW114255   4.988   5.132   3.831
 4452SOL    HW214256   5.022   5.255   3.730
 4453SOL     OW14257   0.544   4.784   0.961
 4453SOL    HW114258   0.538   4.884   0.955
 4453SOL    HW214259   0.526   4.755   1.055
 4454SOL     OW14260   0.911   2.271   0.776
 4454SOL    HW114261   0.878   2.232   0.862
 4454SOL    HW214262   0.844   2.338   0.742
 4455SOL     OW14263   1.474   0.496   4.390
 4455SOL    HW114264   1.431   0.497   4.300
 4455SOL    HW214265   1.519   0.584   4.405
 4456SOL     OW14266   1.730   6.093   4.457
 4456SOL    HW114267   1.694   6.096   4.551
 4456SOL    HW214268   1.661   6.053   4.397
 4457SOL     OW14269   1.510   1.319   4.383
 4457SOL    HW114270   1.448   1.258   4.433
 4457SOL    HW214271   1.510   1.295   4.286
 4458SOL     OW14272   1.241   3.138   6.232
 4458SOL    HW114273   1.214   3.062   6.172
 4458SOL    HW214274   1.175   3.148   6.306
 4459SOL     OW14275   0.639   3.877   3.416
 4459SOL    HW114276   0.680   3.933   3.487
 4459SOL    HW214277   0.684   3.893   3.329
 4460SOL     OW14278   0.290   2.835   5.073
 4460SOL    HW114279   0.305   2.807   5.167
 4460SOL    HW214280   0.264   2.932   5.070
 4461SOL     OW14281   1.832   0.590   0.779
 4461SOL    HW114282   1.908   0.600   0.843
 4461SOL    HW214283   1.748   0.570   0.829
 4462SOL     OW14284   6.333   3.899   2.201
 4462SOL    HW114285   6.269   3.974   2.220
 4462SOL    HW214286   6.424   3.938   2.183
 4463SOL     OW14287   5.495   1.698   0.042
 4463SOL    HW114288   5.527   1.756   0.118
 4463SOL    HW214289   5.411   1.651   0.070
 4464SOL     OW14290   0.515   3.571   1.468
 4464SOL    HW114291   0.587   3.512   1.504
 4464SOL    HW214292   0.472   3.620   1.544
 4465SOL     OW14293   4.170   5.635   2.338
 4465SOL    HW114294   4.229   5.566   2.296
 4465SOL    HW214295   4.107   5.671   2.269
 4466SOL     OW14296   0.750   3.090   2.477
 4466SOL    HW114297   0.791   3.035   2.549
 4466SOL    HW214298   0.682   3.152   2.518
 4467SOL     OW14299   5.251   4.778   1.763
 4467SOL    HW114300   5.237   4.733   1.675
 4467SOL    HW214301   5.342   4.818   1.766
 4468SOL     OW14302   1.459   2.722   1.212
 4468SOL    HW114303   1.434   2.813   1.245
 4468SOL    HW214304   1.501   2.730   1.122
 4469SOL     OW14305   2.417   6.120   1.362
 4469SOL    HW114306   2.351   6.181   1.317
 4469SOL    HW214307   2.503   6.170   1.377
 4470SOL     OW14308   0.643   0.094   2.642
 4470SOL    HW114309   0.736   0.129   2.653
 4470SOL    HW214310   0.594   0.102   2.728
 4471SOL     OW14311   0.915   0.572   6.794
 4471SOL    HW114312   0.897   0.593   6.890
 4471SOL    HW214313   0.831   0.537   6.752
 4472SOL     OW14314   1.204   2.826   0.986
 4472SOL    HW114315   1.113   2.799   1.017
 4472SOL    HW214316   1.251   2.747   0.947
 4473SOL     OW14317   0.192   2.971   4.749
 4473SOL    HW114318   0.194   2.965   4.849
 4473SOL    HW214319   0.284   2.990   4.715
 4474SOL     OW14320   2.406   6.243   0.501
 4474SOL    HW114321   2.490   6.193   0.519
 4474SOL    HW214322   2.418   6.339   0.528
 4475SOL     OW14323   0.822   3.491   6.930
 4475SOL    HW114324   0.788   3.511   6.838
 4475SOL    HW214325   0.767   3.419   6.971
 4476SOL     OW14326   5.272   1.051   3.388
 4476SOL    HW114327   5.356   0.997   3.393
 4476SOL    HW214328   5.230   1.054   3.479
 4477SOL     OW14329   0.166   1.276   4.294
 4477SOL    HW114330   0.212   1.358   4.259
 4477SOL    HW214331   0.169   1.204   4.225
 4478SOL     OW14332   1.750   0.852   2.203
 4478SOL    HW114333   1.849   0.866   2.207
 4478SOL    HW214334   1.705   0.909   2.271
 4479SOL     OW14335   2.198   2.720   6.246
 4479SOL    HW114336   2.260   2.796   6.226
 4479SOL    HW214337   2.128   2.751   6.311
 4480SOL     OW14338   0.072   7.005   3.472
 4480SOL    HW114339   0.022   0.006   3.389
 4480SOL    HW214340   0.085   0.059   3.531
 4481SOL     OW14341   1.830   3.988   5.942
 4481SOL    HW114342   1.769   3.942   6.006
 4481SOL    HW214343   1.861   3.924   5.872
 4482SOL     OW14344   2.648   0.274   1.168
 4482SOL    HW114345   2.681   0.365   1.144
 4482SOL    HW214346   2.724   0.209   1.166
 4483SOL     OW14347   1.078   3.762   0.486
 4483SOL    HW114348   1.054   3.856   0.464
 4483SOL    HW214349   1.128   3.760   0.573
 4484SOL     OW14350   3.255   0.726   6.895
 4484SOL    HW114351   3.340   0.679   6.918
 4484SOL    HW214352   3.236   0.797   6.962
 4485SOL     OW14353   0.409   3.677   4.974
 4485SOL    HW114354   0.504   3.694   4.997
 4485SOL    HW214355   0.396   3.685   4.875
 4486SOL     OW14356   4.971   4.217   3.608
 4486SOL    HW114357   4.887   4.197   3.658
 4486SOL    HW214358   4.960   4.302   3.556
 4487SOL     OW14359   0.202   3.007   6.615
 4487SOL    HW114360   0.264   3.019   6.692
 4487SOL    HW214361   0.230   2.928   6.561
 4488SOL     OW14362   6.707   4.337   3.530
 4488SOL    HW114363   6.772   4.277   3.484
 4488SOL    HW214364   6.723   4.432   3.502
 4489SOL     OW14365   3.664   5.669   6.791
 4489SOL    HW114366   3.709   5.670   6.702
 4489SOL    HW214367   3.732   5.671   6.863
 4490SOL     OW14368   5.737   1.848   2.249
 4490SOL    HW114369   5.764   1.868   2.344
 4490SOL    HW214370   5.676   1.769   2.249
 4491SOL     OW14371   0.723   3.969   3.155
 4491SOL    HW114372   0.810   4.018   3.161
 4491SOL    HW214373   0.650   4.033   3.134
 4492SOL     OW14374   5.619   1.157   2.647
 4492SOL    HW114375   5.597   1.067   2.685
 4492SOL    HW214376   5.658   1.215   2.718
 4493SOL     OW14377   5.155   1.830   5.763
 4493SOL    HW114378   5.209   1.856   5.683
 4493SOL    HW214379   5.129   1.912   5.814
 4494SOL     OW14380   1.679   0.974   2.459
 4494SOL    HW114381   1.644   0.895   2.509
 4494SOL    HW214382   1.615   1.051   2.469
 4495SOL     OW14383   4.768   6.526   0.869
 4495SOL    HW114384   4.675   6.493   0.887
 4495SOL    HW214385   4.790   6.513   0.772
 4496SOL     OW14386   2.461   6.239   6.262
 4496SOL    HW114387   2.529   6.216   6.193
 4496SOL    HW214388   2.452   6.339   6.269
 4497SOL     OW14389   4.011   0.267   5.700
 4497SOL    HW114390   3.915   0.271   5.727
 4497SOL    HW214391   4.018   0.230   5.608
 4498SOL     OW14392   1.141   4.798   4.170
 4498SOL    HW114393   1.093   4.809   4.082
 4498SOL    HW214394   1.077   4.811   4.245
 4499SOL     OW14395   5.993   1.316   2.496
 4499SOL    HW114396   6.088   1.330   2.467
 4499SOL    HW214397   5.980   1.355   2.587
 4500SOL     OW14398   3.329   6.733   7.011
 4500SOL    HW114399   3.331   6.747   0.085
 4500SOL    HW214400   3.311   6.636   6.992
 4501SOL     OW14401   6.507   6.825   2.576
 4501SOL    HW114402   6.422   6.853   2.531
 4501SOL    HW214403   6.584   6.848   2.516
 4502SOL     OW14404   1.529   4.114   6.432
 4502SOL    HW114405   1.607   4.065   6.473
 4502SOL    HW214406   1.555   4.210   6.417
 4503SOL     OW14407   4.024   1.423   2.421
 4503SOL    HW114408   3.993   1.361   2.348
 4503SOL    HW214409   4.124   1.429   2.419
 4504SOL     OW14410   1.198   1.997   3.950
 4504SOL    HW114411   1.269   1.933   3.922
 4504SOL    HW214412   1.181   1.986   4.048
 4505SOL     OW14413   6.533   3.161   3.175
 4505SOL    HW114414   6.438   3.171   3.143
 4505SOL    HW214415   6.535   3.106   3.258
 4506SOL     OW14416   4.036   4.084   0.039
 4506SOL    HW114417   3.970   4.146   7.022
 4506SOL    HW214418   4.102   4.137   0.093
 4507SOL     OW14419   5.853   2.467   2.921
 4507SOL    HW114420   5.899   2.555   2.908
 4507SOL    HW214421   5.896   2.418   2.997
 4508SOL     OW14422   6.276   5.167   0.421
 4508SOL    HW114423   6.308   5.166   0.326
 4508SOL    HW214424   6.202   5.233   0.431
 4509SOL     OW14425   5.228   2.046   2.226
 4509SOL    HW114426   5.259   2.141   2.219
 4509SOL    HW214427   5.154   2.041   2.294
 4510SOL     OW14428   4.798   1.573   4.362
 4510SOL    HW114429   4.796   1.586   4.462
 4510SOL    HW214430   4.756   1.651   4.317
 4511SOL     OW14431   0.096   4.829   6.703
 4511SOL    HW114432   0.117   4.925   6.686
 4511SOL    HW214433   7.024   4.814   6.691
 4512SOL     OW14434   3.270   3.123   5.658
 4512SOL    HW114435   3.292   3.175   5.575
 4512SOL    HW214436   3.279   3.025   5.639
 4513SOL     OW14437   0.140   0.349   0.909
 4513SOL    HW114438   0.115   0.446   0.905
 4513SOL    HW214439   0.157   0.316   0.816
 4514SOL     OW14440   4.730   4.705   6.461
 4514SOL    HW114441   4.807   4.653   6.499
 4514SOL    HW214442   4.719   4.790   6.513
 4515SOL     OW14443   4.088   7.018   6.257
 4515SOL    HW114444   4.148   6.938   6.261
 4515SOL    HW214445   4.126   0.058   6.192
 4516SOL     OW14446   3.839   2.293   5.244
 4516SOL    HW114447   3.743   2.292   5.270
 4516SOL    HW214448   3.890   2.352   5.307
 4517SOL     OW14449   3.498   0.343   4.700
 4517SOL    HW114450   3.428   0.311   4.637
 4517SOL    HW214451   3.483   0.440   4.721
 4518SOL     OW14452   0.185   0.370   0.605
 4518SOL    HW114453   0.148   0.376   0.512
 4518SOL    HW214454   0.247   0.448   0.620
 4519SOL     OW14455   5.080   6.990   6.519
 4519SOL    HW114456   5.117   6.897   6.506
 4519SOL    HW214457   5.077   0.011   6.430
 4520SOL     OW14458   4.667   4.962   5.497
 4520SOL    HW114459   4.761   4.988   5.517
 4520SOL    HW214460   4.611   5.044   5.486
 4521SOL     OW14461   4.741   2.275   4.642
 4521SOL    HW114462   4.696   2.363   4.654
 4521SOL    HW214463   4.773   2.267   4.548
 4522SOL     OW14464   5.982   3.332   3.272
 4522SOL    HW114465   5.945   3.348   3.363
 4522SOL    HW214466   6.016   3.418   3.234
 4523SOL     OW14467   6.928   3.488   6.703
 4523SOL    HW114468   6.855   3.463   6.767
 4523SOL    HW214469   6.914   3.581   6.670
 4524SOL     OW14470   1.885   3.734   1.903
 4524SOL    HW114471   1.813   3.804   1.897
 4524SOL    HW214472   1.922   3.733   1.996
 4525SOL     OW14473   3.829   1.979   5.839
 4525SOL    HW114474   3.912   1.958   5.786
 4525SOL    HW214475   3.788   1.894   5.872
 4526SOL     OW14476   1.879   0.408   5.427
 4526SOL    HW114477   1.863   0.484   5.364
 4526SOL    HW214478   1.878   0.322   5.375
 4527SOL     OW14479   0.431   1.827   2.509
 4527SOL    HW114480   0.410   1.795   2.602
 4527SOL    HW214481   0.385   1.768   2.443
 4528SOL     OW14482   5.335   1.244   4.543
 4528SOL    HW114483   5.310   1.171   4.607
 4528SOL    HW214484   5.265   1.251   4.472
 4529SOL     OW14485   2.120   1.958   3.981
 4529SOL    HW114486   2.208   1.957   3.933
 4529SOL    HW214487   2.131   1.913   4.070
 4530SOL     OW14488   3.910   4.448   6.209
 4530SOL    HW114489   3.982   4.380   6.222
 4530SOL    HW214490   3.933   4.531   6.259
 4531SOL     OW14491   2.268   0.135   5.329
 4531SOL    HW114492   2.262   0.049   5.380
 4531SOL    HW214493   2.182   0.150   5.280
 4532SOL     OW14494   5.679   1.371   2.336
 4532SOL    HW114495   5.777   1.370   2.357
 4532SOL    HW214496   5.659   1.302   2.266
 4533SOL     OW14497   2.846   6.359   1.201
 4533SOL    HW114498   2.942   6.334   1.196
 4533SOL    HW214499   2.813   6.344   1.294
 4534SOL     OW14500   5.735   1.353   4.046
 4534SOL    HW114501   5.774   1.411   4.118
 4534SOL    HW214502   5.669   1.405   3.992
 4535SOL     OW14503   1.686   0.886   6.806
 4535SOL    HW114504   1.712   0.912   6.713
 4535SOL    HW214505   1.744   0.935   6.871
 4536SOL     OW14506   3.844   1.326   5.567
 4536SOL    HW114507   3.784   1.259   5.523
 4536SOL    HW214508   3.867   1.398   5.501
 4537SOL     OW14509   3.062   3.326   3.090
 4537SOL    HW114510   3.113   3.339   3.176
 4537SOL    HW214511   3.046   3.415   3.047
 4538SOL     OW14512   0.838   2.600   0.514
 4538SOL    HW114513   0.866   2.523   0.456
 4538SOL    HW214514   0.842   2.685   0.461
 4539SOL     OW14515   0.994   5.049   4.436
 4539SOL    HW114516   0.928   5.079   4.505
 4539SOL    HW214517   1.052   5.125   4.409
 4540SOL     OW14518   1.591   1.983   0.730
 4540SOL    HW114519   1.627   1.903   0.777
 4540SOL    HW214520   1.539   1.954   0.650
 4541SOL     OW14521   3.939   3.083   6.959
 4541SOL    HW114522   4.037   3.064   6.965
 4541SOL    HW214523   3.925   3.178   6.931
 4542SOL     OW14524   0.381   1.641   0.443
 4542SOL    HW114525   0.429   1.686   0.368
 4542SOL    HW214526   0.293   1.606   0.411
 4543SOL     OW14527   4.592   1.378   1.368
 4543SOL    HW114528   4.604   1.458   1.427
 4543SOL    HW214529   4.495   1.367   1.348
 4544SOL     OW14530   4.848   6.131   0.890
 4544SOL    HW114531   4.920   6.067   0.918
 4544SOL    HW214532   4.784   6.084   0.829
 4545SOL     OW14533   2.764   2.814   5.764
 4545SOL    HW114534   2.812   2.729   5.783
 4545SOL    HW214535   2.818   2.869   5.701
 4546SOL     OW14536   4.403   6.961   6.282
 4546SOL    HW114537   4.382   0.017   6.229
 4546SOL    HW214538   4.326   6.898   6.279
 4547SOL     OW14539   0.331   0.557   0.446
 4547SOL    HW114540   0.279   0.641   0.431
 4547SOL    HW214541   0.326   0.499   0.364
 4548SOL     OW14542   3.499   1.110   2.175
 4548SOL    HW114543   3.447   1.078   2.254
 4548SOL    HW214544   3.596   1.112   2.197
 4549SOL     OW14545   6.182   3.766   3.912
 4549SOL    HW114546   6.260   3.739   3.969
 4549SOL    HW214547   6.201   3.742   3.817
 4550SOL     OW14548   2.238   5.592   6.319
 4550SOL    HW114549   2.187   5.552   6.396
 4550SOL    HW214550   2.212   5.688   6.308
 4551SOL     OW14551   3.396   2.832   6.216
 4551SOL    HW114552   3.420   2.736   6.210
 4551SOL    HW214553   3.456   2.877   6.283
 4552SOL     OW14554   5.099   0.751   6.685
 4552SOL    HW114555   5.151   0.765   6.768
 4552SOL    HW214556   5.151   0.783   6.606
 4553SOL     OW14557   0.307   6.509   0.285
 4553SOL    HW114558   0.275   6.566   0.210
 4553SOL    HW214559   0.353   6.428   0.248
 4554SOL     OW14560   5.687   6.507   3.565
 4554SOL    HW114561   5.735   6.539   3.647
 4554SOL    HW214562   5.709   6.568   3.488
 4555SOL     OW14563   0.506   0.144   2.190
 4555SOL    HW114564   0.523   0.179   2.282
 4555SOL    HW214565   0.448   0.063   2.195
 4556SOL     OW14566   5.092   4.579   4.259
 4556SOL    HW114567   5.119   4.675   4.274
 4556SOL    HW214568   5.130   4.522   4.333
 4557SOL     OW14569   6.833   5.101   4.691
 4557SOL    HW114570   6.820   5.013   4.737
 4557SOL    HW214571   6.843   5.173   4.760
 4558SOL     OW14572   0.849   4.518   4.404
 4558SOL    HW114573   0.900   4.440   4.369
 4558SOL    HW214574   0.814   4.496   4.495
 4559SOL     OW14575   0.116   2.509   4.323
 4559SOL    HW114576   0.190   2.518   4.390
 4559SOL    HW214577   0.140   2.559   4.240
 4560SOL     OW14578   6.440   4.366   3.320
 4560SOL    HW114579   6.433   4.421   3.237
 4560SOL    HW214580   6.348   4.339   3.350
 4561SOL     OW14581   4.885   2.644   4.317
 4561SOL    HW114582   4.812   2.640   4.384
 4561SOL    HW214583   4.928   2.554   4.309
 4562SOL     OW14584   4.478   1.109   0.811
 4562SOL    HW114585   4.415   1.187   0.811
 4562SOL    HW214586   4.437   1.033   0.862
 4563SOL     OW14587   1.013   4.376   1.465
 4563SOL    HW114588   0.925   4.331   1.485
 4563SOL    HW214589   1.071   4.373   1.546
 4564SOL     OW14590   1.859   4.301   2.440
 4564SOL    HW114591   1.827   4.336   2.352
 4564SOL    HW214592   1.914   4.219   2.425
 4565SOL     OW14593   2.263   0.581   5.636
 4565SOL    HW114594   2.213   0.643   5.575
 4565SOL    HW214595   2.314   0.515   5.581
 4566SOL     OW14596   0.091   4.587   3.020
 4566SOL    HW114597   0.059   4.629   3.106
 4566SOL    HW214598   0.022   4.524   2.986
 4567SOL     OW14599   0.224   0.221   0.038
 4567SOL    HW114600   0.256   0.306   0.081
 4567SOL    HW214601   0.299   0.155   0.036
 4568SOL     OW14602   0.877   4.699   3.567
 4568SOL    HW114603   0.823   4.634   3.619
 4568SOL    HW214604   0.836   4.712   3.476
 4569SOL     OW14605   1.224   2.670   3.281
 4569SOL    HW114606   1.246   2.704   3.373
 4569SOL    HW214607   1.289   2.708   3.216
 4570SOL     OW14608   5.402   5.723   1.171
 4570SOL    HW114609   5.380   5.627   1.190
 4570SOL    HW214610   5.447   5.730   1.082
 4571SOL     OW14611   1.622   3.821   5.642
 4571SOL    HW114612   1.541   3.852   5.592
 4571SOL    HW214613   1.597   3.743   5.700
 4572SOL     OW14614   4.608   3.202   1.670
 4572SOL    HW114615   4.635   3.163   1.581
 4572SOL    HW214616   4.616   3.132   1.741
 4573SOL     OW14617   2.129   4.552   0.970
 4573SOL    HW114618   2.212   4.603   0.948
 4573SOL    HW214619   2.050   4.612   0.956
 4574SOL     OW14620   4.849   0.028   2.053
 4574SOL    HW114621   4.813   0.058   2.140
 4574SOL    HW214622   4.792   0.062   1.978
 4575SOL     OW14623   7.023   0.989   5.333
 4575SOL    HW114624   6.984   1.035   5.413
 4575SOL    HW214625   0.081   0.941   5.360
 4576SOL     OW14626   3.377   3.787   6.997
 4576SOL    HW114627   3.474   3.767   6.980
 4576SOL    HW214628   3.358   3.882   6.971
 4577SOL     OW14629   0.602   1.740   1.737
 4577SOL    HW114630   0.670   1.810   1.719
 4577SOL    HW214631   0.643   1.666   1.791
 4578SOL     OW14632   1.737   1.199   2.991
 4578SOL    HW114633   1.701   1.282   3.034
 4578SOL    HW214634   1.837   1.204   2.990
 4579SOL     OW14635   4.537   0.844   3.411
 4579SOL    HW114636   4.500   0.933   3.436
 4579SOL    HW214637   4.512   0.777   3.481
 4580SOL     OW14638   0.911   0.788   1.610
 4580SOL    HW114639   0.946   0.855   1.544
 4580SOL    HW214640   0.812   0.794   1.613
 4581SOL     OW14641   2.990   0.201   0.946
 4581SOL    HW114642   2.956   0.280   0.996
 4581SOL    HW214643   2.930   0.182   0.868
 4582SOL     OW14644   6.600   0.967   3.897
 4582SOL    HW114645   6.688   0.979   3.852
 4582SOL    HW214646   6.614   0.934   3.990
 4583SOL     OW14647   1.751   6.647   0.241
 4583SOL    HW114648   1.838   6.687   0.216
 4583SOL    HW214649   1.742   6.556   0.198
 4584SOL     OW14650   0.220   1.555   3.738
 4584SOL    HW114651   0.215   1.576   3.835
 4584SOL    HW214652   0.216   1.456   3.725
 4585SOL     OW14653   1.265   3.126   3.034
 4585SOL    HW114654   1.198   3.109   3.106
 4585SOL    HW214655   1.341   3.180   3.071
 4586SOL     OW14656   6.445   5.083   5.531
 4586SOL    HW114657   6.490   5.156   5.583
 4586SOL    HW214658   6.421   5.118   5.440
 4587SOL     OW14659   4.583   3.721   6.131
 4587SOL    HW114660   4.529   3.712   6.047
 4587SOL    HW214661   4.678   3.696   6.112
 4588SOL     OW14662   3.006   4.159   6.556
 4588SOL    HW114663   2.906   4.167   6.564
 4588SOL    HW214664   3.033   4.064   6.572
 4589SOL     OW14665   5.433   6.109   1.965
 4589SOL    HW114666   5.361   6.148   2.022
 4589SOL    HW214667   5.409   6.119   1.868
 4590SOL     OW14668   2.399   5.426   1.569
 4590SOL    HW114669   2.348   5.398   1.487
 4590SOL    HW214670   2.495   5.400   1.559
 4591SOL     OW14671   2.292   1.032   4.792
 4591SOL    HW114672   2.202   1.041   4.749
 4591SOL    HW214673   2.311   1.114   4.847
 4592SOL     OW14674   2.938   2.223   3.870
 4592SOL    HW114675   2.924   2.155   3.799
 4592SOL    HW214676   3.031   2.214   3.907
 4593SOL     OW14677   1.382   5.726   4.572
 4593SOL    HW114678   1.291   5.732   4.614
 4593SOL    HW214679   1.447   5.692   4.640
 4594SOL     OW14680   1.870   6.408   4.096
 4594SOL    HW114681   1.947   6.429   4.036
 4594SOL    HW214682   1.883   6.318   4.138
 4595SOL     OW14683   5.891   1.971   6.358
 4595SOL    HW114684   5.986   2.003   6.356
 4595SOL    HW214685   5.872   1.930   6.447
 4596SOL     OW14686   1.198   1.843   1.990
 4596SOL    HW114687   1.251   1.772   1.944
 4596SOL    HW214688   1.197   1.926   1.933
 4597SOL     OW14689   2.171   6.099   0.467
 4597SOL    HW114690   2.118   6.137   0.543
 4597SOL    HW214691   2.256   6.151   0.457
 4598SOL     OW14692   0.591   2.930   0.019
 4598SOL    HW114693   0.562   2.894   6.956
 4598SOL    HW214694   0.526   2.901   0.090
 4599SOL     OW14695   3.212   6.418   2.593
 4599SOL    HW114696   3.175   6.470   2.516
 4599SOL    HW214697   3.309   6.440   2.603
 4600SOL     OW14698   0.559   6.265   6.465
 4600SOL    HW114699   0.601   6.175   6.457
 4600SOL    HW214700   0.550   6.289   6.562
 4601SOL     OW14701   1.484   1.050   5.357
 4601SOL    HW114702   1.522   0.958   5.365
 4601SOL    HW214703   1.559   1.116   5.351
 4602SOL     OW14704   3.999   1.163   6.807
 4602SOL    HW114705   4.059   1.237   6.778
 4602SOL    HW214706   3.931   1.144   6.736
 4603SOL     OW14707   3.864   6.822   0.978
 4603SOL    HW114708   3.804   6.743   0.971
 4603SOL    HW214709   3.841   6.874   1.061
 4604SOL     OW14710   0.236   6.878   3.815
 4604SOL    HW114711   0.252   6.880   3.716
 4604SOL    HW214712   0.150   6.923   3.836
 4605SOL     OW14713   4.369   1.029   1.555
 4605SOL    HW114714   4.455   1.068   1.521
 4605SOL    HW214715   4.378   1.009   1.653
 4606SOL     OW14716   7.010   0.037   4.917
 4606SOL    HW114717   0.017   0.127   4.890
 4606SOL    HW214718   6.978   0.040   5.012
 4607SOL     OW14719   3.125   1.637   1.190
 4607SOL    HW114720   3.133   1.680   1.100
 4607SOL    HW214721   3.138   1.706   1.262
 4608SOL     OW14722   0.304   2.576   5.006
 4608SOL    HW114723   0.295   2.675   5.003
 4608SOL    HW214724   0.227   2.537   5.057
 4609SOL     OW14725   5.912   5.142   6.310
 4609SOL    HW114726   5.850   5.080   6.263
 4609SOL    HW214727   5.942   5.102   6.396
 4610SOL     OW14728   5.123   5.163   6.467
 4610SOL    HW114729   5.218   5.182   6.443
 4610SOL    HW214730   5.120   5.106   6.549
 4611SOL     OW14731   0.162   1.237   6.758
 4611SOL    HW114732   0.232   1.259   6.690
 4611SOL    HW214733   0.190   1.158   6.812
 4612SOL     OW14734   2.912   1.323   3.279
 4612SOL    HW114735   2.837   1.273   3.235
 4612SOL    HW214736   2.885   1.350   3.371
 4613SOL     OW14737   1.360   5.260   2.650
 4613SOL    HW114738   1.309   5.344   2.631
 4613SOL    HW214739   1.458   5.279   2.652
 4614SOL     OW14740   0.359   4.353   2.824
 4614SOL    HW114741   0.277   4.337   2.769
 4614SOL    HW214742   0.349   4.310   2.913
 4615SOL     OW14743   1.274   4.350   0.038
 4615SOL    HW114744   1.178   4.342   0.066
 4615SOL    HW214745   1.305   4.262   0.002
 4616SOL     OW14746   1.264   3.905   6.749
 4616SOL    HW114747   1.315   3.977   6.702
 4616SOL    HW214748   1.301   3.816   6.724
 4617SOL     OW14749   0.130   4.110   3.683
 4617SOL    HW114750   0.065   4.047   3.640
 4617SOL    HW214751   0.222   4.072   3.676
 4618SOL     OW14752   2.250   4.237   5.566
 4618SOL    HW114753   2.247   4.180   5.647
 4618SOL    HW214754   2.320   4.202   5.503
 4619SOL     OW14755   4.370   5.621   6.671
 4619SOL    HW114756   4.376   5.721   6.674
 4619SOL    HW214757   4.405   5.583   6.757
 4620SOL     OW14758   1.283   4.359   1.340
 4620SOL    HW114759   1.276   4.410   1.254
 4620SOL    HW214760   1.203   4.380   1.397
 4621SOL     OW14761   3.079   0.295   2.936
 4621SOL    HW114762   2.987   0.259   2.920
 4621SOL    HW214763   3.146   0.230   2.900
 4622SOL     OW14764   5.386   6.946   0.194
 4622SOL    HW114765   5.449   6.995   0.255
 4622SOL    HW214766   5.408   6.848   0.196
 4623SOL     OW14767   3.056   5.023   3.154
 4623SOL    HW114768   3.002   4.946   3.120
 4623SOL    HW214769   3.093   5.000   3.244
 4624SOL     OW14770   5.137   2.013   1.227
 4624SOL    HW114771   5.048   1.985   1.191
 4624SOL    HW214772   5.129   2.030   1.325
 4625SOL     OW14773   1.636   7.025   1.615
 4625SOL    HW114774   1.563   6.961   1.637
 4625SOL    HW214775   1.680   0.030   1.699
 4626SOL     OW14776   4.203   3.177   1.909
 4626SOL    HW114777   4.247   3.124   1.836
 4626SOL    HW214778   4.208   3.274   1.886
 4627SOL     OW14779   5.920   6.693   5.069
 4627SOL    HW114780   5.961   6.742   5.147
 4627SOL    HW214781   5.949   6.597   5.072
 4628SOL     OW14782   6.616   4.622   2.874
 4628SOL    HW114783   6.556   4.698   2.851
 4628SOL    HW214784   6.652   4.581   2.791
 4629SOL     OW14785   1.655   5.232   0.512
 4629SOL    HW114786   1.734   5.171   0.508
 4629SOL    HW214787   1.575   5.182   0.546
 4630SOL     OW14788   1.766   3.771   1.500
 4630SOL    HW114789   1.805   3.695   1.448
 4630SOL    HW214790   1.808   3.856   1.469
 4631SOL     OW14791   6.212   1.409   2.869
 4631SOL    HW114792   6.287   1.425   2.932
 4631SOL    HW214793   6.186   1.495   2.825
 4632SOL     OW14794   2.915   4.848   3.722
 4632SOL    HW114795   2.964   4.836   3.808
 4632SOL    HW214796   2.973   4.898   3.658
 4633SOL     OW14797   5.444   3.150   4.144
 4633SOL    HW114798   5.348   3.127   4.129
 4633SOL    HW214799   5.485   3.180   4.058
 4634SOL     OW14800   3.604   3.193   4.603
 4634SOL    HW114801   3.526   3.133   4.621
 4634SOL    HW214802   3.635   3.234   4.689
 4635SOL     OW14803   4.725   6.490   2.479
 4635SOL    HW114804   4.630   6.517   2.495
 4635SOL    HW214805   4.728   6.392   2.460
 4636SOL     OW14806   1.437   5.846   6.419
 4636SOL    HW114807   1.366   5.917   6.419
 4636SOL    HW214808   1.414   5.777   6.487
 4637SOL     OW14809   2.260   2.204   3.184
 4637SOL    HW114810   2.223   2.283   3.136
 4637SOL    HW214811   2.360   2.210   3.188
 4638SOL     OW14812   3.694   4.619   0.955
 4638SOL    HW114813   3.739   4.631   0.867
 4638SOL    HW214814   3.696   4.522   0.981
 4639SOL     OW14815   4.092   2.235   2.265
 4639SOL    HW114816   4.035   2.317   2.257
 4639SOL    HW214817   4.118   2.204   2.174
 4640SOL     OW14818   6.286   2.812   0.974
 4640SOL    HW114819   6.368   2.838   0.922
 4640SOL    HW214820   6.313   2.785   1.066
 4641SOL     OW14821   1.130   5.930   5.074
 4641SOL    HW114822   1.156   5.926   4.978
 4641SOL    HW214823   1.121   6.026   5.102
 4642SOL     OW14824   6.410   1.379   5.856
 4642SOL    HW114825   6.467   1.351   5.779
 4642SOL    HW214826   6.342   1.446   5.824
 4643SOL     OW14827   0.650   1.767   0.338
 4643SOL    HW114828   0.632   1.864   0.352
 4643SOL    HW214829   0.653   1.747   0.240
 4644SOL     OW14830   1.254   1.106   0.917
 4644SOL    HW114831   1.189   1.038   0.884
 4644SOL    HW214832   1.203   1.185   0.951
 4645SOL     OW14833   6.149   2.252   4.994
 4645SOL    HW114834   6.058   2.274   5.029
 4645SOL    HW214835   6.217   2.307   5.043
 4646SOL     OW14836   1.684   4.001   2.480
 4646SOL    HW114837   1.652   4.066   2.410
 4646SOL    HW214838   1.784   3.998   2.479
 4647SOL     OW14839   2.049   6.523   2.845
 4647SOL    HW114840   2.034   6.500   2.942
 4647SOL    HW214841   1.969   6.572   2.811
 4648SOL     OW14842   2.872   1.036   4.494
 4648SOL    HW114843   2.908   0.989   4.573
 4648SOL    HW214844   2.917   1.003   4.411
 4649SOL     OW14845   5.052   1.894   0.707
 4649SOL    HW114846   5.108   1.977   0.700
 4649SOL    HW214847   5.055   1.845   0.620
 4650SOL     OW14848   4.388   5.257   0.900
 4650SOL    HW114849   4.341   5.321   0.839
 4650SOL    HW214850   4.365   5.278   0.995
 4651SOL     OW14851   0.994   3.729   6.723
 4651SOL    HW114852   1.062   3.665   6.687
 4651SOL    HW214853   0.987   3.718   6.822
 4652SOL     OW14854   6.885   0.049   5.163
 4652SOL    HW114855   6.921   0.066   5.254
 4652SOL    HW214856   6.787   0.068   5.162
 4653SOL     OW14857   6.810   6.015   0.390
 4653SOL    HW114858   6.889   5.955   0.402
 4653SOL    HW214859   6.813   6.056   0.299
 4654SOL     OW14860   0.601   1.211   5.643
 4654SOL    HW114861   0.602   1.256   5.553
 4654SOL    HW214862   0.544   1.129   5.639
 4655SOL     OW14863   4.868   4.270   2.830
 4655SOL    HW114864   4.955   4.319   2.844
 4655SOL    HW214865   4.810   4.323   2.769
 4656SOL     OW14866   5.580   0.826   1.611
 4656SOL    HW114867   5.648   0.847   1.540
 4656SOL    HW214868   5.556   0.730   1.607
 4657SOL     OW14869   3.865   1.453   2.636
 4657SOL    HW114870   3.909   1.455   2.546
 4657SOL    HW214871   3.769   1.427   2.625
 4658SOL     OW14872   1.362   1.766   6.771
 4658SOL    HW114873   1.278   1.748   6.719
 4658SOL    HW214874   1.340   1.818   6.853
 4659SOL     OW14875   2.452   4.550   0.262
 4659SOL    HW114876   2.507   4.477   0.301
 4659SOL    HW214877   2.358   4.543   0.296
 4660SOL     OW14878   6.877   4.616   4.366
 4660SOL    HW114879   6.845   4.531   4.408
 4660SOL    HW214880   6.800   4.678   4.350
 4661SOL     OW14881   0.937   1.390   5.817
 4661SOL    HW114882   0.971   1.298   5.801
 4661SOL    HW214883   0.846   1.386   5.859
 4662SOL     OW14884   2.725   0.732   5.908
 4662SOL    HW114885   2.798   0.720   5.975
 4662SOL    HW214886   2.731   0.823   5.867
 4663SOL     OW14887   0.825   0.518   0.859
 4663SOL    HW114888   0.817   0.469   0.945
 4663SOL    HW214889   0.922   0.522   0.832
 4664SOL     OW14890   5.982   6.360   5.827
 4664SOL    HW114891   5.884   6.342   5.839
 4664SOL    HW214892   6.032   6.331   5.909
 4665SOL     OW14893   6.969   0.819   2.439
 4665SOL    HW114894   0.006   0.745   2.464
 4665SOL    HW214895   6.878   0.781   2.423
 4666SOL     OW14896   1.524   2.668   5.818
 4666SOL    HW114897   1.547   2.765   5.805
 4666SOL    HW214898   1.569   2.634   5.900
 4667SOL     OW14899   5.821   3.059   1.490
 4667SOL    HW114900   5.877   2.978   1.473
 4667SOL    HW214901   5.863   3.115   1.560
 4668SOL     OW14902   4.659   2.083   5.438
 4668SOL    HW114903   4.756   2.088   5.462
 4668SOL    HW214904   4.647   2.022   5.360
 4669SOL     OW14905   5.208   7.006   5.954
 4669SOL    HW114906   5.212   6.956   6.040
 4669SOL    HW214907   5.114   7.006   5.920
 4670SOL     OW14908   0.186   3.493   6.721
 4670SOL    HW114909   0.221   3.539   6.803
 4670SOL    HW214910   0.086   3.491   6.726
 4671SOL     OW14911   6.808   2.701   2.076
 4671SOL    HW114912   6.888   2.761   2.065
 4671SOL    HW214913   6.812   2.628   2.008
 4672SOL     OW14914   3.123   3.639   6.979
 4672SOL    HW114915   3.197   3.705   6.988
 4672SOL    HW214916   3.102   3.599   0.042
 4673SOL     OW14917   5.628   0.900   0.872
 4673SOL    HW114918   5.725   0.925   0.876
 4673SOL    HW214919   5.581   0.961   0.808
 4674SOL     OW14920   1.153   2.831   0.672
 4674SOL    HW114921   1.216   2.770   0.625
 4674SOL    HW214922   1.154   2.810   0.770
 4675SOL     OW14923   1.818   6.420   6.845
 4675SOL    HW114924   1.813   6.512   6.805
 4675SOL    HW214925   1.746   6.363   6.806
 4676SOL     OW14926   0.756   5.629   4.548
 4676SOL    HW114927   0.753   5.721   4.588
 4676SOL    HW214928   0.709   5.565   4.608
 4677SOL     OW14929   4.009   6.769   6.991
 4677SOL    HW114930   3.943   6.694   6.990
 4677SOL    HW214931   4.009   6.812   0.056
 4678SOL     OW14932   2.290   4.403   6.887
 4678SOL    HW114933   2.194   4.398   6.913
 4678SOL    HW214934   2.307   4.342   6.810
 4679SOL     OW14935   2.610   6.651   5.487
 4679SOL    HW114936   2.649   6.744   5.482
 4679SOL    HW214937   2.672   6.592   5.539
 4680SOL     OW14938   0.649   4.973   6.885
 4680SOL    HW114939   0.555   4.940   6.872
 4680SOL    HW214940   0.708   4.897   6.909
 4681SOL     OW14941   6.491   5.981   4.660
 4681SOL    HW114942   6.528   5.889   4.649
 4681SOL    HW214943   6.394   5.975   4.683
 4682SOL     OW14944   2.676   0.466   0.770
 4682SOL    HW114945   2.617   0.538   0.734
 4682SOL    HW214946   2.767   0.475   0.730
 4683SOL     OW14947   0.829   4.731   2.967
 4683SOL    HW114948   0.793   4.687   3.049
 4683SOL    HW214949   0.825   4.830   2.978
 4684SOL     OW14950   1.791   1.262   4.884
 4684SOL    HW114951   1.868   1.244   4.946
 4684SOL    HW214952   1.717   1.306   4.935
 4685SOL     OW14953   5.309   4.732   4.616
 4685SOL    HW114954   5.365   4.687   4.686
 4685SOL    HW214955   5.273   4.663   4.553
 4686SOL     OW14956   4.839   5.795   0.027
 4686SOL    HW114957   4.937   5.814   0.014
 4686SOL    HW214958   4.827   5.738   0.108
 4687SOL     OW14959   4.802   6.865   4.431
 4687SOL    HW114960   4.778   6.851   4.528
 4687SOL    HW214961   4.800   6.963   4.411
 4688SOL     OW14962   6.934   1.594   0.663
 4688SOL    HW114963   6.997   1.671   0.677
 4688SOL    HW214964   6.873   1.614   0.586
 4689SOL     OW14965   1.859   5.274   4.370
 4689SOL    HW114966   1.791   5.257   4.298
 4689SOL    HW214967   1.820   5.335   4.439
 4690SOL     OW14968   2.202   1.766   0.928
 4690SOL    HW114969   2.216   1.667   0.919
 4690SOL    HW214970   2.126   1.794   0.869
 4691SOL     OW14971   3.398   4.375   0.246
 4691SOL    HW114972   3.485   4.375   0.295
 4691SOL    HW214973   3.332   4.433   0.294
 4692SOL     OW14974   1.028   5.558   3.385
 4692SOL    HW114975   0.995   5.559   3.479
 4692SOL    HW214976   1.022   5.650   3.346
 4693SOL     OW14977   0.889   0.948   2.229
 4693SOL    HW114978   0.818   0.915   2.291
 4693SOL    HW214979   0.872   0.912   2.137
 4694SOL     OW14980   1.229   1.051   5.396
 4694SOL    HW114981   1.189   0.993   5.325
 4694SOL    HW214982   1.327   1.060   5.381
 4695SOL     OW14983   3.211   3.183   2.608
 4695SOL    HW114984   3.161   3.260   2.567
 4695SOL    HW214985   3.166   3.156   2.693
 4696SOL     OW14986   6.435   3.303   0.882
 4696SOL    HW114987   6.411   3.385   0.933
 4696SOL    HW214988   6.359   3.277   0.823
 4697SOL     OW14989   0.773   5.712   6.778
 4697SOL    HW114990   0.673   5.709   6.774
 4697SOL    HW214991   0.808   5.618   6.780
 4698SOL     OW14992   6.084   3.286   2.485
 4698SOL    HW114993   6.108   3.384   2.479
 4698SOL    HW214994   6.074   3.261   2.581
 4699SOL     OW14995   6.900   6.176   3.532
 4699SOL    HW114996   6.828   6.246   3.533
 4699SOL    HW214997   6.957   6.189   3.451
 4700SOL     OW14998   5.103   6.449   6.947
 4700SOL    HW114999   5.148   6.538   6.938
 4700SOL    HW215000   5.139   6.402   0.001
 4701SOL     OW15001   1.530   0.476   6.824
 4701SOL    HW115002   1.500   0.381   6.811
 4701SOL    HW215003   1.457   0.538   6.794
 4702SOL     OW15004   2.689   3.226   0.415
 4702SOL    HW115005   2.622   3.252   0.485
 4702SOL    HW215006   2.776   3.271   0.435
 4703SOL     OW15007   0.898   0.217   2.071
 4703SOL    HW115008   0.966   0.266   2.018
 4703SOL    HW215009   0.837   0.166   2.010
 4704SOL     OW15010   4.830   6.723   6.661
 4704SOL    HW115011   4.885   6.804   6.683
 4704SOL    HW215012   4.801   6.679   6.746
 4705SOL     OW15013   4.135   3.557   4.560
 4705SOL    HW115014   4.093   3.648   4.549
 4705SOL    HW215015   4.202   3.543   4.487
 4706SOL     OW15016   5.499   4.333   6.901
 4706SOL    HW115017   5.464   4.403   6.963
 4706SOL    HW215018   5.443   4.331   6.818
 4707SOL     OW15019   2.816   5.391   1.099
 4707SOL    HW115020   2.741   5.414   1.160
 4707SOL    HW215021   2.795   5.423   1.006
 4708SOL     OW15022   1.566   3.337   2.419
 4708SOL    HW115023   1.573   3.434   2.397
 4708SOL    HW215024   1.658   3.301   2.439
 4709SOL     OW15025   2.889   4.388   0.555
 4709SOL    HW115026   2.897   4.330   0.474
 4709SOL    HW215027   2.861   4.480   0.527
 4710SOL     OW15028   4.906   3.114   1.090
 4710SOL    HW115029   4.988   3.169   1.074
 4710SOL    HW215030   4.914   3.065   1.177
 4711SOL     OW15031   2.783   0.042   3.317
 4711SOL    HW115032   2.783   6.967   3.325
 4711SOL    HW215033   2.741   0.081   3.399
 4712SOL     OW15034   1.823   3.838   6.717
 4712SOL    HW115035   1.747   3.778   6.742
 4712SOL    HW215036   1.903   3.815   6.772
 4713SOL     OW15037   1.668   5.484   0.625
 4713SOL    HW115038   1.641   5.540   0.546
 4713SOL    HW215039   1.685   5.390   0.595
 4714SOL     OW15040   3.614   2.140   1.434
 4714SOL    HW115041   3.559   2.202   1.490
 4714SOL    HW215042   3.571   2.129   1.344
 4715SOL     OW15043   4.918   3.753   4.869
 4715SOL    HW115044   4.947   3.841   4.907
 4715SOL    HW215045   4.866   3.703   4.937
 4716SOL     OW15046   2.812   5.531   6.690
 4716SOL    HW115047   2.812   5.548   6.592
 4716SOL    HW215048   2.719   5.539   6.725
 4717SOL     OW15049   2.343   5.155   4.515
 4717SOL    HW115050   2.271   5.172   4.448
 4717SOL    HW215051   2.424   5.208   4.491
 4718SOL     OW15052   5.136   0.593   0.048
 4718SOL    HW115053   5.116   0.526   0.120
 4718SOL    HW215054   5.078   0.673   0.059
 4719SOL     OW15055   4.346   2.977   1.747
 4719SOL    HW115056   4.318   3.021   1.661
 4719SOL    HW215057   4.439   3.006   1.770
 4720SOL     OW15058   3.282   1.552   3.495
 4720SOL    HW115059   3.215   1.511   3.557
 4720SOL    HW215060   3.375   1.533   3.529
 4721SOL     OW15061   1.708   1.473   1.162
 4721SOL    HW115062   1.771   1.472   1.239
 4721SOL    HW215063   1.614   1.464   1.195
 4722SOL     OW15064   3.389   0.173   2.248
 4722SOL    HW115065   3.474   0.124   2.232
 4722SOL    HW215066   3.407   0.270   2.259
 4723SOL     OW15067   2.671   6.951   5.182
 4723SOL    HW115068   2.583   6.982   5.147
 4723SOL    HW215069   2.741   6.957   5.111
 4724SOL     OW15070   4.873   4.995   0.820
 4724SOL    HW115071   4.818   5.074   0.792
 4724SOL    HW215072   4.812   4.919   0.843
 4725SOL     OW15073   6.228   5.461   2.618
 4725SOL    HW115074   6.243   5.363   2.602
 4725SOL    HW215075   6.131   5.482   2.607
 4726SOL     OW15076   0.292   6.690   4.639
 4726SOL    HW115077   0.325   6.775   4.599
 4726SOL    HW215078   0.283   6.701   4.738
 4727SOL     OW15079   6.389   6.604   1.211
 4727SOL    HW115080   6.446   6.673   1.256
 4727SOL    HW215081   6.444   6.524   1.188
 4728SOL     OW15082   6.453   0.848   0.003
 4728SOL    HW115083   6.363   0.823   6.992
 4728SOL    HW215084   6.444   0.931   0.058
 4729SOL     OW15085   3.081   0.775   1.029
 4729SOL    HW115086   2.998   0.773   0.974
 4729SOL    HW215087   3.125   0.685   1.024
 4730SOL     OW15088   2.240   0.601   5.920
 4730SOL    HW115089   2.167   0.669   5.931
 4730SOL    HW215090   2.278   0.609   5.828
 4731SOL     OW15091   4.635   1.901   6.716
 4731SOL    HW115092   4.577   1.838   6.768
 4731SOL    HW215093   4.684   1.850   6.645
 4732SOL     OW15094   0.636   0.396   0.086
 4732SOL    HW115095   0.619   0.297   0.092
 4732SOL    HW215096   0.729   0.411   0.051
 4733SOL     OW15097   6.857   3.633   3.533
 4733SOL    HW115098   6.892   3.629   3.626
 4733SOL    HW215099   6.866   3.543   3.490
 4734SOL     OW15100   5.688   4.457   5.700
 4734SOL    HW115101   5.721   4.410   5.781
 4734SOL    HW215102   5.601   4.503   5.721
 4735SOL     OW15103   0.316   4.463   3.690
 4735SOL    HW115104   0.363   4.431   3.608
 4735SOL    HW215105   0.218   4.466   3.673
 4736SOL     OW15106   1.811   0.329   1.734
 4736SOL    HW115107   1.814   0.371   1.643
 4736SOL    HW215108   1.871   0.250   1.737
 4737SOL     OW15109   3.505   5.148   1.777
 4737SOL    HW115110   3.477   5.137   1.682
 4737SOL    HW215111   3.574   5.080   1.800
 4738SOL     OW15112   0.525   6.428   2.430
 4738SOL    HW115113   0.429   6.410   2.407
 4738SOL    HW215114   0.582   6.354   2.395
 4739SOL     OW15115   3.963   6.864   1.747
 4739SOL    HW115116   4.023   6.925   1.798
 4739SOL    HW215117   3.868   6.894   1.757
 4740SOL     OW15118   0.534   2.035   3.972
 4740SOL    HW115119   0.590   2.047   3.890
 4740SOL    HW215120   0.439   2.058   3.951
 4741SOL     OW15121   4.103   3.854   2.137
 4741SOL    HW115122   4.104   3.770   2.082
 4741SOL    HW215123   4.185   3.907   2.118
 4742SOL     OW15124   4.664   0.743   1.583
 4742SOL    HW115125   4.711   0.783   1.662
 4742SOL    HW215126   4.727   0.739   1.506
 4743SOL     OW15127   1.598   5.903   0.852
 4743SOL    HW115128   1.507   5.923   0.887
 4743SOL    HW215129   1.652   5.859   0.924
 4744SOL     OW15130   1.791   5.911   1.447
 4744SOL    HW115131   1.877   5.888   1.494
 4744SOL    HW215132   1.789   5.865   1.358
 4745SOL     OW15133   1.706   3.541   0.426
 4745SOL    HW115134   1.607   3.536   0.440
 4745SOL    HW215135   1.752   3.477   0.487
 4746SOL     OW15136   4.917   5.390   4.101
 4746SOL    HW115137   4.826   5.425   4.123
 4746SOL    HW215138   4.971   5.384   4.185
 4747SOL     OW15139   3.563   0.357   0.098
 4747SOL    HW115140   3.463   0.346   0.095
 4747SOL    HW215141   3.600   0.354   0.006
 4748SOL     OW15142   1.952   0.085   2.709
 4748SOL    HW115143   2.009   0.165   2.693
 4748SOL    HW215144   1.973   0.014   2.642
 4749SOL     OW15145   2.287   1.303   1.240
 4749SOL    HW115146   2.333   1.282   1.154
 4749SOL    HW215147   2.340   1.267   1.316
 4750SOL     OW15148   4.602   3.327   6.262
 4750SOL    HW115149   4.520   3.382   6.247
 4750SOL    HW215150   4.644   3.305   6.174
 4751SOL     OW15151   4.677   1.001   2.238
 4751SOL    HW115152   4.741   1.074   2.215
 4751SOL    HW215153   4.675   0.989   2.338
 4752SOL     OW15154   5.834   1.350   6.858
 4752SOL    HW115155   5.766   1.339   6.785
 4752SOL    HW215156   5.804   1.422   6.920
 4753SOL     OW15157   2.558   6.087   5.038
 4753SOL    HW115158   2.498   6.042   4.971
 4753SOL    HW215159   2.589   6.175   5.001
 4754SOL     OW15160   5.024   4.178   6.935
 4754SOL    HW115161   5.108   4.131   6.962
 4754SOL    HW215162   5.016   4.264   6.986
 4755SOL     OW15163   0.959   1.367   1.312
 4755SOL    HW115164   1.028   1.363   1.239
 4755SOL    HW215165   1.005   1.384   1.399
 4756SOL     OW15166   6.798   3.773   5.671
 4756SOL    HW115167   6.840   3.682   5.661
 4756SOL    HW215168   6.701   3.762   5.691
 4757SOL     OW15169   1.837   3.218   0.297
 4757SOL    HW115170   1.875   3.290   0.238
 4757SOL    HW215171   1.852   3.242   0.393
 4758SOL     OW15172   2.454   4.997   2.680
 4758SOL    HW115173   2.424   4.904   2.658
 4758SOL    HW215174   2.544   5.014   2.641
 4759SOL     OW15175   0.564   6.119   2.431
 4759SOL    HW115176   0.485   6.088   2.378
 4759SOL    HW215177   0.637   6.149   2.369
 4760SOL     OW15178   1.763   6.598   1.552
 4760SOL    HW115179   1.835   6.647   1.601
 4760SOL    HW215180   1.790   6.503   1.540
 4761SOL     OW15181   5.084   6.571   1.690
 4761SOL    HW115182   5.123   6.518   1.614
 4761SOL    HW215183   4.988   6.545   1.703
 4762SOL     OW15184   1.236   0.511   3.155
 4762SOL    HW115185   1.216   0.559   3.070
 4762SOL    HW215186   1.308   0.559   3.204
 4763SOL     OW15187   5.646   5.112   2.007
 4763SOL    HW115188   5.588   5.034   1.984
 4763SOL    HW215189   5.589   5.194   2.020
 4764SOL     OW15190   4.827   2.617   6.357
 4764SOL    HW115191   4.757   2.549   6.335
 4764SOL    HW215192   4.899   2.575   6.412
 4765SOL     OW15193   4.356   1.632   5.915
 4765SOL    HW115194   4.427   1.569   5.946
 4765SOL    HW215195   4.399   1.713   5.875
 4766SOL     OW15196   0.851   0.706   4.710
 4766SOL    HW115197   0.806   0.678   4.625
 4766SOL    HW215198   0.949   0.718   4.693
 4767SOL     OW15199   1.902   4.639   3.672
 4767SOL    HW115200   1.834   4.662   3.741
 4767SOL    HW215201   1.976   4.706   3.673
 4768SOL     OW15202   4.608   2.142   6.490
 4768SOL    HW115203   4.593   2.084   6.570
 4768SOL    HW215204   4.605   2.238   6.518
 4769SOL     OW15205   2.193   2.894   0.961
 4769SOL    HW115206   2.222   2.822   0.898
 4769SOL    HW215207   2.100   2.875   0.993
 4770SOL     OW15208   6.846   1.566   3.262
 4770SOL    HW115209   6.883   1.592   3.173
 4770SOL    HW215210   6.823   1.649   3.313
 4771SOL     OW15211   2.299   0.129   4.083
 4771SOL    HW115212   2.200   0.124   4.069
 4771SOL    HW215213   2.328   0.053   4.141
 4772SOL     OW15214   2.600   4.630   3.191
 4772SOL    HW115215   2.618   4.716   3.239
 4772SOL    HW215216   2.580   4.649   3.095
 4773SOL     OW15217   2.643   5.469   4.800
 4773SOL    HW115218   2.707   5.469   4.877
 4773SOL    HW215219   2.691   5.439   4.717
 4774SOL     OW15220   0.850   4.353   0.720
 4774SOL    HW115221   0.795   4.281   0.762
 4774SOL    HW215222   0.863   4.427   0.786
 4775SOL     OW15223   5.826   5.160   4.570
 4775SOL    HW115224   5.782   5.239   4.527
 4775SOL    HW215225   5.867   5.188   4.658
 4776SOL     OW15226   6.704   1.793   5.004
 4776SOL    HW115227   6.777   1.764   5.067
 4776SOL    HW215228   6.646   1.715   4.981
 4777SOL     OW15229   1.646   6.681   3.172
 4777SOL    HW115230   1.585   6.672   3.093
 4777SOL    HW215231   1.661   6.591   3.212
 4778SOL     OW15232   1.896   0.008   0.106
 4778SOL    HW115233   1.837   0.055   0.172
 4778SOL    HW215234   1.839   6.990   0.036
 4779SOL     OW15235   4.931   0.992   4.756
 4779SOL    HW115236   4.885   0.988   4.667
 4779SOL    HW215237   4.900   0.916   4.813
 4780SOL     OW15238   4.731   2.910   4.773
 4780SOL    HW115239   4.692   2.979   4.713
 4780SOL    HW215240   4.784   2.954   4.845
 4781SOL     OW15241   1.739   5.351   1.942
 4781SOL    HW115242   1.830   5.347   1.900
 4781SOL    HW215243   1.714   5.261   1.977
 4782SOL     OW15244   1.461   6.121   3.060
 4782SOL    HW115245   1.481   6.100   2.964
 4782SOL    HW215246   1.408   6.205   3.065
 4783SOL     OW15247   0.537   3.275   6.666
 4783SOL    HW115248   0.453   3.296   6.717
 4783SOL    HW215249   0.577   3.360   6.631
 4784SOL     OW15250   5.504   2.712   6.962
 4784SOL    HW115251   5.513   2.808   6.936
 4784SOL    HW215252   5.430   2.670   6.909
 4785SOL     OW15253   0.534   7.019   4.013
 4785SOL    HW115254   0.470   0.048   3.959
 4785SOL    HW215255   0.521   6.922   3.992
 4786SOL     OW15256   0.904   5.254   0.495
 4786SOL    HW115257   0.856   5.308   0.565
 4786SOL    HW215258   0.851   5.254   0.411
 4787SOL     OW15259   4.923   0.712   5.282
 4787SOL    HW115260   4.835   0.670   5.260
 4787SOL    HW215261   4.932   0.722   5.381
 4788SOL     OW15262   6.745   5.804   1.115
 4788SOL    HW115263   6.806   5.847   1.182
 4788SOL    HW215264   6.764   5.706   1.109
 4789SOL     OW15265   6.204   0.664   2.912
 4789SOL    HW115266   6.220   0.608   2.994
 4789SOL    HW215267   6.127   0.725   2.928
 4790SOL     OW15268   6.572   2.197   4.841
 4790SOL    HW115269   6.518   2.269   4.799
 4790SOL    HW215270   6.533   2.108   4.819
 4791SOL     OW15271   0.363   0.743   6.565
 4791SOL    HW115272   0.374   0.644   6.577
 4791SOL    HW215273   0.452   0.787   6.569
 4792SOL     OW15274   0.653   3.866   1.547
 4792SOL    HW115275   0.568   3.848   1.596
 4792SOL    HW215276   0.640   3.847   1.450
 4793SOL     OW15277   0.730   3.804   5.318
 4793SOL    HW115278   0.700   3.720   5.273
 4793SOL    HW215279   0.649   3.858   5.344
 4794SOL     OW15280   5.278   1.617   6.115
 4794SOL    HW115281   5.198   1.661   6.074
 4794SOL    HW215282   5.309   1.673   6.193
 4795SOL     OW15283   0.144   1.024   6.928
 4795SOL    HW115284   0.190   0.956   6.872
 4795SOL    HW215285   0.047   1.000   6.937
 4796SOL     OW15286   5.663   1.132   5.755
 4796SOL    HW115287   5.616   1.220   5.770
 4796SOL    HW215288   5.600   1.057   5.776
 4797SOL     OW15289   2.449   5.310   5.840
 4797SOL    HW115290   2.450   5.353   5.931
 4797SOL    HW215291   2.507   5.229   5.840
 4798SOL     OW15292   3.369   6.328   0.414
 4798SOL    HW115293   3.316   6.254   0.455
 4798SOL    HW215294   3.366   6.319   0.314
 4799SOL     OW15295   3.527   3.264   0.579
 4799SOL    HW115296   3.620   3.299   0.573
 4799SOL    HW215297   3.497   3.234   0.489
 4800SOL     OW15298   1.131   4.737   0.357
 4800SOL    HW115299   1.202   4.807   0.364
 4800SOL    HW215300   1.135   4.678   0.437
 4801SOL     OW15301   4.539   2.461   3.182
 4801SOL    HW115302   4.457   2.484   3.129
 4801SOL    HW215303   4.592   2.392   3.133
 4802SOL     OW15304   0.043   0.847   4.824
 4802SOL    HW115305   0.016   0.854   4.920
 4802SOL    HW215306   0.100   0.767   4.811
 4803SOL     OW15307   4.837   3.757   5.782
 4803SOL    HW115308   4.793   3.678   5.740
 4803SOL    HW215309   4.936   3.752   5.769
 4804SOL     OW15310   4.990   2.415   0.515
 4804SOL    HW115311   4.935   2.345   0.562
 4804SOL    HW215312   4.941   2.446   0.434
 4805SOL     OW15313   5.594   1.106   6.478
 4805SOL    HW115314   5.531   1.147   6.412
 4805SOL    HW215315   5.670   1.063   6.430
 4806SOL     OW15316   0.711   2.628   3.282
 4806SOL    HW115317   0.716   2.620   3.382
 4806SOL    HW215318   0.802   2.648   3.246
 4807SOL     OW15319   0.493   4.303   6.873
 4807SOL    HW115320   0.518   4.227   6.813
 4807SOL    HW215321   0.397   4.327   6.859
 4808SOL     OW15322   3.543   6.009   2.401
 4808SOL    HW115323   3.630   6.027   2.447
 4808SOL    HW215324   3.558   5.947   2.324
 4809SOL     OW15325   2.798   3.679   0.723
 4809SOL    HW115326   2.890   3.691   0.761
 4809SOL    HW215327   2.782   3.581   0.705
 4810SOL     OW15328   1.604   5.658   4.781
 4810SOL    HW115329   1.578   5.727   4.849
 4810SOL    HW215330   1.703   5.665   4.763
 4811SOL     OW15331   3.207   3.471   4.514
 4811SOL    HW115332   3.270   3.505   4.446
 4811SOL    HW215333   3.118   3.516   4.504
 4812SOL     OW15334   2.110   6.423   2.585
 4812SOL    HW115335   2.061   6.352   2.532
 4812SOL    HW215336   2.082   6.417   2.681
 4813SOL     OW15337   0.693   2.653   4.624
 4813SOL    HW115338   0.790   2.641   4.644
 4813SOL    HW215339   0.652   2.563   4.605
 4814SOL     OW15340   6.367   2.215   0.871
 4814SOL    HW115341   6.359   2.217   0.771
 4814SOL    HW215342   6.323   2.295   0.910
 4815SOL     OW15343   6.357   4.303   2.361
 4815SOL    HW115344   6.381   4.388   2.408
 4815SOL    HW215345   6.410   4.296   2.276
 4816SOL     OW15346   2.719   0.651   2.672
 4816SOL    HW115347   2.722   0.592   2.591
 4816SOL    HW215348   2.652   0.724   2.658
 4817SOL     OW15349   3.728   2.502   0.345
 4817SOL    HW115350   3.639   2.532   0.381
 4817SOL    HW215351   3.734   2.402   0.350
 4818SOL     OW15352   4.729   6.535   4.789
 4818SOL    HW115353   4.786   6.519   4.709
 4818SOL    HW215354   4.638   6.495   4.774
 4819SOL     OW15355   3.442   0.987   0.139
 4819SOL    HW115356   3.361   1.008   0.084
 4819SOL    HW215357   3.503   0.929   0.086
 4820SOL     OW15358   6.241   4.494   1.928
 4820SOL    HW115359   6.249   4.568   1.995
 4820SOL    HW215360   6.151   4.499   1.884
 4821SOL     OW15361   6.794   6.046   1.728
 4821SOL    HW115362   6.890   6.069   1.741
 4821SOL    HW215363   6.756   6.106   1.657
 4822SOL     OW15364   0.684   3.959   1.288
 4822SOL    HW115365   0.610   3.980   1.224
 4822SOL    HW215366   0.763   3.923   1.238
 4823SOL     OW15367   0.297   1.577   3.216
 4823SOL    HW115368   0.290   1.523   3.132
 4823SOL    HW215369   0.249   1.664   3.204
 4824SOL     OW15370   5.389   1.833   2.513
 4824SOL    HW115371   5.487   1.814   2.513
 4824SOL    HW215372   5.374   1.932   2.518
 4825SOL     OW15373   1.227   3.326   4.435
 4825SOL    HW115374   1.162   3.286   4.499
 4825SOL    HW215375   1.248   3.420   4.464
 4826SOL     OW15376   6.679   0.013   0.164
 4826SOL    HW115377   6.755   0.012   0.228
 4826SOL    HW215378   6.705   0.062   0.081
 4827SOL     OW15379   4.748   1.584   6.903
 4827SOL    HW115380   4.652   1.613   6.899
 4827SOL    HW215381   4.794   1.609   6.818
 4828SOL     OW15382   5.377   3.153   6.376
 4828SOL    HW115383   5.392   3.205   6.292
 4828SOL    HW215384   5.392   3.056   6.359
 4829SOL     OW15385   3.283   0.500   5.317
 4829SOL    HW115386   3.200   0.550   5.341
 4829SOL    HW215387   3.269   0.402   5.332
 4830SOL     OW15388   4.994   5.060   4.668
 4830SOL    HW115389   4.915   5.079   4.609
 4830SOL    HW215390   5.058   5.136   4.662
 4831SOL     OW15391   6.314   2.136   6.771
 4831SOL    HW115392   6.254   2.107   6.696
 4831SOL    HW215393   6.404   2.094   6.760
 4832SOL     OW15394   1.786   3.036   6.495
 4832SOL    HW115395   1.738   2.981   6.563
 4832SOL    HW215396   1.728   3.044   6.413
 4833SOL     OW15397   6.409   2.167   3.422
 4833SOL    HW115398   6.400   2.093   3.356
 4833SOL    HW215399   6.318   2.203   3.444
 4834SOL     OW15400   5.892   0.148   3.067
 4834SOL    HW115401   5.960   0.084   3.103
 4834SOL    HW215402   5.856   0.204   3.142
 4835SOL     OW15403   1.793   1.606   6.301
 4835SOL    HW115404   1.722   1.659   6.255
 4835SOL    HW215405   1.799   1.633   6.397
 4836SOL     OW15406   5.586   3.139   2.537
 4836SOL    HW115407   5.572   3.134   2.636
 4836SOL    HW215408   5.497   3.146   2.491
 4837SOL     OW15409   0.483   5.044   1.137
 4837SOL    HW115410   0.417   4.975   1.168
 4837SOL    HW215411   0.576   5.005   1.140
 4838SOL     OW15412   2.302   6.065   2.595
 4838SOL    HW115413   2.272   6.081   2.501
 4838SOL    HW215414   2.293   6.150   2.648
 4839SOL     OW15415   0.977   0.238   6.407
 4839SOL    HW115416   0.898   0.196   6.362
 4839SOL    HW215417   1.030   0.289   6.340
 4840SOL     OW15418   6.600   6.019   5.984
 4840SOL    HW115419   6.576   5.930   6.023
 4840SOL    HW215420   6.698   6.035   5.996
 4841SOL     OW15421   2.026   5.906   0.767
 4841SOL    HW115422   1.944   5.959   0.745
 4841SOL    HW215423   2.107   5.960   0.745
 4842SOL     OW15424   3.074   6.820   1.105
 4842SOL    HW115425   3.085   6.920   1.099
 4842SOL    HW215426   3.016   6.798   1.183
 4843SOL     OW15427   1.647   3.623   6.461
 4843SOL    HW115428   1.630   3.620   6.363
 4843SOL    HW215429   1.680   3.534   6.492
 4844SOL     OW15430   1.121   1.543   5.149
 4844SOL    HW115431   1.184   1.619   5.165
 4844SOL    HW215432   1.108   1.530   5.051
 4845SOL     OW15433   5.696   6.068   3.996
 4845SOL    HW115434   5.644   6.092   3.914
 4845SOL    HW215435   5.728   5.974   3.989
 4846SOL     OW15436   0.267   5.355   6.267
 4846SOL    HW115437   0.181   5.346   6.316
 4846SOL    HW215438   0.272   5.445   6.224
 4847SOL     OW15439   4.814   2.760   4.560
 4847SOL    HW115440   4.866   2.813   4.493
 4847SOL    HW215441   4.785   2.820   4.635
 4848SOL     OW15442   2.811   3.204   1.635
 4848SOL    HW115443   2.834   3.300   1.647
 4848SOL    HW215444   2.711   3.193   1.634
 4849SOL     OW15445   2.134   6.687   5.869
 4849SOL    HW115446   2.233   6.698   5.873
 4849SOL    HW215447   2.090   6.775   5.886
 4850SOL     OW15448   3.816   6.597   3.191
 4850SOL    HW115449   3.892   6.648   3.231
 4850SOL    HW215450   3.729   6.639   3.220
 4851SOL     OW15451   5.014   1.419   5.716
 4851SOL    HW115452   4.977   1.503   5.755
 4851SOL    HW215453   5.095   1.441   5.662
 4852SOL     OW15454   2.012   1.400   1.905
 4852SOL    HW115455   1.984   1.304   1.915
 4852SOL    HW215456   1.955   1.457   1.964
 4853SOL     OW15457   3.851   1.654   2.377
 4853SOL    HW115458   3.894   1.575   2.333
 4853SOL    HW215459   3.783   1.693   2.315
 4854SOL     OW15460   3.600   0.202   6.245
 4854SOL    HW115461   3.501   0.219   6.252
 4854SOL    HW215462   3.647   0.247   6.320
 4855SOL     OW15463   6.716   2.616   2.513
 4855SOL    HW115464   6.660   2.623   2.596
 4855SOL    HW215465   6.757   2.704   2.493
 4856SOL     OW15466   0.481   4.231   2.028
 4856SOL    HW115467   0.450   4.136   2.024
 4856SOL    HW215468   0.484   4.260   2.124
 4857SOL     OW15469   0.262   0.957   5.714
 4857SOL    HW115470   0.197   0.890   5.748
 4857SOL    HW215471   0.355   0.920   5.721
 4858SOL     OW15472   1.633   0.327   3.592
 4858SOL    HW115473   1.556   0.265   3.606
 4858SOL    HW215474   1.688   0.331   3.676
 4859SOL     OW15475   3.375   5.937   6.166
 4859SOL    HW115476   3.434   5.936   6.085
 4859SOL    HW215477   3.427   5.902   6.245
 4860SOL     OW15478   3.342   4.550   0.787
 4860SOL    HW115479   3.289   4.586   0.864
 4860SOL    HW215480   3.339   4.616   0.711
 4861SOL     OW15481   4.417   4.375   6.452
 4861SOL    HW115482   4.441   4.343   6.361
 4861SOL    HW215483   4.412   4.475   6.453
 4862SOL     OW15484   0.966   6.911   0.746
 4862SOL    HW115485   0.941   6.964   0.666
 4862SOL    HW215486   0.900   6.926   0.819
 4863SOL     OW15487   5.222   3.817   6.065
 4863SOL    HW115488   5.130   3.855   6.054
 4863SOL    HW215489   5.280   3.883   6.114
 4864SOL     OW15490   3.457   1.112   4.292
 4864SOL    HW115491   3.436   1.030   4.237
 4864SOL    HW215492   3.556   1.122   4.300
 4865SOL     OW15493   1.472   6.528   4.819
 4865SOL    HW115494   1.426   6.499   4.735
 4865SOL    HW215495   1.568   6.548   4.800
 4866SOL     OW15496   6.853   4.557   5.943
 4866SOL    HW115497   6.952   4.547   5.933
 4866SOL    HW215498   6.806   4.479   5.900
 4867SOL     OW15499   4.604   0.995   2.986
 4867SOL    HW115500   4.570   1.086   2.963
 4867SOL    HW215501   4.699   0.987   2.958
 4868SOL     OW15502   6.768   5.025   0.481
 4868SOL    HW115503   6.679   5.064   0.504
 4868SOL    HW215504   6.824   5.095   0.436
 4869SOL     OW15505   0.680   1.513   0.881
 4869SOL    HW115506   0.614   1.499   0.808
 4869SOL    HW215507   0.639   1.486   0.968
 4870SOL     OW15508   0.495   0.032   1.176
 4870SOL    HW115509   0.453   0.007   1.089
 4870SOL    HW215510   0.555   6.984   1.207
 4871SOL     OW15511   0.638   1.827   3.076
 4871SOL    HW115512   0.648   1.871   3.165
 4871SOL    HW215513   0.568   1.876   3.023
 4872SOL     OW15514   5.800   0.365   3.196
 4872SOL    HW115515   5.891   0.397   3.221
 4872SOL    HW215516   5.757   0.429   3.133
 4873SOL     OW15517   6.763   5.386   4.349
 4873SOL    HW115518   6.839   5.427   4.399
 4873SOL    HW215519   6.746   5.438   4.265
 4874SOL     OW15520   4.931   3.547   2.256
 4874SOL    HW115521   4.896   3.615   2.192
 4874SOL    HW215522   4.915   3.577   2.349
 4875SOL     OW15523   6.265   5.883   5.152
 4875SOL    HW115524   6.274   5.809   5.085
 4875SOL    HW215525   6.287   5.848   5.243
 4876SOL     OW15526   6.915   1.148   2.138
 4876SOL    HW115527   6.897   1.052   2.116
 4876SOL    HW215528   6.979   1.154   2.215
 4877SOL     OW15529   0.402   1.485   6.963
 4877SOL    HW115530   0.480   1.467   6.904
 4877SOL    HW215531   0.324   1.515   6.908
 4878SOL     OW15532   6.466   3.801   3.206
 4878SOL    HW115533   6.400   3.819   3.133
 4878SOL    HW215534   6.490   3.704   3.207
 4879SOL     OW15535   5.017   0.569   3.234
 4879SOL    HW115536   5.038   0.535   3.326
 4879SOL    HW215537   5.059   0.658   3.221
 4880SOL     OW15538   6.958   3.011   6.133
 4880SOL    HW115539   6.893   3.071   6.086
 4880SOL    HW215540   0.026   3.036   6.106
 4881SOL     OW15541   0.739   3.430   1.580
 4881SOL    HW115542   0.770   3.520   1.611
 4881SOL    HW215543   0.778   3.359   1.638
 4882SOL     OW15544   5.286   1.758   4.191
 4882SOL    HW115545   5.202   1.780   4.142
 4882SOL    HW215546   5.265   1.735   4.286
 4883SOL     OW15547   5.875   4.232   0.239
 4883SOL    HW115548   5.821   4.197   0.316
 4883SOL    HW215549   5.887   4.159   0.172
 4884SOL     OW15550   2.022   1.131   1.974
 4884SOL    HW115551   1.995   1.078   2.054
 4884SOL    HW215552   2.120   1.119   1.957
 4885SOL     OW15553   1.095   5.060   0.080
 4885SOL    HW115554   1.020   5.110   0.123
 4885SOL    HW215555   1.062   5.012   7.025
 4886SOL     OW15556   2.863   0.614   2.217
 4886SOL    HW115557   2.931   0.606   2.144
 4886SOL    HW215558   2.771   0.616   2.178
 4887SOL     OW15559   4.501   5.804   0.651
 4887SOL    HW115560   4.501   5.771   0.557
 4887SOL    HW215561   4.515   5.903   0.651
 4888SOL     OW15562   4.619   0.032   3.086
 4888SOL    HW115563   4.686   0.096   3.124
 4888SOL    HW215564   4.572   7.010   3.160
 4889SOL     OW15565   5.936   3.278   4.005
 4889SOL    HW115566   5.936   3.361   3.949
 4889SOL    HW215567   5.957   3.302   4.099
 4890SOL     OW15568   6.879   1.737   4.699
 4890SOL    HW115569   6.894   1.749   4.797
 4890SOL    HW215570   6.827   1.815   4.664
 4891SOL     OW15571   2.329   5.965   0.153
 4891SOL    HW115572   2.376   6.047   0.187
 4891SOL    HW215573   2.316   5.973   0.055
 4892SOL     OW15574   5.409   5.214   2.412
 4892SOL    HW115575   5.492   5.165   2.386
 4892SOL    HW215576   5.432   5.284   2.480
 4893SOL     OW15577   1.006   3.188   1.285
 4893SOL    HW115578   1.023   3.285   1.305
 4893SOL    HW215579   1.049   3.164   1.198
 4894SOL     OW15580   4.993   5.918   0.771
 4894SOL    HW115581   5.003   5.841   0.707
 4894SOL    HW215582   5.074   5.923   0.829
 4895SOL     OW15583   6.592   4.319   5.243
 4895SOL    HW115584   6.658   4.265   5.296
 4895SOL    HW215585   6.640   4.369   5.172
 4896SOL     OW15586   2.698   5.097   5.142
 4896SOL    HW115587   2.636   5.019   5.147
 4896SOL    HW215588   2.682   5.147   5.057
 4897SOL     OW15589   2.021   1.522   5.130
 4897SOL    HW115590   2.008   1.612   5.172
 4897SOL    HW215591   2.085   1.468   5.185
 4898SOL     OW15592   4.923   1.936   4.154
 4898SOL    HW115593   4.889   2.013   4.101
 4898SOL    HW215594   4.846   1.890   4.199
 4899SOL     OW15595   6.435   6.312   2.006
 4899SOL    HW115596   6.478   6.242   1.949
 4899SOL    HW215597   6.336   6.312   1.990
 4900SOL     OW15598   3.591   5.820   6.334
 4900SOL    HW115599   3.646   5.901   6.355
 4900SOL    HW215600   3.652   5.745   6.309
 4901SOL     OW15601   2.138   1.049   7.000
 4901SOL    HW115602   2.211   1.006   0.028
 4901SOL    HW215603   2.098   1.123   0.027
 4902SOL     OW15604   3.076   0.136   5.121
 4902SOL    HW115605   3.061   0.061   5.185
 4902SOL    HW215606   3.173   0.159   5.119
 4903SOL     OW15607   4.877   3.896   2.619
 4903SOL    HW115608   4.836   3.921   2.706
 4903SOL    HW215609   4.977   3.896   2.628
 4904SOL     OW15610   1.627   0.707   1.861
 4904SOL    HW115611   1.593   0.784   1.915
 4904SOL    HW215612   1.549   0.656   1.824
 4905SOL     OW15613   2.600   0.870   2.567
 4905SOL    HW115614   2.518   0.924   2.547
 4905SOL    HW215615   2.660   0.869   2.487
 4906SOL     OW15616   5.232   3.709   4.875
 4906SOL    HW115617   5.220   3.628   4.932
 4906SOL    HW215618   5.316   3.699   4.821
 4907SOL     OW15619   3.184   2.360   0.293
 4907SOL    HW115620   3.275   2.319   0.292
 4907SOL    HW215621   3.156   2.382   0.200
 4908SOL     OW15622   3.468   6.727   6.367
 4908SOL    HW115623   3.480   6.826   6.358
 4908SOL    HW215624   3.379   6.699   6.331
 4909SOL     OW15625   5.064   5.367   4.338
 4909SOL    HW115626   5.149   5.315   4.332
 4909SOL    HW215627   5.079   5.447   4.397
 4910SOL     OW15628   3.721   1.825   0.097
 4910SOL    HW115629   3.749   1.756   0.030
 4910SOL    HW215630   3.796   1.842   0.161
 4911SOL     OW15631   6.749   4.469   3.084
 4911SOL    HW115632   6.696   4.541   3.040
 4911SOL    HW215633   6.785   4.407   3.014
 4912SOL     OW15634   6.022   2.498   4.284
 4912SOL    HW115635   6.019   2.575   4.219
 4912SOL    HW215636   6.098   2.438   4.261
 4913SOL     OW15637   0.663   4.308   5.186
 4913SOL    HW115638   0.681   4.401   5.217
 4913SOL    HW215639   0.590   4.309   5.118
 4914SOL     OW15640   3.858   6.606   3.759
 4914SOL    HW115641   3.816   6.518   3.737
 4914SOL    HW215642   3.954   6.593   3.784
 4915SOL     OW15643   3.655   5.989   5.465
 4915SOL    HW115644   3.612   6.043   5.537
 4915SOL    HW215645   3.586   5.932   5.420
 4916SOL     OW15646   5.423   2.630   3.902
 4916SOL    HW115647   5.471   2.693   3.964
 4916SOL    HW215648   5.329   2.661   3.889
 4917SOL     OW15649   4.196   6.298   6.492
 4917SOL    HW115650   4.198   6.332   6.398
 4917SOL    HW215651   4.153   6.367   6.551
 4918SOL     OW15652   5.742   5.586   3.948
 4918SOL    HW115653   5.649   5.613   3.925
 4918SOL    HW215654   5.804   5.662   3.930
 4919SOL     OW15655   3.762   3.867   2.057
 4919SOL    HW115656   3.751   3.956   2.101
 4919SOL    HW215657   3.850   3.828   2.082
 4920SOL     OW15658   5.931   0.919   5.928
 4920SOL    HW115659   5.957   0.924   5.832
 4920SOL    HW215660   5.869   0.995   5.950
 4921SOL     OW15661   7.012   6.950   1.806
 4921SOL    HW115662   0.044   6.990   1.877
 4921SOL    HW215663   6.961   7.022   1.759
 4922SOL     OW15664   4.286   1.396   5.764
 4922SOL    HW115665   4.262   1.483   5.808
 4922SOL    HW215666   4.354   1.349   5.820
 4923SOL     OW15667   3.746   1.218   1.944
 4923SOL    HW115668   3.724   1.302   1.994
 4923SOL    HW215669   3.761   1.239   1.848
 4924SOL     OW15670   2.790   1.502   5.157
 4924SOL    HW115671   2.691   1.513   5.164
 4924SOL    HW215672   2.827   1.570   5.094
 4925SOL     OW15673   4.590   5.888   3.802
 4925SOL    HW115674   4.685   5.917   3.789
 4925SOL    HW215675   4.576   5.799   3.760
 4926SOL     OW15676   5.324   2.596   1.665
 4926SOL    HW115677   5.230   2.567   1.650
 4926SOL    HW215678   5.325   2.689   1.701
 4927SOL     OW15679   2.455   1.442   0.535
 4927SOL    HW115680   2.525   1.446   0.464
 4927SOL    HW215681   2.380   1.504   0.511
 4928SOL     OW15682   6.925   1.228   1.021
 4928SOL    HW115683   6.899   1.244   1.116
 4928SOL    HW215684   6.890   1.301   0.963
 4929SOL     OW15685   0.055   0.178   5.394
 4929SOL    HW115686   0.109   0.192   5.310
 4929SOL    HW215687   0.062   0.083   5.423
 4930SOL     OW15688   4.304   5.685   2.874
 4930SOL    HW115689   4.262   5.732   2.796
 4930SOL    HW215690   4.381   5.739   2.908
 4931SOL     OW15691   5.987   0.052   1.087
 4931SOL    HW115692   6.004   7.009   1.017
 4931SOL    HW215693   6.072   0.072   1.136
 4932SOL     OW15694   3.217   3.706   2.939
 4932SOL    HW115695   3.129   3.751   2.952
 4932SOL    HW215696   3.203   3.615   2.901
 4933SOL     OW15697   1.770   0.294   5.000
 4933SOL    HW115698   1.819   0.345   4.929
 4933SOL    HW215699   1.778   0.196   4.981
 4934SOL     OW15700   3.178   6.655   2.920
 4934SOL    HW115701   3.094   6.609   2.891
 4934SOL    HW215702   3.240   6.588   2.960
 4935SOL     OW15703   6.712   0.479   4.805
 4935SOL    HW115704   6.799   0.439   4.776
 4935SOL    HW215705   6.726   0.574   4.832
 4936SOL     OW15706   4.458   3.016   0.952
 4936SOL    HW115707   4.465   2.986   0.857
 4936SOL    HW215708   4.529   2.972   1.006
 4937SOL     OW15709   4.319   2.682   5.344
 4937SOL    HW115710   4.269   2.628   5.276
 4937SOL    HW215711   4.353   2.766   5.301
 4938SOL     OW15712   3.216   4.577   7.004
 4938SOL    HW115713   3.226   4.662   6.953
 4938SOL    HW215714   3.152   4.517   6.957
 4939SOL     OW15715   4.428   3.934   6.232
 4939SOL    HW115716   4.424   3.950   6.331
 4939SOL    HW215717   4.482   3.852   6.213
 4940SOL     OW15718   2.159   5.889   3.940
 4940SOL    HW115719   2.071   5.902   3.895
 4940SOL    HW215720   2.231   5.882   3.872
 4941SOL     OW15721   5.891   0.620   1.366
 4941SOL    HW115722   5.929   0.633   1.275
 4941SOL    HW215723   5.813   0.681   1.379
 4942SOL     OW15724   5.116   2.129   6.311
 4942SOL    HW115725   5.031   2.128   6.363
 4942SOL    HW215726   5.116   2.207   6.248
 4943SOL     OW15727   5.490   2.683   1.123
 4943SOL    HW115728   5.582   2.706   1.091
 4943SOL    HW215729   5.490   2.589   1.158
 4944SOL     OW15730   2.135   3.734   2.029
 4944SOL    HW115731   2.171   3.649   1.992
 4944SOL    HW215732   2.188   3.760   2.110
 4945SOL     OW15733   0.111   5.982   4.425
 4945SOL    HW115734   0.132   6.079   4.425
 4945SOL    HW215735   0.172   5.934   4.362
 4946SOL     OW15736   6.858   4.375   2.153
 4946SOL    HW115737   6.919   4.308   2.196
 4946SOL    HW215738   6.863   4.365   2.054
 4947SOL     OW15739   6.025   0.674   0.462
 4947SOL    HW115740   6.115   0.630   0.455
 4947SOL    HW215741   6.028   0.764   0.419
 4948SOL     OW15742   2.513   1.847   2.688
 4948SOL    HW115743   2.457   1.833   2.769
 4948SOL    HW215744   2.568   1.930   2.699
 4949SOL     OW15745   5.290   1.983   5.030
 4949SOL    HW115746   5.380   2.025   5.039
 4949SOL    HW215747   5.220   2.048   5.057
 4950SOL     OW15748   2.798   5.729   4.615
 4950SOL    HW115749   2.847   5.643   4.604
 4950SOL    HW215750   2.792   5.752   4.712
 4951SOL     OW15751   4.243   1.953   4.348
 4951SOL    HW115752   4.175   1.884   4.371
 4951SOL    HW215753   4.212   2.042   4.382
 4952SOL     OW15754   6.547   4.509   4.186
 4952SOL    HW115755   6.573   4.603   4.207
 4952SOL    HW215756   6.563   4.490   4.089
 4953SOL     OW15757   1.152   4.367   2.140
 4953SOL    HW115758   1.239   4.414   2.157
 4953SOL    HW215759   1.164   4.298   2.069
 4954SOL     OW15760   6.310   6.532   6.593
 4954SOL    HW115761   6.227   6.587   6.586
 4954SOL    HW215762   6.320   6.476   6.511
 4955SOL     OW15763   1.867   0.423   1.489
 4955SOL    HW115764   1.931   0.473   1.547
 4955SOL    HW215765   1.913   0.398   1.404
 4956SOL     OW15766   6.101   6.376   3.471
 4956SOL    HW115767   6.064   6.441   3.405
 4956SOL    HW215768   6.082   6.283   3.441
 4957SOL     OW15769   1.717   5.944   4.114
 4957SOL    HW115770   1.623   5.974   4.126
 4957SOL    HW215771   1.731   5.858   4.162
 4958SOL     OW15772   6.934   6.658   6.655
 4958SOL    HW115773   6.913   6.756   6.646
 4958SOL    HW215774   7.018   6.638   6.606
 4959SOL     OW15775   0.790   1.929   0.125
 4959SOL    HW115776   0.732   2.001   0.164
 4959SOL    HW215777   0.745   1.891   0.044
 4960SOL     OW15778   3.769   0.138   5.501
 4960SOL    HW115779   3.748   0.188   5.417
 4960SOL    HW215780   3.687   0.130   5.556
 4961SOL     OW15781   5.337   0.621   5.295
 4961SOL    HW115782   5.250   0.576   5.277
 4961SOL    HW215783   5.392   0.623   5.212
 4962SOL     OW15784   6.637   2.335   2.548
 4962SOL    HW115785   6.729   2.309   2.576
 4962SOL    HW215786   6.640   2.378   2.458
 4963SOL     OW15787   7.013   4.559   1.100
 4963SOL    HW115788   0.059   4.506   1.146
 4963SOL    HW215789   0.028   4.640   1.058
 4964SOL     OW15790   3.202   6.795   3.276
 4964SOL    HW115791   3.162   6.886   3.280
 4964SOL    HW215792   3.259   6.787   3.195
 4965SOL     OW15793   6.979   5.903   4.642
 4965SOL    HW115794   6.996   5.971   4.713
 4965SOL    HW215795   0.015   5.919   4.565
 4966SOL     OW15796   4.682   5.571   5.172
 4966SOL    HW115797   4.768   5.532   5.140
 4966SOL    HW215798   4.609   5.504   5.161
 4967SOL     OW15799   5.949   1.732   6.850
 4967SOL    HW115800   5.982   1.638   6.839
 4967SOL    HW215801   5.857   1.731   6.890
 4968SOL     OW15802   5.345   4.364   6.704
 4968SOL    HW115803   5.348   4.462   6.686
 4968SOL    HW215804   5.314   4.316   6.622
 4969SOL     OW15805   1.859   1.489   1.395
 4969SOL    HW115806   1.953   1.498   1.362
 4969SOL    HW215807   1.856   1.423   1.470
 4970SOL     OW15808   1.605   2.576   6.062
 4970SOL    HW115809   1.656   2.490   6.049
 4970SOL    HW215810   1.601   2.598   6.159
 4971SOL     OW15811   6.414   5.501   3.767
 4971SOL    HW115812   6.330   5.537   3.727
 4971SOL    HW215813   6.447   5.424   3.712
 4972SOL     OW15814   1.373   2.191   4.773
 4972SOL    HW115815   1.431   2.159   4.699
 4972SOL    HW215816   1.415   2.167   4.861
 4973SOL     OW15817   4.966   5.601   2.777
 4973SOL    HW115818   5.010   5.644   2.698
 4973SOL    HW215819   4.976   5.662   2.856
 4974SOL     OW15820   3.895   6.656   6.613
 4974SOL    HW115821   3.809   6.635   6.660
 4974SOL    HW215822   3.891   6.623   6.519
 4975SOL     OW15823   4.114   6.481   0.472
 4975SOL    HW115824   4.084   6.436   0.556
 4975SOL    HW215825   4.196   6.536   0.491
 4976SOL     OW15826   2.365   0.672   4.330
 4976SOL    HW115827   2.267   0.687   4.314
 4976SOL    HW215828   2.417   0.709   4.253
 4977SOL     OW15829   3.268   3.316   0.664
 4977SOL    HW115830   3.364   3.292   0.658
 4977SOL    HW215831   3.214   3.234   0.683
 4978SOL     OW15832   6.322   4.236   6.401
 4978SOL    HW115833   6.375   4.162   6.443
 4978SOL    HW215834   6.287   4.296   6.472
 4979SOL     OW15835   2.430   2.104   3.840
 4979SOL    HW115836   2.492   2.153   3.901
 4979SOL    HW215837   2.336   2.131   3.860
 4980SOL     OW15838   2.006   4.543   3.276
 4980SOL    HW115839   2.066   4.620   3.299
 4980SOL    HW215840   2.017   4.470   3.343
 4981SOL     OW15841   5.307   5.807   5.149
 4981SOL    HW115842   5.346   5.816   5.057
 4981SOL    HW215843   5.380   5.785   5.214
 4982SOL     OW15844   2.352   1.703   6.728
 4982SOL    HW115845   2.254   1.722   6.728
 4982SOL    HW215846   2.390   1.725   6.638
 4983SOL     OW15847   6.816   2.552   4.785
 4983SOL    HW115848   6.725   2.537   4.746
 4983SOL    HW215849   6.885   2.543   4.714
 4984SOL     OW15850   5.039   4.344   3.308
 4984SOL    HW115851   4.944   4.324   3.333
 4984SOL    HW215852   5.050   4.442   3.292
 4985SOL     OW15853   5.515   4.061   2.093
 4985SOL    HW115854   5.470   3.987   2.143
 4985SOL    HW215855   5.551   4.128   2.158
 4986SOL     OW15856   4.550   4.841   3.075
 4986SOL    HW115857   4.566   4.754   3.121
 4986SOL    HW215858   4.582   4.916   3.132
 4987SOL     OW15859   0.748   3.249   0.486
 4987SOL    HW115860   0.743   3.240   0.386
 4987SOL    HW215861   0.783   3.163   0.525
 4988SOL     OW15862   1.896   2.448   5.422
 4988SOL    HW115863   1.844   2.477   5.502
 4988SOL    HW215864   1.939   2.527   5.379
 4989SOL     OW15865   0.278   1.233   1.182
 4989SOL    HW115866   0.201   1.283   1.223
 4989SOL    HW215867   0.330   1.294   1.123
 4990SOL     OW15868   1.530   1.805   6.558
 4990SOL    HW115869   1.488   1.819   6.647
 4990SOL    HW215870   1.516   1.710   6.529
 4991SOL     OW15871   3.031   1.979   5.818
 4991SOL    HW115872   3.110   1.928   5.785
 4991SOL    HW215873   2.977   1.921   5.879
 4992SOL     OW15874   4.095   6.365   4.872
 4992SOL    HW115875   4.023   6.434   4.870
 4992SOL    HW215876   4.160   6.382   4.798
 4993SOL     OW15877   1.560   6.459   4.296
 4993SOL    HW115878   1.643   6.468   4.351
 4993SOL    HW215879   1.552   6.536   4.233
 4994SOL     OW15880   6.987   6.413   3.081
 4994SOL    HW115881   0.042   6.357   3.066
 4994SOL    HW215882   6.957   6.404   3.177
 4995SOL     OW15883   5.674   2.782   5.508
 4995SOL    HW115884   5.770   2.784   5.538
 4995SOL    HW215885   5.630   2.869   5.531
 4996SOL     OW15886   1.106   1.532   3.552
 4996SOL    HW115887   1.101   1.511   3.454
 4996SOL    HW215888   1.013   1.545   3.587
 4997SOL     OW15889   0.158   2.629   4.090
 4997SOL    HW115890   0.224   2.653   4.020
 4997SOL    HW215891   0.073   2.598   4.047
 4998SOL     OW15892   0.959   5.635   5.698
 4998SOL    HW115893   0.961   5.735   5.693
 4998SOL    HW215894   0.891   5.601   5.632
 4999SOL     OW15895   6.150   4.851   0.819
 4999SOL    HW115896   6.154   4.916   0.743
 4999SOL    HW215897   6.057   4.849   0.856
 5000SOL     OW15898   6.344   4.965   4.099
 5000SOL    HW115899   6.413   4.898   4.071
 5000SOL    HW215900   6.254   4.922   4.101
 5001SOL     OW15901   4.880   3.554   5.407
 5001SOL    HW115902   4.821   3.527   5.482
 5001SOL    HW215903   4.921   3.473   5.365
 5002SOL     OW15904   1.532   2.430   1.625
 5002SOL    HW115905   1.489   2.340   1.623
 5002SOL    HW215906   1.598   2.438   1.550
 5003SOL     OW15907   6.843   5.110   4.054
 5003SOL    HW115908   6.893   5.034   4.014
 5003SOL    HW215909   6.745   5.092   4.051
 5004SOL     OW15910   1.888   4.550   6.123
 5004SOL    HW115911   1.951   4.623   6.151
 5004SOL    HW215912   1.802   4.559   6.173
 5005SOL     OW15913   4.682   2.097   0.451
 5005SOL    HW115914   4.731   2.038   0.515
 5005SOL    HW215915   4.607   2.142   0.499
 5006SOL     OW15916   5.300   4.546   2.089
 5006SOL    HW115917   5.334   4.578   2.178
 5006SOL    HW215918   5.281   4.448   2.094
 5007SOL     OW15919   4.349   0.432   5.197
 5007SOL    HW115920   4.417   0.371   5.239
 5007SOL    HW215921   4.267   0.435   5.255
 5008SOL     OW15922   6.381   1.642   3.979
 5008SOL    HW115923   6.454   1.583   3.944
 5008SOL    HW215924   6.377   1.725   3.923
 5009SOL     OW15925   2.319   6.508   2.148
 5009SOL    HW115926   2.388   6.575   2.119
 5009SOL    HW215927   2.310   6.511   2.248
 5010SOL     OW15928   3.302   3.635   5.862
 5010SOL    HW115929   3.267   3.580   5.938
 5010SOL    HW215930   3.304   3.732   5.889
 5011SOL     OW15931   1.335   1.613   3.704
 5011SOL    HW115932   1.412   1.553   3.681
 5011SOL    HW215933   1.250   1.573   3.670
 5012SOL     OW15934   5.943   3.034   0.120
 5012SOL    HW115935   5.945   3.116   0.178
 5012SOL    HW215936   5.956   2.953   0.176
 5013SOL     OW15937   4.941   2.037   5.516
 5013SOL    HW115938   5.023   2.049   5.461
 5013SOL    HW215939   4.930   1.940   5.539
 5014SOL     OW15940   0.118   5.454   6.618
 5014SOL    HW115941   0.191   5.391   6.646
 5014SOL    HW215942   0.088   5.431   6.525
 5015SOL     OW15943   5.103   2.210   3.755
 5015SOL    HW115944   5.178   2.265   3.792
 5015SOL    HW215945   5.134   2.116   3.740
 5016SOL     OW15946   2.819   6.302   2.108
 5016SOL    HW115947   2.733   6.267   2.144
 5016SOL    HW215948   2.894   6.273   2.167
 5017SOL     OW15949   1.439   1.954   1.717
 5017SOL    HW115950   1.454   1.920   1.810
 5017SOL    HW215951   1.354   2.007   1.714
 5018SOL     OW15952   6.461   4.957   3.725
 5018SOL    HW115953   6.483   5.051   3.750
 5018SOL    HW215954   6.362   4.948   3.710
 5019SOL     OW15955   2.722   5.567   5.327
 5019SOL    HW115956   2.662   5.639   5.360
 5019SOL    HW215957   2.668   5.491   5.293
 5020SOL     OW15958   4.141   5.087   6.970
 5020SOL    HW115959   4.200   5.166   6.955
 5020SOL    HW215960   4.083   5.074   6.890
 5021SOL     OW15961   1.832   4.501   5.412
 5021SOL    HW115962   1.909   4.445   5.442
 5021SOL    HW215963   1.790   4.459   5.331
 5022SOL     OW15964   1.917   4.022   0.235
 5022SOL    HW115965   1.992   4.005   0.299
 5022SOL    HW215966   1.872   3.935   0.214
 5023SOL     OW15967   0.368   3.230   4.903
 5023SOL    HW115968   0.375   3.153   4.839
 5023SOL    HW215969   0.434   3.301   4.878
 5024SOL     OW15970   4.752   3.840   5.497
 5024SOL    HW115971   4.675   3.900   5.474
 5024SOL    HW215972   4.785   3.863   5.589
 5025SOL     OW15973   6.064   0.802   4.172
 5025SOL    HW115974   6.115   0.887   4.166
 5025SOL    HW215975   6.056   0.774   4.267
 5026SOL     OW15976   0.831   5.492   2.698
 5026SOL    HW115977   0.891   5.511   2.776
 5026SOL    HW215978   0.749   5.445   2.730
 5027SOL     OW15979   1.493   5.717   3.349
 5027SOL    HW115980   1.428   5.664   3.403
 5027SOL    HW215981   1.451   5.744   3.262
 5028SOL     OW15982   0.794   6.648   3.282
 5028SOL    HW115983   0.839   6.695   3.207
 5028SOL    HW215984   0.835   6.558   3.295
 5029SOL     OW15985   6.390   0.849   3.809
 5029SOL    HW115986   6.376   0.762   3.857
 5029SOL    HW215987   6.468   0.897   3.850
 5030SOL     OW15988   1.229   6.592   0.130
 5030SOL    HW115989   1.240   6.493   0.133
 5030SOL    HW215990   1.204   6.620   0.038
 5031SOL     OW15991   5.623   0.515   6.625
 5031SOL    HW115992   5.677   0.539   6.544
 5031SOL    HW215993   5.635   0.585   6.695
 5032SOL     OW15994   1.358   5.024   2.507
 5032SOL    HW115995   1.273   4.987   2.546
 5032SOL    HW215996   1.373   5.116   2.542
 5033SOL     OW15997   0.719   4.784   4.563
 5033SOL    HW115998   0.805   4.773   4.512
 5033SOL    HW215999   0.642   4.769   4.501
 5034SOL     OW16000   0.257   3.290   6.576
 5034SOL    HW116001   0.218   3.205   6.613
 5034SOL    HW216002   0.222   3.368   6.627
 5035SOL     OW16003   6.838   3.981   1.457
 5035SOL    HW116004   6.772   3.921   1.411
 5035SOL    HW216005   6.928   3.967   1.417
 5036SOL     OW16006   1.105   1.350   2.142
 5036SOL    HW116007   1.088   1.255   2.168
 5036SOL    HW216008   1.108   1.407   2.223
 5037SOL     OW16009   5.176   3.533   2.073
 5037SOL    HW116010   5.109   3.573   2.010
 5037SOL    HW216011   5.127   3.484   2.145
 5038SOL     OW16012   3.230   5.779   5.362
 5038SOL    HW116013   3.231   5.690   5.315
 5038SOL    HW216014   3.314   5.829   5.342
 5039SOL     OW16015   1.748   2.490   3.258
 5039SOL    HW116016   1.833   2.466   3.211
 5039SOL    HW216017   1.710   2.573   3.217
 5040SOL     OW16018   2.947   3.610   5.831
 5040SOL    HW116019   2.866   3.651   5.789
 5040SOL    HW216020   3.011   3.582   5.758
 5041SOL     OW16021   0.021   5.429   0.432
 5041SOL    HW116022   6.990   5.380   0.499
 5041SOL    HW216023   0.087   5.487   0.479
 5042SOL     OW16024   6.238   1.553   6.090
 5042SOL    HW116025   6.228   1.641   6.137
 5042SOL    HW216026   6.149   1.522   6.058
 5043SOL     OW16027   4.958   6.193   4.316
 5043SOL    HW116028   5.025   6.127   4.351
 5043SOL    HW216029   4.866   6.164   4.344
 5044SOL     OW16030   5.931   4.296   2.277
 5044SOL    HW116031   5.983   4.351   2.343
 5044SOL    HW216032   5.989   4.274   2.199
 5045SOL     OW16033   5.779   2.629   5.765
 5045SOL    HW116034   5.808   2.722   5.789
 5045SOL    HW216035   5.808   2.566   5.838
 5046SOL     OW16036   3.875   3.446   6.001
 5046SOL    HW116037   3.791   3.417   6.046
 5046SOL    HW216038   3.870   3.544   5.980
 5047SOL     OW16039   7.008   1.396   2.373
 5047SOL    HW116040   0.053   1.330   2.400
 5047SOL    HW216041   0.007   1.437   2.286
 5048SOL     OW16042   5.780   3.299   1.051
 5048SOL    HW116043   5.768   3.213   1.100
 5048SOL    HW216044   5.708   3.307   0.981
 5049SOL     OW16045   1.041   1.442   1.564
 5049SOL    HW116046   1.018   1.536   1.588
 5049SOL    HW216047   1.039   1.386   1.647
 5050SOL     OW16048   2.216   4.697   0.391
 5050SOL    HW116049   2.216   4.752   0.475
 5050SOL    HW216050   2.279   4.737   0.325
 5051SOL     OW16051   2.453   4.024   6.423
 5051SOL    HW116052   2.457   4.093   6.351
 5051SOL    HW216053   2.498   3.940   6.391
 5052SOL     OW16054   6.074   2.864   0.835
 5052SOL    HW116055   6.116   2.921   0.763
 5052SOL    HW216056   6.145   2.837   0.900
 5053SOL     OW16057   1.499   4.112   1.352
 5053SOL    HW116058   1.428   4.176   1.381
 5053SOL    HW216059   1.472   4.019   1.375
 5054SOL     OW16060   3.957   6.041   5.775
 5054SOL    HW116061   3.926   5.946   5.775
 5054SOL    HW216062   3.989   6.065   5.683
 5055SOL     OW16063   0.870   0.744   3.823
 5055SOL    HW116064   0.940   0.717   3.757
 5055SOL    HW216065   0.907   0.815   3.883
 5056SOL     OW16066   3.577   2.338   5.994
 5056SOL    HW116067   3.487   2.353   5.952
 5056SOL    HW216068   3.565   2.312   6.090
 5057SOL     OW16069   0.366   4.033   2.645
 5057SOL    HW116070   0.428   4.032   2.723
 5057SOL    HW216071   0.409   4.082   2.569
 5058SOL     OW16072   3.585   1.989   0.314
 5058SOL    HW116073   3.644   1.922   0.268
 5058SOL    HW216074   3.639   2.070   0.337
 5059SOL     OW16075   5.364   2.105   2.592
 5059SOL    HW116076   5.272   2.092   2.555
 5059SOL    HW216077   5.424   2.144   2.521
 5060SOL     OW16078   6.502   2.890   5.724
 5060SOL    HW116079   6.456   2.958   5.781
 5060SOL    HW216080   6.473   2.901   5.629
 5061SOL     OW16081   3.892   3.084   5.905
 5061SOL    HW116082   3.953   3.147   5.858
 5061SOL    HW216083   3.842   3.029   5.838
 5062SOL     OW16084   5.542   1.525   3.350
 5062SOL    HW116085   5.615   1.559   3.292
 5062SOL    HW216086   5.581   1.480   3.430
 5063SOL     OW16087   0.559   1.958   1.470
 5063SOL    HW116088   0.591   1.867   1.444
 5063SOL    HW216089   0.461   1.965   1.451
 5064SOL     OW16090   6.157   4.711   1.253
 5064SOL    HW116091   6.067   4.728   1.212
 5064SOL    HW216092   6.221   4.781   1.221
 5065SOL     OW16093   2.182   2.043   2.775
 5065SOL    HW116094   2.255   2.097   2.818
 5065SOL    HW216095   2.127   2.102   2.717
 5066SOL     OW16096   1.631   5.418   3.124
 5066SOL    HW116097   1.712   5.476   3.140
 5066SOL    HW216098   1.661   5.328   3.093
 5067SOL     OW16099   5.229   2.447   0.848
 5067SOL    HW116100   5.211   2.543   0.865
 5067SOL    HW216101   5.150   2.405   0.804
 5068SOL     OW16102   1.030   6.256   1.174
 5068SOL    HW116103   1.022   6.212   1.264
 5068SOL    HW216104   1.069   6.347   1.185
 5069SOL     OW16105   4.358   4.743   5.892
 5069SOL    HW116106   4.384   4.795   5.973
 5069SOL    HW216107   4.259   4.749   5.879
 5070SOL     OW16108   6.535   4.009   6.203
 5070SOL    HW116109   6.573   4.093   6.166
 5070SOL    HW216110   6.608   3.954   6.243
 5071SOL     OW16111   2.478   6.380   3.006
 5071SOL    HW116112   2.545   6.377   3.080
 5071SOL    HW216113   2.522   6.353   2.920
 5072SOL     OW16114   0.966   1.848   2.184
 5072SOL    HW116115   0.988   1.883   2.275
 5072SOL    HW216116   1.043   1.863   2.123
 5073SOL     OW16117   1.898   1.342   3.532
 5073SOL    HW116118   1.849   1.415   3.484
 5073SOL    HW216119   1.840   1.260   3.535
 5074SOL     OW16120   3.570   2.016   1.105
 5074SOL    HW116121   3.501   2.057   1.046
 5074SOL    HW216122   3.552   1.918   1.113
 5075SOL     OW16123   6.356   2.633   0.323
 5075SOL    HW116124   6.275   2.612   0.378
 5075SOL    HW216125   6.437   2.602   0.372
 5076SOL     OW16126   6.799   0.931   5.994
 5076SOL    HW116127   6.762   0.955   5.904
 5076SOL    HW216128   6.771   1.000   6.061
 5077SOL     OW16129   0.241   4.629   4.125
 5077SOL    HW116130   0.252   4.644   4.026
 5077SOL    HW216131   0.238   4.530   4.143
 5078SOL     OW16132   6.306   2.387   3.123
 5078SOL    HW116133   6.233   2.323   3.101
 5078SOL    HW216134   6.360   2.351   3.199
 5079SOL     OW16135   1.954   4.116   4.889
 5079SOL    HW116136   1.957   4.206   4.933
 5079SOL    HW216137   1.863   4.100   4.851
 5080SOL     OW16138   6.611   5.430   6.918
 5080SOL    HW116139   6.523   5.426   6.870
 5080SOL    HW216140   6.625   5.521   6.956
 5081SOL     OW16141   2.558   4.608   5.559
 5081SOL    HW116142   2.490   4.535   5.552
 5081SOL    HW216143   2.582   4.640   5.467
 5082SOL     OW16144   5.570   0.096   2.266
 5082SOL    HW116145   5.514   0.120   2.187
 5082SOL    HW216146   5.556   0.163   2.339
 5083SOL     OW16147   1.005   6.840   3.239
 5083SOL    HW116148   0.928   6.892   3.200
 5083SOL    HW216149   1.006   6.851   3.338
 5084SOL     OW16150   3.571   5.266   5.960
 5084SOL    HW116151   3.583   5.292   5.864
 5084SOL    HW216152   3.592   5.168   5.970
 5085SOL     OW16153   0.359   4.207   5.668
 5085SOL    HW116154   0.335   4.283   5.608
 5085SOL    HW216155   0.405   4.243   5.750
 5086SOL     OW16156   1.077   4.262   2.390
 5086SOL    HW116157   1.075   4.169   2.353
 5086SOL    HW216158   1.130   4.321   2.329
 5087SOL     OW16159   0.085   5.663   1.590
 5087SOL    HW116160   7.021   5.672   1.546
 5087SOL    HW216161   0.144   5.603   1.535
 5088SOL     OW16162   4.370   4.887   2.065
 5088SOL    HW116163   4.310   4.962   2.039
 5088SOL    HW216164   4.465   4.917   2.060
 5089SOL     OW16165   5.356   6.676   5.509
 5089SOL    HW116166   5.351   6.597   5.448
 5089SOL    HW216167   5.444   6.721   5.499
 5090SOL     OW16168   2.375   6.605   4.222
 5090SOL    HW116169   2.428   6.644   4.146
 5090SOL    HW216170   2.365   6.674   4.294
 5091SOL     OW16171   6.480   6.184   6.166
 5091SOL    HW116172   6.521   6.128   6.094
 5091SOL    HW216173   6.513   6.278   6.159
 5092SOL     OW16174   3.973   3.201   4.109
 5092SOL    HW116175   4.010   3.276   4.164
 5092SOL    HW216176   3.932   3.133   4.170
 5093SOL     OW16177   3.446   2.104   3.971
 5093SOL    HW116178   3.470   2.014   3.934
 5093SOL    HW216179   3.527   2.145   4.013
 5094SOL     OW16180   1.908   6.087   5.255
 5094SOL    HW116181   1.845   6.017   5.289
 5094SOL    HW216182   1.920   6.078   5.156
 5095SOL     OW16183   6.945   1.297   3.224
 5095SOL    HW116184   6.905   1.387   3.244
 5095SOL    HW216185   0.013   1.309   3.191
 5096SOL     OW16186   6.310   2.895   6.236
 5096SOL    HW116187   6.391   2.953   6.247
 5096SOL    HW216188   6.337   2.799   6.238
 5097SOL     OW16189   1.010   1.412   5.372
 5097SOL    HW116190   1.054   1.468   5.302
 5097SOL    HW216191   0.921   1.450   5.395
 5098SOL     OW16192   2.907   1.911   1.044
 5098SOL    HW116193   2.859   1.975   0.984
 5098SOL    HW216194   3.000   1.895   1.008
 5099SOL     OW16195   2.065   5.422   2.799
 5099SOL    HW116196   2.042   5.514   2.769
 5099SOL    HW216197   1.995   5.358   2.769
 5100SOL     OW16198   5.524   3.725   1.826
 5100SOL    HW116199   5.448   3.731   1.892
 5100SOL    HW216200   5.563   3.815   1.811
 5101SOL     OW16201   3.231   1.269   5.157
 5101SOL    HW116202   3.227   1.362   5.122
 5101SOL    HW216203   3.259   1.206   5.084
 5102SOL     OW16204   5.781   4.450   4.930
 5102SOL    HW116205   5.790   4.406   4.840
 5102SOL    HW216206   5.730   4.391   4.992
 5103SOL     OW16207   0.927   0.620   5.830
 5103SOL    HW116208   0.877   0.615   5.743
 5103SOL    HW216209   0.891   0.551   5.893
 5104SOL     OW16210   3.986   3.894   3.404
 5104SOL    HW116211   4.022   3.832   3.334
 5104SOL    HW216212   3.971   3.984   3.364
 5105SOL     OW16213   4.200   3.008   0.072
 5105SOL    HW116214   4.144   2.961   0.141
 5105SOL    HW216215   4.276   2.949   0.045
 5106SOL     OW16216   3.638   1.273   1.544
 5106SOL    HW116217   3.608   1.179   1.560
 5106SOL    HW216218   3.666   1.283   1.448
 5107SOL     OW16219   5.954   5.106   7.008
 5107SOL    HW116220   5.883   5.126   6.941
 5107SOL    HW216221   5.925   5.139   0.073
 5108SOL     OW16222   3.979   4.448   1.308
 5108SOL    HW116223   4.015   4.541   1.294
 5108SOL    HW216224   3.895   4.436   1.255
 5109SOL     OW16225   1.537   2.371   2.319
 5109SOL    HW116226   1.511   2.332   2.231
 5109SOL    HW216227   1.637   2.372   2.328
 5110SOL     OW16228   4.117   6.100   4.842
 5110SOL    HW116229   4.089   6.193   4.864
 5110SOL    HW216230   4.172   6.062   4.917
 5111SOL     OW16231   2.286   5.721   5.622
 5111SOL    HW116232   2.285   5.674   5.710
 5111SOL    HW216233   2.273   5.653   5.549
 5112SOL     OW16234   1.087   4.897   2.569
 5112SOL    HW116235   1.051   4.880   2.477
 5112SOL    HW216236   1.111   4.810   2.612
 5113SOL     OW16237   2.193   4.078   0.702
 5113SOL    HW116238   2.104   4.123   0.702
 5113SOL    HW216239   2.248   4.115   0.627
 5114SOL     OW16240   4.531   4.829   1.623
 5114SOL    HW116241   4.515   4.732   1.602
 5114SOL    HW216242   4.466   4.885   1.571
 5115SOL     OW16243   1.208   4.636   0.622
 5115SOL    HW116244   1.306   4.616   0.618
 5115SOL    HW216245   1.158   4.553   0.647
 5116SOL     OW16246   0.296   6.382   5.387
 5116SOL    HW116247   0.309   6.467   5.440
 5116SOL    HW216248   0.199   6.363   5.379
 5117SOL     OW16249   0.303   3.530   3.605
 5117SOL    HW116250   0.331   3.440   3.573
 5117SOL    HW216251   0.331   3.599   3.538
 5118SOL     OW16252   3.951   5.002   6.782
 5118SOL    HW116253   3.907   5.039   6.700
 5118SOL    HW216254   3.932   4.904   6.789
 5119SOL     OW16255   5.764   1.530   0.840
 5119SOL    HW116256   5.831   1.549   0.769
 5119SOL    HW216257   5.803   1.464   0.905
 5120SOL     OW16258   5.725   6.606   5.694
 5120SOL    HW116259   5.822   6.603   5.718
 5120SOL    HW216260   5.675   6.661   5.761
 5121SOL     OW16261   1.380   3.211   0.142
 5121SOL    HW116262   1.352   3.141   0.077
 5121SOL    HW216263   1.312   3.216   0.216
 5122SOL     OW16264   4.507   4.684   3.461
 5122SOL    HW116265   4.487   4.624   3.383
 5122SOL    HW216266   4.500   4.631   3.545
 5123SOL     OW16267   4.894   2.288   1.684
 5123SOL    HW116268   4.978   2.235   1.695
 5123SOL    HW216269   4.841   2.253   1.607
 5124SOL     OW16270   0.546   5.853   4.461
 5124SOL    HW116271   0.525   5.798   4.542
 5124SOL    HW216272   0.461   5.881   4.417
 5125SOL     OW16273   6.003   2.535   3.826
 5125SOL    HW116274   5.999   2.528   3.726
 5125SOL    HW216275   5.941   2.606   3.857
 5126SOL     OW16276   2.265   1.020   2.104
 5126SOL    HW116277   2.337   1.081   2.070
 5126SOL    HW216278   2.275   0.930   2.061
 5127SOL     OW16279   2.095   6.893   7.017
 5127SOL    HW116280   2.024   6.942   0.042
 5127SOL    HW216281   2.172   6.875   0.053
 5128SOL     OW16282   4.406   6.681   1.176
 5128SOL    HW116283   4.391   6.779   1.190
 5128SOL    HW216284   4.400   6.634   1.264
 5129SOL     OW16285   6.191   5.890   0.322
 5129SOL    HW116286   6.270   5.902   0.263
 5129SOL    HW216287   6.144   5.977   0.334
 5130SOL     OW16288   5.934   4.615   2.727
 5130SOL    HW116289   5.938   4.693   2.664
 5130SOL    HW216290   6.022   4.567   2.725
 5131SOL     OW16291   2.376   2.511   2.610
 5131SOL    HW116292   2.349   2.593   2.662
 5131SOL    HW216293   2.451   2.465   2.657
 5132SOL     OW16294   2.400   5.787   5.270
 5132SOL    HW116295   2.385   5.869   5.325
 5132SOL    HW216296   2.460   5.724   5.320
 5133SOL     OW16297   3.486   6.156   5.226
 5133SOL    HW116298   3.444   6.158   5.135
 5133SOL    HW216299   3.448   6.230   5.282
 5134SOL     OW16300   6.663   3.794   6.713
 5134SOL    HW116301   6.620   3.710   6.680
 5134SOL    HW216302   6.761   3.792   6.695
 5135SOL     OW16303   0.106   1.655   4.052
 5135SOL    HW116304   0.008   1.639   4.065
 5135SOL    HW216305   0.120   1.711   3.970
 5136SOL     OW16306   3.021   1.891   6.484
 5136SOL    HW116307   2.957   1.933   6.420
 5136SOL    HW216308   3.065   1.962   6.538
 5137SOL     OW16309   4.061   3.528   6.980
 5137SOL    HW116310   4.095   3.620   7.002
 5137SOL    HW216311   4.127   3.459   7.007
 5138SOL     OW16312   2.358   3.724   5.695
 5138SOL    HW116313   2.383   3.662   5.769
 5138SOL    HW216314   2.377   3.679   5.607
 5139SOL     OW16315   0.676   6.617   3.532
 5139SOL    HW116316   0.635   6.705   3.556
 5139SOL    HW216317   0.736   6.629   3.453
 5140SOL     OW16318   2.968   3.149   1.383
 5140SOL    HW116319   2.944   3.061   1.343
 5140SOL    HW216320   2.939   3.151   1.479
 5141SOL     OW16321   1.180   4.352   6.061
 5141SOL    HW116322   1.149   4.336   5.967
 5141SOL    HW216323   1.116   4.306   6.124
 5142SOL     OW16324   5.894   3.399   2.260
 5142SOL    HW116325   5.962   3.365   2.324
 5142SOL    HW216326   5.804   3.363   2.285
 5143SOL     OW16327   6.759   5.093   5.475
 5143SOL    HW116328   6.696   5.027   5.434
 5143SOL    HW216329   6.709   5.155   5.535
 5144SOL     OW16330   2.086   2.012   4.954
 5144SOL    HW116331   2.182   2.040   4.958
 5144SOL    HW216332   2.048   2.010   5.046
 5145SOL     OW16333   3.407   5.766   5.749
 5145SOL    HW116334   3.418   5.686   5.808
 5145SOL    HW216335   3.314   5.770   5.715
 5146SOL     OW16336   3.070   4.734   0.760
 5146SOL    HW116337   3.078   4.732   0.661
 5146SOL    HW216338   3.002   4.667   0.789
 5147SOL     OW16339   6.865   5.199   6.648
 5147SOL    HW116340   6.798   5.126   6.634
 5147SOL    HW216341   6.824   5.286   6.621
 5148SOL     OW16342   0.159   0.885   0.895
 5148SOL    HW116343   0.213   0.966   0.872
 5148SOL    HW216344   0.176   0.860   0.990
 5149SOL     OW16345   6.715   0.283   5.677
 5149SOL    HW116346   6.771   0.200   5.685
 5149SOL    HW216347   6.693   0.316   5.769
 5150SOL     OW16348   2.334   5.353   5.429
 5150SOL    HW116349   2.301   5.375   5.337
 5150SOL    HW216350   2.423   5.396   5.443
 5151SOL     OW16351   4.053   0.825   5.521
 5151SOL    HW116352   3.967   0.877   5.523
 5151SOL    HW216353   4.051   0.755   5.591
 5152SOL     OW16354   0.373   4.930   6.857
 5152SOL    HW116355   0.384   4.844   6.906
 5152SOL    HW216356   0.329   4.997   6.916
 5153SOL     OW16357   1.658   2.304   1.166
 5153SOL    HW116358   1.572   2.353   1.156
 5153SOL    HW216359   1.695   2.282   1.076
 5154SOL     OW16360   1.776   4.768   4.705
 5154SOL    HW116361   1.778   4.810   4.795
 5154SOL    HW216362   1.692   4.795   4.657
 5155SOL     OW16363   4.153   0.471   2.684
 5155SOL    HW116364   4.219   0.487   2.758
 5155SOL    HW216365   4.160   0.376   2.654
 5156SOL     OW16366   5.194   3.003   5.922
 5156SOL    HW116367   5.242   3.087   5.899
 5156SOL    HW216368   5.188   2.945   5.841
 5157SOL     OW16369   6.646   1.792   4.113
 5157SOL    HW116370   6.673   1.870   4.170
 5157SOL    HW216371   6.549   1.774   4.125
 5158SOL     OW16372   3.606   0.582   1.098
 5158SOL    HW116373   3.652   0.562   1.012
 5158SOL    HW216374   3.554   0.666   1.090
 5159SOL     OW16375   2.093   3.299   4.756
 5159SOL    HW116376   2.012   3.307   4.813
 5159SOL    HW216377   2.137   3.211   4.774
 5160SOL     OW16378   2.732   2.409   3.844
 5160SOL    HW116379   2.812   2.352   3.859
 5160SOL    HW216380   2.696   2.439   3.932
 5161SOL     OW16381   2.202   3.367   6.182
 5161SOL    HW116382   2.181   3.328   6.093
 5161SOL    HW216383   2.152   3.453   6.194
 5162SOL     OW16384   6.594   5.756   4.579
 5162SOL    HW116385   6.615   5.806   4.495
 5162SOL    HW216386   6.680   5.732   4.625
 5163SOL     OW16387   5.457   4.163   1.200
 5163SOL    HW116388   5.459   4.261   1.180
 5163SOL    HW216389   5.384   4.143   1.264
 5164SOL     OW16390   6.402   6.318   4.646
 5164SOL    HW116391   6.372   6.281   4.733
 5164SOL    HW216392   6.355   6.405   4.628
 5165SOL     OW16393   5.459   3.611   5.179
 5165SOL    HW116394   5.509   3.591   5.095
 5165SOL    HW216395   5.361   3.594   5.163
 5166SOL     OW16396   1.567   6.989   2.661
 5166SOL    HW116397   1.614   7.017   2.577
 5166SOL    HW216398   1.576   0.036   2.730
 5167SOL     OW16399   2.179   0.139   5.982
 5167SOL    HW116400   2.120   0.110   6.057
 5167SOL    HW216401   2.271   0.155   6.017
 5168SOL     OW16402   3.646   2.066   2.593
 5168SOL    HW116403   3.707   2.142   2.618
 5168SOL    HW216404   3.694   1.979   2.608
 5169SOL     OW16405   4.064   4.528   6.495
 5169SOL    HW116406   4.062   4.432   6.521
 5169SOL    HW216407   4.030   4.584   6.571
 5170SOL     OW16408   4.033   5.165   4.064
 5170SOL    HW116409   4.023   5.211   4.152
 5170SOL    HW216410   4.044   5.066   4.080
 5171SOL     OW16411   2.582   4.842   5.155
 5171SOL    HW116412   2.594   4.802   5.064
 5171SOL    HW216413   2.618   4.779   5.224
 5172SOL     OW16414   1.549   4.409   6.285
 5172SOL    HW116415   1.456   4.414   6.323
 5172SOL    HW216416   1.585   4.502   6.275
 5173SOL     OW16417   0.115   2.414   5.164
 5173SOL    HW116418   0.080   2.448   5.251
 5173SOL    HW216419   0.090   2.317   5.154
 5174SOL     OW16420   2.378   5.139   6.228
 5174SOL    HW116421   2.358   5.100   6.138
 5174SOL    HW216422   2.347   5.077   6.300
 5175SOL     OW16423   0.074   5.680   6.268
 5175SOL    HW116424   7.018   5.737   6.256
 5175SOL    HW216425   0.120   5.706   6.353
 5176SOL     OW16426   5.697   3.628   6.244
 5176SOL    HW116427   5.704   3.553   6.178
 5176SOL    HW216428   5.707   3.591   6.337
 5177SOL     OW16429   5.800   5.469   6.293
 5177SOL    HW116430   5.794   5.370   6.305
 5177SOL    HW216431   5.724   5.500   6.236
 5178SOL     OW16432   2.958   4.044   0.476
 5178SOL    HW116433   2.903   4.034   0.559
 5178SOL    HW216434   2.946   3.964   0.418
 5179SOL     OW16435   3.162   6.548   5.027
 5179SOL    HW116436   3.174   6.493   4.944
 5179SOL    HW216437   3.085   6.513   5.079
 5180SOL     OW16438   4.160   1.619   0.221
 5180SOL    HW116439   4.250   1.650   0.191
 5180SOL    HW216440   4.168   1.578   0.312
 5181SOL     OW16441   3.268   5.875   2.364
 5181SOL    HW116442   3.292   5.780   2.346
 5181SOL    HW216443   3.349   5.925   2.393
 5182SOL     OW16444   4.609   4.153   1.217
 5182SOL    HW116445   4.565   4.092   1.151
 5182SOL    HW216446   4.708   4.138   1.217
 5183SOL     OW16447   3.778   0.360   3.873
 5183SOL    HW116448   3.822   0.408   3.797
 5183SOL    HW216449   3.848   0.328   3.937
 5184SOL     OW16450   0.909   2.704   3.127
 5184SOL    HW116451   1.001   2.670   3.107
 5184SOL    HW216452   0.883   2.771   3.057
 5185SOL     OW16453   3.932   0.069   1.404
 5185SOL    HW116454   3.862   0.106   1.343
 5185SOL    HW216455   3.929   6.995   1.402
 5186SOL     OW16456   5.117   4.273   0.376
 5186SOL    HW116457   5.040   4.213   0.352
 5186SOL    HW216458   5.199   4.240   0.330
 5187SOL     OW16459   4.802   2.917   4.113
 5187SOL    HW116460   4.883   2.862   4.091
 5187SOL    HW216461   4.723   2.857   4.124
 5188SOL     OW16462   0.396   0.953   3.948
 5188SOL    HW116463   0.362   0.861   3.968
 5188SOL    HW216464   0.475   0.946   3.886
 5189SOL     OW16465   4.807   6.117   6.037
 5189SOL    HW116466   4.792   6.021   6.061
 5189SOL    HW216467   4.735   6.147   5.974
 5190SOL     OW16468   2.237   2.958   1.935
 5190SOL    HW116469   2.249   2.965   2.034
 5190SOL    HW216470   2.315   2.911   1.895
 5191SOL     OW16471   4.796   0.434   2.432
 5191SOL    HW116472   4.855   0.512   2.411
 5191SOL    HW216473   4.793   0.372   2.353
 5192SOL     OW16474   6.182   3.990   1.286
 5192SOL    HW116475   6.255   3.957   1.346
 5192SOL    HW216476   6.116   4.042   1.339
 5193SOL     OW16477   3.704   4.898   2.164
 5193SOL    HW116478   3.651   4.944   2.235
 5193SOL    HW216479   3.642   4.859   2.096
 5194SOL     OW16480   5.427   0.563   0.283
 5194SOL    HW116481   5.487   0.587   0.206
 5194SOL    HW216482   5.366   0.489   0.255
 5195SOL     OW16483   0.299   6.695   4.914
 5195SOL    HW116484   0.262   6.622   4.971
 5195SOL    HW216485   0.331   6.770   4.972
 5196SOL     OW16486   6.794   3.876   3.699
 5196SOL    HW116487   6.799   3.813   3.777
 5196SOL    HW216488   6.768   3.826   3.617
 5197SOL     OW16489   3.851   5.649   5.377
 5197SOL    HW116490   3.815   5.560   5.405
 5197SOL    HW216491   3.800   5.682   5.297
 5198SOL     OW16492   4.299   1.663   5.320
 5198SOL    HW116493   4.335   1.592   5.380
 5198SOL    HW216494   4.260   1.621   5.239
 5199SOL     OW16495   0.316   5.734   1.326
 5199SOL    HW116496   0.320   5.670   1.404
 5199SOL    HW216497   0.241   5.707   1.266
 5200SOL     OW16498   6.933   0.376   4.641
 5200SOL    HW116499   6.910   0.279   4.646
 5200SOL    HW216500   6.972   0.396   4.551
 5201SOL     OW16501   6.339   4.464   5.511
 5201SOL    HW116502   6.380   4.390   5.565
 5201SOL    HW216503   6.325   4.544   5.570
 5202SOL     OW16504   3.833   2.241   5.978
 5202SOL    HW116505   3.745   2.282   5.954
 5202SOL    HW216506   3.822   2.142   5.989
 5203SOL     OW16507   0.963   0.613   6.365
 5203SOL    HW116508   0.953   0.650   6.273
 5203SOL    HW216509   0.972   0.689   6.430
 5204SOL     OW16510   1.771   0.493   1.961
 5204SOL    HW116511   1.786   0.414   1.901
 5204SOL    HW216512   1.711   0.558   1.914
 5205SOL     OW16513   6.924   0.135   1.652
 5205SOL    HW116514   6.985   0.213   1.663
 5205SOL    HW216515   6.830   0.162   1.673
 5206SOL     OW16516   0.698   4.959   4.306
 5206SOL    HW116517   0.628   4.887   4.306
 5206SOL    HW216518   0.785   4.921   4.338
 5207SOL     OW16519   4.970   0.418   4.957
 5207SOL    HW116520   4.901   0.419   4.884
 5207SOL    HW216521   5.042   0.484   4.936
 5208SOL     OW16522   6.836   2.071   0.221
 5208SOL    HW116523   6.897   2.090   0.298
 5208SOL    HW216524   6.743   2.098   0.244
 5209SOL     OW16525   5.392   6.109   2.590
 5209SOL    HW116526   5.460   6.059   2.537
 5209SOL    HW216527   5.389   6.073   2.683
 5210SOL     OW16528   5.876   4.311   1.241
 5210SOL    HW116529   5.866   4.316   1.141
 5210SOL    HW216530   5.956   4.364   1.268
 5211SOL     OW16531   5.438   2.974   5.419
 5211SOL    HW116532   5.402   2.987   5.511
 5211SOL    HW216533   5.363   2.980   5.353
 5212SOL     OW16534   6.799   4.092   0.074
 5212SOL    HW116535   6.722   4.140   0.116
 5212SOL    HW216536   6.777   4.070   7.004
 5213SOL     OW16537   3.514   3.114   3.355
 5213SOL    HW116538   3.503   3.131   3.453
 5213SOL    HW216539   3.580   3.040   3.341
 5214SOL     OW16540   5.412   3.299   6.124
 5214SOL    HW116541   5.365   3.298   6.035
 5214SOL    HW216542   5.505   3.265   6.113
 5215SOL     OW16543   0.086   5.785   5.139
 5215SOL    HW116544   0.077   5.688   5.163
 5215SOL    HW216545   0.077   5.841   5.221
 5216SOL     OW16546   6.043   4.121   1.066
 5216SOL    HW116547   6.103   4.133   0.987
 5216SOL    HW216548   6.097   4.084   1.142
 5217SOL     OW16549   3.929   6.461   2.771
 5217SOL    HW116550   3.999   6.396   2.740
 5217SOL    HW216551   3.883   6.501   2.691
 5218SOL     OW16552   5.766   0.020   0.549
 5218SOL    HW116553   5.812   0.064   0.473
 5218SOL    HW216554   5.715   0.089   0.601
 5219SOL     OW16555   3.826   1.487   4.883
 5219SOL    HW116556   3.829   1.388   4.900
 5219SOL    HW216557   3.856   1.505   4.789
 5220SOL     OW16558   1.938   4.802   4.435
 5220SOL    HW116559   1.855   4.831   4.483
 5220SOL    HW216560   1.915   4.774   4.342
 5221SOL     OW16561   5.050   5.757   1.181
 5221SOL    HW116562   4.997   5.743   1.265
 5221SOL    HW216563   5.130   5.697   1.182
 5222SOL     OW16564   6.620   3.558   2.177
 5222SOL    HW116565   6.582   3.486   2.119
 5222SOL    HW216566   6.664   3.627   2.121
 5223SOL     OW16567   0.063   2.702   1.145
 5223SOL    HW116568   0.091   2.634   1.212
 5223SOL    HW216569   0.135   2.712   1.076
 5224SOL     OW16570   1.759   1.121   4.408
 5224SOL    HW116571   1.859   1.108   4.410
 5224SOL    HW216572   1.735   1.203   4.459
 5225SOL     OW16573   6.857   2.331   5.767
 5225SOL    HW116574   6.858   2.237   5.732
 5225SOL    HW216575   6.827   2.331   5.862
 5226SOL     OW16576   0.145   6.575   4.305
 5226SOL    HW116577   0.098   6.536   4.226
 5226SOL    HW216578   0.244   6.568   4.291
 5227SOL     OW16579   1.412   3.171   5.833
 5227SOL    HW116580   1.492   3.216   5.793
 5227SOL    HW216581   1.329   3.206   5.789
 5228SOL     OW16582   1.115   2.204   4.876
 5228SOL    HW116583   1.107   2.298   4.907
 5228SOL    HW216584   1.203   2.191   4.830
 5229SOL     OW16585   3.562   1.668   6.528
 5229SOL    HW116586   3.503   1.735   6.575
 5229SOL    HW216587   3.644   1.714   6.495
 5230SOL     OW16588   6.743   0.074   1.979
 5230SOL    HW116589   6.698   0.158   2.009
 5230SOL    HW216590   6.714   0.052   1.886
 5231SOL     OW16591   6.156   3.377   2.011
 5231SOL    HW116592   6.151   3.323   2.094
 5231SOL    HW216593   6.209   3.460   2.027
 5232SOL     OW16594   1.625   1.976   5.684
 5232SOL    HW116595   1.651   2.023   5.768
 5232SOL    HW216596   1.668   1.886   5.681
 5233SOL     OW16597   3.165   6.725   3.579
 5233SOL    HW116598   3.235   6.769   3.635
 5233SOL    HW216599   3.203   6.701   3.489
 5234SOL     OW16600   2.702   2.558   6.611
 5234SOL    HW116601   2.668   2.523   6.699
 5234SOL    HW216602   2.691   2.488   6.541
 5235SOL     OW16603   2.422   2.559   1.532
 5235SOL    HW116604   2.432   2.460   1.530
 5235SOL    HW216605   2.416   2.594   1.438
 5236SOL     OW16606   2.907   4.777   2.565
 5236SOL    HW116607   2.821   4.828   2.557
 5236SOL    HW216608   2.925   4.758   2.662
 5237SOL     OW16609   1.863   1.761   2.228
 5237SOL    HW116610   1.928   1.829   2.195
 5237SOL    HW216611   1.812   1.798   2.306
 5238SOL     OW16612   6.381   0.790   2.767
 5238SOL    HW116613   6.303   0.742   2.809
 5238SOL    HW216614   6.465   0.738   2.785
 5239SOL     OW16615   2.825   4.256   0.330
 5239SOL    HW116616   2.868   4.171   0.361
 5239SOL    HW216617   2.857   4.278   0.238
 5240SOL     OW16618   2.032   4.186   5.937
 5240SOL    HW116619   2.126   4.152   5.950
 5240SOL    HW216620   1.968   4.111   5.951
 5241SOL     OW16621   1.656   6.489   3.568
 5241SOL    HW116622   1.681   6.407   3.618
 5241SOL    HW216623   1.687   6.482   3.473
 5242SOL     OW16624   4.409   6.006   5.396
 5242SOL    HW116625   4.433   6.012   5.299
 5242SOL    HW216626   4.468   6.067   5.449
 5243SOL     OW16627   2.329   5.889   3.721
 5243SOL    HW116628   2.355   5.793   3.715
 5243SOL    HW216629   2.339   5.933   3.632
 5244SOL     OW16630   4.904   1.271   6.228
 5244SOL    HW116631   4.868   1.287   6.320
 5244SOL    HW216632   4.837   1.301   6.160
 5245SOL     OW16633   3.053   3.984   2.163
 5245SOL    HW116634   3.051   3.897   2.213
 5245SOL    HW216635   2.987   4.047   2.204
 5246SOL     OW16636   6.526   3.430   6.131
 5246SOL    HW116637   6.561   3.403   6.041
 5246SOL    HW216638   6.546   3.527   6.147
 5247SOL     OW16639   4.671   1.249   6.079
 5247SOL    HW116640   4.610   1.320   6.045
 5247SOL    HW216641   4.716   1.203   6.003
 5248SOL     OW16642   4.792   0.759   3.405
 5248SOL    HW116643   4.846   0.785   3.324
 5248SOL    HW216644   4.700   0.795   3.396
 5249SOL     OW16645   0.141   5.296   1.642
 5249SOL    HW116646   0.080   5.284   1.720
 5249SOL    HW216647   0.186   5.210   1.620
 5250SOL     OW16648   2.136   5.216   0.607
 5250SOL    HW116649   2.089   5.298   0.574
 5250SOL    HW216650   2.232   5.219   0.578
 5251SOL     OW16651   0.934   4.543   0.097
 5251SOL    HW116652   0.945   4.445   0.080
 5251SOL    HW216653   1.023   4.588   0.088
 5252SOL     OW16654   3.671   5.215   2.996
 5252SOL    HW116655   3.715   5.210   3.086
 5252SOL    HW216656   3.732   5.261   2.932
 5253SOL     OW16657   0.032   6.341   4.635
 5253SOL    HW116658   0.092   6.421   4.642
 5253SOL    HW216659   7.008   6.330   4.721
 5254SOL     OW16660   4.738   6.205   2.473
 5254SOL    HW116661   4.640   6.184   2.467
 5254SOL    HW216662   4.782   6.139   2.534
 5255SOL     OW16663   0.166   1.212   6.115
 5255SOL    HW116664   0.071   1.236   6.134
 5255SOL    HW216665   0.174   1.180   6.020
 5256SOL     OW16666   4.178   2.161   2.777
 5256SOL    HW116667   4.198   2.205   2.865
 5256SOL    HW216668   4.204   2.064   2.782
 5257SOL     OW16669   5.497   1.175   6.881
 5257SOL    HW116670   5.455   1.131   6.802
 5257SOL    HW216671   5.577   1.122   6.909
 5258SOL     OW16672   5.622   1.463   5.110
 5258SOL    HW116673   5.619   1.547   5.163
 5258SOL    HW216674   5.711   1.454   5.065
 5259SOL     OW16675   5.016   5.759   4.038
 5259SOL    HW116676   4.943   5.698   4.008
 5259SOL    HW216677   5.104   5.711   4.035
 5260SOL     OW16678   2.046   5.900   1.573
 5260SOL    HW116679   2.137   5.868   1.546
 5260SOL    HW216680   2.044   5.916   1.671
 5261SOL     OW16681   6.275   4.790   6.991
 5261SOL    HW116682   6.341   4.865   6.997
 5261SOL    HW216683   6.253   4.757   0.058
 5262SOL     OW16684   1.997   2.085   1.762
 5262SOL    HW116685   2.014   2.168   1.815
 5262SOL    HW216686   2.050   2.009   1.801
 5263SOL     OW16687   1.180   6.219   3.297
 5263SOL    HW116688   1.107   6.250   3.357
 5263SOL    HW216689   1.252   6.289   3.294
 5264SOL     OW16690   6.846   2.503   2.277
 5264SOL    HW116691   6.829   2.590   2.231
 5264SOL    HW216692   6.802   2.504   2.367
 5265SOL     OW16693   0.087   5.987   5.796
 5265SOL    HW116694   0.067   6.058   5.729
 5265SOL    HW216695   0.068   5.897   5.756
 5266SOL     OW16696   1.631   6.900   5.859
 5266SOL    HW116697   1.706   6.955   5.896
 5266SOL    HW216698   1.569   6.959   5.807
 5267SOL     OW16699   5.818   1.345   4.666
 5267SOL    HW116700   5.881   1.269   4.648
 5267SOL    HW216701   5.810   1.401   4.584
 5268SOL     OW16702   5.469   0.047   5.873
 5268SOL    HW116703   5.374   0.034   5.902
 5268SOL    HW216704   5.479   0.135   5.828
 5269SOL     OW16705   1.376   0.452   4.133
 5269SOL    HW116706   1.337   0.361   4.142
 5269SOL    HW216707   1.303   0.521   4.136
 5270SOL     OW16708   0.831   1.527   6.742
 5270SOL    HW116709   0.929   1.525   6.763
 5270SOL    HW216710   0.817   1.566   6.651
 5271SOL     OW16711   1.369   5.759   5.743
 5271SOL    HW116712   1.460   5.717   5.752
 5271SOL    HW216713   1.379   5.857   5.729
 5272SOL     OW16714   4.232   0.405   6.215
 5272SOL    HW116715   4.212   0.499   6.188
 5272SOL    HW216716   4.220   0.395   6.314
 5273SOL     OW16717   2.349   1.505   3.511
 5273SOL    HW116718   2.355   1.603   3.494
 5273SOL    HW216719   2.283   1.487   3.584
 5274SOL     OW16720   5.425   4.257   1.508
 5274SOL    HW116721   5.355   4.319   1.545
 5274SOL    HW216722   5.504   4.310   1.477
 5275SOL     OW16723   5.441   1.170   6.188
 5275SOL    HW116724   5.521   1.225   6.164
 5275SOL    HW216725   5.364   1.231   6.208
 5276SOL     OW16726   3.659   6.469   1.504
 5276SOL    HW116727   3.665   6.540   1.574
 5276SOL    HW216728   3.575   6.416   1.517
 5277SOL     OW16729   1.929   3.547   1.713
 5277SOL    HW116730   1.903   3.619   1.778
 5277SOL    HW216731   1.849   3.521   1.658
 5278SOL     OW16732   3.619   3.586   1.923
 5278SOL    HW116733   3.601   3.526   2.000
 5278SOL    HW216734   3.553   3.661   1.923
 5279SOL     OW16735   1.639   6.279   2.877
 5279SOL    HW116736   1.586   6.356   2.842
 5279SOL    HW216737   1.696   6.309   2.954
 5280SOL     OW16738   3.824   0.360   4.412
 5280SOL    HW116739   3.771   0.276   4.428
 5280SOL    HW216740   3.818   0.385   4.315
 5281SOL     OW16741   6.715   2.646   3.882
 5281SOL    HW116742   6.810   2.616   3.895
 5281SOL    HW216743   6.653   2.568   3.890
 5282SOL     OW16744   4.743   2.615   1.241
 5282SOL    HW116745   4.823   2.559   1.219
 5282SOL    HW216746   4.750   2.647   1.336
 5283SOL     OW16747   4.989   4.618   5.688
 5283SOL    HW116748   4.951   4.538   5.737
 5283SOL    HW216749   4.944   4.626   5.599
 5284SOL     OW16750   5.287   2.770   4.270
 5284SOL    HW116751   5.227   2.845   4.242
 5284SOL    HW216752   5.282   2.760   4.369
 5285SOL     OW16753   4.268   6.446   2.842
 5285SOL    HW116754   4.252   6.449   2.941
 5285SOL    HW216755   4.342   6.381   2.823
 5286SOL     OW16756   1.989   5.121   1.906
 5286SOL    HW116757   2.085   5.092   1.897
 5286SOL    HW216758   1.980   5.214   1.871
 5287SOL     OW16759   1.283   0.949   2.471
 5287SOL    HW116760   1.338   1.031   2.483
 5287SOL    HW216761   1.343   0.868   2.467
 5288SOL     OW16762   4.018   0.259   1.141
 5288SOL    HW116763   3.931   0.218   1.168
 5288SOL    HW216764   4.017   0.279   1.043
 5289SOL     OW16765   1.631   6.527   1.224
 5289SOL    HW116766   1.692   6.453   1.254
 5289SOL    HW216767   1.628   6.599   1.293
 5290SOL     OW16768   5.282   5.669   6.809
 5290SOL    HW116769   5.379   5.649   6.823
 5290SOL    HW216770   5.239   5.690   6.896
 5291SOL     OW16771   1.046   5.448   0.086
 5291SOL    HW116772   1.074   5.544   0.089
 5291SOL    HW216773   1.091   5.398   0.161
 5292SOL     OW16774   5.550   1.815   0.967
 5292SOL    HW116775   5.549   1.829   0.868
 5292SOL    HW216776   5.480   1.747   0.992
 5293SOL     OW16777   2.017   1.336   4.157
 5293SOL    HW116778   1.989   1.425   4.121
 5293SOL    HW216779   2.046   1.347   4.253
 5294SOL     OW16780   3.521   2.459   6.408
 5294SOL    HW116781   3.597   2.411   6.365
 5294SOL    HW216782   3.435   2.432   6.365
 5295SOL     OW16783   6.572   1.801   3.032
 5295SOL    HW116784   6.530   1.854   2.959
 5295SOL    HW216785   6.575   1.704   3.005
 5296SOL     OW16786   0.308   2.615   6.756
 5296SOL    HW116787   0.290   2.682   6.684
 5296SOL    HW216788   0.238   2.543   6.752
 5297SOL     OW16789   1.023   2.515   1.715
 5297SOL    HW116790   1.123   2.519   1.725
 5297SOL    HW216791   0.999   2.515   1.618
 5298SOL     OW16792   1.296   4.552   1.784
 5298SOL    HW116793   1.294   4.556   1.883
 5298SOL    HW216794   1.375   4.498   1.754
 5299SOL     OW16795   3.848   0.067   0.498
 5299SOL    HW116796   3.890   0.153   0.467
 5299SOL    HW216797   3.919   0.007   0.536
 5300SOL     OW16798   6.814   5.229   3.731
 5300SOL    HW116799   6.852   5.170   3.660
 5300SOL    HW216800   6.881   5.241   3.804
 5301SOL     OW16801   6.009   0.390   6.730
 5301SOL    HW116802   5.956   0.473   6.742
 5301SOL    HW216803   6.103   0.406   6.760
 5302SOL     OW16804   6.823   4.328   3.861
 5302SOL    HW116805   6.755   4.365   3.925
 5302SOL    HW216806   6.783   4.252   3.810
 5303SOL     OW16807   1.775   4.409   3.201
 5303SOL    HW116808   1.774   4.324   3.149
 5303SOL    HW216809   1.863   4.456   3.186
 5304SOL     OW16810   4.522   2.278   5.915
 5304SOL    HW116811   4.509   2.313   5.822
 5304SOL    HW216812   4.466   2.196   5.928
 5305SOL     OW16813   3.539   2.036   5.088
 5305SOL    HW116814   3.573   1.943   5.104
 5305SOL    HW216815   3.615   2.101   5.096
 5306SOL     OW16816   2.651   6.948   3.618
 5306SOL    HW116817   2.750   6.932   3.620
 5306SOL    HW216818   2.608   6.894   3.691
 5307SOL     OW16819   5.586   6.500   6.671
 5307SOL    HW116820   5.669   6.540   6.709
 5307SOL    HW216821   5.522   6.573   6.647
 5308SOL     OW16822   0.007   1.359   1.920
 5308SOL    HW116823   6.980   1.313   1.992
 5308SOL    HW216824   6.981   1.356   1.834
 5309SOL     OW16825   4.042   3.380   5.152
 5309SOL    HW116826   4.038   3.292   5.104
 5309SOL    HW216827   4.100   3.371   5.233
 5310SOL     OW16828   5.071   2.614   0.212
 5310SOL    HW116829   5.038   2.690   0.155
 5310SOL    HW216830   5.102   2.650   0.300
 5311SOL     OW16831   6.537   6.336   0.188
 5311SOL    HW116832   6.465   6.277   0.224
 5311SOL    HW216833   6.594   6.284   0.125
 5312SOL     OW16834   0.446   3.674   1.192
 5312SOL    HW116835   0.457   3.772   1.175
 5312SOL    HW216836   0.490   3.650   1.279
 5313SOL     OW16837   0.254   6.712   0.075
 5313SOL    HW116838   0.168   6.669   0.048
 5313SOL    HW216839   0.266   6.798   0.026
 5314SOL     OW16840   3.671   5.264   1.215
 5314SOL    HW116841   3.676   5.166   1.196
 5314SOL    HW216842   3.763   5.300   1.229
 5315SOL     OW16843   5.614   1.263   1.956
 5315SOL    HW116844   5.683   1.287   1.887
 5315SOL    HW216845   5.636   1.175   1.997
 5316SOL     OW16846   5.322   5.255   4.301
 5316SOL    HW116847   5.344   5.347   4.333
 5316SOL    HW216848   5.346   5.188   4.372
 5317SOL     OW16849   6.520   5.050   1.792
 5317SOL    HW116850   6.533   4.994   1.710
 5317SOL    HW216851   6.423   5.054   1.814
 5318SOL     OW16852   6.996   2.484   3.939
 5318SOL    HW116853   6.993   2.384   3.952
 5318SOL    HW216854   7.005   2.505   3.842
 5319SOL     OW16855   2.979   6.225   2.607
 5319SOL    HW116856   2.975   6.168   2.689
 5319SOL    HW216857   3.073   6.256   2.592
 5320SOL     OW16858   6.853   2.513   0.176
 5320SOL    HW116859   6.949   2.539   0.174
 5320SOL    HW216860   6.798   2.586   0.136
 5321SOL     OW16861   2.854   4.453   6.696
 5321SOL    HW116862   2.851   4.490   6.603
 5321SOL    HW216863   2.794   4.373   6.702
 5322SOL     OW16864   2.698   6.803   0.057
 5322SOL    HW116865   2.732   6.893   0.082
 5322SOL    HW216866   2.678   6.750   0.140
 5323SOL     OW16867   6.009   3.204   0.505
 5323SOL    HW116868   5.926   3.246   0.541
 5323SOL    HW216869   6.088   3.237   0.556
 5324SOL     OW16870   4.189   3.483   1.573
 5324SOL    HW116871   4.284   3.477   1.602
 5324SOL    HW216872   4.161   3.579   1.571
 5325SOL     OW16873   3.277   6.038   5.513
 5325SOL    HW116874   3.278   6.104   5.438
 5325SOL    HW216875   3.365   6.042   5.562
 5326SOL     OW16876   6.424   1.008   3.270
 5326SOL    HW116877   6.359   1.030   3.197
 5326SOL    HW216878   6.448   1.091   3.319
 5327SOL     OW16879   6.404   0.142   4.060
 5327SOL    HW116880   6.459   0.118   4.140
 5327SOL    HW216881   6.336   0.210   4.086
 5328SOL     OW16882   3.101   5.215   6.583
 5328SOL    HW116883   3.199   5.231   6.570
 5328SOL    HW216884   3.064   5.283   6.645
 5329SOL     OW16885   0.504   6.345   6.772
 5329SOL    HW116886   0.408   6.325   6.791
 5329SOL    HW216887   0.547   6.382   6.854
 5330SOL     OW16888   4.488   4.727   0.796
 5330SOL    HW116889   4.453   4.819   0.775
 5330SOL    HW216890   4.525   4.686   0.712
 5331SOL     OW16891   5.770   1.064   6.897
 5331SOL    HW116892   5.825   1.147   6.908
 5331SOL    HW216893   5.803   1.013   6.818
 5332SOL     OW16894   6.464   2.468   6.741
 5332SOL    HW116895   6.444   2.392   6.803
 5332SOL    HW216896   6.543   2.519   6.775
 5333SOL     OW16897   0.708   6.768   4.004
 5333SOL    HW116898   0.742   6.798   3.915
 5333SOL    HW216899   0.609   6.762   4.001
 5334SOL     OW16900   3.181   6.017   1.155
 5334SOL    HW116901   3.165   5.923   1.126
 5334SOL    HW216902   3.278   6.030   1.176
 5335SOL     OW16903   0.002   4.857   1.842
 5335SOL    HW116904   6.988   4.935   1.793
 5335SOL    HW216905   0.101   4.864   1.841
 5336SOL     OW16906   1.568   3.357   5.357
 5336SOL    HW116907   1.642   3.352   5.423
 5336SOL    HW216908   1.508   3.278   5.368
 5337SOL     OW16909   6.691   1.834   0.937
 5337SOL    HW116910   6.781   1.792   0.931
 5337SOL    HW216911   6.671   1.855   1.033
 5338SOL     OW16912   0.349   3.829   0.883
 5338SOL    HW116913   0.391   3.740   0.868
 5338SOL    HW216914   0.338   3.876   0.795
 5339SOL     OW16915   5.130   3.108   3.098
 5339SOL    HW116916   5.199   3.152   3.156
 5339SOL    HW216917   5.134   3.009   3.112
 5340SOL     OW16918   5.015   3.685   1.027
 5340SOL    HW116919   5.078   3.613   1.054
 5340SOL    HW216920   4.931   3.644   0.991
 5341SOL     OW16921   4.979   4.938   3.587
 5341SOL    HW116922   4.968   5.021   3.642
 5341SOL    HW216923   4.891   4.893   3.576
 5342SOL     OW16924   6.233   5.701   4.883
 5342SOL    HW116925   6.331   5.686   4.901
 5342SOL    HW216926   6.222   5.782   4.826
 5343SOL     OW16927   3.516   3.247   6.912
 5343SOL    HW116928   3.493   3.169   6.854
 5343SOL    HW216929   3.591   3.223   6.972
 5344SOL     OW16930   6.577   1.602   0.193
 5344SOL    HW116931   6.490   1.552   0.199
 5344SOL    HW216932   6.639   1.569   0.264
 5345SOL     OW16933   3.435   1.436   0.435
 5345SOL    HW116934   3.470   1.509   0.376
 5345SOL    HW216935   3.420   1.353   0.381
 5346SOL     OW16936   1.956   6.176   3.278
 5346SOL    HW116937   1.864   6.136   3.271
 5346SOL    HW216938   1.951   6.260   3.332
 5347SOL     OW16939   6.404   1.183   5.171
 5347SOL    HW116940   6.498   1.177   5.205
 5347SOL    HW216941   6.348   1.115   5.218
 5348SOL     OW16942   4.744   2.725   5.452
 5348SOL    HW116943   4.773   2.714   5.357
 5348SOL    HW216944   4.806   2.789   5.499
 5349SOL     OW16945   0.816   4.241   0.407
 5349SOL    HW116946   0.895   4.186   0.380
 5349SOL    HW216947   0.843   4.304   0.480
 5350SOL     OW16948   1.193   6.775   6.640
 5350SOL    HW116949   1.217   6.864   6.601
 5350SOL    HW216950   1.112   6.739   6.594
 5351SOL     OW16951   0.453   5.520   3.998
 5351SOL    HW116952   0.417   5.511   4.091
 5351SOL    HW216953   0.540   5.569   4.001
 5352SOL     OW16954   0.509   2.493   5.575
 5352SOL    HW116955   0.542   2.514   5.667
 5352SOL    HW216956   0.585   2.500   5.510
 5353SOL     OW16957   2.977   6.636   3.286
 5353SOL    HW116958   3.007   6.543   3.309
 5353SOL    HW216959   3.050   6.701   3.307
 5354SOL     OW16960   3.334   5.749   2.038
 5354SOL    HW116961   3.279   5.687   2.094
 5354SOL    HW216962   3.278   5.785   1.963
 5355SOL     OW16963   5.559   4.964   5.309
 5355SOL    HW116964   5.565   5.023   5.390
 5355SOL    HW216965   5.651   4.945   5.276
 5356SOL     OW16966   0.909   6.635   1.699
 5356SOL    HW116967   0.903   6.536   1.700
 5356SOL    HW216968   0.932   6.668   1.790
 5357SOL     OW16969   6.191   3.514   2.788
 5357SOL    HW116970   6.162   3.419   2.798
 5357SOL    HW216971   6.275   3.519   2.735
 5358SOL     OW16972   5.954   0.994   6.597
 5358SOL    HW116973   6.038   0.953   6.631
 5358SOL    HW216974   5.876   0.934   6.617
 5359SOL     OW16975   2.899   2.107   6.881
 5359SOL    HW116976   2.864   2.189   6.927
 5359SOL    HW216977   2.918   2.036   6.948
 5360SOL     OW16978   5.535   5.082   2.759
 5360SOL    HW116979   5.495   5.072   2.668
 5360SOL    HW216980   5.490   5.020   2.822
 5361SOL     OW16981   1.530   3.564   2.933
 5361SOL    HW116982   1.472   3.538   2.856
 5361SOL    HW216983   1.507   3.657   2.962
 5362SOL     OW16984   6.156   1.711   3.718
 5362SOL    HW116985   6.191   1.703   3.811
 5362SOL    HW216986   6.231   1.697   3.653
 5363SOL     OW16987   6.089   5.106   4.999
 5363SOL    HW116988   6.079   5.202   5.025
 5363SOL    HW216989   6.091   5.050   5.082
 5364SOL     OW16990   4.483   2.339   1.590
 5364SOL    HW116991   4.394   2.376   1.617
 5364SOL    HW216992   4.509   2.377   1.501
 5365SOL     OW16993   3.612   3.321   6.108
 5365SOL    HW116994   3.550   3.347   6.182
 5365SOL    HW216995   3.687   3.265   6.145
 5366SOL     OW16996   0.665   4.966   3.445
 5366SOL    HW116997   0.628   5.045   3.397
 5366SOL    HW216998   0.591   4.900   3.461
 5367SOL     OW16999   6.302   6.292   1.328
 5367SOL    HW117000   6.246   6.235   1.388
 5367SOL    HW217001   6.366   6.346   1.382
 5368SOL     OW17002   6.674   6.092   5.112
 5368SOL    HW117003   6.586   6.104   5.159
 5368SOL    HW217004   6.668   6.014   5.050
 5369SOL     OW17005   3.845   6.749   2.963
 5369SOL    HW117006   3.877   6.833   3.008
 5369SOL    HW217007   3.829   6.679   3.032
 5370SOL     OW17008   2.685   2.618   0.370
 5370SOL    HW117009   2.640   2.686   0.311
 5370SOL    HW217010   2.620   2.585   0.438
 5371SOL     OW17011   6.174   5.323   3.565
 5371SOL    HW117012   6.113   5.389   3.609
 5371SOL    HW217013   6.190   5.246   3.626
 5372SOL     OW17014   0.997   0.275   4.131
 5372SOL    HW117015   0.929   0.267   4.203
 5372SOL    HW217016   0.955   0.255   4.042
 5373SOL     OW17017   3.953   6.903   0.214
 5373SOL    HW117018   3.891   6.974   0.181
 5373SOL    HW217019   3.906   6.845   0.281
 5374SOL     OW17020   1.121   4.083   1.348
 5374SOL    HW117021   1.062   4.086   1.429
 5374SOL    HW217022   1.126   3.990   1.314
 5375SOL     OW17023   2.949   4.915   5.060
 5375SOL    HW117024   2.873   4.948   5.115
 5375SOL    HW217025   2.938   4.817   5.043
 5376SOL     OW17026   0.427   0.294   1.992
 5376SOL    HW117027   0.434   0.261   1.898
 5376SOL    HW217028   0.481   0.235   2.052
 5377SOL     OW17029   0.868   2.539   1.936
 5377SOL    HW117030   0.894   2.535   1.839
 5377SOL    HW217031   0.915   2.615   1.980
 5378SOL     OW17032   5.772   6.683   3.362
 5378SOL    HW117033   5.708   6.709   3.290
 5378SOL    HW217034   5.771   6.753   3.434
 5379SOL     OW17035   2.705   2.422   4.353
 5379SOL    HW117036   2.707   2.358   4.431
 5379SOL    HW217037   2.749   2.379   4.274
 5380SOL     OW17038   4.824   6.526   1.732
 5380SOL    HW117039   4.800   6.439   1.689
 5380SOL    HW217040   4.805   6.521   1.830
 5381SOL     OW17041   3.348   2.076   2.417
 5381SOL    HW117042   3.378   2.074   2.513
 5381SOL    HW217043   3.281   2.004   2.402
 5382SOL     OW17044   4.876   0.824   2.667
 5382SOL    HW117045   4.935   0.845   2.590
 5382SOL    HW217046   4.865   0.725   2.675
 5383SOL     OW17047   2.656   3.859   5.313
 5383SOL    HW117048   2.582   3.905   5.262
 5383SOL    HW217049   2.711   3.928   5.360
 5384SOL     OW17050   5.193   6.411   5.822
 5384SOL    HW117051   5.218   6.374   5.733
 5384SOL    HW217052   5.227   6.351   5.894
 5385SOL     OW17053   3.820   4.077   0.694
 5385SOL    HW117054   3.884   4.004   0.670
 5385SOL    HW217055   3.733   4.061   0.647
 5386SOL     OW17056   4.457   4.498   3.226
 5386SOL    HW117057   4.444   4.447   3.141
 5386SOL    HW217058   4.501   4.439   3.294
 5387SOL     OW17059   0.828   2.305   4.272
 5387SOL    HW117060   0.892   2.318   4.348
 5387SOL    HW217061   0.782   2.392   4.253
 5388SOL     OW17062   6.320   6.507   3.604
 5388SOL    HW117063   6.248   6.460   3.551
 5388SOL    HW217064   6.279   6.582   3.656
 5389SOL     OW17065   5.625   1.554   4.665
 5389SOL    HW117066   5.663   1.537   4.573
 5389SOL    HW217067   5.667   1.491   4.730
 5390SOL     OW17068   5.937   3.026   3.321
 5390SOL    HW117069   5.963   3.120   3.300
 5390SOL    HW217070   6.007   2.963   3.288
 5391SOL     OW17071   4.431   2.900   0.685
 5391SOL    HW117072   4.477   2.986   0.663
 5391SOL    HW217073   4.394   2.860   0.602
 5392SOL     OW17074   5.140   0.854   4.146
 5392SOL    HW117075   5.171   0.898   4.230
 5392SOL    HW217076   5.063   0.905   4.108
 5393SOL     OW17077   4.205   2.242   3.018
 5393SOL    HW117078   4.208   2.304   3.097
 5393SOL    HW217079   4.162   2.156   3.045
 5394SOL     OW17080   0.069   2.810   2.726
 5394SOL    HW117081   0.114   2.723   2.705
 5394SOL    HW217082   0.009   2.798   2.804
 5395SOL     OW17083   7.020   0.554   1.435
 5395SOL    HW117084   0.061   0.628   1.445
 5395SOL    HW217085   6.939   0.589   1.388
 5396SOL     OW17086   4.278   2.628   0.068
 5396SOL    HW117087   4.313   2.719   0.042
 5396SOL    HW217088   4.271   2.622   0.167
 5397SOL     OW17089   0.712   6.935   2.328
 5397SOL    HW117090   0.686   7.006   2.393
 5397SOL    HW217091   0.686   6.846   2.364
 5398SOL     OW17092   6.007   2.425   3.143
 5398SOL    HW117093   5.961   2.338   3.157
 5398SOL    HW217094   6.095   2.424   3.191
 5399SOL     OW17095   2.556   3.176   7.024
 5399SOL    HW117096   2.571   3.251   6.960
 5399SOL    HW217097   2.640   3.124   0.009
 5400SOL     OW17098   5.420   2.736   0.648
 5400SOL    HW117099   5.373   2.702   0.730
 5400SOL    HW217100   5.395   2.832   0.633
 5401SOL     OW17101   4.900   4.101   1.233
 5401SOL    HW117102   4.855   4.029   1.286
 5401SOL    HW217103   4.927   4.064   1.144
 5402SOL     OW17104   1.680   6.235   1.866
 5402SOL    HW117105   1.581   6.238   1.880
 5402SOL    HW217106   1.713   6.143   1.890
 5403SOL     OW17107   5.939   2.279   5.628
 5403SOL    HW117108   5.945   2.320   5.719
 5403SOL    HW217109   5.867   2.325   5.576
 5404SOL     OW17110   4.877   6.503   0.632
 5404SOL    HW117111   4.890   6.570   0.559
 5404SOL    HW217112   4.830   6.423   0.596
 5405SOL     OW17113   6.616   4.783   6.249
 5405SOL    HW117114   6.667   4.705   6.285
 5405SOL    HW217115   6.681   4.848   6.209
 5406SOL     OW17116   1.926   1.301   5.482
 5406SOL    HW117117   1.943   1.210   5.519
 5406SOL    HW217118   1.859   1.348   5.539
 5407SOL     OW17119   2.029   1.474   2.789
 5407SOL    HW117120   1.972   1.406   2.743
 5407SOL    HW217121   2.115   1.485   2.739
 5408SOL     OW17122   1.670   1.841   4.353
 5408SOL    HW117123   1.762   1.871   4.379
 5408SOL    HW217124   1.676   1.750   4.310
 5409SOL     OW17125   7.003   4.410   3.411
 5409SOL    HW117126   6.932   4.341   3.397
 5409SOL    HW217127   0.017   4.397   3.502
 5410SOL     OW17128   5.838   1.808   0.394
 5410SOL    HW117129   5.862   1.827   0.490
 5410SOL    HW217130   5.901   1.858   0.334
 5411SOL     OW17131   3.221   5.817   1.570
 5411SOL    HW117132   3.150   5.758   1.531
 5411SOL    HW217133   3.308   5.767   1.572
 5412SOL     OW17134   1.616   1.938   5.952
 5412SOL    HW117135   1.531   1.898   5.987
 5412SOL    HW217136   1.690   1.873   5.963
 5413SOL     OW17137   6.811   5.785   5.785
 5413SOL    HW117138   6.776   5.763   5.876
 5413SOL    HW217139   6.902   5.747   5.773
 5414SOL     OW17140   5.792   5.854   6.472
 5414SOL    HW117141   5.739   5.939   6.471
 5414SOL    HW217142   5.759   5.796   6.547
 5415SOL     OW17143   1.983   1.727   6.967
 5415SOL    HW117144   2.001   1.633   6.993
 5415SOL    HW217145   2.034   1.789   0.002
 5416SOL     OW17146   3.752   5.597   6.297
 5416SOL    HW117147   3.820   5.650   6.246
 5416SOL    HW217148   3.756   5.502   6.267
 5417SOL     OW17149   5.253   0.236   2.158
 5417SOL    HW117150   5.242   0.330   2.126
 5417SOL    HW217151   5.289   0.180   2.083
 5418SOL     OW17152   0.628   3.529   5.234
 5418SOL    HW117153   0.533   3.544   5.260
 5418SOL    HW217154   0.671   3.464   5.297
 5419SOL     OW17155   3.677   2.290   6.258
 5419SOL    HW117156   3.616   2.214   6.236
 5419SOL    HW217157   3.771   2.264   6.236
 5420SOL     OW17158   2.327   1.533   0.885
 5420SOL    HW117159   2.294   1.459   0.827
 5420SOL    HW217160   2.418   1.512   0.919
 5421SOL     OW17161   4.325   5.208   1.716
 5421SOL    HW117162   4.385   5.194   1.638
 5421SOL    HW217163   4.241   5.253   1.685
 5422SOL     OW17164   2.298   6.888   2.565
 5422SOL    HW117165   2.339   6.803   2.599
 5422SOL    HW217166   2.353   6.966   2.594
 5423SOL     OW17167   4.364   0.012   2.574
 5423SOL    HW117168   4.408   6.950   2.592
 5423SOL    HW217169   4.299   0.002   2.499
 5424SOL     OW17170   3.462   3.359   4.976
 5424SOL    HW117171   3.401   3.404   5.041
 5424SOL    HW217172   3.413   3.345   4.890
 5425SOL     OW17173   1.085   5.223   5.173
 5425SOL    HW117174   1.151   5.265   5.235
 5425SOL    HW217175   1.109   5.127   5.158
 5426SOL     OW17176   1.098   4.415   0.338
 5426SOL    HW117177   1.094   4.364   0.252
 5426SOL    HW217178   1.108   4.512   0.319
 5427SOL     OW17179   4.809   1.743   0.324
 5427SOL    HW117180   4.801   1.819   0.259
 5427SOL    HW217181   4.729   1.740   0.383
 5428SOL     OW17182   4.567   5.809   2.843
 5428SOL    HW117183   4.598   5.783   2.934
 5428SOL    HW217184   4.622   5.761   2.774
 5429SOL     OW17185   2.676   6.653   3.455
 5429SOL    HW117186   2.632   6.713   3.521
 5429SOL    HW217187   2.709   6.707   3.377
 5430SOL     OW17188   1.042   4.397   5.382
 5430SOL    HW117189   1.032   4.476   5.443
 5430SOL    HW217190   1.052   4.314   5.436
 5431SOL     OW17191   5.133   4.480   1.413
 5431SOL    HW117192   5.045   4.436   1.433
 5431SOL    HW217193   5.191   4.478   1.495
 5432SOL     OW17194   0.472   5.276   5.863
 5432SOL    HW117195   0.507   5.361   5.823
 5432SOL    HW217196   0.483   5.279   5.962
 5433SOL     OW17197   2.837   0.059   1.205
 5433SOL    HW117198   2.906   0.069   1.276
 5433SOL    HW217199   2.821   6.987   1.187
 5434SOL     OW17200   5.259   5.773   4.275
 5434SOL    HW117201   5.323   5.714   4.227
 5434SOL    HW217202   5.198   5.718   4.332
 5435SOL     OW17203   6.616   3.560   6.952
 5435SOL    HW117204   6.714   3.562   6.973
 5435SOL    HW217205   6.573   3.643   6.988
 5436SOL     OW17206   1.195   4.728   1.191
 5436SOL    HW117207   1.190   4.822   1.224
 5436SOL    HW217208   1.106   4.683   1.205
 5437SOL     OW17209   3.933   6.489   6.358
 5437SOL    HW117210   3.880   6.560   6.313
 5437SOL    HW217211   3.960   6.420   6.292
 5438SOL     OW17212   5.389   6.609   2.754
 5438SOL    HW117213   5.306   6.625   2.700
 5438SOL    HW217214   5.433   6.524   2.723
 5439SOL     OW17215   1.431   3.837   1.359
 5439SOL    HW117216   1.476   3.775   1.423
 5439SOL    HW217217   1.407   3.788   1.276
 5440SOL     OW17218   6.286   6.732   3.980
 5440SOL    HW117219   6.287   6.638   4.013
 5440SOL    HW217220   6.198   6.774   4.002
 5441SOL     OW17221   5.455   0.967   5.018
 5441SOL    HW117222   5.429   1.063   5.027
 5441SOL    HW217223   5.453   0.923   5.108
 5442SOL     OW17224   2.768   0.636   6.641
 5442SOL    HW117225   2.763   0.707   6.570
 5442SOL    HW217226   2.831   0.665   6.712
 5443SOL     OW17227   5.765   0.921   3.440
 5443SOL    HW117228   5.771   0.883   3.533
 5443SOL    HW217229   5.854   0.913   3.395
 5444SOL     OW17230   1.016   1.297   6.264
 5444SOL    HW117231   0.960   1.244   6.201
 5444SOL    HW217232   1.005   1.262   6.357
 5445SOL     OW17233   5.665   6.692   4.765
 5445SOL    HW117234   5.665   6.789   4.791
 5445SOL    HW217235   5.570   6.661   4.756
 5446SOL     OW17236   2.329   5.052   5.978
 5446SOL    HW117237   2.362   5.046   5.884
 5446SOL    HW217238   2.279   4.968   6.001
 5447SOL     OW17239   6.508   2.009   1.635
 5447SOL    HW117240   6.409   1.999   1.644
 5447SOL    HW217241   6.548   1.921   1.609
 5448SOL     OW17242   6.138   4.805   1.519
 5448SOL    HW117243   6.137   4.785   1.421
 5448SOL    HW217244   6.232   4.825   1.548
 5449SOL     OW17245   2.237   0.320   2.226
 5449SOL    HW117246   2.187   0.329   2.140
 5449SOL    HW217247   2.237   0.224   2.254
 5450SOL     OW17248   4.592   5.901   2.197
 5450SOL    HW117249   4.568   5.917   2.102
 5450SOL    HW217250   4.567   5.808   2.223
 5451SOL     OW17251   0.649   5.884   4.118
 5451SOL    HW117252   0.573   5.942   4.090
 5451SOL    HW217253   0.736   5.931   4.102
 5452SOL     OW17254   2.181   4.045   3.036
 5452SOL    HW117255   2.117   4.005   2.970
 5452SOL    HW217256   2.173   3.997   3.123
 5453SOL     OW17257   5.924   4.633   4.309
 5453SOL    HW117258   6.011   4.616   4.262
 5453SOL    HW217259   5.876   4.708   4.262
 5454SOL     OW17260   5.946   3.693   2.301
 5454SOL    HW117261   5.938   3.593   2.300
 5454SOL    HW217262   5.906   3.730   2.218
 5455SOL     OW17263   2.505   2.102   3.363
 5455SOL    HW117264   2.450   2.169   3.413
 5455SOL    HW217265   2.527   2.026   3.423
 5456SOL     OW17266   5.045   2.902   0.658
 5456SOL    HW117267   5.036   2.913   0.559
 5456SOL    HW217268   5.030   2.806   0.682
 5457SOL     OW17269   6.787   1.577   0.413
 5457SOL    HW117270   6.803   1.479   0.419
 5457SOL    HW217271   6.853   1.619   0.350
 5458SOL     OW17272   6.463   5.035   5.887
 5458SOL    HW117273   6.492   4.950   5.930
 5458SOL    HW217274   6.410   5.014   5.805
 5459SOL     OW17275   2.495   3.670   5.459
 5459SOL    HW117276   2.418   3.664   5.396
 5459SOL    HW217277   2.556   3.744   5.430
 5460SOL     OW17278   0.347   0.828   1.581
 5460SOL    HW117279   0.414   0.776   1.634
 5460SOL    HW217280   0.351   0.924   1.609
 5461SOL     OW17281   5.633   1.333   6.660
 5461SOL    HW117282   5.644   1.267   6.586
 5461SOL    HW217283   5.550   1.386   6.645
 5462SOL     OW17284   5.050   5.429   6.514
 5462SOL    HW117285   5.132   5.485   6.531
 5462SOL    HW217286   5.077   5.334   6.500
 5463SOL     OW17287   2.231   5.509   6.786
 5463SOL    HW117288   2.196   5.583   6.843
 5463SOL    HW217289   2.230   5.539   6.690
 5464SOL     OW17290   1.886   5.550   4.151
 5464SOL    HW117291   1.840   5.610   4.215
 5464SOL    HW217292   1.963   5.598   4.109
 5465SOL     OW17293   0.777   0.868   5.010
 5465SOL    HW117294   0.873   0.861   4.983
 5465SOL    HW217295   0.727   0.922   4.942
 5466SOL     OW17296   4.960   2.426   5.114
 5466SOL    HW117297   5.052   2.425   5.154
 5466SOL    HW217298   4.959   2.370   5.031
 5467SOL     OW17299   5.665   3.845   4.256
 5467SOL    HW117300   5.585   3.870   4.202
 5467SOL    HW217301   5.668   3.902   4.339
 5468SOL     OW17302   0.399   3.032   1.479
 5468SOL    HW117303   0.424   3.127   1.464
 5468SOL    HW217304   0.482   2.976   1.484
 5469SOL     OW17305   4.308   1.662   3.644
 5469SOL    HW117306   4.280   1.567   3.634
 5469SOL    HW217307   4.367   1.688   3.568
 5470SOL     OW17308   2.725   4.792   4.066
 5470SOL    HW117309   2.776   4.876   4.049
 5470SOL    HW217310   2.715   4.740   3.980
 5471SOL     OW17311   5.424   0.541   3.315
 5471SOL    HW117312   5.347   0.605   3.321
 5471SOL    HW217313   5.415   0.471   3.387
 5472SOL     OW17314   2.691   3.983   6.961
 5472SOL    HW117315   2.598   3.992   6.927
 5472SOL    HW217316   2.730   3.896   6.932
 5473SOL     OW17317   2.795   4.693   2.327
 5473SOL    HW117318   2.830   4.731   2.413
 5473SOL    HW217319   2.871   4.666   2.269
 5474SOL     OW17320   0.862   5.002   1.735
 5474SOL    HW117321   0.801   5.060   1.680
 5474SOL    HW217322   0.834   5.005   1.831
 5475SOL     OW17323   0.502   0.785   5.318
 5475SOL    HW117324   0.413   0.741   5.330
 5475SOL    HW217325   0.541   0.757   5.231
 5476SOL     OW17326   2.279   1.082   5.151
 5476SOL    HW117327   2.365   1.132   5.147
 5476SOL    HW217328   2.253   1.069   5.247
 5477SOL     OW17329   2.129   3.885   3.261
 5477SOL    HW117330   2.057   3.823   3.231
 5477SOL    HW217331   2.175   3.846   3.341
 5478SOL     OW17332   6.380   3.526   5.895
 5478SOL    HW117333   6.371   3.524   5.995
 5478SOL    HW217334   6.368   3.620   5.863
 5479SOL     OW17335   4.932   3.322   3.789
 5479SOL    HW117336   4.928   3.245   3.853
 5479SOL    HW217337   4.927   3.408   3.840
 5480SOL     OW17338   1.291   3.260   4.958
 5480SOL    HW117339   1.293   3.359   4.947
 5480SOL    HW217340   1.383   3.227   4.980
 5481SOL     OW17341   4.494   1.157   0.279
 5481SOL    HW117342   4.530   1.130   0.368
 5481SOL    HW217343   4.563   1.210   0.230
 5482SOL     OW17344   5.014   4.200   2.429
 5482SOL    HW117345   4.919   4.199   2.459
 5482SOL    HW217346   5.019   4.163   2.336
 5483SOL     OW17347   5.950   1.852   0.632
 5483SOL    HW117348   5.933   1.849   0.731
 5483SOL    HW217349   6.046   1.873   0.615
 5484SOL     OW17350   6.376   0.428   5.154
 5484SOL    HW117351   6.461   0.385   5.184
 5484SOL    HW217352   6.299   0.378   5.194
 5485SOL     OW17353   2.881   1.010   4.213
 5485SOL    HW117354   2.957   1.064   4.177
 5485SOL    HW217355   2.872   0.926   4.161
 5486SOL     OW17356   0.866   0.136   3.917
 5486SOL    HW117357   0.809   0.168   3.842
 5486SOL    HW217358   0.814   0.075   3.976
 5487SOL     OW17359   4.976   5.386   1.069
 5487SOL    HW117360   4.890   5.335   1.077
 5487SOL    HW217361   5.003   5.420   1.159
 5488SOL     OW17362   5.183   0.830   6.080
 5488SOL    HW117363   5.239   0.816   6.162
 5488SOL    HW217364   5.125   0.910   6.092
 5489SOL     OW17365   6.857   3.815   2.394
 5489SOL    HW117366   6.937   3.802   2.335
 5489SOL    HW217367   6.789   3.744   2.373
 5490SOL     OW17368   3.024   1.637   6.335
 5490SOL    HW117369   3.066   1.719   6.375
 5490SOL    HW217370   2.946   1.609   6.391
 5491SOL     OW17371   0.036   5.603   2.819
 5491SOL    HW117372   0.047   5.699   2.846
 5491SOL    HW217373   6.965   5.577   2.824
 5492SOL     OW17374   1.059   0.967   4.810
 5492SOL    HW117375   1.103   0.898   4.752
 5492SOL    HW217376   1.032   1.045   4.754
 5493SOL     OW17377   3.680   1.739   0.828
 5493SOL    HW117378   3.637   1.745   0.918
 5493SOL    HW217379   3.708   1.645   0.811
 5494SOL     OW17380   4.950   3.228   2.635
 5494SOL    HW117381   5.026   3.166   2.615
 5494SOL    HW217382   4.904   3.252   2.549
 5495SOL     OW17383   3.673   2.919   3.688
 5495SOL    HW117384   3.597   2.938   3.626
 5495SOL    HW217385   3.638   2.892   3.777
 5496SOL     OW17386   4.896   5.703   1.835
 5496SOL    HW117387   4.826   5.655   1.889
 5496SOL    HW217388   4.918   5.649   1.754
 5497SOL     OW17389   5.575   0.164   0.144
 5497SOL    HW117390   5.646   0.192   0.079
 5497SOL    HW217391   5.535   0.077   0.115
 5498SOL     OW17392   4.438   1.755   4.327
 5498SOL    HW117393   4.420   1.696   4.248
 5498SOL    HW217394   4.359   1.815   4.342
 5499SOL     OW17395   0.164   0.604   4.960
 5499SOL    HW117396   0.156   0.530   5.027
 5499SOL    HW217397   0.241   0.586   4.899
 5500SOL     OW17398   2.444   6.432   0.932
 5500SOL    HW117399   2.391   6.429   1.016
 5500SOL    HW217400   2.533   6.388   0.948
 5501SOL     OW17401   3.116   0.510   2.511
 5501SOL    HW117402   3.063   0.548   2.435
 5501SOL    HW217403   3.058   0.504   2.592
 5502SOL     OW17404   4.506   3.495   0.682
 5502SOL    HW117405   4.569   3.436   0.733
 5502SOL    HW217406   4.550   3.523   0.597
 5503SOL     OW17407   0.029   0.035   3.848
 5503SOL    HW117408   7.017   0.090   3.772
 5503SOL    HW217409   7.004   0.055   3.932
 5504SOL     OW17410   2.842   2.245   4.547
 5504SOL    HW117411   2.805   2.215   4.634
 5504SOL    HW217412   2.906   2.176   4.512
 5505SOL     OW17413   3.279   4.904   0.937
 5505SOL    HW117414   3.245   4.825   0.886
 5505SOL    HW217415   3.245   4.988   0.894
 5506SOL     OW17416   0.450   6.745   5.788
 5506SOL    HW117417   0.548   6.747   5.806
 5506SOL    HW217418   0.428   6.666   5.731
 5507SOL     OW17419   3.123   4.937   5.369
 5507SOL    HW117420   3.053   5.007   5.357
 5507SOL    HW217421   3.117   4.871   5.294
 5508SOL     OW17422   1.565   0.768   5.402
 5508SOL    HW117423   1.552   0.690   5.462
 5508SOL    HW217424   1.566   0.737   5.307
 5509SOL     OW17425   6.672   0.244   6.607
 5509SOL    HW117426   6.604   0.185   6.649
 5509SOL    HW217427   6.720   0.295   6.678
 5510SOL     OW17428   6.595   0.340   6.350
 5510SOL    HW117429   6.626   0.315   6.441
 5510SOL    HW217430   6.500   0.371   6.354
 5511SOL     OW17431   0.180   2.861   1.559
 5511SOL    HW117432   0.238   2.780   1.572
 5511SOL    HW217433   0.237   2.943   1.554
 5512SOL     OW17434   6.225   0.509   0.417
 5512SOL    HW117435   6.224   0.517   0.317
 5512SOL    HW217436   6.197   0.417   0.444
 5513SOL     OW17437   2.506   5.939   4.780
 5513SOL    HW117438   2.577   5.914   4.846
 5513SOL    HW217439   2.520   6.033   4.750
 5514SOL     OW17440   6.207   5.952   3.614
 5514SOL    HW117441   6.274   6.024   3.632
 5514SOL    HW217442   6.252   5.874   3.570
 5515SOL     OW17443   0.000   4.092   3.053
 5515SOL    HW117444   0.024   4.144   2.970
 5515SOL    HW217445   0.073   4.102   3.121
 5516SOL     OW17446   1.060   2.476   0.291
 5516SOL    HW117447   1.004   2.541   0.240
 5516SOL    HW217448   1.094   2.406   0.228
 5517SOL     OW17449   2.763   1.156   2.642
 5517SOL    HW117450   2.839   1.106   2.601
 5517SOL    HW217451   2.711   1.094   2.701
 5518SOL     OW17452   5.464   4.055   5.462
 5518SOL    HW117453   5.475   4.140   5.513
 5518SOL    HW217454   5.523   4.057   5.381
 5519SOL     OW17455   5.492   4.277   2.307
 5519SOL    HW117456   5.529   4.355   2.356
 5519SOL    HW217457   5.476   4.202   2.370
 5520SOL     OW17458   1.414   2.488   1.116
 5520SOL    HW117459   1.385   2.519   1.026
 5520SOL    HW217460   1.419   2.566   1.178
 5521SOL     OW17461   5.381   5.097   6.997
 5521SOL    HW117462   5.386   5.192   6.966
 5521SOL    HW217463   5.317   5.090   0.049
 5522SOL     OW17464   2.112   2.297   1.933
 5522SOL    HW117465   2.187   2.251   1.981
 5522SOL    HW217466   2.032   2.300   1.993
 5523SOL     OW17467   3.054   6.778   1.594
 5523SOL    HW117468   3.042   6.825   1.682
 5523SOL    HW217469   3.132   6.818   1.546
 5524SOL     OW17470   6.273   6.631   5.687
 5524SOL    HW117471   6.284   6.577   5.770
 5524SOL    HW217472   6.308   6.580   5.609
 5525SOL     OW17473   6.292   5.817   3.095
 5525SOL    HW117474   6.359   5.853   3.158
 5525SOL    HW217475   6.323   5.728   3.060
 5526SOL     OW17476   5.132   2.870   4.986
 5526SOL    HW117477   5.187   2.909   5.059
 5526SOL    HW217478   5.071   2.800   5.024
 5527SOL     OW17479   1.961   3.371   0.031
 5527SOL    HW117480   2.016   3.307   7.002
 5527SOL    HW217481   1.867   3.371   7.023
 5528SOL     OW17482   6.660   3.048   2.611
 5528SOL    HW117483   6.596   3.100   2.555
 5528SOL    HW217484   6.610   2.998   2.682
 5529SOL     OW17485   1.149   0.817   3.769
 5529SOL    HW117486   1.215   0.742   3.760
 5529SOL    HW217487   1.180   0.895   3.715
 5530SOL     OW17488   6.386   2.856   6.986
 5530SOL    HW117489   6.430   2.849   0.050
 5530SOL    HW217490   6.307   2.918   6.993
 5531SOL     OW17491   1.895   2.991   0.137
 5531SOL    HW117492   1.807   2.961   0.099
 5531SOL    HW217493   1.884   3.079   0.182
 5532SOL     OW17494   2.361   2.407   0.995
 5532SOL    HW117495   2.408   2.364   1.072
 5532SOL    HW217496   2.405   2.495   0.975
 5533SOL     OW17497   3.763   0.272   0.937
 5533SOL    HW117498   3.727   0.242   1.025
 5533SOL    HW217499   3.743   0.204   0.867
 5534SOL     OW17500   0.226   3.869   5.239
 5534SOL    HW117501   0.214   3.779   5.195
 5534SOL    HW217502   0.312   3.869   5.290
 5535SOL     OW17503   5.500   3.696   3.341
 5535SOL    HW117504   5.473   3.785   3.304
 5535SOL    HW217505   5.418   3.646   3.370
 5536SOL     OW17506   2.569   0.736   4.150
 5536SOL    HW117507   2.552   0.643   4.119
 5536SOL    HW217508   2.537   0.800   4.079
 5537SOL     OW17509   3.789   0.789   4.689
 5537SOL    HW117510   3.800   0.693   4.716
 5537SOL    HW217511   3.841   0.847   4.752
 5538SOL     OW17512   5.835   2.270   2.414
 5538SOL    HW117513   5.738   2.246   2.408
 5538SOL    HW217514   5.890   2.202   2.364
 5539SOL     OW17515   2.384   0.260   6.619
 5539SOL    HW117516   2.331   0.305   6.691
 5539SOL    HW217517   2.338   0.271   6.531
 5540SOL     OW17518   5.629   6.745   5.492
 5540SOL    HW117519   5.661   6.831   5.453
 5540SOL    HW217520   5.697   6.709   5.556
 5541SOL     OW17521   4.685   2.723   0.051
 5541SOL    HW117522   4.763   2.783   0.066
 5541SOL    HW217523   4.666   2.672   0.135
 5542SOL     OW17524   5.089   4.413   0.092
 5542SOL    HW117525   5.073   4.396   0.190
 5542SOL    HW217526   5.007   4.453   0.052
 5543SOL     OW17527   1.139   0.272   6.607
 5543SOL    HW117528   1.212   0.319   6.558
 5543SOL    HW217529   1.056   0.273   6.552
 5544SOL     OW17530   4.076   5.034   0.703
 5544SOL    HW117531   4.014   5.093   0.755
 5544SOL    HW217532   4.124   5.088   0.634
 5545SOL     OW17533   5.570   1.420   3.046
 5545SOL    HW117534   5.497   1.433   2.979
 5545SOL    HW217535   5.541   1.456   3.135
 5546SOL     OW17536   0.127   5.482   4.672
 5546SOL    HW117537   0.198   5.443   4.613
 5546SOL    HW217538   0.133   5.441   4.763
 5547SOL     OW17539   5.190   1.510   5.088
 5547SOL    HW117540   5.274   1.502   5.034
 5547SOL    HW217541   5.184   1.602   5.127
 5548SOL     OW17542   0.260   4.107   5.089
 5548SOL    HW117543   0.327   4.124   5.016
 5548SOL    HW217544   0.276   4.016   5.127
 5549SOL     OW17545   3.517   2.907   0.623
 5549SOL    HW117546   3.588   2.899   0.552
 5549SOL    HW217547   3.526   2.831   0.688
 5550SOL     OW17548   2.446   4.132   1.485
 5550SOL    HW117549   2.478   4.109   1.393
 5550SOL    HW217550   2.455   4.230   1.500
 5551SOL     OW17551   1.462   4.702   2.657
 5551SOL    HW117552   1.481   4.604   2.671
 5551SOL    HW217553   1.367   4.721   2.683
 5552SOL     OW17554   1.079   0.222   0.072
 5552SOL    HW117555   1.158   0.283   0.065
 5552SOL    HW217556   1.097   0.139   0.020
 5553SOL     OW17557   5.271   0.497   6.867
 5553SOL    HW117558   5.225   0.527   6.950
 5553SOL    HW217559   5.290   0.399   6.873
 5554SOL     OW17560   6.741   2.418   1.577
 5554SOL    HW117561   6.790   2.331   1.574
 5554SOL    HW217562   6.645   2.402   1.599
 5555SOL     OW17563   1.202   5.203   1.977
 5555SOL    HW117564   1.170   5.290   1.941
 5555SOL    HW217565   1.267   5.162   1.913
 5556SOL     OW17566   0.291   0.990   4.630
 5556SOL    HW117567   0.322   0.946   4.714
 5556SOL    HW217568   0.370   1.024   4.580
 5557SOL     OW17569   3.766   6.073   2.543
 5557SOL    HW117570   3.808   5.997   2.593
 5557SOL    HW217571   3.837   6.132   2.506
 5558SOL     OW17572   4.532   3.946   6.513
 5558SOL    HW117573   4.510   4.021   6.576
 5558SOL    HW217574   4.517   3.859   6.559
 5559SOL     OW17575   3.585   0.746   2.530
 5559SOL    HW117576   3.631   0.759   2.442
 5559SOL    HW217577   3.620   0.664   2.574
 5560SOL     OW17578   0.053   5.273   3.810
 5560SOL    HW117579   0.013   5.314   3.891
 5560SOL    HW217580   0.142   5.316   3.791
 5561SOL     OW17581   3.636   0.018   3.651
 5561SOL    HW117582   3.706   6.973   3.644
 5561SOL    HW217583   3.668   0.090   3.713
 5562SOL     OW17584   3.772   3.362   0.510
 5562SOL    HW117585   3.774   3.386   0.413
 5562SOL    HW217586   3.853   3.400   0.555
 5563SOL     OW17587   2.557   4.769   2.232
 5563SOL    HW117588   2.644   4.729   2.264
 5563SOL    HW217589   2.524   4.717   2.154
 5564SOL     OW17590   4.668   7.015   6.293
 5564SOL    HW117591   4.686   7.024   6.391
 5564SOL    HW217592   4.570   7.001   6.278
 5565SOL     OW17593   4.075   1.646   5.966
 5565SOL    HW117594   4.169   1.632   5.935
 5565SOL    HW217595   4.027   1.558   5.968
 5566SOL     OW17596   1.147   5.107   5.878
 5566SOL    HW117597   1.217   5.173   5.904
 5566SOL    HW217598   1.103   5.135   5.793
 5567SOL     OW17599   0.287   4.796   0.239
 5567SOL    HW117600   0.347   4.718   0.259
 5567SOL    HW217601   0.209   4.765   0.185
 5568SOL     OW17602   4.757   4.786   1.401
 5568SOL    HW117603   4.709   4.839   1.471
 5568SOL    HW217604   4.692   4.758   1.330
 5569SOL     OW17605   2.378   2.729   2.959
 5569SOL    HW117606   2.442   2.653   2.967
 5569SOL    HW217607   2.366   2.772   3.048
 5570SOL     OW17608   6.678   3.807   1.323
 5570SOL    HW117609   6.592   3.761   1.303
 5570SOL    HW217610   6.754   3.743   1.309
 5571SOL     OW17611   6.509   4.419   0.884
 5571SOL    HW117612   6.433   4.478   0.911
 5571SOL    HW217613   6.530   4.355   0.958
 5572SOL     OW17614   1.622   4.184   5.003
 5572SOL    HW117615   1.698   4.127   5.036
 5572SOL    HW217616   1.535   4.139   5.025
 5573SOL     OW17617   3.218   5.432   4.213
 5573SOL    HW117618   3.252   5.437   4.119
 5573SOL    HW217619   3.129   5.387   4.214
 5574SOL     OW17620   0.956   1.780   5.138
 5574SOL    HW117621   1.006   1.822   5.063
 5574SOL    HW217622   0.990   1.686   5.152
 5575SOL     OW17623   0.193   0.197   1.556
 5575SOL    HW117624   0.116   0.240   1.509
 5575SOL    HW217625   0.195   0.099   1.535
 5576SOL     OW17626   1.691   5.088   3.335
 5576SOL    HW117627   1.699   4.989   3.344
 5576SOL    HW217628   1.595   5.112   3.318
 5577SOL     OW17629   1.917   3.257   6.269
 5577SOL    HW117630   1.918   3.266   6.169
 5577SOL    HW217631   1.911   3.160   6.294
 5578SOL     OW17632   3.558   4.182   3.788
 5578SOL    HW117633   3.657   4.186   3.806
 5578SOL    HW217634   3.508   4.212   3.868
 5579SOL     OW17635   6.577   2.913   2.061
 5579SOL    HW117636   6.575   2.976   1.983
 5579SOL    HW217637   6.628   2.831   2.035
 5580SOL     OW17638   5.351   2.223   5.718
 5580SOL    HW117639   5.380   2.262   5.631
 5580SOL    HW217640   5.431   2.203   5.774
 5581SOL     OW17641   1.084   2.277   6.315
 5581SOL    HW117642   1.019   2.353   6.317
 5581SOL    HW217643   1.163   2.302   6.259
 5582SOL     OW17644   3.015   2.635   6.015
 5582SOL    HW117645   3.001   2.723   6.061
 5582SOL    HW217646   3.102   2.637   5.966
 5583SOL     OW17647   5.644   0.194   0.706
 5583SOL    HW117648   5.696   0.278   0.692
 5583SOL    HW217649   5.664   0.157   0.797
 5584SOL     OW17650   1.715   2.980   4.437
 5584SOL    HW117651   1.726   3.069   4.480
 5584SOL    HW217652   1.805   2.945   4.411
 5585SOL     OW17653   5.531   4.928   1.570
 5585SOL    HW117654   5.596   4.998   1.541
 5585SOL    HW217655   5.463   4.969   1.631
 5586SOL     OW17656   0.664   4.932   0.517
 5586SOL    HW117657   0.751   4.960   0.476
 5586SOL    HW217658   0.653   4.833   0.508
 5587SOL     OW17659   6.382   0.938   5.950
 5587SOL    HW117660   6.373   1.037   5.961
 5587SOL    HW217661   6.445   0.902   6.019
 5588SOL     OW17662   3.441   6.668   0.982
 5588SOL    HW117663   3.421   6.640   1.075
 5588SOL    HW217664   3.365   6.644   0.922
 5589SOL     OW17665   6.512   4.586   6.057
 5589SOL    HW117666   6.472   4.510   6.109
 5589SOL    HW217667   6.515   4.667   6.115
 5590SOL     OW17668   6.041   5.529   2.865
 5590SOL    HW117669   6.051   5.442   2.914
 5590SOL    HW217670   6.129   5.554   2.824
 5591SOL     OW17671   5.183   1.375   1.846
 5591SOL    HW117672   5.257   1.328   1.894
 5591SOL    HW217673   5.207   1.384   1.749
 5592SOL     OW17674   0.626   4.483   3.149
 5592SOL    HW117675   0.608   4.448   3.057
 5592SOL    HW217676   0.597   4.579   3.154
 5593SOL     OW17677   0.681   3.690   0.437
 5593SOL    HW117678   0.761   3.749   0.448
 5593SOL    HW217679   0.689   3.612   0.499
 5594SOL     OW17680   6.251   1.803   5.750
 5594SOL    HW117681   6.324   1.753   5.796
 5594SOL    HW217682   6.241   1.770   5.656
 5595SOL     OW17683   0.597   2.443   0.389
 5595SOL    HW117684   0.647   2.484   0.313
 5595SOL    HW217685   0.531   2.509   0.425
 5596SOL     OW17686   3.119   5.775   3.359
 5596SOL    HW117687   3.067   5.758   3.275
 5596SOL    HW217688   3.056   5.800   3.433
 5597SOL     OW17689   4.910   3.292   1.932
 5597SOL    HW117690   4.862   3.227   1.990
 5597SOL    HW217691   4.896   3.269   1.836
 5598SOL     OW17692   5.134   0.860   5.163
 5598SOL    HW117693   5.061   0.819   5.218
 5598SOL    HW217694   5.222   0.845   5.207
 5599SOL     OW17695   0.871   0.847   3.293
 5599SOL    HW117696   0.922   0.761   3.297
 5599SOL    HW217697   0.872   0.890   3.383
 5600SOL     OW17698   1.687   2.533   5.170
 5600SOL    HW117699   1.704   2.620   5.124
 5600SOL    HW217700   1.770   2.477   5.168
 5601SOL     OW17701   2.342   1.112   6.310
 5601SOL    HW117702   2.375   1.092   6.402
 5601SOL    HW217703   2.319   1.209   6.303
 5602SOL     OW17704   1.727   0.736   0.110
 5602SOL    HW117705   1.792   0.674   0.154
 5602SOL    HW217706   1.776   0.798   0.049
 5603SOL     OW17707   6.058   4.343   5.549
 5603SOL    HW117708   6.132   4.409   5.565
 5603SOL    HW217709   6.091   4.270   5.489
 5604SOL     OW17710   5.982   1.500   5.997
 5604SOL    HW117711   5.985   1.413   6.047
 5604SOL    HW217712   5.931   1.488   5.912
 5605SOL     OW17713   0.837   1.876   6.745
 5605SOL    HW117714   0.798   1.860   6.654
 5605SOL    HW217715   0.846   1.974   6.761
 5606SOL     OW17716   5.978   6.688   3.000
 5606SOL    HW117717   5.942   6.773   2.961
 5606SOL    HW217718   6.039   6.644   2.934
 5607SOL     OW17719   5.745   0.439   1.089
 5607SOL    HW117720   5.730   0.349   1.131
 5607SOL    HW217721   5.841   0.464   1.098
 5608SOL     OW17722   4.147   6.112   5.477
 5608SOL    HW117723   4.231   6.111   5.424
 5608SOL    HW217724   4.099   6.024   5.466
 5609SOL     OW17725   1.196   5.575   5.809
 5609SOL    HW117726   1.254   5.654   5.790
 5609SOL    HW217727   1.111   5.584   5.757
 5610SOL     OW17728   4.331   0.686   6.277
 5610SOL    HW117729   4.423   0.680   6.314
 5610SOL    HW217730   4.317   0.776   6.235
 5611SOL     OW17731   2.228   4.186   4.245
 5611SOL    HW117732   2.305   4.156   4.189
 5611SOL    HW217733   2.143   4.171   4.194
 5612SOL     OW17734   3.156   6.731   4.519
 5612SOL    HW117735   3.078   6.722   4.581
 5612SOL    HW217736   3.203   6.643   4.512
 5613SOL     OW17737   3.644   5.517   1.525
 5613SOL    HW117738   3.547   5.541   1.522
 5613SOL    HW217739   3.684   5.547   1.612
 5614SOL     OW17740   5.170   2.109   4.223
 5614SOL    HW117741   5.221   2.105   4.308
 5614SOL    HW217742   5.086   2.056   4.232
 5615SOL     OW17743   1.836   1.296   1.571
 5615SOL    HW117744   1.799   1.232   1.503
 5615SOL    HW217745   1.778   1.295   1.652
 5616SOL     OW17746   1.899   0.031   4.950
 5616SOL    HW117747   1.977   0.093   4.934
 5616SOL    HW217748   1.924   6.964   4.923
 5617SOL     OW17749   0.896   0.616   5.291
 5617SOL    HW117750   0.963   0.572   5.352
 5617SOL    HW217751   0.914   0.714   5.287
 5618SOL     OW17752   6.427   5.044   3.166
 5618SOL    HW117753   6.400   5.020   3.260
 5618SOL    HW217754   6.364   5.001   3.102
 5619SOL     OW17755   2.081   3.937   5.107
 5619SOL    HW117756   2.169   3.984   5.107
 5619SOL    HW217757   2.014   3.990   5.054
 5620SOL     OW17758   4.099   1.339   0.180
 5620SOL    HW117759   4.042   1.372   0.255
 5620SOL    HW217760   4.160   1.412   0.150
 5621SOL     OW17761   2.517   1.562   6.918
 5621SOL    HW117762   2.465   1.604   6.843
 5621SOL    HW217763   2.517   1.463   6.907
 5622SOL     OW17764   5.441   0.868   5.278
 5622SOL    HW117765   5.426   0.774   5.306
 5622SOL    HW217766   5.448   0.927   5.359
 5623SOL     OW17767   0.739   6.243   0.226
 5623SOL    HW117768   0.693   6.273   0.309
 5623SOL    HW217769   0.734   6.143   0.219
 5624SOL     OW17770   0.402   3.977   2.007
 5624SOL    HW117771   0.404   3.992   1.908
 5624SOL    HW217772   0.312   4.001   2.043
 5625SOL     OW17773   6.360   2.202   5.293
 5625SOL    HW117774   6.274   2.157   5.270
 5625SOL    HW217775   6.425   2.192   5.217
 5626SOL     OW17776   5.229   6.367   4.303
 5626SOL    HW117777   5.203   6.277   4.336
 5626SOL    HW217778   5.148   6.424   4.293
 5627SOL     OW17779   1.036   6.764   1.120
 5627SOL    HW117780   1.115   6.808   1.164
 5627SOL    HW217781   0.954   6.818   1.139
 5628SOL     OW17782   1.503   1.302   4.119
 5628SOL    HW117783   1.421   1.317   4.064
 5628SOL    HW217784   1.584   1.306   4.061
 5629SOL     OW17785   3.735   2.937   3.405
 5629SOL    HW117786   3.759   2.887   3.489
 5629SOL    HW217787   3.817   2.951   3.350
 5630SOL     OW17788   6.373   4.350   1.262
 5630SOL    HW117789   6.399   4.288   1.188
 5630SOL    HW217790   6.439   4.340   1.338
 5631SOL     OW17791   5.504   1.588   5.966
 5631SOL    HW117792   5.414   1.597   6.008
 5631SOL    HW217793   5.501   1.517   5.895
 5632SOL     OW17794   2.831   2.342   7.012
 5632SOL    HW117795   2.788   2.328   0.076
 5632SOL    HW217796   2.878   2.430   7.012
 5633SOL     OW17797   0.026   3.187   5.570
 5633SOL    HW117798   0.106   3.129   5.553
 5633SOL    HW217799   6.968   3.137   5.547
 5634SOL     OW17800   5.060   5.925   4.535
 5634SOL    HW117801   5.116   5.844   4.551
 5634SOL    HW217802   5.031   5.928   4.440
 5635SOL     OW17803   3.481   1.791   6.062
 5635SOL    HW117804   3.453   1.881   6.029
 5635SOL    HW217805   3.571   1.768   6.024
 5636SOL     OW17806   3.790   6.208   4.617
 5636SOL    HW117807   3.874   6.206   4.670
 5636SOL    HW217808   3.722   6.147   4.659
 5637SOL     OW17809   6.313   0.492   3.129
 5637SOL    HW117810   6.334   0.413   3.072
 5637SOL    HW217811   6.334   0.472   3.224
 5638SOL     OW17812   6.184   3.516   0.309
 5638SOL    HW117813   6.133   3.562   0.236
 5638SOL    HW217814   6.166   3.560   0.396
 5639SOL     OW17815   4.264   0.119   7.012
 5639SOL    HW117816   4.320   0.047   0.027
 5639SOL    HW217817   4.168   0.089   7.010
 5640SOL     OW17818   1.749   0.234   3.205
 5640SOL    HW117819   1.681   0.193   3.264
 5640SOL    HW217820   1.826   0.171   3.193
 5641SOL     OW17821   6.412   5.811   4.309
 5641SOL    HW117822   6.395   5.713   4.315
 5641SOL    HW217823   6.510   5.829   4.314
 5642SOL     OW17824   1.851   2.056   0.190
 5642SOL    HW117825   1.786   2.110   0.244
 5642SOL    HW217826   1.868   2.102   0.103
 5643SOL     OW17827   5.466   1.724   6.536
 5643SOL    HW117828   5.453   1.741   6.439
 5643SOL    HW217829   5.564   1.723   6.557
 5644SOL     OW17830   2.506   0.993   6.080
 5644SOL    HW117831   2.484   0.897   6.096
 5644SOL    HW217832   2.463   1.049   6.151
 5645SOL     OW17833   5.537   3.653   4.646
 5645SOL    HW117834   5.617   3.618   4.598
 5645SOL    HW217835   5.504   3.736   4.600
 5646SOL     OW17836   1.204   3.921   2.823
 5646SOL    HW117837   1.292   3.968   2.824
 5646SOL    HW217838   1.203   3.855   2.747
 5647SOL     OW17839   5.760   6.487   2.931
 5647SOL    HW117840   5.733   6.399   2.970
 5647SOL    HW217841   5.824   6.532   2.994
 5648SOL     OW17842   4.974   5.882   3.594
 5648SOL    HW117843   5.041   5.808   3.601
 5648SOL    HW217844   4.955   5.918   3.685
 5649SOL     OW17845   0.866   6.751   4.441
 5649SOL    HW117846   0.932   6.825   4.457
 5649SOL    HW217847   0.777   6.779   4.476
 5650SOL     OW17848   6.871   4.127   6.133
 5650SOL    HW117849   6.869   4.035   6.093
 5650SOL    HW217850   6.791   4.178   6.102
 5651SOL     OW17851   2.752   1.254   0.454
 5651SOL    HW117852   2.691   1.292   0.385
 5651SOL    HW217853   2.809   1.327   0.492
 5652SOL     OW17854   0.354   5.851   2.887
 5652SOL    HW117855   0.422   5.779   2.876
 5652SOL    HW217856   0.377   5.927   2.826
 5653SOL     OW17857   0.051   0.302   2.726
 5653SOL    HW117858   0.005   0.364   2.663
 5653SOL    HW217859   0.149   0.321   2.726
 5654SOL     OW17860   3.038   5.954   5.269
 5654SOL    HW117861   3.109   5.903   5.318
 5654SOL    HW217862   2.995   6.020   5.332
 5655SOL     OW17863   5.397   2.677   5.435
 5655SOL    HW117864   5.416   2.775   5.436
 5655SOL    HW217865   5.300   2.663   5.417
 5656SOL     OW17866   0.065   3.909   0.438
 5656SOL    HW117867   0.042   3.838   0.506
 5656SOL    HW217868   0.131   3.871   0.372
 5657SOL     OW17869   5.199   5.723   4.704
 5657SOL    HW117870   5.292   5.749   4.726
 5657SOL    HW217871   5.142   5.725   4.786
 5658SOL     OW17872   2.453   3.026   5.932
 5658SOL    HW117873   2.520   3.098   5.947
 5658SOL    HW217874   2.476   2.946   5.987
 5659SOL     OW17875   2.388   4.182   0.118
 5659SOL    HW117876   2.403   4.258   0.054
 5659SOL    HW217877   2.328   4.212   0.192
 5660SOL     OW17878   3.849   6.692   5.139
 5660SOL    HW117879   3.841   6.708   5.238
 5660SOL    HW217880   3.783   6.750   5.091
 5661SOL     OW17881   0.881   5.814   5.971
 5661SOL    HW117882   0.791   5.821   5.930
 5661SOL    HW217883   0.877   5.752   6.050
 5662SOL     OW17884   3.285   6.567   0.703
 5662SOL    HW117885   3.217   6.605   0.766
 5662SOL    HW217886   3.250   6.572   0.609
 5663SOL     OW17887   1.784   3.288   6.019
 5663SOL    HW117888   1.787   3.188   6.024
 5663SOL    HW217889   1.699   3.321   6.061
 5664SOL     OW17890   4.770   5.103   4.548
 5664SOL    HW117891   4.725   5.069   4.631
 5664SOL    HW217892   4.702   5.147   4.490
 5665SOL     OW17893   1.908   1.445   0.749
 5665SOL    HW117894   1.958   1.370   0.793
 5665SOL    HW217895   1.828   1.467   0.804
 5666SOL     OW17896   5.741   2.553   5.173
 5666SOL    HW117897   5.645   2.538   5.198
 5666SOL    HW217898   5.771   2.641   5.208
 5667SOL     OW17899   2.721   4.757   4.338
 5667SOL    HW117900   2.730   4.748   4.239
 5667SOL    HW217901   2.651   4.694   4.371
 5668SOL     OW17902   4.716   4.177   4.017
 5668SOL    HW117903   4.681   4.240   4.086
 5668SOL    HW217904   4.729   4.087   4.058
 5669SOL     OW17905   5.465   4.614   6.022
 5669SOL    HW117906   5.547   4.627   6.077
 5669SOL    HW217907   5.486   4.634   5.926
 5670SOL     OW17908   1.602   2.628   3.864
 5670SOL    HW117909   1.545   2.703   3.830
 5670SOL    HW217910   1.552   2.542   3.855
 5671SOL     OW17911   6.814   5.168   3.157
 5671SOL    HW117912   6.734   5.133   3.107
 5671SOL    HW217913   6.881   5.204   3.092
 5672SOL     OW17914   5.271   3.219   5.021
 5672SOL    HW117915   5.173   3.210   5.003
 5672SOL    HW217916   5.311   3.285   4.957
 5673SOL     OW17917   0.799   2.270   0.318
 5673SOL    HW117918   0.743   2.319   0.384
 5673SOL    HW217919   0.766   2.289   0.225
 5674SOL     OW17920   2.330   4.902   5.267
 5674SOL    HW117921   2.415   4.849   5.267
 5674SOL    HW217922   2.273   4.875   5.189
 5675SOL     OW17923   2.953   2.455   0.597
 5675SOL    HW117924   2.882   2.414   0.655
 5675SOL    HW217925   3.025   2.389   0.580
 5676SOL     OW17926   3.376   1.250   1.967
 5676SOL    HW117927   3.435   1.185   2.016
 5676SOL    HW217928   3.301   1.278   2.026
 5677SOL     OW17929   0.441   1.725   6.266
 5677SOL    HW117930   0.380   1.697   6.192
 5677SOL    HW217931   0.388   1.763   6.341
 5678SOL     OW17932   3.709   2.125   2.268
 5678SOL    HW117933   3.614   2.111   2.295
 5678SOL    HW217934   3.713   2.170   2.179
 5679SOL     OW17935   0.026   4.147   5.473
 5679SOL    HW117936   6.998   4.089   5.412
 5679SOL    HW217937   0.101   4.094   5.512
 5680SOL     OW17938   0.284   5.558   4.978
 5680SOL    HW117939   0.230   5.641   4.963
 5680SOL    HW217940   0.373   5.582   5.016
 5681SOL     OW17941   1.489   3.583   3.653
 5681SOL    HW117942   1.412   3.598   3.592
 5681SOL    HW217943   1.477   3.497   3.702
 5682SOL     OW17944   1.993   4.829   1.197
 5682SOL    HW117945   1.987   4.794   1.103
 5682SOL    HW217946   2.082   4.805   1.236
 5683SOL     OW17947   6.819   0.488   6.278
 5683SOL    HW117948   6.732   0.459   6.318
 5683SOL    HW217949   6.806   0.574   6.228
 5684SOL     OW17950   2.213   3.038   4.849
 5684SOL    HW117951   2.290   3.031   4.913
 5684SOL    HW217952   2.217   2.963   4.784
 5685SOL     OW17953   2.438   1.546   2.302
 5685SOL    HW117954   2.439   1.613   2.376
 5685SOL    HW217955   2.408   1.457   2.337
 5686SOL     OW17956   5.344   5.694   5.987
 5686SOL    HW117957   5.440   5.722   5.984
 5686SOL    HW217958   5.338   5.595   5.998
 5687SOL     OW17959   2.400   6.871   6.066
 5687SOL    HW117960   2.330   6.866   6.137
 5687SOL    HW217961   2.388   6.796   6.002
 5688SOL     OW17962   1.896   2.119   3.257
 5688SOL    HW117963   1.941   2.052   3.198
 5688SOL    HW217964   1.940   2.119   3.347
 5689SOL     OW17965   0.365   2.648   1.477
 5689SOL    HW117966   0.458   2.685   1.471
 5689SOL    HW217967   0.361   2.580   1.550
 5690SOL     OW17968   3.167   5.274   0.256
 5690SOL    HW117969   3.163   5.260   0.157
 5690SOL    HW217970   3.256   5.314   0.280
 5691SOL     OW17971   4.654   2.556   3.870
 5691SOL    HW117972   4.707   2.582   3.951
 5691SOL    HW217973   4.564   2.523   3.898
 5692SOL     OW17974   6.051   4.641   1.738
 5692SOL    HW117975   6.015   4.724   1.780
 5692SOL    HW217976   6.088   4.662   1.647
 5693SOL     OW17977   3.901   0.124   2.237
 5693SOL    HW117978   3.870   0.211   2.199
 5693SOL    HW217979   3.939   0.067   2.163
 5694SOL     OW17980   0.384   0.413   1.467
 5694SOL    HW117981   0.426   0.381   1.381
 5694SOL    HW217982   0.326   0.340   1.504
 5695SOL     OW17983   2.390   1.216   2.287
 5695SOL    HW117984   2.481   1.212   2.328
 5695SOL    HW217985   2.398   1.214   2.188
 5696SOL     OW17986   0.686   0.147   4.189
 5696SOL    HW117987   0.636   0.075   4.142
 5696SOL    HW217988   0.708   0.117   4.282
 5697SOL     OW17989   6.577   2.133   0.235
 5697SOL    HW117990   6.492   2.177   0.206
 5697SOL    HW217991   6.576   2.038   0.207
 5698SOL     OW17992   3.574   2.150   4.347
 5698SOL    HW117993   3.477   2.145   4.325
 5698SOL    HW217994   3.585   2.160   4.446
 5699SOL     OW17995   2.228   3.137   2.792
 5699SOL    HW117996   2.196   3.167   2.702
 5699SOL    HW217997   2.307   3.076   2.781
 5700SOL     OW17998   6.440   0.411   2.733
 5700SOL    HW117999   6.348   0.440   2.707
 5700SOL    HW218000   6.473   0.468   2.808
 5701SOL     OW18001   1.178   0.772   0.635
 5701SOL    HW118002   1.149   0.762   0.540
 5701SOL    HW218003   1.128   0.848   0.677
 5702SOL     OW18004   1.623   6.810   4.807
 5702SOL    HW118005   1.551   6.806   4.738
 5702SOL    HW218006   1.681   6.729   4.800
 5703SOL     OW18007   0.681   2.797   6.022
 5703SOL    HW118008   0.745   2.845   5.963
 5703SOL    HW218009   0.590   2.801   5.982
 5704SOL     OW18010   3.739   5.209   4.391
 5704SOL    HW118011   3.677   5.288   4.386
 5704SOL    HW218012   3.734   5.169   4.483
 5705SOL     OW18013   5.677   0.572   5.248
 5705SOL    HW118014   5.625   0.505   5.196
 5705SOL    HW218015   5.719   0.637   5.185
 5706SOL     OW18016   5.100   2.057   1.495
 5706SOL    HW118017   5.030   1.997   1.534
 5706SOL    HW218018   5.101   2.144   1.545
 5707SOL     OW18019   6.305   5.230   1.158
 5707SOL    HW118020   6.330   5.197   1.067
 5707SOL    HW218021   6.209   5.208   1.176
 5708SOL     OW18022   5.111   6.156   1.905
 5708SOL    HW118023   5.179   6.116   1.843
 5708SOL    HW218024   5.026   6.104   1.900
 5709SOL     OW18025   0.081   2.689   2.406
 5709SOL    HW118026   7.013   2.710   2.433
 5709SOL    HW218027   0.144   2.744   2.461
 5710SOL     OW18028   4.602   1.445   0.582
 5710SOL    HW118029   4.696   1.454   0.614
 5710SOL    HW218030   4.541   1.427   0.659
 5711SOL     OW18031   4.358   1.743   2.318
 5711SOL    HW118032   4.343   1.799   2.399
 5711SOL    HW218033   4.381   1.802   2.241
 5712SOL     OW18034   6.206   5.980   6.990
 5712SOL    HW118035   6.197   6.079   6.975
 5712SOL    HW218036   6.277   5.964   0.033
 5713SOL     OW18037   1.507   1.176   0.856
 5713SOL    HW118038   1.418   1.135   0.879
 5713SOL    HW218039   1.554   1.118   0.790
 5714SOL     OW18040   6.098   6.941   0.642
 5714SOL    HW118041   6.104   0.015   0.651
 5714SOL    HW218042   6.165   6.910   0.575
 5715SOL     OW18043   0.061   6.595   1.265
 5715SOL    HW118044   0.064   6.686   1.307
 5715SOL    HW218045   0.045   6.604   1.167
 5716SOL     OW18046   0.577   4.900   5.358
 5716SOL    HW118047   0.611   4.928   5.268
 5716SOL    HW218048   0.571   4.981   5.418
 5717SOL     OW18049   0.552   5.383   3.415
 5717SOL    HW118050   0.608   5.380   3.497
 5717SOL    HW218051   0.552   5.293   3.371
 5718SOL     OW18052   0.855   4.239   6.822
 5718SOL    HW118053   0.924   4.167   6.820
 5718SOL    HW218054   0.842   4.276   6.730
 5719SOL     OW18055   2.814   3.586   0.283
 5719SOL    HW118056   2.715   3.578   0.295
 5719SOL    HW218057   2.843   3.529   0.206
 5720SOL     OW18058   3.180   5.232   6.253
 5720SOL    HW118059   3.242   5.295   6.301
 5720SOL    HW218060   3.229   5.190   6.176
 5721SOL     OW18061   1.650   2.898   0.093
 5721SOL    HW118062   1.656   2.799   0.083
 5721SOL    HW218063   1.594   2.921   0.172
 5722SOL     OW18064   1.898   0.509   6.161
 5722SOL    HW118065   1.998   0.507   6.165
 5722SOL    HW218066   1.865   0.592   6.207
 5723SOL     OW18067   4.140   3.075   0.644
 5723SOL    HW118068   4.212   3.123   0.593
 5723SOL    HW218069   4.150   3.094   0.741
 5724SOL     OW18070   5.654   2.212   5.766
 5724SOL    HW118071   5.716   2.269   5.712
 5724SOL    HW218072   5.707   2.155   5.829
 5725SOL     OW18073   0.018   4.533   4.945
 5725SOL    HW118074   0.093   4.565   5.002
 5725SOL    HW218075   0.040   4.442   4.910
 5726SOL     OW18076   4.882   4.184   2.071
 5726SOL    HW118077   4.945   4.109   2.088
 5726SOL    HW218078   4.906   4.229   1.985
 5727SOL     OW18079   1.031   2.853   5.054
 5727SOL    HW118080   1.102   2.844   4.985
 5727SOL    HW218081   0.945   2.814   5.019
 5728SOL     OW18082   3.027   6.920   5.253
 5728SOL    HW118083   3.008   6.879   5.164
 5728SOL    HW218084   3.000   6.857   5.326
 5729SOL     OW18085   2.535   2.171   4.563
 5729SOL    HW118086   2.552   2.116   4.645
 5729SOL    HW218087   2.586   2.132   4.486
 5730SOL     OW18088   6.182   4.271   4.961
 5730SOL    HW118089   6.161   4.185   5.007
 5730SOL    HW218090   6.205   4.340   5.030
 5731SOL     OW18091   0.652   6.425   2.717
 5731SOL    HW118092   0.634   6.465   2.627
 5731SOL    HW218093   0.646   6.496   2.787
 5732SOL     OW18094   6.018   0.505   3.617
 5732SOL    HW118095   5.987   0.473   3.707
 5732SOL    HW218096   6.094   0.570   3.629
 5733SOL     OW18097   2.892   1.004   5.075
 5733SOL    HW118098   2.829   0.967   5.007
 5733SOL    HW218099   2.883   1.104   5.078
 5734SOL     OW18100   1.420   6.581   3.658
 5734SOL    HW118101   1.402   6.582   3.756
 5734SOL    HW218102   1.510   6.541   3.641
 5735SOL     OW18103   2.845   0.561   1.560
 5735SOL    HW118104   2.865   0.471   1.598
 5735SOL    HW218105   2.891   0.631   1.615
 5736SOL     OW18106   1.895   5.082   0.515
 5736SOL    HW118107   1.859   5.005   0.568
 5736SOL    HW218108   1.990   5.099   0.541
 5737SOL     OW18109   5.745   3.862   0.205
 5737SOL    HW118110   5.789   3.896   0.122
 5737SOL    HW218111   5.796   3.784   0.241
 5738SOL     OW18112   0.388   5.093   4.832
 5738SOL    HW118113   0.376   5.097   4.732
 5738SOL    HW218114   0.474   5.049   4.854
 5739SOL     OW18115   0.761   3.065   0.700
 5739SOL    HW118116   0.662   3.058   0.703
 5739SOL    HW218117   0.802   2.974   0.709
 5740SOL     OW18118   4.061   4.897   0.131
 5740SOL    HW118119   4.076   4.980   0.077
 5740SOL    HW218120   4.062   4.817   0.071
 5741SOL     OW18121   0.155   3.231   1.793
 5741SOL    HW118122   0.077   3.196   1.740
 5741SOL    HW218123   0.224   3.159   1.801
 5742SOL     OW18124   0.185   5.607   3.890
 5742SOL    HW118125   0.173   5.635   3.985
 5742SOL    HW218126   0.254   5.536   3.884
 5743SOL     OW18127   1.446   6.250   5.399
 5743SOL    HW118128   1.430   6.299   5.313
 5743SOL    HW218129   1.522   6.293   5.448
 5744SOL     OW18130   6.112   0.275   1.482
 5744SOL    HW118131   6.150   0.295   1.572
 5744SOL    HW218132   6.142   0.343   1.416
 5745SOL     OW18133   0.888   3.541   3.278
 5745SOL    HW118134   0.921   3.544   3.373
 5745SOL    HW218135   0.800   3.494   3.276
 5746SOL     OW18136   6.400   4.071   6.813
 5746SOL    HW118137   6.494   4.054   6.843
 5746SOL    HW218138   6.380   4.015   6.733
 5747SOL     OW18139   0.757   5.974   3.458
 5747SOL    HW118140   0.851   5.946   3.436
 5747SOL    HW218141   0.721   5.916   3.532
 5748SOL     OW18142   1.734   0.167   3.946
 5748SOL    HW118143   1.815   0.225   3.945
 5748SOL    HW218144   1.653   0.224   3.932
 5749SOL     OW18145   1.004   1.086   2.851
 5749SOL    HW118146   1.030   1.066   2.945
 5749SOL    HW218147   0.911   1.054   2.835
 5750SOL     OW18148   6.105   6.384   2.335
 5750SOL    HW118149   6.160   6.462   2.365
 5750SOL    HW218150   6.163   6.321   2.284
 5751SOL     OW18151   0.873   2.910   5.836
 5751SOL    HW118152   0.942   2.979   5.854
 5751SOL    HW218153   0.917   2.820   5.829
 5752SOL     OW18154   1.542   1.522   6.490
 5752SOL    HW118155   1.526   1.456   6.417
 5752SOL    HW218156   1.522   1.480   6.579
 5753SOL     OW18157   4.578   1.724   0.438
 5753SOL    HW118158   4.492   1.770   0.459
 5753SOL    HW218159   4.590   1.647   0.501
 5754SOL     OW18160   5.762   5.986   0.434
 5754SOL    HW118161   5.842   5.987   0.374
 5754SOL    HW218162   5.788   5.949   0.524
 5755SOL     OW18163   3.117   3.627   1.413
 5755SOL    HW118164   3.102   3.528   1.410
 5755SOL    HW218165   3.063   3.666   1.488
 5756SOL     OW18166   6.829   6.273   3.913
 5756SOL    HW118167   6.755   6.225   3.960
 5756SOL    HW218168   6.792   6.323   3.835
 5757SOL     OW18169   6.600   6.433   2.248
 5757SOL    HW118170   6.527   6.484   2.294
 5757SOL    HW218171   6.561   6.378   2.175
 5758SOL     OW18172   2.672   1.648   5.824
 5758SOL    HW118173   2.710   1.647   5.731
 5758SOL    HW218174   2.723   1.584   5.882
 5759SOL     OW18175   0.943   1.607   6.149
 5759SOL    HW118176   0.971   1.520   6.188
 5759SOL    HW218177   0.897   1.592   6.062
 5760SOL     OW18178   6.601   6.028   1.183
 5760SOL    HW118179   6.641   5.939   1.158
 5760SOL    HW218180   6.650   6.065   1.262
 5761SOL     OW18181   4.292   0.335   4.482
 5761SOL    HW118182   4.250   0.406   4.539
 5761SOL    HW218183   4.223   0.270   4.453
 5762SOL     OW18184   5.893   6.379   1.347
 5762SOL    HW118185   5.939   6.404   1.261
 5762SOL    HW218186   5.795   6.392   1.336
 5763SOL     OW18187   2.862   0.751   0.865
 5763SOL    HW118188   2.894   0.702   0.784
 5763SOL    HW218189   2.850   0.848   0.844
 5764SOL     OW18190   4.125   3.349   6.099
 5764SOL    HW118191   4.110   3.289   6.177
 5764SOL    HW218192   4.039   3.367   6.053
 5765SOL     OW18193   6.420   5.447   6.712
 5765SOL    HW118194   6.473   5.416   6.633
 5765SOL    HW218195   6.357   5.519   6.684
 5766SOL     OW18196   2.820   1.371   3.555
 5766SOL    HW118197   2.732   1.361   3.510
 5766SOL    HW218198   2.851   1.282   3.589
 5767SOL     OW18199   5.150   6.618   0.246
 5767SOL    HW118200   5.188   6.613   0.153
 5767SOL    HW218201   5.225   6.618   0.312
 5768SOL     OW18202   6.476   6.849   1.886
 5768SOL    HW118203   6.432   6.915   1.825
 5768SOL    HW218204   6.573   6.842   1.863
 5769SOL     OW18205   1.317   4.360   2.996
 5769SOL    HW118206   1.387   4.400   2.938
 5769SOL    HW218207   1.356   4.336   3.085
 5770SOL     OW18208   5.486   1.826   1.720
 5770SOL    HW118209   5.575   1.864   1.695
 5770SOL    HW218210   5.447   1.879   1.795
 5771SOL     OW18211   1.340   1.031   1.373
 5771SOL    HW118212   1.396   0.962   1.418
 5771SOL    HW218213   1.373   1.122   1.398
 5772SOL     OW18214   6.439   5.402   5.413
 5772SOL    HW118215   6.518   5.441   5.460
 5772SOL    HW218216   6.366   5.385   5.479
 5773SOL     OW18217   5.487   5.379   4.759
 5773SOL    HW118218   5.406   5.397   4.815
 5773SOL    HW218219   5.569   5.399   4.812
 5774SOL     OW18220   2.264   5.188   2.240
 5774SOL    HW118221   2.248   5.281   2.205
 5774SOL    HW218222   2.254   5.122   2.165
 5775SOL     OW18223   1.051   0.733   0.399
 5775SOL    HW118224   1.044   0.636   0.375
 5775SOL    HW218225   0.960   0.768   0.423
 5776SOL     OW18226   4.988   1.156   5.609
 5776SOL    HW118227   4.995   1.254   5.627
 5776SOL    HW218228   5.069   1.126   5.559
 5777SOL     OW18229   6.022   6.780   4.794
 5777SOL    HW118230   6.085   6.855   4.775
 5777SOL    HW218231   5.963   6.804   4.871
 5778SOL     OW18232   2.908   6.897   3.650
 5778SOL    HW118233   2.887   6.875   3.746
 5778SOL    HW218234   2.999   6.863   3.628
 5779SOL     OW18235   4.156   0.111   1.566
 5779SOL    HW118236   4.196   0.203   1.567
 5779SOL    HW218237   4.072   0.112   1.513
 5780SOL     OW18238   6.174   3.924   0.660
 5780SOL    HW118239   6.161   3.840   0.713
 5780SOL    HW218240   6.271   3.935   0.638
 5781SOL     OW18241   3.433   4.215   5.207
 5781SOL    HW118242   3.417   4.192   5.303
 5781SOL    HW218243   3.385   4.151   5.149
 5782SOL     OW18244   4.223   1.478   3.170
 5782SOL    HW118245   4.214   1.556   3.232
 5782SOL    HW218246   4.161   1.490   3.092
 5783SOL     OW18247   3.009   5.957   2.774
 5783SOL    HW118248   2.994   5.880   2.712
 5783SOL    HW218249   2.975   5.934   2.865
 5784SOL     OW18250   1.525   6.258   0.721
 5784SOL    HW118251   1.429   6.231   0.712
 5784SOL    HW218252   1.566   6.267   0.631
 5785SOL     OW18253   2.417   2.562   6.305
 5785SOL    HW118254   2.348   2.624   6.270
 5785SOL    HW218255   2.374   2.476   6.333
 5786SOL     OW18256   1.232   2.123   6.016
 5786SOL    HW118257   1.134   2.113   6.002
 5786SOL    HW218258   1.278   2.035   6.000
 5787SOL     OW18259   0.956   2.601   4.634
 5787SOL    HW118260   1.031   2.559   4.583
 5787SOL    HW218261   0.982   2.608   4.731
 5788SOL     OW18262   0.453   2.017   1.748
 5788SOL    HW118263   0.476   1.945   1.683
 5788SOL    HW218264   0.535   2.042   1.800
 5789SOL     OW18265   2.524   0.050   6.866
 5789SOL    HW118266   2.606   0.107   6.868
 5789SOL    HW218267   2.532   7.009   6.791
 5790SOL     OW18268   0.052   6.633   2.873
 5790SOL    HW118269   0.142   6.638   2.830
 5790SOL    HW218270   0.058   6.584   2.960
 5791SOL     OW18271   4.298   0.599   1.343
 5791SOL    HW118272   4.357   0.627   1.419
 5791SOL    HW218273   4.208   0.572   1.380
 5792SOL     OW18274   4.598   2.497   2.764
 5792SOL    HW118275   4.588   2.537   2.855
 5792SOL    HW218276   4.693   2.508   2.733
 5793SOL     OW18277   4.238   1.694   0.671
 5793SOL    HW118278   4.174   1.728   0.740
 5793SOL    HW218279   4.323   1.666   0.715
 5794SOL     OW18280   3.335   6.039   0.150
 5794SOL    HW118281   3.348   5.966   0.218
 5794SOL    HW218282   3.260   6.014   0.088
 5795SOL     OW18283   1.103   0.550   0.768
 5795SOL    HW118284   1.123   0.641   0.731
 5795SOL    HW218285   1.175   0.486   0.741
 5796SOL     OW18286   4.517   0.421   5.862
 5796SOL    HW118287   4.612   0.438   5.838
 5796SOL    HW218288   4.509   0.405   5.960
 5797SOL     OW18289   6.614   1.766   0.507
 5797SOL    HW118290   6.675   1.708   0.452
 5797SOL    HW218291   6.545   1.709   0.551
 5798SOL     OW18292   2.007   2.554   4.836
 5798SOL    HW118293   1.930   2.501   4.871
 5798SOL    HW218294   1.975   2.618   4.767
 5799SOL     OW18295   2.838   0.151   3.715
 5799SOL    HW118296   2.771   0.147   3.641
 5799SOL    HW218297   2.837   0.064   3.764
 5800SOL     OW18298   1.359   6.112   1.681
 5800SOL    HW118299   1.397   6.114   1.773
 5800SOL    HW218300   1.260   6.102   1.686
 5801SOL     OW18301   1.263   2.062   2.954
 5801SOL    HW118302   1.353   2.070   2.998
 5801SOL    HW218303   1.207   2.141   2.979
 5802SOL     OW18304   6.925   6.987   2.957
 5802SOL    HW118305   6.884   6.929   2.887
 5802SOL    HW218306   6.972   6.931   3.025
 5803SOL     OW18307   0.709   0.068   4.490
 5803SOL    HW118308   0.633   0.115   4.533
 5803SOL    HW218309   0.718   7.001   4.527
 5804SOL     OW18310   6.129   1.848   3.994
 5804SOL    HW118311   6.032   1.867   4.007
 5804SOL    HW218312   6.163   1.898   3.914
 5805SOL     OW18313   1.078   2.945   1.436
 5805SOL    HW118314   1.168   2.902   1.433
 5805SOL    HW218315   1.076   3.023   1.374
 5806SOL     OW18316   6.617   4.053   1.598
 5806SOL    HW118317   6.637   4.017   1.689
 5806SOL    HW218318   6.691   4.029   1.535
 5807SOL     OW18319   1.217   1.206   1.927
 5807SOL    HW118320   1.296   1.259   1.897
 5807SOL    HW218321   1.169   1.256   1.999
 5808SOL     OW18322   6.569   6.910   5.741
 5808SOL    HW118323   6.550   6.960   5.825
 5808SOL    HW218324   6.488   6.909   5.683
 5809SOL     OW18325   0.117   3.696   4.671
 5809SOL    HW118326   0.166   3.782   4.658
 5809SOL    HW218327   0.069   3.698   4.759
 5810SOL     OW18328   1.087   6.489   5.294
 5810SOL    HW118329   1.106   6.481   5.392
 5810SOL    HW218330   1.074   6.585   5.271
 5811SOL     OW18331   3.281   5.018   0.223
 5811SOL    HW118332   3.327   5.018   0.312
 5811SOL    HW218333   3.269   5.112   0.191
 5812SOL     OW18334   6.697   3.231   6.313
 5812SOL    HW118335   6.796   3.235   6.325
 5812SOL    HW218336   6.664   3.318   6.276
 5813SOL     OW18337   6.280   4.931   1.131
 5813SOL    HW118338   6.228   5.003   1.177
 5813SOL    HW218339   6.244   4.917   1.039
 5814SOL     OW18340   4.989   1.610   2.712
 5814SOL    HW118341   4.976   1.517   2.747
 5814SOL    HW218342   4.921   1.670   2.754
 5815SOL     OW18343   6.203   3.321   4.882
 5815SOL    HW118344   6.105   3.319   4.899
 5815SOL    HW218345   6.224   3.273   4.797
 5816SOL     OW18346   6.648   4.649   0.826
 5816SOL    HW118347   6.714   4.639   0.752
 5816SOL    HW218348   6.618   4.559   0.857
 5817SOL     OW18349   6.662   2.742   4.209
 5817SOL    HW118350   6.709   2.824   4.175
 5817SOL    HW218351   6.584   2.722   4.151
 5818SOL     OW18352   2.651   6.898   4.074
 5818SOL    HW118353   2.621   6.821   4.018
 5818SOL    HW218354   2.576   6.929   4.132
 5819SOL     OW18355   4.378   4.413   1.225
 5819SOL    HW118356   4.398   4.437   1.130
 5819SOL    HW218357   4.357   4.496   1.277
 5820SOL     OW18358   0.604   6.734   2.493
 5820SOL    HW118359   0.613   6.749   2.592
 5820SOL    HW218360   0.553   6.650   2.477
 5821SOL     OW18361   6.231   6.571   2.523
 5821SOL    HW118362   6.291   6.535   2.595
 5821SOL    HW218363   6.156   6.623   2.565
 5822SOL     OW18364   0.998   4.086   2.827
 5822SOL    HW118365   0.999   4.105   2.925
 5822SOL    HW218366   1.073   4.023   2.805
 5823SOL     OW18367   2.554   6.288   4.866
 5823SOL    HW118368   2.483   6.328   4.924
 5823SOL    HW218369   2.612   6.361   4.830
 5824SOL     OW18370   2.419   5.393   2.593
 5824SOL    HW118371   2.404   5.297   2.567
 5824SOL    HW218372   2.369   5.413   2.677
 5825SOL     OW18373   3.924   2.133   4.566
 5825SOL    HW118374   3.831   2.166   4.583
 5825SOL    HW218375   3.981   2.150   4.646
 5826SOL     OW18376   1.336   6.366   4.977
 5826SOL    HW118377   1.357   6.407   5.066
 5826SOL    HW218378   1.362   6.428   4.904
 5827SOL     OW18379   2.160   3.730   3.506
 5827SOL    HW118380   2.073   3.714   3.553
 5827SOL    HW218381   2.228   3.760   3.572
 5828SOL     OW18382   4.775   6.821   5.001
 5828SOL    HW118383   4.783   6.841   4.903
 5828SOL    HW218384   4.679   6.826   5.028
 5829SOL     OW18385   2.363   1.440   3.175
 5829SOL    HW118386   2.310   1.494   3.110
 5829SOL    HW218387   2.373   1.491   3.261
 5830SOL     OW18388   4.622   5.038   4.792
 5830SOL    HW118389   4.581   5.124   4.824
 5830SOL    HW218390   4.554   4.965   4.799
 5831SOL     OW18391   2.345   1.569   4.770
 5831SOL    HW118392   2.256   1.545   4.732
 5831SOL    HW218393   2.381   1.649   4.722
 5832SOL     OW18394   1.960   4.975   3.900
 5832SOL    HW118395   1.992   5.051   3.956
 5832SOL    HW218396   1.874   4.999   3.855
 5833SOL     OW18397   2.672   4.795   1.623
 5833SOL    HW118398   2.703   4.849   1.544
 5833SOL    HW218399   2.690   4.698   1.606
 5834SOL     OW18400   5.828   2.026   5.920
 5834SOL    HW118401   5.820   1.927   5.930
 5834SOL    HW218402   5.921   2.049   5.892
 5835SOL     OW18403   4.238   1.253   3.860
 5835SOL    HW118404   4.227   1.211   3.770
 5835SOL    HW218405   4.186   1.339   3.863
 5836SOL     OW18406   5.121   4.864   1.153
 5836SOL    HW118407   5.117   4.868   1.053
 5836SOL    HW218408   5.214   4.881   1.184
 5837SOL     OW18409   2.431   4.856   0.226
 5837SOL    HW118410   2.470   4.932   0.174
 5837SOL    HW218411   2.432   4.773   0.170
 5838SOL     OW18412   2.939   3.405   0.468
 5838SOL    HW118413   2.887   3.456   0.399
 5838SOL    HW218414   2.991   3.332   0.423
 5839SOL     OW18415   2.618   1.364   1.476
 5839SOL    HW118416   2.641   1.349   1.572
 5839SOL    HW218417   2.544   1.432   1.470
 5840SOL     OW18418   6.877   3.848   3.007
 5840SOL    HW118419   6.875   3.801   3.095
 5840SOL    HW218420   6.915   3.940   3.019
 5841SOL     OW18421   5.107   2.207   0.698
 5841SOL    HW118422   5.013   2.230   0.723
 5841SOL    HW218423   5.108   2.170   0.605
 5842SOL     OW18424   3.928   2.089   2.405
 5842SOL    HW118425   3.834   2.091   2.370
 5842SOL    HW218426   3.984   2.153   2.353
 5843SOL     OW18427   2.786   2.917   0.624
 5843SOL    HW118428   2.776   2.941   0.527
 5843SOL    HW218429   2.881   2.890   0.642
 5844SOL     OW18430   0.130   5.273   5.194
 5844SOL    HW118431   0.215   5.302   5.151
 5844SOL    HW218432   0.123   5.173   5.189
 5845SOL     OW18433   1.766   5.976   2.917
 5845SOL    HW118434   1.708   6.013   2.989
 5845SOL    HW218435   1.846   6.036   2.905
 5846SOL     OW18436   1.007   4.900   5.022
 5846SOL    HW118437   0.978   4.887   5.117
 5846SOL    HW218438   1.107   4.904   5.018
 5847SOL     OW18439   1.844   4.275   6.111
 5847SOL    HW118440   1.903   4.232   6.042
 5847SOL    HW218441   1.850   4.374   6.102
 5848SOL     OW18442   2.867   6.317   1.815
 5848SOL    HW118443   2.830   6.317   1.908
 5848SOL    HW218444   2.838   6.401   1.768
 5849SOL     OW18445   3.309   5.485   6.946
 5849SOL    HW118446   3.223   5.492   6.896
 5849SOL    HW218447   3.377   5.546   6.903
 5850SOL     OW18448   5.552   2.169   1.949
 5850SOL    HW118449   5.557   2.092   2.012
 5850SOL    HW218450   5.580   2.253   1.996
 5851SOL     OW18451   1.288   3.289   5.528
 5851SOL    HW118452   1.264   3.343   5.447
 5851SOL    HW218453   1.370   3.328   5.570
 5852SOL     OW18454   4.563   4.768   2.792
 5852SOL    HW118455   4.556   4.791   2.889
 5852SOL    HW218456   4.489   4.706   2.767
 5853SOL     OW18457   3.988   5.004   0.359
 5853SOL    HW118458   3.903   4.955   0.373
 5853SOL    HW218459   4.029   4.975   0.272
 5854SOL     OW18460   2.658   4.603   5.283
 5854SOL    HW118461   2.594   4.554   5.224
 5854SOL    HW218462   2.748   4.604   5.240
 5855SOL     OW18463   1.709   1.635   4.654
 5855SOL    HW118464   1.771   1.691   4.599
 5855SOL    HW218465   1.749   1.619   4.744
 5856SOL     OW18466   0.386   0.657   2.524
 5856SOL    HW118467   0.462   0.606   2.483
 5856SOL    HW218468   0.420   0.745   2.557
 5857SOL     OW18469   5.911   5.508   6.737
 5857SOL    HW118470   5.998   5.507   6.688
 5857SOL    HW218471   5.872   5.416   6.738
 5858SOL     OW18472   3.094   1.605   2.411
 5858SOL    HW118473   3.178   1.576   2.364
 5858SOL    HW218474   3.109   1.601   2.510
 5859SOL     OW18475   5.745   5.132   1.495
 5859SOL    HW118476   5.826   5.097   1.543
 5859SOL    HW218477   5.695   5.193   1.556
 5860SOL     OW18478   1.709   3.486   2.189
 5860SOL    HW118479   1.761   3.417   2.238
 5860SOL    HW218480   1.652   3.442   2.119
 5861SOL     OW18481   5.549   0.185   4.816
 5861SOL    HW118482   5.491   0.162   4.894
 5861SOL    HW218483   5.618   0.114   4.803
 5862SOL     OW18484   6.814   4.652   2.187
 5862SOL    HW118485   6.849   4.560   2.171
 5862SOL    HW218486   6.715   4.649   2.197
 5863SOL     OW18487   4.251   0.081   5.882
 5863SOL    HW118488   4.259   7.007   5.874
 5863SOL    HW218489   4.176   0.113   5.823
 5864SOL     OW18490   3.771   3.377   3.378
 5864SOL    HW118491   3.721   3.450   3.331
 5864SOL    HW218492   3.763   3.292   3.326
 5865SOL     OW18493   5.852   6.616   1.708
 5865SOL    HW118494   5.802   6.674   1.643
 5865SOL    HW218495   5.791   6.589   1.782
 5866SOL     OW18496   3.281   3.788   3.684
 5866SOL    HW118497   3.370   3.833   3.679
 5866SOL    HW218498   3.215   3.851   3.725
 5867SOL     OW18499   4.737   1.518   0.867
 5867SOL    HW118500   4.753   1.441   0.929
 5867SOL    HW218501   4.808   1.520   0.797
 5868SOL     OW18502   1.051   0.989   0.749
 5868SOL    HW118503   0.985   1.036   0.691
 5868SOL    HW218504   1.003   0.946   0.825
 5869SOL     OW18505   2.107   5.213   3.267
 5869SOL    HW118506   2.101   5.266   3.182
 5869SOL    HW218507   2.197   5.169   3.272
 5870SOL     OW18508   4.466   6.660   4.458
 5870SOL    HW118509   4.549   6.606   4.440
 5870SOL    HW218510   4.392   6.626   4.399
 5871SOL     OW18511   4.106   3.475   3.395
 5871SOL    HW118512   4.171   3.468   3.471
 5871SOL    HW218513   4.043   3.397   3.398
 5872SOL     OW18514   3.271   5.561   1.144
 5872SOL    HW118515   3.328   5.483   1.168
 5872SOL    HW218516   3.327   5.644   1.144
 5873SOL     OW18517   4.398   6.408   2.066
 5873SOL    HW118518   4.458   6.468   2.012
 5873SOL    HW218519   4.307   6.407   2.024
 5874SOL     OW18520   6.904   4.243   4.954
 5874SOL    HW118521   6.851   4.268   4.873
 5874SOL    HW218522   6.998   4.275   4.944
 5875SOL     OW18523   3.711   2.337   1.143
 5875SOL    HW118524   3.736   2.241   1.157
 5875SOL    HW218525   3.793   2.393   1.137
 5876SOL     OW18526   3.384   2.928   2.510
 5876SOL    HW118527   3.396   2.868   2.432
 5876SOL    HW218528   3.324   3.004   2.485
 5877SOL     OW18529   5.054   3.896   1.828
 5877SOL    HW118530   5.101   3.897   1.740
 5877SOL    HW218531   4.958   3.921   1.815
 5878SOL     OW18532   0.899   3.755   1.942
 5878SOL    HW118533   0.877   3.832   2.002
 5878SOL    HW218534   0.878   3.669   1.987
 5879SOL     OW18535   2.071   4.323   4.579
 5879SOL    HW118536   2.016   4.404   4.599
 5879SOL    HW218537   2.104   4.327   4.485
 5880SOL     OW18538   2.755   5.122   6.422
 5880SOL    HW118539   2.833   5.071   6.458
 5880SOL    HW218540   2.689   5.138   6.495
 5881SOL     OW18541   1.701   6.231   3.727
 5881SOL    HW118542   1.760   6.172   3.671
 5881SOL    HW218543   1.677   6.182   3.811
 5882SOL     OW18544   4.499   0.361   3.045
 5882SOL    HW118545   4.575   0.425   3.045
 5882SOL    HW218546   4.493   0.317   2.955
 5883SOL     OW18547   1.280   3.122   4.716
 5883SOL    HW118548   1.191   3.142   4.673
 5883SOL    HW218549   1.277   3.149   4.812
 5884SOL     OW18550   0.294   0.956   2.955
 5884SOL    HW118551   0.310   1.043   3.002
 5884SOL    HW218552   0.197   0.947   2.934
 5885SOL     OW18553   5.382   6.726   0.399
 5885SOL    HW118554   5.313   6.727   0.472
 5885SOL    HW218555   5.457   6.786   0.424
 5886SOL     OW18556   6.174   1.468   6.529
 5886SOL    HW118557   6.093   1.515   6.495
 5886SOL    HW218558   6.155   1.429   6.619
 5887SOL     OW18559   3.721   6.441   2.498
 5887SOL    HW118560   3.727   6.388   2.413
 5887SOL    HW218561   3.636   6.493   2.499
 5888SOL     OW18562   6.868   6.411   2.349
 5888SOL    HW118563   6.774   6.411   2.314
 5888SOL    HW218564   6.869   6.373   2.442
 5889SOL     OW18565   2.741   0.199   6.908
 5889SOL    HW118566   2.801   0.224   6.832
 5889SOL    HW218567   2.730   0.278   6.969
 5890SOL     OW18568   3.982   5.632   5.716
 5890SOL    HW118569   3.979   5.648   5.814
 5890SOL    HW218570   3.889   5.631   5.679
 5891SOL     OW18571   1.111   3.396   6.156
 5891SOL    HW118572   1.178   3.322   6.159
 5891SOL    HW218573   1.093   3.421   6.061
 5892SOL     OW18574   2.093   5.845   2.387
 5892SOL    HW118575   2.072   5.919   2.450
 5892SOL    HW218576   2.159   5.783   2.428
 5893SOL     OW18577   1.456   2.651   2.607
 5893SOL    HW118578   1.384   2.719   2.618
 5893SOL    HW218579   1.443   2.601   2.521
 5894SOL     OW18580   1.608   3.442   3.914
 5894SOL    HW118581   1.702   3.409   3.905
 5894SOL    HW218582   1.608   3.542   3.922
 5895SOL     OW18583   5.463   4.332   2.998
 5895SOL    HW118584   5.522   4.397   2.951
 5895SOL    HW218585   5.518   4.264   3.045
 5896SOL     OW18586   5.055   2.653   5.855
 5896SOL    HW118587   5.152   2.631   5.860
 5896SOL    HW218588   5.010   2.624   5.940
 5897SOL     OW18589   4.131   4.799   0.877
 5897SOL    HW118590   4.046   4.779   0.925
 5897SOL    HW218591   4.115   4.867   0.805
 5898SOL     OW18592   2.538   6.660   3.141
 5898SOL    HW118593   2.439   6.674   3.137
 5898SOL    HW218594   2.565   6.587   3.078
 5899SOL     OW18595   5.237   0.716   3.574
 5899SOL    HW118596   5.154   0.747   3.621
 5899SOL    HW218597   5.316   0.765   3.611
 5900SOL     OW18598   3.681   4.962   1.836
 5900SOL    HW118599   3.649   4.878   1.881
 5900SOL    HW218600   3.773   4.984   1.868
 5901SOL     OW18601   2.950   5.825   4.081
 5901SOL    HW118602   2.979   5.803   3.988
 5901SOL    HW218603   2.937   5.923   4.090
 5902SOL     OW18604   6.117   2.373   0.355
 5902SOL    HW118605   6.037   2.313   0.367
 5902SOL    HW218606   6.097   2.463   0.394
 5903SOL     OW18607   0.254   2.276   6.082
 5903SOL    HW118608   0.287   2.299   6.174
 5903SOL    HW218609   0.265   2.356   6.022
 5904SOL     OW18610   1.788   3.073   2.223
 5904SOL    HW118611   1.833   2.990   2.190
 5904SOL    HW218612   1.689   3.057   2.228
 5905SOL     OW18613   0.123   4.130   2.404
 5905SOL    HW118614   0.177   4.057   2.446
 5905SOL    HW218615   0.121   4.209   2.465
 5906SOL     OW18616   6.786   0.882   3.038
 5906SOL    HW118617   6.777   0.794   3.084
 5906SOL    HW218618   6.740   0.953   3.091
 5907SOL     OW18619   2.539   1.021   3.126
 5907SOL    HW118620   2.529   0.934   3.079
 5907SOL    HW218621   2.632   1.030   3.162
 5908SOL     OW18622   0.358   2.755   5.331
 5908SOL    HW118623   0.309   2.689   5.387
 5908SOL    HW218624   0.448   2.773   5.371
 5909SOL     OW18625   6.260   4.602   6.782
 5909SOL    HW118626   6.348   4.582   6.738
 5909SOL    HW218627   6.274   4.669   6.855
 5910SOL     OW18628   1.419   1.405   3.315
 5910SOL    HW118629   1.412   1.420   3.216
 5910SOL    HW218630   1.416   1.492   3.363
 5911SOL     OW18631   6.545   6.088   6.982
 5911SOL    HW118632   6.612   6.160   6.969
 5911SOL    HW218633   6.515   6.053   6.893
 5912SOL     OW18634   0.451   0.803   3.413
 5912SOL    HW118635   0.530   0.752   3.379
 5912SOL    HW218636   0.379   0.804   3.343
 5913SOL     OW18637   6.555   2.504   1.199
 5913SOL    HW118638   6.554   2.603   1.186
 5913SOL    HW218639   6.649   2.472   1.209
 5914SOL     OW18640   1.162   7.023   0.921
 5914SOL    HW118641   1.129   6.949   0.863
 5914SOL    HW218642   1.255   7.003   0.951
 5915SOL     OW18643   4.068   0.648   5.182
 5915SOL    HW118644   4.102   0.616   5.094
 5915SOL    HW218645   3.985   0.596   5.206
 5916SOL     OW18646   1.428   0.585   2.519
 5916SOL    HW118647   1.468   0.497   2.544
 5916SOL    HW218648   1.331   0.572   2.496
 5917SOL     OW18649   3.073   2.989   0.482
 5917SOL    HW118650   3.153   2.934   0.457
 5917SOL    HW218651   3.054   2.978   0.580
 5918SOL     OW18652   3.399   6.782   4.137
 5918SOL    HW118653   3.431   6.792   4.231
 5918SOL    HW218654   3.392   6.685   4.114
 5919SOL     OW18655   2.994   3.654   4.564
 5919SOL    HW118656   3.075   3.697   4.603
 5919SOL    HW218657   2.969   3.701   4.479
 5920SOL     OW18658   0.992   0.878   5.686
 5920SOL    HW118659   0.924   0.907   5.619
 5920SOL    HW218660   0.995   0.778   5.690
 5921SOL     OW18661   2.705   5.105   0.364
 5921SOL    HW118662   2.704   5.167   0.285
 5921SOL    HW218663   2.798   5.071   0.379
 5922SOL     OW18664   5.211   2.462   2.435
 5922SOL    HW118665   5.243   2.427   2.523
 5922SOL    HW218666   5.148   2.538   2.450
 5923SOL     OW18667   5.872   0.789   2.715
 5923SOL    HW118668   5.865   0.728   2.794
 5923SOL    HW218669   5.831   0.744   2.635
 5924SOL     OW18670   6.490   6.639   3.449
 5924SOL    HW118671   6.450   6.654   3.358
 5924SOL    HW218672   6.434   6.573   3.499
 5925SOL     OW18673   4.910   0.948   0.665
 5925SOL    HW118674   4.911   0.953   0.765
 5925SOL    HW218675   4.869   1.031   0.628
 5926SOL     OW18676   5.578   3.229   3.092
 5926SOL    HW118677   5.619   3.166   3.157
 5926SOL    HW218678   5.640   3.306   3.076
 5927SOL     OW18679   0.672   6.445   1.545
 5927SOL    HW118680   0.711   6.510   1.479
 5927SOL    HW218681   0.740   6.424   1.615
 5928SOL     OW18682   3.282   0.382   0.068
 5928SOL    HW118683   3.275   0.377   6.994
 5928SOL    HW218684   3.218   0.451   0.102
 5929SOL     OW18685   1.183   0.713   1.311
 5929SOL    HW118686   1.252   0.728   1.381
 5929SOL    HW218687   1.200   0.626   1.265
 5930SOL     OW18688   0.937   4.070   1.547
 5930SOL    HW118689   0.840   4.045   1.535
 5930SOL    HW218690   0.978   4.012   1.617
 5931SOL     OW18691   4.366   5.838   3.492
 5931SOL    HW118692   4.403   5.820   3.583
 5931SOL    HW218693   4.401   5.925   3.458
 5932SOL     OW18694   3.933   6.162   0.153
 5932SOL    HW118695   3.877   6.144   0.234
 5932SOL    HW218696   3.973   6.077   0.120
 5933SOL     OW18697   6.948   5.748   4.331
 5933SOL    HW118698   6.956   5.685   4.409
 5933SOL    HW218699   0.014   5.778   4.303
 5934SOL     OW18700   3.356   4.045   6.964
 5934SOL    HW118701   3.291   4.069   6.892
 5934SOL    HW218702   3.334   4.096   0.022
 5935SOL     OW18703   1.534   0.281   5.520
 5935SOL    HW118704   1.598   0.353   5.493
 5935SOL    HW218705   1.462   0.319   5.577
 5936SOL     OW18706   3.728   2.913   2.365
 5936SOL    HW118707   3.666   2.897   2.442
 5936SOL    HW218708   3.785   2.832   2.351
 5937SOL     OW18709   0.667   3.103   0.215
 5937SOL    HW118710   0.583   3.095   0.268
 5937SOL    HW218711   0.668   3.032   0.143
 5938SOL     OW18712   0.991   3.736   4.396
 5938SOL    HW118713   1.054   3.686   4.456
 5938SOL    HW218714   0.899   3.699   4.406
 5939SOL     OW18715   4.444   1.139   5.887
 5939SOL    HW118716   4.537   1.104   5.888
 5939SOL    HW218717   4.400   1.115   5.800
 5940SOL     OW18718   5.089   5.046   1.662
 5940SOL    HW118719   5.046   4.973   1.608
 5940SOL    HW218720   5.040   5.055   1.749
 5941SOL     OW18721   0.686   1.973   3.347
 5941SOL    HW118722   0.771   1.958   3.398
 5941SOL    HW218723   0.611   1.927   3.394
 5942SOL     OW18724   5.147   2.617   6.296
 5942SOL    HW118725   5.159   2.714   6.272
 5942SOL    HW218726   5.144   2.608   6.395
 5943SOL     OW18727   1.916   5.025   1.441
 5943SOL    HW118728   1.923   5.123   1.463
 5943SOL    HW218729   1.858   5.014   1.360
 5944SOL     OW18730   6.371   4.044   5.983
 5944SOL    HW118731   6.330   4.129   5.949
 5944SOL    HW218732   6.433   4.066   6.059
 5945SOL     OW18733   6.813   6.642   4.159
 5945SOL    HW118734   6.728   6.613   4.115
 5945SOL    HW218735   6.794   6.713   4.226
 5946SOL     OW18736   2.327   3.053   0.134
 5946SOL    HW118737   2.402   3.098   0.084
 5946SOL    HW218738   2.242   3.064   0.083
 5947SOL     OW18739   3.652   3.379   4.346
 5947SOL    HW118740   3.604   3.357   4.431
 5947SOL    HW218741   3.750   3.358   4.356
 5948SOL     OW18742   4.920   4.033   1.547
 5948SOL    HW118743   4.955   4.114   1.593
 5948SOL    HW218744   4.826   4.015   1.577
 5949SOL     OW18745   1.136   3.999   3.516
 5949SOL    HW118746   1.147   4.072   3.583
 5949SOL    HW218747   1.225   3.974   3.478
 5950SOL     OW18748   2.693   6.482   4.534
 5950SOL    HW118749   2.733   6.392   4.514
 5950SOL    HW218750   2.757   6.554   4.505
 5951SOL     OW18751   6.917   3.038   6.419
 5951SOL    HW118752   6.898   3.023   6.322
 5951SOL    HW218753   7.012   3.016   6.438
 5952SOL     OW18754   3.795   4.035   1.718
 5952SOL    HW118755   3.756   3.945   1.741
 5952SOL    HW218756   3.736   4.107   1.755
 5953SOL     OW18757   6.549   3.007   6.293
 5953SOL    HW118758   6.602   2.946   6.234
 5953SOL    HW218759   6.599   3.093   6.306
 5954SOL     OW18760   1.875   5.116   3.535
 5954SOL    HW118761   1.938   5.189   3.508
 5954SOL    HW218762   1.809   5.100   3.462
 5955SOL     OW18763   3.922   2.686   0.437
 5955SOL    HW118764   3.917   2.686   0.537
 5955SOL    HW218765   3.865   2.613   0.400
 5956SOL     OW18766   4.412   2.722   5.726
 5956SOL    HW118767   4.330   2.665   5.719
 5956SOL    HW218768   4.493   2.667   5.707
 5957SOL     OW18769   6.363   2.198   3.712
 5957SOL    HW118770   6.389   2.201   3.616
 5957SOL    HW218771   6.444   2.181   3.768
 5958SOL     OW18772   2.360   5.961   2.945
 5958SOL    HW118773   2.288   5.893   2.964
 5958SOL    HW218774   2.320   6.052   2.942
 5959SOL     OW18775   5.302   3.786   3.075
 5959SOL    HW118776   5.334   3.692   3.078
 5959SOL    HW218777   5.337   3.836   3.155
 5960SOL     OW18778   5.653   0.164   6.439
 5960SOL    HW118779   5.633   0.188   6.534
 5960SOL    HW218780   5.576   0.189   6.381
 5961SOL     OW18781   3.319   1.876   4.224
 5961SOL    HW118782   3.418   1.867   4.216
 5961SOL    HW218783   3.275   1.842   4.141
 5962SOL     OW18784   4.600   4.273   0.262
 5962SOL    HW118785   4.676   4.337   0.269
 5962SOL    HW218786   4.532   4.294   0.332
 5963SOL     OW18787   1.808   4.114   0.543
 5963SOL    HW118788   1.862   4.030   0.545
 5963SOL    HW218789   1.711   4.091   0.541
 5964SOL     OW18790   1.890   0.508   3.227
 5964SOL    HW118791   1.830   0.430   3.208
 5964SOL    HW218792   1.928   0.499   3.319
 5965SOL     OW18793   2.423   0.202   1.013
 5965SOL    HW118794   2.494   0.244   1.070
 5965SOL    HW218795   2.460   0.187   0.921
 5966SOL     OW18796   2.725   1.931   5.101
 5966SOL    HW118797   2.733   1.986   5.184
 5966SOL    HW218798   2.740   1.989   5.021
 5967SOL     OW18799   4.687   2.363   5.076
 5967SOL    HW118800   4.605   2.413   5.048
 5967SOL    HW218801   4.758   2.428   5.105
 5968SOL     OW18802   6.234   1.911   3.066
 5968SOL    HW118803   6.244   1.938   3.162
 5968SOL    HW218804   6.208   1.815   3.061
 5969SOL     OW18805   5.187   6.957   1.184
 5969SOL    HW118806   5.112   6.919   1.238
 5969SOL    HW218807   5.149   7.010   1.109
 5970SOL     OW18808   6.486   2.530   0.089
 5970SOL    HW118809   6.446   2.455   0.037
 5970SOL    HW218810   6.422   2.561   0.158
 5971SOL     OW18811   6.462   5.276   3.581
 5971SOL    HW118812   6.530   5.322   3.523
 5971SOL    HW218813   6.503   5.253   3.669
 5972SOL     OW18814   5.783   5.106   0.999
 5972SOL    HW118815   5.797   5.076   1.093
 5972SOL    HW218816   5.722   5.186   0.999
 5973SOL     OW18817   3.308   1.063   2.387
 5973SOL    HW118818   3.278   1.157   2.371
 5973SOL    HW218819   3.362   1.060   2.471
 5974SOL     OW18820   5.928   1.020   4.522
 5974SOL    HW118821   5.967   0.937   4.562
 5974SOL    HW218822   5.828   1.012   4.520
 5975SOL     OW18823   4.422   5.192   1.402
 5975SOL    HW118824   4.491   5.159   1.467
 5975SOL    HW218825   4.430   5.142   1.316
 5976SOL     OW18826   1.413   3.908   5.485
 5976SOL    HW118827   1.400   3.855   5.401
 5976SOL    HW218828   1.436   4.002   5.461
 5977SOL     OW18829   0.149   5.535   1.166
 5977SOL    HW118830   0.104   5.475   1.232
 5977SOL    HW218831   0.238   5.497   1.140
 5978SOL     OW18832   3.031   3.715   6.082
 5978SOL    HW118833   3.017   3.683   5.988
 5978SOL    HW218834   3.102   3.784   6.084
 5979SOL     OW18835   6.034   6.899   0.901
 5979SOL    HW118836   6.062   6.912   0.806
 5979SOL    HW218837   6.078   6.818   0.938
 5980SOL     OW18838   3.041   2.897   0.744
 5980SOL    HW118839   3.119   2.952   0.772
 5980SOL    HW218840   3.002   2.849   0.823
 5981SOL     OW18841   3.374   2.897   0.963
 5981SOL    HW118842   3.309   2.915   1.036
 5981SOL    HW218843   3.375   2.799   0.943
 5982SOL     OW18844   5.417   2.335   1.094
 5982SOL    HW118845   5.356   2.387   1.033
 5982SOL    HW218846   5.410   2.238   1.073
 5983SOL     OW18847   6.710   1.377   3.491
 5983SOL    HW118848   6.711   1.403   3.395
 5983SOL    HW218849   6.708   1.277   3.499
 5984SOL     OW18850   6.287   6.119   2.895
 5984SOL    HW118851   6.247   6.198   2.942
 5984SOL    HW218852   6.387   6.126   2.897
 5985SOL     OW18853   6.728   4.139   2.709
 5985SOL    HW118854   6.764   4.049   2.736
 5985SOL    HW218855   6.730   4.200   2.788
 5986SOL     OW18856   3.869   3.436   3.074
 5986SOL    HW118857   3.870   3.381   2.990
 5986SOL    HW218858   3.896   3.529   3.053
 5987SOL     OW18859   6.863   6.059   4.241
 5987SOL    HW118860   6.906   6.012   4.319
 5987SOL    HW218861   6.901   6.023   4.156
 5988SOL     OW18862   1.211   2.832   0.244
 5988SOL    HW118863   1.157   2.895   0.300
 5988SOL    HW218864   1.161   2.746   0.233
 5989SOL     OW18865   2.046   6.627   5.618
 5989SOL    HW118866   2.070   6.632   5.715
 5989SOL    HW218867   2.004   6.538   5.599
 5990SOL     OW18868   2.566   3.900   1.570
 5990SOL    HW118869   2.525   3.986   1.540
 5990SOL    HW218870   2.661   3.916   1.596
 5991SOL     OW18871   5.557   1.280   0.660
 5991SOL    HW118872   5.631   1.247   0.719
 5991SOL    HW218873   5.499   1.343   0.711
 5992SOL     OW18874   2.387   4.823   3.317
 5992SOL    HW118875   2.329   4.841   3.397
 5992SOL    HW218876   2.365   4.733   3.279
 5993SOL     OW18877   5.521   2.238   0.468
 5993SOL    HW118878   5.469   2.200   0.544
 5993SOL    HW218879   5.541   2.334   0.486
 5994SOL     OW18880   6.750   4.305   0.442
 5994SOL    HW118881   6.769   4.209   0.422
 5994SOL    HW218882   6.739   4.356   0.356
 5995SOL     OW18883   5.438   3.087   1.040
 5995SOL    HW118884   5.445   3.066   0.942
 5995SOL    HW218885   5.438   3.186   1.053
 5996SOL     OW18886   2.801   0.304   2.000
 5996SOL    HW118887   2.838   0.337   2.087
 5996SOL    HW218888   2.726   0.240   2.018
 5997SOL     OW18889   6.240   0.337   4.190
 5997SOL    HW118890   6.238   0.432   4.161
 5997SOL    HW218891   6.287   0.329   4.278
 5998SOL     OW18892   5.919   6.328   6.239
 5998SOL    HW118893   5.928   6.334   6.339
 5998SOL    HW218894   5.823   6.318   6.215
 5999SOL     OW18895   5.482   3.350   1.075
 5999SOL    HW118896   5.502   3.445   1.049
 5999SOL    HW218897   5.454   3.348   1.171
 6000SOL     OW18898   1.127   4.922   1.361
 6000SOL    HW118899   1.178   4.902   1.444
 6000SOL    HW218900   1.043   4.970   1.384
 6001SOL     OW18901   6.778   5.925   5.304
 6001SOL    HW118902   6.753   6.003   5.247
 6001SOL    HW218903   6.827   5.957   5.385
 6002SOL     OW18904   5.507   4.580   4.773
 6002SOL    HW118905   5.597   4.598   4.735
 6002SOL    HW218906   5.494   4.635   4.855
 6003SOL     OW18907   2.556   2.135   5.484
 6003SOL    HW118908   2.464   2.114   5.451
 6003SOL    HW218909   2.621   2.120   5.410
 6004SOL     OW18910   5.373   3.298   5.436
 6004SOL    HW118911   5.437   3.324   5.363
 6004SOL    HW218912   5.336   3.381   5.479
 6005SOL     OW18913   3.944   4.310   0.686
 6005SOL    HW118914   3.916   4.214   0.678
 6005SOL    HW218915   3.971   4.344   0.596
 6006SOL     OW18916   3.370   6.254   6.779
 6006SOL    HW118917   3.295   6.189   6.785
 6006SOL    HW218918   3.342   6.342   6.818
 6007SOL     OW18919   2.816   6.501   4.927
 6007SOL    HW118920   2.769   6.573   4.977
 6007SOL    HW218921   2.794   6.412   4.968
 6008SOL     OW18922   2.246   3.956   6.577
 6008SOL    HW118923   2.314   3.999   6.517
 6008SOL    HW218924   2.212   3.872   6.535
 6009SOL     OW18925   3.202   5.650   2.954
 6009SOL    HW118926   3.257   5.590   3.012
 6009SOL    HW218927   3.194   5.609   2.863
 6010SOL     OW18928   0.293   4.975   5.315
 6010SOL    HW118929   0.321   4.986   5.220
 6010SOL    HW218930   0.194   4.964   5.320
 6011SOL     OW18931   5.366   1.715   3.282
 6011SOL    HW118932   5.422   1.632   3.282
 6011SOL    HW218933   5.274   1.693   3.315
 6012SOL     OW18934   6.443   1.200   6.240
 6012SOL    HW118935   6.409   1.286   6.278
 6012SOL    HW218936   6.390   1.177   6.158
 6013SOL     OW18937   5.281   1.166   2.639
 6013SOL    HW118938   5.296   1.212   2.726
 6013SOL    HW218939   5.366   1.120   2.611
 6014SOL     OW18940   3.712   3.683   3.816
 6014SOL    HW118941   3.637   3.742   3.787
 6014SOL    HW218942   3.734   3.619   3.742
 6015SOL     OW18943   5.931   0.020   3.976
 6015SOL    HW118944   5.995   0.047   4.048
 6015SOL    HW218945   5.878   0.099   3.947
 6016SOL     OW18946   4.338   2.236   4.817
 6016SOL    HW118947   4.315   2.315   4.874
 6016SOL    HW218948   4.382   2.166   4.874
 6017SOL     OW18949   1.278   1.802   5.155
 6017SOL    HW118950   1.308   1.813   5.060
 6017SOL    HW218951   1.221   1.880   5.181
 6018SOL     OW18952   2.884   1.453   3.872
 6018SOL    HW118953   2.802   1.430   3.925
 6018SOL    HW218954   2.952   1.495   3.932
 6019SOL     OW18955   6.897   4.603   6.353
 6019SOL    HW118956   6.973   4.540   6.369
 6019SOL    HW218957   6.897   4.632   6.258
 6020SOL     OW18958   0.203   5.665   5.468
 6020SOL    HW118959   0.257   5.651   5.551
 6020SOL    HW218960   0.243   5.739   5.414
 6021SOL     OW18961   5.658   0.625   3.090
 6021SOL    HW118962   5.598   0.614   3.011
 6021SOL    HW218963   5.607   0.605   3.173
 6022SOL     OW18964   6.461   2.841   1.417
 6022SOL    HW118965   6.434   2.847   1.514
 6022SOL    HW218966   6.516   2.921   1.393
 6023SOL     OW18967   4.484   6.546   2.603
 6023SOL    HW118968   4.436   6.634   2.616
 6023SOL    HW218969   4.508   6.509   2.692
 6024SOL     OW18970   0.508   6.039   0.131
 6024SOL    HW118971   0.598   5.997   0.126
 6024SOL    HW218972   0.471   6.050   0.039
 6025SOL     OW18973   3.139   0.752   5.609
 6025SOL    HW118974   3.221   0.695   5.611
 6025SOL    HW218975   3.102   0.760   5.701
 6026SOL     OW18976   5.914   5.610   3.538
 6026SOL    HW118977   5.906   5.627   3.440
 6026SOL    HW218978   5.891   5.693   3.588
 6027SOL     OW18979   6.050   4.969   6.054
 6027SOL    HW118980   5.972   4.911   6.033
 6027SOL    HW218981   6.023   5.065   6.047
 6028SOL     OW18982   6.229   6.046   6.120
 6028SOL    HW118983   6.308   6.105   6.134
 6028SOL    HW218984   6.225   5.977   6.192
 6029SOL     OW18985   2.937   2.154   2.776
 6029SOL    HW118986   3.031   2.187   2.767
 6029SOL    HW218987   2.898   2.141   2.685
 6030SOL     OW18988   6.074   3.253   4.604
 6030SOL    HW118989   6.147   3.252   4.536
 6030SOL    HW218990   5.997   3.307   4.571
 6031SOL     OW18991   0.147   6.850   4.082
 6031SOL    HW118992   0.062   6.902   4.090
 6031SOL    HW218993   0.134   6.774   4.019
 6032SOL     OW18994   3.449   6.782   3.406
 6032SOL    HW118995   3.365   6.797   3.353
 6032SOL    HW218996   3.528   6.815   3.354
 6033SOL     OW18997   0.977   1.804   2.473
 6033SOL    HW118998   0.947   1.831   2.564
 6033SOL    HW218999   0.939   1.715   2.450
 6034SOL     OW19000   0.742   0.338   0.440
 6034SOL    HW119001   0.726   0.258   0.497
 6034SOL    HW219002   0.716   0.317   0.345
 6035SOL     OW19003   2.308   0.638   2.883
 6035SOL    HW119004   2.352   0.595   2.804
 6035SOL    HW219005   2.273   0.567   2.944
 6036SOL     OW19006   6.658   3.271   0.759
 6036SOL    HW119007   6.694   3.364   0.749
 6036SOL    HW219008   6.579   3.272   0.820
 6037SOL     OW19009   4.750   0.673   6.131
 6037SOL    HW119010   4.716   0.641   6.220
 6037SOL    HW219011   4.835   0.625   6.109
 6038SOL     OW19012   1.502   1.316   6.333
 6038SOL    HW119013   1.586   1.261   6.335
 6038SOL    HW219014   1.424   1.256   6.319
 6039SOL     OW19015   3.857   3.095   3.759
 6039SOL    HW119016   3.840   3.109   3.857
 6039SOL    HW219017   3.779   3.047   3.719
 6040SOL     OW19018   0.634   2.047   0.374
 6040SOL    HW119019   0.717   2.094   0.403
 6040SOL    HW219020   0.561   2.114   0.357
 6041SOL     OW19021   0.718   3.381   4.544
 6041SOL    HW119022   0.716   3.294   4.592
 6041SOL    HW219023   0.763   3.369   4.455
 6042SOL     OW19024   2.466   6.167   3.741
 6042SOL    HW119025   2.433   6.073   3.741
 6042SOL    HW219026   2.535   6.179   3.812
 6043SOL     OW19027   1.957   6.018   2.577
 6043SOL    HW119028   1.996   5.988   2.665
 6043SOL    HW219029   1.892   6.092   2.593
 6044SOL     OW19030   6.725   3.188   0.498
 6044SOL    HW119031   6.706   3.206   0.595
 6044SOL    HW219032   6.818   3.150   0.490
 6045SOL     OW19033   5.032   1.289   4.153
 6045SOL    HW119034   5.077   1.214   4.105
 6045SOL    HW219035   4.933   1.280   4.144
 6046SOL     OW19036   3.799   3.649   2.702
 6046SOL    HW119037   3.809   3.550   2.713
 6046SOL    HW219038   3.708   3.677   2.732
 6047SOL     OW19039   0.398   1.302   0.160
 6047SOL    HW119040   0.307   1.316   0.199
 6047SOL    HW219041   0.406   1.352   0.074
 6048SOL     OW19042   5.714   5.894   3.145
 6048SOL    HW119043   5.786   5.852   3.089
 6048SOL    HW219044   5.625   5.860   3.114
 6049SOL     OW19045   5.207   5.263   5.857
 6049SOL    HW119046   5.155   5.189   5.901
 6049SOL    HW219047   5.232   5.331   5.925
 6050SOL     OW19048   2.625   5.191   2.988
 6050SOL    HW119049   2.599   5.273   3.039
 6050SOL    HW219050   2.632   5.214   2.890
 6051SOL     OW19051   0.766   1.221   2.075
 6051SOL    HW119052   0.695   1.255   2.014
 6051SOL    HW219053   0.842   1.185   2.021
 6052SOL     OW19054   5.668   5.671   7.014
 6052SOL    HW119055   5.594   5.714   6.962
 6052SOL    HW219056   5.668   5.707   0.082
 6053SOL     OW19057   3.912   2.605   6.452
 6053SOL    HW119058   4.007   2.631   6.433
 6053SOL    HW219059   3.909   2.511   6.486
 6054SOL     OW19060   4.157   3.517   0.446
 6054SOL    HW119061   4.227   3.567   0.498
 6054SOL    HW219062   4.072   3.516   0.498
 6055SOL     OW19063   2.939   4.417   1.474
 6055SOL    HW119064   2.930   4.517   1.470
 6055SOL    HW219065   2.984   4.384   1.391
 6056SOL     OW19066   5.406   5.641   3.432
 6056SOL    HW119067   5.342   5.712   3.405
 6056SOL    HW219068   5.433   5.588   3.351
 6057SOL     OW19069   5.547   1.471   3.696
 6057SOL    HW119070   5.579   1.393   3.642
 6057SOL    HW219071   5.625   1.518   3.737
 6058SOL     OW19072   0.238   2.588   5.523
 6058SOL    HW119073   0.329   2.551   5.537
 6058SOL    HW219074   0.182   2.572   5.605
 6059SOL     OW19075   3.776   2.312   6.911
 6059SOL    HW119076   3.805   2.230   6.861
 6059SOL    HW219077   3.746   2.382   6.845
 6060SOL     OW19078   1.725   2.257   0.543
 6060SOL    HW119079   1.760   2.340   0.585
 6060SOL    HW219080   1.763   2.177   0.591
 6061SOL     OW19081   3.073   4.126   6.860
 6061SOL    HW119082   3.067   4.064   6.938
 6061SOL    HW219083   3.029   4.084   6.781
 6062SOL     OW19084   2.280   2.315   6.057
 6062SOL    HW119085   2.312   2.374   5.983
 6062SOL    HW219086   2.206   2.361   6.106
 6063SOL     OW19087   5.124   4.279   6.121
 6063SOL    HW119088   5.090   4.198   6.169
 6063SOL    HW219089   5.224   4.279   6.123
 6064SOL     OW19090   5.467   6.233   0.761
 6064SOL    HW119091   5.440   6.253   0.667
 6064SOL    HW219092   5.408   6.161   0.798
 6065SOL     OW19093   2.436   6.038   1.651
 6065SOL    HW119094   2.421   6.040   1.552
 6065SOL    HW219095   2.532   6.016   1.670
 6066SOL     OW19096   5.784   5.754   2.070
 6066SOL    HW119097   5.791   5.659   2.098
 6066SOL    HW219098   5.822   5.813   2.141
 6067SOL     OW19099   0.037   5.703   5.750
 6067SOL    HW119100   0.094   5.676   5.828
 6067SOL    HW219101   0.039   5.631   5.681
 6068SOL     OW19102   4.693   1.816   4.315
 6068SOL    HW119103   4.736   1.834   4.404
 6068SOL    HW219104   4.594   1.804   4.329
 6069SOL     OW19105   0.483   4.777   5.700
 6069SOL    HW119106   0.462   4.875   5.695
 6069SOL    HW219107   0.460   4.743   5.791
 6070SOL     OW19108   2.814   1.044   0.895
 6070SOL    HW119109   2.837   1.073   0.802
 6070SOL    HW219110   2.888   1.070   0.957
 6071SOL     OW19111   5.495   0.805   6.472
 6071SOL    HW119112   5.455   0.715   6.488
 6071SOL    HW219113   5.505   0.819   6.373
 6072SOL     OW19114   6.732   3.073   0.124
 6072SOL    HW119115   6.650   3.086   0.179
 6072SOL    HW219116   6.711   3.087   0.028
 6073SOL     OW19117   4.552   3.884   1.117
 6073SOL    HW119118   4.569   3.875   1.018
 6073SOL    HW219119   4.628   3.844   1.167
 6074SOL     OW19120   0.900   6.228   3.083
 6074SOL    HW119121   0.965   6.152   3.081
 6074SOL    HW219122   0.816   6.198   3.129
 6075SOL     OW19123   6.399   0.142   6.755
 6075SOL    HW119124   6.392   0.241   6.756
 6075SOL    HW219125   6.308   0.102   6.745
 6076SOL     OW19126   0.423   6.440   3.917
 6076SOL    HW119127   0.348   6.491   3.874
 6076SOL    HW219128   0.503   6.442   3.858
 6077SOL     OW19129   4.995   5.938   2.844
 6077SOL    HW119130   4.931   6.014   2.854
 6077SOL    HW219131   5.000   5.886   2.930
 6078SOL     OW19132   4.980   4.688   0.359
 6078SOL    HW119133   5.007   4.740   0.440
 6078SOL    HW219134   5.053   4.693   0.290
 6079SOL     OW19135   3.157   1.960   0.567
 6079SOL    HW119136   3.067   1.926   0.593
 6079SOL    HW219137   3.227   1.908   0.617
 6080SOL     OW19138   0.361   3.544   5.330
 6080SOL    HW119139   0.282   3.581   5.379
 6080SOL    HW219140   0.329   3.493   5.250
 6081SOL     OW19141   1.974   4.024   4.139
 6081SOL    HW119142   1.960   4.110   4.090
 6081SOL    HW219143   1.900   3.960   4.118
 6082SOL     OW19144   5.247   1.483   1.217
 6082SOL    HW119145   5.229   1.552   1.287
 6082SOL    HW219146   5.166   1.425   1.205
 6083SOL     OW19147   5.260   6.774   6.594
 6083SOL    HW119148   5.348   6.748   6.553
 6083SOL    HW219149   5.205   6.691   6.609
 6084SOL     OW19150   6.045   5.176   3.280
 6084SOL    HW119151   6.005   5.146   3.193
 6084SOL    HW219152   6.117   5.242   3.262
 6085SOL     OW19153   0.656   6.705   0.649
 6085SOL    HW119154   0.572   6.718   0.702
 6085SOL    HW219155   0.711   6.633   0.690
 6086SOL     OW19156   3.575   3.343   0.163
 6086SOL    HW119157   3.501   3.362   0.099
 6086SOL    HW219158   3.539   3.298   0.244
 6087SOL     OW19159   4.288   0.087   0.941
 6087SOL    HW119160   4.318   7.021   0.918
 6087SOL    HW219161   4.290   0.099   1.041
 6088SOL     OW19162   4.108   6.032   2.182
 6088SOL    HW119163   4.075   6.098   2.115
 6088SOL    HW219164   4.032   5.999   2.237
 6089SOL     OW19165   6.874   4.178   3.388
 6089SOL    HW119166   6.796   4.183   3.326
 6089SOL    HW219167   6.919   4.089   3.377
 6090SOL     OW19168   3.754   5.735   5.140
 6090SOL    HW119169   3.744   5.834   5.126
 6090SOL    HW219170   3.678   5.688   5.097
 6091SOL     OW19171   0.593   2.170   2.760
 6091SOL    HW119172   0.549   2.106   2.698
 6091SOL    HW219173   0.641   2.120   2.832
 6092SOL     OW19174   2.653   6.776   1.306
 6092SOL    HW119175   2.647   6.683   1.272
 6092SOL    HW219176   2.589   6.834   1.256
 6093SOL     OW19177   2.828   2.813   1.444
 6093SOL    HW119178   2.808   2.716   1.456
 6093SOL    HW219179   2.742   2.863   1.433
 6094SOL     OW19180   1.136   0.125   5.543
 6094SOL    HW119181   1.049   0.171   5.522
 6094SOL    HW219182   1.190   0.183   5.603
 6095SOL     OW19183   5.298   4.997   2.116
 6095SOL    HW119184   5.368   4.934   2.083
 6095SOL    HW219185   5.259   5.046   2.039
 6096SOL     OW19186   4.931   6.005   2.568
 6096SOL    HW119187   5.011   6.062   2.548
 6096SOL    HW219188   4.950   5.948   2.649
 6097SOL     OW19189   2.843   5.298   2.578
 6097SOL    HW119190   2.826   5.252   2.490
 6097SOL    HW219191   2.881   5.389   2.561
 6098SOL     OW19192   5.936   0.459   5.349
 6098SOL    HW119193   5.929   0.504   5.438
 6098SOL    HW219194   5.854   0.477   5.295
 6099SOL     OW19195   3.660   6.786   5.364
 6099SOL    HW119196   3.575   6.837   5.356
 6099SOL    HW219197   3.644   6.690   5.341
 6100SOL     OW19198   0.259   6.098   4.928
 6100SOL    HW119199   0.298   6.099   4.836
 6100SOL    HW219200   0.327   6.062   4.992
 6101SOL     OW19201   0.374   2.755   1.861
 6101SOL    HW119202   0.451   2.700   1.893
 6101SOL    HW219203   0.324   2.705   1.791
 6102SOL     OW19204   3.262   0.134   2.803
 6102SOL    HW119205   3.257   0.167   2.708
 6102SOL    HW219206   3.246   0.036   2.805
 6103SOL     OW19207   5.506   1.099   2.245
 6103SOL    HW119208   5.597   1.059   2.254
 6103SOL    HW219209   5.466   1.111   2.336
 6104SOL     OW19210   6.724   1.072   4.531
 6104SOL    HW119211   6.731   0.987   4.584
 6104SOL    HW219212   6.778   1.143   4.576
 6105SOL     OW19213   4.033   4.536   5.635
 6105SOL    HW119214   4.112   4.518   5.693
 6105SOL    HW219215   4.058   4.520   5.539
 6106SOL     OW19216   6.121   3.971   4.986
 6106SOL    HW119217   6.203   3.968   4.928
 6106SOL    HW219218   6.040   3.974   4.928
 6107SOL     OW19219   5.793   4.905   5.175
 6107SOL    HW119220   5.893   4.902   5.169
 6107SOL    HW219221   5.754   4.842   5.108
 6108SOL     OW19222   2.623   1.275   6.253
 6108SOL    HW119223   2.528   1.283   6.284
 6108SOL    HW219224   2.684   1.274   6.332
 6109SOL     OW19225   0.089   6.324   4.169
 6109SOL    HW119226   0.150   6.277   4.105
 6109SOL    HW219227   7.020   6.297   4.150
 6110SOL     OW19228   1.212   1.378   3.952
 6110SOL    HW119229   1.292   1.366   3.893
 6110SOL    HW219230   1.139   1.318   3.922
 6111SOL     OW19231   2.132   2.986   0.611
 6111SOL    HW119232   2.154   2.888   0.606
 6111SOL    HW219233   2.185   3.036   0.543
 6112SOL     OW19234   4.884   6.412   3.957
 6112SOL    HW119235   4.785   6.427   3.955
 6112SOL    HW219236   4.910   6.349   3.884
 6113SOL     OW19237   2.943   5.479   0.618
 6113SOL    HW119238   2.903   5.568   0.640
 6113SOL    HW219239   2.907   5.446   0.531
 6114SOL     OW19240   4.464   3.293   1.300
 6114SOL    HW119241   4.450   3.387   1.330
 6114SOL    HW219242   4.425   3.281   1.209
 6115SOL     OW19243   6.991   0.416   5.068
 6115SOL    HW119244   6.902   0.445   5.102
 6115SOL    HW219245   0.009   0.354   5.134
 6116SOL     OW19246   6.361   3.324   0.234
 6116SOL    HW119247   6.286   3.390   0.244
 6116SOL    HW219248   6.323   3.236   0.203
 6117SOL     OW19249   2.441   2.303   1.526
 6117SOL    HW119250   2.438   2.271   1.621
 6117SOL    HW219251   2.500   2.244   1.472
 6118SOL     OW19252   5.258   0.495   1.954
 6118SOL    HW119253   5.315   0.575   1.939
 6118SOL    HW219254   5.256   0.439   1.870
 6119SOL     OW19255   0.448   1.291   6.641
 6119SOL    HW119256   0.510   1.338   6.704
 6119SOL    HW219257   0.464   1.192   6.646
 6120SOL     OW19258   3.137   0.519   3.904
 6120SOL    HW119259   3.210   0.536   3.838
 6120SOL    HW219260   3.064   0.465   3.860
 6121SOL     OW19261   2.354   2.054   5.004
 6121SOL    HW119262   2.372   1.981   5.070
 6121SOL    HW219263   2.372   2.143   5.046
 6122SOL     OW19264   4.955   4.866   5.010
 6122SOL    HW119265   4.920   4.958   4.993
 6122SOL    HW219266   5.005   4.833   4.930
 6123SOL     OW19267   6.526   0.924   4.908
 6123SOL    HW119268   6.529   1.021   4.883
 6123SOL    HW219269   6.452   0.879   4.858
 6124SOL     OW19270   2.128   5.661   4.102
 6124SOL    HW119271   2.149   5.736   4.039
 6124SOL    HW219272   2.182   5.671   4.185
 6125SOL     OW19273   3.452   1.539   5.592
 6125SOL    HW119274   3.538   1.576   5.559
 6125SOL    HW219275   3.447   1.550   5.691
 6126SOL     OW19276   6.167   3.051   6.887
 6126SOL    HW119277   6.179   3.082   6.792
 6126SOL    HW219278   6.094   2.983   6.891
 6127SOL     OW19279   5.385   1.385   2.835
 6127SOL    HW119280   5.445   1.400   2.758
 6127SOL    HW219281   5.356   1.472   2.874
 6128SOL     OW19282   5.708   5.710   6.694
 6128SOL    HW119283   5.664   5.750   6.775
 6128SOL    HW219284   5.763   5.631   6.722
 6129SOL     OW19285   2.793   5.494   3.112
 6129SOL    HW119286   2.810   5.396   3.114
 6129SOL    HW219287   2.721   5.517   3.179
 6130SOL     OW19288   5.733   3.106   6.966
 6130SOL    HW119289   5.801   3.073   0.006
 6130SOL    HW219290   5.772   3.102   6.874
 6131SOL     OW19291   6.547   2.534   3.031
 6131SOL    HW119292   6.459   2.521   3.077
 6131SOL    HW219293   6.600   2.604   3.080
 6132SOL     OW19294   4.534   6.407   6.166
 6132SOL    HW119295   4.552   6.309   6.171
 6132SOL    HW219296   4.531   6.435   6.070
 6133SOL     OW19297   0.713   2.401   3.105
 6133SOL    HW119298   0.710   2.476   3.171
 6133SOL    HW219299   0.640   2.414   3.037
 6134SOL     OW19300   0.068   6.200   5.163
 6134SOL    HW119301   0.077   6.222   5.260
 6134SOL    HW219302   0.149   6.149   5.133
 6135SOL     OW19303   6.542   6.834   0.332
 6135SOL    HW119304   6.592   6.894   0.269
 6135SOL    HW219305   6.608   6.779   0.384
 6136SOL     OW19306   1.188   1.844   3.503
 6136SOL    HW119307   1.206   1.750   3.534
 6136SOL    HW219308   1.264   1.875   3.447
 6137SOL     OW19309   6.890   4.865   1.013
 6137SOL    HW119310   6.872   4.922   0.933
 6137SOL    HW219311   6.806   4.817   1.039
 6138SOL     OW19312   5.359   0.569   2.403
 6138SOL    HW119313   5.280   0.536   2.352
 6138SOL    HW219314   5.366   0.669   2.393
 6139SOL     OW19315   1.628   2.098   4.944
 6139SOL    HW119316   1.684   2.155   4.883
 6139SOL    HW219317   1.669   2.096   5.035
 6140SOL     OW19318   2.141   0.103   3.100
 6140SOL    HW119319   2.225   0.053   3.117
 6140SOL    HW219320   2.118   0.160   3.179
 6141SOL     OW19321   1.238   1.077   0.117
 6141SOL    HW119322   1.331   1.047   0.137
 6141SOL    HW219323   1.224   1.169   0.154
 6142SOL     OW19324   6.695   0.242   1.449
 6142SOL    HW119325   6.646   0.329   1.454
 6142SOL    HW219326   6.714   0.220   1.354
 6143SOL     OW19327   0.740   3.295   5.500
 6143SOL    HW119328   0.789   3.259   5.420
 6143SOL    HW219329   0.750   3.394   5.503
 6144SOL     OW19330   3.350   5.352   2.580
 6144SOL    HW119331   3.289   5.406   2.638
 6144SOL    HW219332   3.435   5.334   2.629
 6145SOL     OW19333   4.843   3.114   3.616
 6145SOL    HW119334   4.872   3.152   3.529
 6145SOL    HW219335   4.851   3.183   3.688
 6146SOL     OW19336   5.784   0.198   5.615
 6146SOL    HW119337   5.823   0.288   5.636
 6146SOL    HW219338   5.760   0.194   5.518
 6147SOL     OW19339   1.141   2.216   5.654
 6147SOL    HW119340   1.204   2.277   5.703
 6147SOL    HW219341   1.175   2.122   5.660
 6148SOL     OW19342   3.832   5.177   0.024
 6148SOL    HW119343   3.905   5.122   7.010
 6148SOL    HW219344   3.805   5.249   6.985
 6149SOL     OW19345   3.750   1.933   1.595
 6149SOL    HW119346   3.679   2.003   1.585
 6149SOL    HW219347   3.782   1.905   1.504
 6150SOL     OW19348   0.311   4.568   4.779
 6150SOL    HW119349   0.226   4.611   4.747
 6150SOL    HW219350   0.360   4.632   4.838
 6151SOL     OW19351   3.741   4.900   3.057
 6151SOL    HW119352   3.642   4.908   3.068
 6151SOL    HW219353   3.762   4.891   2.960
 6152SOL     OW19354   1.148   3.524   2.888
 6152SOL    HW119355   1.089   3.605   2.899
 6152SOL    HW219356   1.233   3.551   2.844
 6153SOL     OW19357   4.929   6.183   1.203
 6153SOL    HW119358   4.849   6.127   1.179
 6153SOL    HW219359   4.935   6.260   1.140
 6154SOL     OW19360   4.727   4.190   2.378
 6154SOL    HW119361   4.671   4.228   2.303
 6154SOL    HW219362   4.751   4.096   2.356
 6155SOL     OW19363   1.955   1.107   3.973
 6155SOL    HW119364   1.961   1.188   4.031
 6155SOL    HW219365   1.976   1.132   3.878
 6156SOL     OW19366   5.265   4.279   2.124
 6156SOL    HW119367   5.326   4.285   2.203
 6156SOL    HW219368   5.196   4.209   2.141
 6157SOL     OW19369   0.432   2.989   0.966
 6157SOL    HW119370   0.499   3.001   1.040
 6157SOL    HW219371   0.436   2.895   0.932
 6158SOL     OW19372   3.107   1.792   5.396
 6158SOL    HW119373   3.158   1.875   5.420
 6158SOL    HW219374   3.024   1.818   5.346
 6159SOL     OW19375   5.872   2.534   7.025
 6159SOL    HW119376   5.970   2.525   7.006
 6159SOL    HW219377   5.820   2.502   6.946
 6160SOL     OW19378   0.349   6.977   1.426
 6160SOL    HW119379   0.419   6.908   1.446
 6160SOL    HW219380   0.380   0.009   1.351
 6161SOL     OW19381   4.899   3.834   6.483
 6161SOL    HW119382   4.812   3.808   6.526
 6161SOL    HW219383   4.972   3.827   6.550
 6162SOL     OW19384   6.505   5.728   1.603
 6162SOL    HW119385   6.480   5.640   1.564
 6162SOL    HW219386   6.430   5.793   1.588
 6163SOL     OW19387   6.043   5.988   2.898
 6163SOL    HW119388   6.118   6.034   2.945
 6163SOL    HW219389   6.041   6.017   2.802
 6164SOL     OW19390   3.426   3.884   4.050
 6164SOL    HW119391   3.497   3.847   4.109
 6164SOL    HW219392   3.456   3.882   3.954
 6165SOL     OW19393   3.949   0.882   0.130
 6165SOL    HW119394   3.958   0.982   0.131
 6165SOL    HW219395   4.036   0.840   0.155
 6166SOL     OW19396   2.866   2.014   6.250
 6166SOL    HW119397   2.870   1.980   6.156
 6166SOL    HW219398   2.770   2.016   6.280
 6167SOL     OW19399   1.522   3.215   3.125
 6167SOL    HW119400   1.474   3.281   3.182
 6167SOL    HW219401   1.588   3.264   3.068
 6168SOL     OW19402   0.347   3.656   4.266
 6168SOL    HW119403   0.381   3.750   4.276
 6168SOL    HW219404   0.308   3.625   4.352
 6169SOL     OW19405   2.642   0.816   6.856
 6169SOL    HW119406   2.543   0.809   6.865
 6169SOL    HW219407   2.680   0.726   6.836
 6170SOL     OW19408   2.856   4.524   0.814
 6170SOL    HW119409   2.768   4.497   0.854
 6170SOL    HW219410   2.874   4.470   0.732
 6171SOL     OW19411   2.324   4.034   1.959
 6171SOL    HW119412   2.239   4.007   1.913
 6171SOL    HW219413   2.316   4.013   2.057
 6172SOL     OW19414   2.890   5.491   1.909
 6172SOL    HW119415   2.984   5.466   1.888
 6172SOL    HW219416   2.828   5.437   1.851
 6173SOL     OW19417   1.252   5.635   2.273
 6173SOL    HW119418   1.190   5.561   2.299
 6173SOL    HW219419   1.200   5.715   2.245
 6174SOL     OW19420   5.269   4.124   1.720
 6174SOL    HW119421   5.352   4.174   1.741
 6174SOL    HW219422   5.193   4.159   1.775
 6175SOL     OW19423   5.381   0.477   4.006
 6175SOL    HW119424   5.396   0.549   3.938
 6175SOL    HW219425   5.282   0.464   4.019
 6176SOL     OW19426   4.961   3.227   6.537
 6176SOL    HW119427   4.899   3.186   6.470
 6176SOL    HW219428   5.047   3.252   6.492
 6177SOL     OW19429   6.958   3.009   2.598
 6177SOL    HW119430   6.861   3.007   2.619
 6177SOL    HW219431   7.005   2.937   2.649
 6178SOL     OW19432   5.837   3.498   1.669
 6178SOL    HW119433   5.762   3.501   1.735
 6178SOL    HW219434   5.807   3.453   1.585
 6179SOL     OW19435   0.571   1.596   5.015
 6179SOL    HW119436   0.544   1.658   4.942
 6179SOL    HW219437   0.568   1.644   5.103
 6180SOL     OW19438   3.417   0.357   5.926
 6180SOL    HW119439   3.442   0.425   5.995
 6180SOL    HW219440   3.483   0.282   5.930
 6181SOL     OW19441   4.407   5.888   6.743
 6181SOL    HW119442   4.322   5.940   6.737
 6181SOL    HW219443   4.432   5.875   6.839
 6182SOL     OW19444   4.966   6.977   5.782
 6182SOL    HW119445   4.868   6.965   5.764
 6182SOL    HW219446   5.018   6.907   5.731
 6183SOL     OW19447   3.821   1.015   2.729
 6183SOL    HW119448   3.802   0.927   2.774
 6183SOL    HW219449   3.820   1.002   2.629
 6184SOL     OW19450   5.841   0.001   6.310
 6184SOL    HW119451   5.853   0.003   6.211
 6184SOL    HW219452   5.797   0.085   6.341
 6185SOL     OW19453   1.553   3.046   6.051
 6185SOL    HW119454   1.493   3.076   5.977
 6185SOL    HW219455   1.647   3.041   6.017
 6186SOL     OW19456   5.371   0.229   4.469
 6186SOL    HW119457   5.283   0.183   4.479
 6186SOL    HW219458   5.442   0.161   4.449
 6187SOL     OW19459   3.156   4.909   4.861
 6187SOL    HW119460   3.098   4.933   4.939
 6187SOL    HW219461   3.098   4.883   4.783
 6188SOL     OW19462   2.691   6.934   1.559
 6188SOL    HW119463   2.785   6.965   1.573
 6188SOL    HW219464   2.682   6.896   1.467
 6189SOL     OW19465   5.137   4.640   3.072
 6189SOL    HW119466   5.187   4.710   3.020
 6189SOL    HW219467   5.039   4.658   3.064
 6190SOL     OW19468   5.042   2.778   5.598
 6190SOL    HW119469   5.035   2.731   5.687
 6190SOL    HW219470   4.981   2.857   5.597
 6191SOL     OW19471   6.556   2.256   6.554
 6191SOL    HW119472   6.589   2.185   6.616
 6191SOL    HW219473   6.545   2.342   6.604
 6192SOL     OW19474   3.153   2.254   0.621
 6192SOL    HW119475   3.235   2.303   0.594
 6192SOL    HW219476   3.151   2.165   0.575
 6193SOL     OW19477   6.337   6.886   1.377
 6193SOL    HW119478   6.340   6.809   1.442
 6193SOL    HW219479   6.274   6.955   1.412
 6194SOL     OW19480   2.016   0.479   0.531
 6194SOL    HW119481   2.098   0.512   0.578
 6194SOL    HW219482   1.935   0.526   0.568
 6195SOL     OW19483   2.703   6.717   5.779
 6195SOL    HW119484   2.653   6.786   5.727
 6195SOL    HW219485   2.693   6.736   5.877
 6196SOL     OW19486   0.277   1.438   5.992
 6196SOL    HW119487   0.236   1.366   6.048
 6196SOL    HW219488   0.354   1.479   6.040
 6197SOL     OW19489   2.146   2.738   0.708
 6197SOL    HW119490   2.173   2.686   0.627
 6197SOL    HW219491   2.088   2.682   0.766
 6198SOL     OW19492   3.577   5.107   2.546
 6198SOL    HW119493   3.599   5.186   2.603
 6198SOL    HW219494   3.564   5.027   2.604
 6199SOL     OW19495   0.596   0.813   6.383
 6199SOL    HW119496   0.690   0.846   6.384
 6199SOL    HW219497   0.596   0.713   6.388
 6200SOL     OW19498   3.958   1.013   5.789
 6200SOL    HW119499   3.920   0.931   5.831
 6200SOL    HW219500   3.915   1.094   5.830
 6201SOL     OW19501   2.210   4.391   4.015
 6201SOL    HW119502   2.278   4.463   4.029
 6201SOL    HW219503   2.126   4.415   4.063
 6202SOL     OW19504   2.824   2.616   1.216
 6202SOL    HW119505   2.812   2.591   1.120
 6202SOL    HW219506   2.902   2.678   1.225
 6203SOL     OW19507   5.538   2.093   5.098
 6203SOL    HW119508   5.509   2.171   5.042
 6203SOL    HW219509   5.620   2.053   5.057
 6204SOL     OW19510   1.750   6.582   6.055
 6204SOL    HW119511   1.671   6.557   6.111
 6204SOL    HW219512   1.728   6.568   5.958
 6205SOL     OW19513   5.278   6.336   0.126
 6205SOL    HW119514   5.315   6.264   0.068
 6205SOL    HW219515   5.350   6.372   0.186
 6206SOL     OW19516   5.544   6.929   3.364
 6206SOL    HW119517   5.581   7.014   3.328
 6206SOL    HW219518   5.511   6.872   3.288
 6207SOL     OW19519   1.872   4.084   4.519
 6207SOL    HW119520   1.940   4.143   4.564
 6207SOL    HW219521   1.864   4.109   4.423
 6208SOL     OW19522   5.827   5.707   5.830
 6208SOL    HW119523   5.844   5.642   5.903
 6208SOL    HW219524   5.913   5.727   5.782
 6209SOL     OW19525   2.941   4.937   1.101
 6209SOL    HW119526   2.900   5.006   1.161
 6209SOL    HW219527   2.872   4.869   1.077
 6210SOL     OW19528   6.707   4.904   3.182
 6210SOL    HW119529   6.679   4.975   3.247
 6210SOL    HW219530   6.626   4.858   3.147
 6211SOL     OW19531   2.521   0.276   5.135
 6211SOL    HW119532   2.554   0.258   5.228
 6211SOL    HW219533   2.447   0.343   5.138
 6212SOL     OW19534   6.691   0.212   3.564
 6212SOL    HW119535   6.782   0.216   3.605
 6212SOL    HW219536   6.668   0.118   3.541
 6213SOL     OW19537   6.634   0.389   0.050
 6213SOL    HW119538   6.703   0.333   0.003
 6213SOL    HW219539   6.653   0.486   0.035
 6214SOL     OW19540   5.813   4.852   2.193
 6214SOL    HW119541   5.809   4.932   2.133
 6214SOL    HW219542   5.830   4.771   2.138
 6215SOL     OW19543   2.466   5.359   1.127
 6215SOL    HW119544   2.541   5.410   1.167
 6215SOL    HW219545   2.466   5.372   1.028
 6216SOL     OW19546   6.575   1.883   2.444
 6216SOL    HW119547   6.663   1.930   2.435
 6216SOL    HW219548   6.504   1.949   2.470
 6217SOL     OW19549   5.350   2.073   1.582
 6217SOL    HW119550   5.354   2.021   1.667
 6217SOL    HW219551   5.262   2.059   1.537
 6218SOL     OW19552   3.985   4.889   4.405
 6218SOL    HW119553   4.035   4.928   4.483
 6218SOL    HW219554   4.048   4.876   4.328
 6219SOL     OW19555   0.485   1.193   4.061
 6219SOL    HW119556   0.436   1.269   4.019
 6219SOL    HW219557   0.456   1.107   4.018
 6220SOL     OW19558   1.794   3.869   5.101
 6220SOL    HW119559   1.713   3.825   5.141
 6220SOL    HW219560   1.788   3.865   5.001
 6221SOL     OW19561   4.474   4.658   4.513
 6221SOL    HW119562   4.561   4.699   4.542
 6221SOL    HW219563   4.409   4.661   4.589
 6222SOL     OW19564   0.109   1.543   1.490
 6222SOL    HW119565   0.208   1.535   1.496
 6222SOL    HW219566   0.068   1.518   1.577
 6223SOL     OW19567   4.863   3.959   4.577
 6223SOL    HW119568   4.810   4.007   4.647
 6223SOL    HW219569   4.865   3.861   4.597
 6224SOL     OW19570   2.301   0.344   4.788
 6224SOL    HW119571   2.254   0.403   4.722
 6224SOL    HW219572   2.308   0.392   4.876
 6225SOL     OW19573   4.059   1.925   6.904
 6225SOL    HW119574   4.010   1.996   6.854
 6225SOL    HW219575   3.995   1.872   6.959
 6226SOL     OW19576   6.731   6.815   4.393
 6226SOL    HW119577   6.816   6.867   4.406
 6226SOL    HW219578   6.709   6.766   4.477
 6227SOL     OW19579   2.973   4.567   0.257
 6227SOL    HW119580   3.025   4.653   0.256
 6227SOL    HW219581   2.875   4.587   0.252
 6228SOL     OW19582   6.712   1.907   2.697
 6228SOL    HW119583   6.675   1.891   2.606
 6228SOL    HW219584   6.639   1.941   2.757
 6229SOL     OW19585   1.641   2.659   1.992
 6229SOL    HW119586   1.544   2.636   1.983
 6229SOL    HW219587   1.693   2.609   1.923
 6230SOL     OW19588   2.237   2.222   3.601
 6230SOL    HW119589   2.217   2.288   3.528
 6230SOL    HW219590   2.327   2.240   3.638
 6231SOL     OW19591   6.590   5.478   1.388
 6231SOL    HW119592   6.570   5.502   1.293
 6231SOL    HW219593   6.530   5.403   1.416
 6232SOL     OW19594   1.182   1.389   0.075
 6232SOL    HW119595   1.117   1.318   0.104
 6232SOL    HW219596   1.135   1.454   0.014
 6233SOL     OW19597   4.519   1.276   6.598
 6233SOL    HW119598   4.442   1.339   6.583
 6233SOL    HW219599   4.493   1.209   6.667
 6234SOL     OW19600   1.970   2.408   3.727
 6234SOL    HW119601   1.947   2.486   3.669
 6234SOL    HW219602   1.953   2.432   3.822
 6235SOL     OW19603   1.840   5.763   2.709
 6235SOL    HW119604   1.911   5.728   2.771
 6235SOL    HW219605   1.834   5.862   2.718
 6236SOL     OW19606   6.482   3.838   0.400
 6236SOL    HW119607   6.455   3.754   0.353
 6236SOL    HW219608   6.457   3.917   0.345
 6237SOL     OW19609   3.924   6.028   6.692
 6237SOL    HW119610   3.879   6.107   6.650
 6237SOL    HW219611   3.855   5.970   6.736
 6238SOL     OW19612   4.642   3.811   0.880
 6238SOL    HW119613   4.698   3.840   0.802
 6238SOL    HW219614   4.663   3.717   0.904
 6239SOL     OW19615   2.433   0.112   3.681
 6239SOL    HW119616   2.338   0.138   3.659
 6239SOL    HW219617   2.444   0.014   3.668
 6240SOL     OW19618   1.586   3.601   0.084
 6240SOL    HW119619   1.574   3.700   0.087
 6240SOL    HW219620   1.635   3.571   0.165
 6241SOL     OW19621   4.748   0.195   1.818
 6241SOL    HW119622   4.818   0.184   1.747
 6241SOL    HW219623   4.669   0.137   1.796
 6242SOL     OW19624   3.974   2.196   3.659
 6242SOL    HW119625   3.882   2.160   3.650
 6242SOL    HW219626   4.011   2.172   3.749
 6243SOL     OW19627   5.681   5.560   2.951
 6243SOL    HW119628   5.749   5.539   3.021
 6243SOL    HW219629   5.658   5.658   2.955
 6244SOL     OW19630   2.011   1.948   2.106
 6244SOL    HW119631   2.043   1.931   2.013
 6244SOL    HW219632   2.066   2.020   2.148
 6245SOL     OW19633   2.062   3.414   0.814
 6245SOL    HW119634   2.098   3.344   0.875
 6245SOL    HW219635   2.130   3.434   0.742
 6246SOL     OW19636   4.437   0.471   0.176
 6246SOL    HW119637   4.443   0.416   0.260
 6246SOL    HW219638   4.449   0.567   0.199
 6247SOL     OW19639   6.850   6.012   2.961
 6247SOL    HW119640   6.923   6.016   3.029
 6247SOL    HW219641   6.787   5.938   2.983
 6248SOL     OW19642   1.258   5.693   1.119
 6248SOL    HW119643   1.198   5.766   1.089
 6248SOL    HW219644   1.244   5.675   1.216
 6249SOL     OW19645   6.110   4.053   6.595
 6249SOL    HW119646   6.089   4.137   6.544
 6249SOL    HW219647   6.043   4.042   6.669
 6250SOL     OW19648   6.222   4.684   5.633
 6250SOL    HW119649   6.306   4.738   5.628
 6250SOL    HW219650   6.156   4.717   5.566
 6251SOL     OW19651   4.747   1.715   1.289
 6251SOL    HW119652   4.778   1.728   1.383
 6251SOL    HW219653   4.657   1.757   1.277
 6252SOL     OW19654   2.186   6.153   5.299
 6252SOL    HW119655   2.247   6.115   5.368
 6252SOL    HW219656   2.095   6.113   5.310
 6253SOL     OW19657   2.679   4.150   1.683
 6253SOL    HW119658   2.595   4.169   1.734
 6253SOL    HW219659   2.675   4.196   1.595
 6254SOL     OW19660   5.065   0.049   0.586
 6254SOL    HW119661   4.997   7.007   0.561
 6254SOL    HW219662   5.154   0.024   0.547
 6255SOL     OW19663   0.034   2.526   3.269
 6255SOL    HW119664   6.974   2.539   3.319
 6255SOL    HW219665   0.088   2.609   3.274
 6256SOL     OW19666   3.860   5.356   3.949
 6256SOL    HW119667   3.775   5.354   4.001
 6256SOL    HW219668   3.932   5.311   4.001
 6257SOL     OW19669   4.322   3.150   0.461
 6257SOL    HW119670   4.395   3.154   0.529
 6257SOL    HW219671   4.331   3.227   0.398
 6258SOL     OW19672   4.453   2.267   2.864
 6258SOL    HW119673   4.491   2.356   2.840
 6258SOL    HW219674   4.364   2.278   2.906
 6259SOL     OW19675   3.007   2.416   1.489
 6259SOL    HW119676   3.026   2.334   1.543
 6259SOL    HW219677   2.910   2.417   1.463
 6260SOL     OW19678   3.562   4.047   0.966
 6260SOL    HW119679   3.591   4.133   0.924
 6260SOL    HW219680   3.463   4.036   0.955
 6261SOL     OW19681   4.523   0.036   6.817
 6261SOL    HW119682   4.492   0.097   6.890
 6261SOL    HW219683   4.446   7.009   6.781
 6262SOL     OW19684   0.671   5.976   5.339
 6262SOL    HW119685   0.661   5.893   5.394
 6262SOL    HW219686   0.638   6.055   5.391
 6263SOL     OW19687   6.244   1.236   1.204
 6263SOL    HW119688   6.320   1.173   1.186
 6263SOL    HW219689   6.206   1.216   1.294
 6264SOL     OW19690   2.128   1.645   0.178
 6264SOL    HW119691   2.053   1.690   0.227
 6264SOL    HW219692   2.167   1.709   0.112
 6265SOL     OW19693   5.228   3.960   1.040
 6265SOL    HW119694   5.293   4.035   1.049
 6265SOL    HW219695   5.134   3.995   1.048
 6266SOL     OW19696   2.590   0.071   2.234
 6266SOL    HW119697   2.493   0.062   2.257
 6266SOL    HW219698   2.645   0.021   2.301
 6267SOL     OW19699   2.638   0.470   6.961
 6267SOL    HW119700   2.598   0.467   0.027
 6267SOL    HW219701   2.565   0.470   6.893
 6268SOL     OW19702   2.421   5.607   3.280
 6268SOL    HW119703   2.462   5.680   3.226
 6268SOL    HW219704   2.333   5.638   3.316
 6269SOL     OW19705   6.120   4.299   0.367
 6269SOL    HW119706   6.136   4.214   0.418
 6269SOL    HW219707   6.027   4.298   0.330
 6270SOL     OW19708   0.655   0.790   4.180
 6270SOL    HW119709   0.573   0.739   4.154
 6270SOL    HW219710   0.636   0.888   4.172
 6271SOL     OW19711   6.356   1.783   1.085
 6271SOL    HW119712   6.306   1.825   1.160
 6271SOL    HW219713   6.309   1.802   0.999
 6272SOL     OW19714   2.008   2.114   3.510
 6272SOL    HW119715   2.093   2.122   3.561
 6272SOL    HW219716   1.931   2.143   3.568
 6273SOL     OW19717   4.326   0.374   2.259
 6273SOL    HW119718   4.394   0.310   2.294
 6273SOL    HW219719   4.372   0.453   2.219
 6274SOL     OW19720   2.870   6.609   6.632
 6274SOL    HW119721   2.843   6.553   6.711
 6274SOL    HW219722   2.791   6.661   6.600
 6275SOL     OW19723   2.974   0.643   4.356
 6275SOL    HW119724   2.888   0.692   4.368
 6275SOL    HW219725   3.048   0.709   4.338
 6276SOL     OW19726   1.185   5.215   3.815
 6276SOL    HW119727   1.162   5.182   3.906
 6276SOL    HW219728   1.185   5.315   3.814
 6277SOL     OW19729   5.934   3.561   4.529
 6277SOL    HW119730   5.849   3.597   4.489
 6277SOL    HW219731   5.980   3.634   4.580
 6278SOL     OW19732   4.206   0.399   4.149
 6278SOL    HW119733   4.201   0.311   4.102
 6278SOL    HW219734   4.287   0.449   4.118
 6279SOL     OW19735   4.755   1.279   6.952
 6279SOL    HW119736   4.789   1.370   6.927
 6279SOL    HW219737   4.660   1.288   6.984
 6280SOL     OW19738   0.891   5.219   6.028
 6280SOL    HW119739   0.966   5.158   6.001
 6280SOL    HW219740   0.816   5.164   6.065
 6281SOL     OW19741   2.958   6.736   5.054
 6281SOL    HW119742   2.875   6.698   5.095
 6281SOL    HW219743   3.004   6.666   4.999
 6282SOL     OW19744   0.857   0.151   3.474
 6282SOL    HW119745   0.951   0.147   3.440
 6282SOL    HW219746   0.829   0.059   3.502
 6283SOL     OW19747   0.933   3.474   4.899
 6283SOL    HW119748   0.868   3.474   4.823
 6283SOL    HW219749   0.911   3.400   4.962
 6284SOL     OW19750   2.517   4.655   6.381
 6284SOL    HW119751   2.541   4.566   6.421
 6284SOL    HW219752   2.452   4.641   6.307
 6285SOL     OW19753   2.033   4.648   2.906
 6285SOL    HW119754   2.129   4.664   2.930
 6285SOL    HW219755   1.975   4.709   2.959
 6286SOL     OW19756   6.469   6.587   4.404
 6286SOL    HW119757   6.429   6.677   4.388
 6286SOL    HW219758   6.527   6.590   4.485
 6287SOL     OW19759   3.498   4.907   2.708
 6287SOL    HW119760   3.457   4.925   2.797
 6287SOL    HW219761   3.427   4.878   2.644
 6288SOL     OW19762   5.563   3.609   1.066
 6288SOL    HW119763   5.595   3.623   1.160
 6288SOL    HW219764   5.627   3.651   1.003
 6289SOL     OW19765   1.176   6.802   2.354
 6289SOL    HW119766   1.250   6.832   2.293
 6289SOL    HW219767   1.089   6.833   2.317
 6290SOL     OW19768   5.962   3.787   3.603
 6290SOL    HW119769   6.047   3.743   3.632
 6290SOL    HW219770   5.899   3.793   3.681
 6291SOL     OW19771   4.117   3.699   3.235
 6291SOL    HW119772   4.216   3.694   3.226
 6291SOL    HW219773   4.086   3.629   3.299
 6292SOL     OW19774   0.364   1.144   1.973
 6292SOL    HW119775   0.327   1.237   1.965
 6292SOL    HW219776   0.301   1.088   2.027
 6293SOL     OW19777   5.470   4.859   0.278
 6293SOL    HW119778   5.426   4.940   0.317
 6293SOL    HW219779   5.563   4.882   0.250
 6294SOL     OW19780   3.752   5.724   2.359
 6294SOL    HW119781   3.670   5.757   2.312
 6294SOL    HW219782   3.742   5.626   2.379
 6295SOL     OW19783   6.798   6.342   5.944
 6295SOL    HW119784   6.726   6.407   5.966
 6295SOL    HW219785   6.782   6.257   5.994
 6296SOL     OW19786   6.802   0.653   2.724
 6296SOL    HW119787   6.791   0.751   2.704
 6296SOL    HW219788   6.745   0.600   2.661
 6297SOL     OW19789   5.429   0.982   5.761
 6297SOL    HW119790   5.379   1.046   5.819
 6297SOL    HW219791   5.368   0.907   5.735
 6298SOL     OW19792   0.062   2.131   3.705
 6298SOL    HW119793   7.006   2.166   3.751
 6298SOL    HW219794   0.111   2.206   3.661
 6299SOL     OW19795   6.227   2.983   0.637
 6299SOL    HW119796   6.173   2.937   0.566
 6299SOL    HW219797   6.316   2.937   0.646
 6300SOL     OW19798   5.075   1.433   3.446
 6300SOL    HW119799   5.005   1.455   3.513
 6300SOL    HW219800   5.165   1.452   3.485
 6301SOL     OW19801   3.316   0.606   1.057
 6301SOL    HW119802   3.380   0.545   1.009
 6301SOL    HW219803   3.337   0.701   1.033
 6302SOL     OW19804   6.579   0.483   2.315
 6302SOL    HW119805   6.641   0.554   2.349
 6302SOL    HW219806   6.485   0.517   2.319
 6303SOL     OW19807   1.713   5.823   5.015
 6303SOL    HW119808   1.683   5.859   5.104
 6303SOL    HW219809   1.804   5.860   4.993
 6304SOL     OW19810   4.172   0.797   4.827
 6304SOL    HW119811   4.098   0.855   4.860
 6304SOL    HW219812   4.250   0.804   4.889
 6305SOL     OW19813   4.986   1.248   2.487
 6305SOL    HW119814   4.910   1.266   2.549
 6305SOL    HW219815   5.071   1.241   2.541
 6306SOL     OW19816   6.393   2.798   4.379
 6306SOL    HW119817   6.429   2.769   4.291
 6306SOL    HW219818   6.388   2.720   4.441
 6307SOL     OW19819   1.998   4.693   0.261
 6307SOL    HW119820   2.083   4.706   0.313
 6307SOL    HW219821   1.931   4.648   0.319
 6308SOL     OW19822   3.828   2.680   6.038
 6308SOL    HW119823   3.765   2.684   5.960
 6308SOL    HW219824   3.908   2.626   6.013
 6309SOL     OW19825   5.836   2.083   5.070
 6309SOL    HW119826   5.865   2.178   5.082
 6309SOL    HW219827   5.879   2.044   4.988
 6310SOL     OW19828   0.068   5.376   4.247
 6310SOL    HW119829   0.063   5.294   4.190
 6310SOL    HW219830   0.092   5.351   4.341
 6311SOL     OW19831   6.100   6.856   4.267
 6311SOL    HW119832   6.059   6.819   4.184
 6311SOL    HW219833   6.028   6.877   4.333
 6312SOL     OW19834   5.283   4.519   5.618
 6312SOL    HW119835   5.198   4.510   5.670
 6312SOL    HW219836   5.262   4.530   5.521
 6313SOL     OW19837   2.396   5.122   3.964
 6313SOL    HW119838   2.426   5.096   4.055
 6313SOL    HW219839   2.321   5.189   3.971
 6314SOL     OW19840   1.383   0.507   3.546
 6314SOL    HW119841   1.392   0.550   3.456
 6314SOL    HW219842   1.462   0.448   3.563
 6315SOL     OW19843   2.419   4.008   6.922
 6315SOL    HW119844   2.381   4.079   6.981
 6315SOL    HW219845   2.370   3.923   6.937
 6316SOL     OW19846   4.376   1.476   5.492
 6316SOL    HW119847   4.461   1.423   5.494
 6316SOL    HW219848   4.325   1.461   5.576
 6317SOL     OW19849   5.994   5.275   4.757
 6317SOL    HW119850   6.093   5.284   4.752
 6317SOL    HW219851   5.969   5.233   4.844
 6318SOL     OW19852   1.804   2.235   4.745
 6318SOL    HW119853   1.838   2.290   4.821
 6318SOL    HW219854   1.879   2.183   4.704
 6319SOL     OW19855   0.320   1.686   2.746
 6319SOL    HW119856   0.234   1.675   2.696
 6319SOL    HW219857   0.388   1.622   2.710
 6320SOL     OW19858   0.168   1.814   3.176
 6320SOL    HW119859   0.168   1.881   3.250
 6320SOL    HW219860   0.216   1.851   3.097
 6321SOL     OW19861   2.760   3.829   6.129
 6321SOL    HW119862   2.771   3.924   6.157
 6321SOL    HW219863   2.851   3.787   6.119
 6322SOL     OW19864   2.329   0.863   0.163
 6322SOL    HW119865   2.371   0.953   0.148
 6322SOL    HW219866   2.237   0.875   0.201
 6323SOL     OW19867   4.197   1.723   1.459
 6323SOL    HW119868   4.221   1.642   1.511
 6323SOL    HW219869   4.193   1.802   1.520
 6324SOL     OW19870   3.634   1.938   6.527
 6324SOL    HW119871   3.547   1.968   6.487
 6324SOL    HW219872   3.702   2.011   6.517
 6325SOL     OW19873   1.638   2.912   2.661
 6325SOL    HW119874   1.647   2.815   2.684
 6325SOL    HW219875   1.572   2.955   2.723
 6326SOL     OW19876   4.416   6.141   1.296
 6326SOL    HW119877   4.361   6.091   1.363
 6326SOL    HW219878   4.478   6.204   1.344
 6327SOL     OW19879   4.056   5.477   5.501
 6327SOL    HW119880   3.987   5.534   5.456
 6327SOL    HW219881   4.082   5.519   5.588
 6328SOL     OW19882   2.866   4.580   6.429
 6328SOL    HW119883   2.818   4.601   6.344
 6328SOL    HW219884   2.954   4.537   6.408
 6329SOL     OW19885   0.892   1.350   2.857
 6329SOL    HW119886   0.910   1.258   2.822
 6329SOL    HW219887   0.833   1.344   2.938
 6330SOL     OW19888   3.980   0.289   0.402
 6330SOL    HW119889   3.949   0.379   0.435
 6330SOL    HW219890   4.001   0.295   0.304
 6331SOL     OW19891   5.288   2.932   2.075
 6331SOL    HW119892   5.249   2.855   2.125
 6331SOL    HW219893   5.386   2.917   2.063
 6332SOL     OW19894   5.116   6.652   2.665
 6332SOL    HW119895   5.115   6.729   2.601
 6332SOL    HW219896   5.091   6.684   2.757
 6333SOL     OW19897   1.606   4.864   2.860
 6333SOL    HW119898   1.551   4.805   2.801
 6333SOL    HW219899   1.554   4.946   2.884
 6334SOL     OW19900   2.694   1.771   2.398
 6334SOL    HW119901   2.675   1.857   2.351
 6334SOL    HW219902   2.611   1.738   2.443
 6335SOL     OW19903   0.248   1.904   0.432
 6335SOL    HW119904   0.330   1.849   0.420
 6335SOL    HW219905   0.183   1.884   0.358
 6336SOL     OW19906   1.186   3.434   5.325
 6336SOL    HW119907   1.125   3.513   5.326
 6336SOL    HW219908   1.149   3.363   5.265
 6337SOL     OW19909   6.806   4.804   4.664
 6337SOL    HW119910   6.762   4.741   4.728
 6337SOL    HW219911   6.873   4.755   4.609
 6338SOL     OW19912   3.739   1.121   4.349
 6338SOL    HW119913   3.789   1.168   4.422
 6338SOL    HW219914   3.775   1.147   4.260
 6339SOL     OW19915   0.127   2.796   4.567
 6339SOL    HW119916   0.214   2.762   4.531
 6339SOL    HW219917   0.143   2.849   4.650
 6340SOL     OW19918   2.383   5.696   4.302
 6340SOL    HW119919   2.448   5.733   4.369
 6340SOL    HW219920   2.349   5.608   4.335
 6341SOL     OW19921   6.458   5.364   2.352
 6341SOL    HW119922   6.509   5.299   2.408
 6341SOL    HW219923   6.498   5.456   2.363
 6342SOL     OW19924   1.202   3.499   0.395
 6342SOL    HW119925   1.158   3.586   0.419
 6342SOL    HW219926   1.163   3.465   0.309
 6343SOL     OW19927   4.542   1.030   0.529
 6343SOL    HW119928   4.486   0.956   0.490
 6343SOL    HW219929   4.493   1.071   0.606
 6344SOL     OW19930   6.623   4.603   4.796
 6344SOL    HW119931   6.561   4.526   4.781
 6344SOL    HW219932   6.570   4.687   4.807
 6345SOL     OW19933   2.537   2.415   2.046
 6345SOL    HW119934   2.632   2.386   2.036
 6345SOL    HW219935   2.506   2.456   1.960
 6346SOL     OW19936   0.362   5.535   4.242
 6346SOL    HW119937   0.355   5.442   4.278
 6346SOL    HW219938   0.445   5.578   4.278
 6347SOL     OW19939   3.270   0.192   0.866
 6347SOL    HW119940   3.325   0.113   0.894
 6347SOL    HW219941   3.180   0.186   0.908
 6348SOL     OW19942   0.392   2.453   4.450
 6348SOL    HW119943   0.344   2.388   4.509
 6348SOL    HW219944   0.489   2.454   4.473
 6349SOL     OW19945   1.522   1.088   0.410
 6349SOL    HW119946   1.509   1.012   0.347
 6349SOL    HW219947   1.435   1.135   0.424
 6350SOL     OW19948   0.104   5.346   3.330
 6350SOL    HW119949   0.068   5.420   3.273
 6350SOL    HW219950   0.031   5.280   3.348
 6351SOL     OW19951   7.024   1.606   3.045
 6351SOL    HW119952   0.003   1.700   3.011
 6351SOL    HW219953   0.084   1.559   3.024
 6352SOL     OW19954   0.326   5.034   2.349
 6352SOL    HW119955   0.312   5.051   2.252
 6352SOL    HW219956   0.239   5.045   2.397
 6353SOL     OW19957   0.503   6.040   1.775
 6353SOL    HW119958   0.469   6.105   1.706
 6353SOL    HW219959   0.456   6.055   1.861
 6354SOL     OW19960   0.312   6.866   4.313
 6354SOL    HW119961   0.221   6.868   4.353
 6354SOL    HW219962   0.305   6.864   4.213
 6355SOL     OW19963   1.015   2.761   1.979
 6355SOL    HW119964   1.055   2.848   2.010
 6355SOL    HW219965   1.035   2.748   1.882
 6356SOL     OW19966   3.626   3.711   1.146
 6356SOL    HW119967   3.560   3.724   1.219
 6356SOL    HW219968   3.716   3.743   1.176
 6357SOL     OW19969   5.345   2.034   1.034
 6357SOL    HW119970   5.277   2.003   1.100
 6357SOL    HW219971   5.421   1.969   1.032
 6358SOL     OW19972   1.048   3.213   4.606
 6358SOL    HW119973   1.010   3.127   4.640
 6358SOL    HW219974   0.979   3.285   4.610
 6359SOL     OW19975   6.909   1.617   6.949
 6359SOL    HW119976   6.937   1.694   7.008
 6359SOL    HW219977   6.837   1.647   6.887
 6360SOL     OW19978   2.634   5.416   4.006
 6360SOL    HW119979   2.614   5.498   4.060
 6360SOL    HW219980   2.684   5.350   4.063
 6361SOL     OW19981   3.234   6.869   5.599
 6361SOL    HW119982   3.140   6.877   5.632
 6361SOL    HW219983   3.297   6.888   5.674
 6362SOL     OW19984   6.349   5.048   6.236
 6362SOL    HW119985   6.389   5.070   6.325
 6362SOL    HW219986   6.284   4.973   6.246
 6363SOL     OW19987   0.602   5.619   4.315
 6363SOL    HW119988   0.558   5.701   4.351
 6363SOL    HW219989   0.672   5.588   4.380
 6364SOL     OW19990   2.177   2.867   6.526
 6364SOL    HW119991   2.142   2.939   6.586
 6364SOL    HW219992   2.276   2.878   6.517
 6365SOL     OW19993   4.578   5.375   2.749
 6365SOL    HW119994   4.627   5.291   2.727
 6365SOL    HW219995   4.644   5.446   2.776
 6366SOL     OW19996   0.376   4.625   5.116
 6366SOL    HW119997   0.461   4.675   5.098
 6366SOL    HW219998   0.316   4.680   5.174
 6367SOL     OW19999   6.083   6.331   2.755
 6367SOL    HW120000   6.073   6.238   2.720
 6367SOL    HW220001   6.177   6.362   2.741
 6368SOL     OW20002   3.654   0.909   3.436
 6368SOL    HW120003   3.570   0.869   3.400
 6368SOL    HW220004   3.731   0.849   3.415
 6369SOL     OW20005   2.339   5.076   5.501
 6369SOL    HW120006   2.335   5.007   5.429
 6369SOL    HW220007   2.363   5.164   5.460
 6370SOL     OW20008   5.312   2.831   1.813
 6370SOL    HW120009   5.261   2.857   1.895
 6370SOL    HW220010   5.297   2.900   1.742
 6371SOL     OW20011   4.716   1.591   3.983
 6371SOL    HW120012   4.626   1.572   4.024
 6371SOL    HW220013   4.787   1.544   4.035
 6372SOL     OW20014   2.863   7.012   2.608
 6372SOL    HW120015   2.814   6.938   2.562
 6372SOL    HW220016   2.962   7.000   2.593
 6373SOL     OW20017   3.666   5.176   0.285
 6373SOL    HW120018   3.721   5.214   0.360
 6373SOL    HW220019   3.726   5.137   0.216
 6374SOL     OW20020   3.039   3.089   2.821
 6374SOL    HW120021   3.042   3.064   2.917
 6374SOL    HW220022   2.997   3.015   2.768
 6375SOL     OW20023   1.802   5.710   2.052
 6375SOL    HW120024   1.892   5.668   2.038
 6375SOL    HW220025   1.801   5.756   2.140
 6376SOL     OW20026   1.093   1.941   4.933
 6376SOL    HW120027   1.086   2.041   4.944
 6376SOL    HW220028   1.188   1.917   4.912
 6377SOL     OW20029   1.201   2.072   3.656
 6377SOL    HW120030   1.232   2.021   3.737
 6377SOL    HW220031   1.175   2.007   3.584
 6378SOL     OW20032   4.636   5.434   3.412
 6378SOL    HW120033   4.565   5.426   3.342
 6378SOL    HW220034   4.627   5.359   3.478
 6379SOL     OW20035   2.245   4.972   1.937
 6379SOL    HW120036   2.204   4.895   1.889
 6379SOL    HW220037   2.340   4.984   1.906
 6380SOL     OW20038   1.256   0.947   5.815
 6380SOL    HW120039   1.330   1.001   5.774
 6380SOL    HW220040   1.186   0.930   5.746
 6381SOL     OW20041   2.976   3.474   2.106
 6381SOL    HW120042   3.065   3.517   2.092
 6381SOL    HW220043   2.912   3.507   2.036
 6382SOL     OW20044   1.094   4.821   4.581
 6382SOL    HW120045   1.043   4.815   4.667
 6382SOL    HW220046   1.083   4.912   4.542
 6383SOL     OW20047   3.564   1.597   3.774
 6383SOL    HW120048   3.582   1.559   3.684
 6383SOL    HW220049   3.592   1.532   3.844
 6384SOL     OW20050   6.930   4.645   2.496
 6384SOL    HW120051   6.974   4.659   2.408
 6384SOL    HW220052   6.882   4.557   2.495
 6385SOL     OW20053   0.927   5.649   5.267
 6385SOL    HW120054   0.912   5.642   5.366
 6385SOL    HW220055   0.998   5.716   5.249
 6386SOL     OW20056   2.463   5.500   1.831
 6386SOL    HW120057   2.412   5.463   1.753
 6386SOL    HW220058   2.420   5.586   1.861
 6387SOL     OW20059   6.120   0.665   5.291
 6387SOL    HW120060   6.218   0.660   5.277
 6387SOL    HW220061   6.094   0.605   5.367
 6388SOL     OW20062   1.947   5.048   2.865
 6388SOL    HW120063   2.009   5.054   2.943
 6388SOL    HW220064   1.930   4.951   2.843
 6389SOL     OW20065   1.204   4.762   1.620
 6389SOL    HW120066   1.196   4.857   1.651
 6389SOL    HW220067   1.238   4.705   1.695
 6390SOL     OW20068   0.895   2.840   4.204
 6390SOL    HW120069   0.919   2.937   4.202
 6390SOL    HW220070   0.962   2.791   4.260
 6391SOL     OW20071   3.977   0.742   6.905
 6391SOL    HW120072   3.980   0.778   6.998
 6391SOL    HW220073   3.905   0.788   6.853
 6392SOL     OW20074   1.488   5.976   4.439
 6392SOL    HW120075   1.478   5.904   4.507
 6392SOL    HW220076   1.430   5.956   4.360
 6393SOL     OW20077   5.235   1.591   0.161
 6393SOL    HW120078   5.175   1.554   0.089
 6393SOL    HW220079   5.230   1.532   0.242
 6394SOL     OW20080   3.378   4.862   1.823
 6394SOL    HW120081   3.457   4.811   1.858
 6394SOL    HW220082   3.369   4.948   1.873
 6395SOL     OW20083   5.904   2.144   0.406
 6395SOL    HW120084   5.819   2.194   0.388
 6395SOL    HW220085   5.929   2.090   0.325
 6396SOL     OW20086   6.554   3.805   5.937
 6396SOL    HW120087   6.478   3.855   5.979
 6396SOL    HW220088   6.600   3.749   6.005
 6397SOL     OW20089   6.186   1.085   0.668
 6397SOL    HW120090   6.126   1.155   0.630
 6397SOL    HW220091   6.224   1.116   0.755
 6398SOL     OW20092   3.811   1.015   1.463
 6398SOL    HW120093   3.810   1.100   1.411
 6398SOL    HW220094   3.906   0.989   1.483
 6399SOL     OW20095   2.006   6.787   6.489
 6399SOL    HW120096   2.079   6.804   6.555
 6399SOL    HW220097   2.042   6.732   6.414
 6400SOL     OW20098   2.801   5.090   4.618
 6400SOL    HW120099   2.889   5.116   4.578
 6400SOL    HW220100   2.814   5.007   4.673
 6401SOL     OW20101   0.713   4.921   5.113
 6401SOL    HW120102   0.742   5.016   5.118
 6401SOL    HW220103   0.712   4.891   5.018
 6402SOL     OW20104   2.074   2.717   3.361
 6402SOL    HW120105   2.078   2.674   3.451
 6402SOL    HW220106   2.166   2.745   3.333
 6403SOL     OW20107   1.166   6.959   1.287
 6403SOL    HW120108   1.075   6.953   1.329
 6403SOL    HW220109   1.207   0.022   1.307
 6404SOL     OW20110   4.866   0.947   2.918
 6404SOL    HW120111   4.958   0.973   2.945
 6404SOL    HW220112   4.865   0.916   2.823
 6405SOL     OW20113   3.507   0.619   2.027
 6405SOL    HW120114   3.514   0.604   1.929
 6405SOL    HW220115   3.442   0.693   2.046
 6406SOL     OW20116   2.882   1.972   3.751
 6406SOL    HW120117   2.829   1.895   3.787
 6406SOL    HW220118   2.950   1.939   3.686
 6407SOL     OW20119   4.965   5.618   6.322
 6407SOL    HW120120   5.002   5.568   6.400
 6407SOL    HW220121   4.955   5.555   6.245
 6408SOL     OW20122   5.653   2.257   0.800
 6408SOL    HW120123   5.726   2.210   0.751
 6408SOL    HW220124   5.598   2.310   0.736
 6409SOL     OW20125   0.724   4.976   1.989
 6409SOL    HW120126   0.632   4.950   2.019
 6409SOL    HW220127   0.790   4.954   2.060
 6410SOL     OW20128   0.827   1.026   1.860
 6410SOL    HW120129   0.920   0.997   1.882
 6410SOL    HW220130   0.828   1.080   1.775
 6411SOL     OW20131   1.055   1.175   3.852
 6411SOL    HW120132   1.026   1.195   3.759
 6411SOL    HW220133   0.980   1.130   3.901
 6412SOL     OW20134   5.829   2.455   4.601
 6412SOL    HW120135   5.789   2.538   4.563
 6412SOL    HW220136   5.929   2.463   4.604
 6413SOL     OW20137   0.284   4.968   0.700
 6413SOL    HW120138   0.256   4.873   0.683
 6413SOL    HW220139   0.380   4.969   0.729
 6414SOL     OW20140   6.332   0.255   2.953
 6414SOL    HW120141   6.344   0.156   2.965
 6414SOL    HW220142   6.393   0.288   2.882
 6415SOL     OW20143   1.718   1.816   2.466
 6415SOL    HW120144   1.651   1.749   2.432
 6415SOL    HW220145   1.770   1.776   2.541
 6416SOL     OW20146   2.631   6.561   6.260
 6416SOL    HW120147   2.675   6.472   6.269
 6416SOL    HW220148   2.538   6.548   6.226
 6417SOL     OW20149   0.738   6.292   4.128
 6417SOL    HW120150   0.712   6.235   4.050
 6417SOL    HW220151   0.838   6.297   4.135
 6418SOL     OW20152   7.018   5.487   2.545
 6418SOL    HW120153   6.952   5.482   2.621
 6418SOL    HW220154   6.974   5.454   2.461
 6419SOL     OW20155   2.240   3.710   0.492
 6419SOL    HW120156   2.306   3.766   0.543
 6419SOL    HW220157   2.190   3.652   0.556
 6420SOL     OW20158   0.849   2.806   6.493
 6420SOL    HW120159   0.921   2.808   6.563
 6420SOL    HW220160   0.771   2.862   6.524
 6421SOL     OW20161   5.357   2.122   0.249
 6421SOL    HW120162   5.306   2.194   0.202
 6421SOL    HW220163   5.405   2.162   0.328
 6422SOL     OW20164   6.250   2.790   2.984
 6422SOL    HW120165   6.206   2.840   2.910
 6422SOL    HW220166   6.259   2.694   2.959
 6423SOL     OW20167   4.784   3.867   0.660
 6423SOL    HW120168   4.880   3.855   0.687
 6423SOL    HW220169   4.771   3.961   0.627
 6424SOL     OW20170   6.554   4.612   5.346
 6424SOL    HW120171   6.489   4.570   5.409
 6424SOL    HW220172   6.589   4.544   5.282
 6425SOL     OW20173   0.095   5.469   0.866
 6425SOL    HW120174   0.049   5.398   0.920
 6425SOL    HW220175   0.060   5.559   0.892
 6426SOL     OW20176   6.815   2.903   3.359
 6426SOL    HW120177   6.751   2.979   3.369
 6426SOL    HW220178   6.906   2.931   3.389
 6427SOL     OW20179   0.997   2.777   5.354
 6427SOL    HW120180   0.986   2.831   5.271
 6427SOL    HW220181   0.972   2.682   5.335
 6428SOL     OW20182   6.344   3.056   4.350
 6428SOL    HW120183   6.324   2.970   4.397
 6428SOL    HW220184   6.438   3.055   4.316
 6429SOL     OW20185   1.084   1.112   5.041
 6429SOL    HW120186   1.092   1.049   4.964
 6429SOL    HW220187   1.161   1.176   5.040
 6430SOL     OW20188   6.234   3.097   0.116
 6430SOL    HW120189   6.187   3.042   0.186
 6430SOL    HW220190   6.205   3.067   0.026
 6431SOL     OW20191   5.973   1.051   2.741
 6431SOL    HW120192   5.951   0.954   2.725
 6431SOL    HW220193   5.921   1.107   2.676
 6432SOL     OW20194   6.089   3.627   0.572
 6432SOL    HW120195   6.153   3.585   0.636
 6432SOL    HW220196   5.998   3.633   0.614
 6433SOL     OW20197   2.315   3.772   1.635
 6433SOL    HW120198   2.344   3.854   1.586
 6433SOL    HW220199   2.312   3.694   1.572
 6434SOL     OW20200   1.709   5.171   0.078
 6434SOL    HW120201   1.778   5.119   0.129
 6434SOL    HW220202   1.727   5.162   7.005
 6435SOL     OW20203   5.221   3.284   0.616
 6435SOL    HW120204   5.288   3.335   0.671
 6435SOL    HW220205   5.256   3.193   0.598
 6436SOL     OW20206   2.396   2.556   2.235
 6436SOL    HW120207   2.446   2.479   2.194
 6436SOL    HW220208   2.326   2.588   2.170
 6437SOL     OW20209   0.634   0.590   0.460
 6437SOL    HW120210   0.536   0.577   0.452
 6437SOL    HW220211   0.680   0.501   0.463
 6438SOL     OW20212   0.874   3.456   3.984
 6438SOL    HW120213   0.814   3.376   3.988
 6438SOL    HW220214   0.836   3.529   4.040
 6439SOL     OW20215   0.255   6.504   2.374
 6439SOL    HW120216   0.179   6.452   2.412
 6439SOL    HW220217   0.259   6.594   2.418
 6440SOL     OW20218   0.358   0.766   1.946
 6440SOL    HW120219   0.278   0.810   1.987
 6440SOL    HW220220   0.423   0.835   1.915
 6441SOL     OW20221   4.496   1.208   2.875
 6441SOL    HW120222   4.488   1.279   2.944
 6441SOL    HW220223   4.433   1.227   2.799
 6442SOL     OW20224   3.485   0.769   3.257
 6442SOL    HW120225   3.479   0.683   3.310
 6442SOL    HW220226   3.513   0.749   3.164
 6443SOL     OW20227   2.497   0.635   0.606
 6443SOL    HW120228   2.562   0.610   0.535
 6443SOL    HW220229   2.477   0.733   0.602
 6444SOL     OW20230   0.679   1.275   2.621
 6444SOL    HW120231   0.714   1.250   2.531
 6444SOL    HW220232   0.725   1.358   2.653
 6445SOL     OW20233   3.397   4.022   5.826
 6445SOL    HW120234   3.459   3.954   5.787
 6445SOL    HW220235   3.451   4.088   5.878
 6446SOL     OW20236   0.089   1.805   0.628
 6446SOL    HW120237   0.148   1.820   0.549
 6446SOL    HW220238   0.134   1.837   0.711
 6447SOL     OW20239   1.423   0.674   3.264
 6447SOL    HW120240   1.395   0.770   3.273
 6447SOL    HW220241   1.500   0.668   3.200
 6448SOL     OW20242   0.008   2.414   3.005
 6448SOL    HW120243   0.091   2.363   2.982
 6448SOL    HW220244   0.017   2.452   3.098
 6449SOL     OW20245   4.207   2.765   0.839
 6449SOL    HW120246   4.113   2.800   0.845
 6449SOL    HW220247   4.268   2.838   0.807
 6450SOL     OW20248   6.886   3.043   0.791
 6450SOL    HW120249   6.886   3.007   0.697
 6450SOL    HW220250   6.889   3.142   0.788
 6451SOL     OW20251   2.551   6.653   4.012
 6451SOL    HW120252   2.602   6.583   4.061
 6451SOL    HW220253   2.478   6.609   3.959
 6452SOL     OW20254   3.394   6.128   4.982
 6452SOL    HW120255   3.388   6.033   4.954
 6452SOL    HW220256   3.357   6.187   4.910
 6453SOL     OW20257   2.064   5.402   6.509
 6453SOL    HW120258   2.104   5.375   6.421
 6453SOL    HW220259   1.976   5.357   6.520
 6454SOL     OW20260   3.733   1.152   4.772
 6454SOL    HW120261   3.655   1.210   4.796
 6454SOL    HW220262   3.814   1.183   4.822
 6455SOL     OW20263   6.082   3.265   6.639
 6455SOL    HW120264   6.026   3.214   6.573
 6455SOL    HW220265   6.034   3.270   6.727
 6456SOL     OW20266   0.312   1.355   5.211
 6456SOL    HW120267   0.293   1.344   5.308
 6456SOL    HW220268   0.250   1.296   5.158
 6457SOL     OW20269   5.847   3.052   2.509
 6457SOL    HW120270   5.766   3.109   2.527
 6457SOL    HW220271   5.900   3.093   2.435
 6458SOL     OW20272   0.781   6.264   3.479
 6458SOL    HW120273   0.770   6.165   3.489
 6458SOL    HW220274   0.697   6.310   3.508
 6459SOL     OW20275   5.418   4.408   1.062
 6459SOL    HW120276   5.338   4.464   1.082
 6459SOL    HW220277   5.489   4.465   1.020
 6460SOL     OW20278   3.501   4.834   1.567
 6460SOL    HW120279   3.466   4.828   1.661
 6460SOL    HW220280   3.437   4.791   1.505
 6461SOL     OW20281   2.987   6.180   5.428
 6461SOL    HW120282   2.912   6.239   5.398
 6461SOL    HW220283   3.074   6.218   5.397
 6462SOL     OW20284   2.017   3.585   3.253
 6462SOL    HW120285   1.935   3.587   3.310
 6462SOL    HW220286   2.098   3.586   3.311
 6463SOL     OW20287   1.018   3.736   5.793
 6463SOL    HW120288   1.038   3.808   5.727
 6463SOL    HW220289   0.975   3.776   5.874
 6464SOL     OW20290   1.613   5.130   2.036
 6464SOL    HW120291   1.539   5.065   2.019
 6464SOL    HW220292   1.578   5.207   2.090
 6465SOL     OW20293   6.225   0.901   2.543
 6465SOL    HW120294   6.225   0.840   2.622
 6465SOL    HW220295   6.273   0.986   2.566
 6466SOL     OW20296   0.109   2.054   5.045
 6466SOL    HW120297   0.014   2.026   5.031
 6466SOL    HW220298   0.141   2.105   4.966
 6467SOL     OW20299   3.460   0.933   6.143
 6467SOL    HW120300   3.436   0.852   6.197
 6467SOL    HW220301   3.433   1.015   6.194
 6468SOL     OW20302   5.243   3.918   2.010
 6468SOL    HW120303   5.165   3.903   1.950
 6468SOL    HW220304   5.309   3.978   1.965
 6469SOL     OW20305   5.995   0.877   5.669
 6469SOL    HW120306   5.984   0.931   5.585
 6469SOL    HW220307   6.092   0.858   5.685
 6470SOL     OW20308   6.303   6.063   4.404
 6470SOL    HW120309   6.301   5.967   4.376
 6470SOL    HW220310   6.209   6.100   4.403
 6471SOL     OW20311   6.291   5.834   5.425
 6471SOL    HW120312   6.381   5.792   5.414
 6471SOL    HW220313   6.272   5.848   5.522
 6472SOL     OW20314   1.825   6.348   1.541
 6472SOL    HW120315   1.892   6.325   1.611
 6472SOL    HW220316   1.737   6.306   1.564
 6473SOL     OW20317   2.456   0.787   5.200
 6473SOL    HW120318   2.433   0.841   5.118
 6473SOL    HW220319   2.543   0.820   5.238
 6474SOL     OW20320   2.639   3.655   5.906
 6474SOL    HW120321   2.557   3.598   5.909
 6474SOL    HW220322   2.643   3.712   5.989
 6475SOL     OW20323   4.293   4.916   3.700
 6475SOL    HW120324   4.310   4.984   3.629
 6475SOL    HW220325   4.380   4.891   3.743
 6476SOL     OW20326   5.381   4.675   2.306
 6476SOL    HW120327   5.448   4.648   2.375
 6476SOL    HW220328   5.327   4.752   2.340
 6477SOL     OW20329   6.484   6.455   6.806
 6477SOL    HW120330   6.492   6.548   6.843
 6477SOL    HW220331   6.428   6.457   6.723
 6478SOL     OW20332   5.058   5.877   1.555
 6478SOL    HW120333   5.082   5.950   1.490
 6478SOL    HW220334   5.052   5.915   1.647
 6479SOL     OW20335   3.204   5.793   2.632
 6479SOL    HW120336   3.195   5.833   2.540
 6479SOL    HW220337   3.270   5.846   2.685
 6480SOL     OW20338   2.936   1.009   1.519
 6480SOL    HW120339   2.930   1.108   1.532
 6480SOL    HW220340   2.877   0.982   1.443
 6481SOL     OW20341   4.521   0.809   1.113
 6481SOL    HW120342   4.423   0.810   1.096
 6481SOL    HW220343   4.551   0.714   1.126
 6482SOL     OW20344   6.826   0.088   6.415
 6482SOL    HW120345   6.916   0.097   6.456
 6482SOL    HW220346   6.756   0.122   6.478
 6483SOL     OW20347   2.162   5.799   1.893
 6483SOL    HW120348   2.144   5.729   1.825
 6483SOL    HW220349   2.089   5.868   1.890
 6484SOL     OW20350   5.193   6.690   3.154
 6484SOL    HW120351   5.281   6.667   3.112
 6484SOL    HW220352   5.129   6.720   3.083
 6485SOL     OW20353   0.534   2.825   3.127
 6485SOL    HW120354   0.603   2.783   3.185
 6485SOL    HW220355   0.458   2.762   3.114
 6486SOL     OW20356   1.918   2.615   3.557
 6486SOL    HW120357   1.879   2.696   3.600
 6486SOL    HW220358   1.857   2.583   3.484
 6487SOL     OW20359   5.926   4.930   3.402
 6487SOL    HW120360   5.988   5.007   3.385
 6487SOL    HW220361   5.911   4.880   3.317
 6488SOL     OW20362   3.367   5.049   5.354
 6488SOL    HW120363   3.279   5.010   5.382
 6488SOL    HW220364   3.434   5.035   5.427
 6489SOL     OW20365   2.627   2.028   6.641
 6489SOL    HW120366   2.618   2.118   6.684
 6489SOL    HW220367   2.694   1.974   6.691
 6490SOL     OW20368   5.086   1.681   0.873
 6490SOL    HW120369   5.089   1.774   0.837
 6490SOL    HW220370   5.032   1.679   0.957
 6491SOL     OW20371   4.640   0.941   5.838
 6491SOL    HW120372   4.634   0.926   5.937
 6491SOL    HW220373   4.675   1.033   5.820
 6492SOL     OW20374   6.319   5.841   5.702
 6492SOL    HW120375   6.418   5.855   5.699
 6492SOL    HW220376   6.296   5.785   5.781
 6493SOL     OW20377   1.142   6.785   5.206
 6493SOL    HW120378   1.201   6.816   5.281
 6493SOL    HW220379   1.198   6.749   5.131
 6494SOL     OW20380   0.622   0.919   3.152
 6494SOL    HW120381   0.700   0.896   3.209
 6494SOL    HW220382   0.635   0.881   3.061
 6495SOL     OW20383   5.650   4.594   2.019
 6495SOL    HW120384   5.654   4.497   2.043
 6495SOL    HW220385   5.607   4.605   1.929
 6496SOL     OW20386   0.472   6.258   3.624
 6496SOL    HW120387   0.498   6.333   3.685
 6496SOL    HW220388   0.488   6.285   3.529
 6497SOL     OW20389   0.390   5.879   0.313
 6497SOL    HW120390   0.352   5.935   0.388
 6497SOL    HW220391   0.440   5.939   0.250
 6498SOL     OW20392   1.531   4.473   4.158
 6498SOL    HW120393   1.465   4.451   4.086
 6498SOL    HW220394   1.584   4.391   4.180
 6499SOL     OW20395   6.363   1.580   3.518
 6499SOL    HW120396   6.302   1.531   3.581
 6499SOL    HW220397   6.457   1.571   3.549
 6500SOL     OW20398   5.963   5.028   3.051
 6500SOL    HW120399   5.913   5.034   2.964
 6500SOL    HW220400   5.947   4.938   3.091
 6501SOL     OW20401   6.751   3.525   0.689
 6501SOL    HW120402   6.730   3.600   0.627
 6501SOL    HW220403   6.707   3.541   0.777
 6502SOL     OW20404   0.889   5.088   1.371
 6502SOL    HW120405   0.853   5.039   1.292
 6502SOL    HW220406   0.930   5.174   1.342
 6503SOL     OW20407   4.399   6.944   4.486
 6503SOL    HW120408   4.478   7.001   4.465
 6503SOL    HW220409   4.411   6.854   4.444
 6504SOL     OW20410   1.785   1.201   1.008
 6504SOL    HW120411   1.722   1.159   0.942
 6504SOL    HW220412   1.749   1.189   1.100
 6505SOL     OW20413   5.758   5.608   0.576
 6505SOL    HW120414   5.738   5.691   0.627
 6505SOL    HW220415   5.730   5.620   0.481
 6506SOL     OW20416   2.232   1.312   0.729
 6506SOL    HW120417   2.251   1.259   0.646
 6506SOL    HW220418   2.146   1.282   0.769
 6507SOL     OW20419   2.778   0.833   2.353
 6507SOL    HW120420   2.831   0.753   2.326
 6507SOL    HW220421   2.772   0.896   2.275
 6508SOL     OW20422   2.226   1.679   2.151
 6508SOL    HW120423   2.160   1.717   2.215
 6508SOL    HW220424   2.294   1.626   2.201
 6509SOL     OW20425   0.979   3.075   4.086
 6509SOL    HW120426   1.064   3.129   4.082
 6509SOL    HW220427   0.918   3.104   4.013
 6510SOL     OW20428   6.458   4.655   6.566
 6510SOL    HW120429   6.370   4.679   6.525
 6510SOL    HW220430   6.516   4.610   6.497
 6511SOL     OW20431   6.944   6.741   6.020
 6511SOL    HW120432   6.928   6.735   6.119
 6511SOL    HW220433   6.921   6.834   5.989
 6512SOL     OW20434   5.161   6.161   4.017
 6512SOL    HW120435   5.212   6.248   4.015
 6512SOL    HW220436   5.152   6.130   4.111
 6513SOL     OW20437   1.182   6.596   3.267
 6513SOL    HW120438   1.217   6.623   3.177
 6513SOL    HW220439   1.086   6.572   3.259
 6514SOL     OW20440   3.313   0.264   3.452
 6514SOL    HW120441   3.302   0.358   3.421
 6514SOL    HW220442   3.224   0.220   3.460
 6515SOL     OW20443   0.244   0.801   3.216
 6515SOL    HW120444   0.301   0.849   3.150
 6515SOL    HW220445   0.170   0.861   3.246
 6516SOL     OW20446   1.044   1.194   5.527
 6516SOL    HW120447   1.113   1.131   5.492
 6516SOL    HW220448   1.031   1.269   5.463
 6517SOL     OW20449   2.082   2.264   0.999
 6517SOL    HW120450   2.065   2.216   1.085
 6517SOL    HW220451   2.176   2.299   0.998
 6518SOL     OW20452   5.583   6.486   0.825
 6518SOL    HW120453   5.667   6.466   0.875
 6518SOL    HW220454   5.551   6.403   0.779
 6519SOL     OW20455   0.979   2.149   4.125
 6519SOL    HW120456   1.061   2.111   4.168
 6519SOL    HW220457   0.938   2.218   4.185
 6520SOL     OW20458   5.600   5.626   1.538
 6520SOL    HW120459   5.548   5.542   1.526
 6520SOL    HW220460   5.609   5.673   1.451
 6521SOL     OW20461   1.259   2.272   5.400
 6521SOL    HW120462   1.358   2.260   5.395
 6521SOL    HW220463   1.227   2.247   5.492
 6522SOL     OW20464   2.535   5.777   4.516
 6522SOL    HW120465   2.624   5.738   4.542
 6522SOL    HW220466   2.479   5.790   4.597
 6523SOL     OW20467   1.729   2.615   0.030
 6523SOL    HW120468   1.765   2.652   0.115
 6523SOL    HW220469   1.802   2.609   6.988
 6524SOL     OW20470   3.958   3.211   5.485
 6524SOL    HW120471   3.901   3.268   5.426
 6524SOL    HW220472   3.930   3.223   5.580
 6525SOL     OW20473   0.373   2.761   4.421
 6525SOL    HW120474   0.372   2.665   4.396
 6525SOL    HW220475   0.389   2.817   4.340
 6526SOL     OW20476   1.582   5.317   3.935
 6526SOL    HW120477   1.523   5.371   3.876
 6526SOL    HW220478   1.536   5.231   3.958
 6527SOL     OW20479   2.498   1.493   4.051
 6527SOL    HW120480   2.546   1.580   4.061
 6527SOL    HW220481   2.565   1.420   4.032
 6528SOL     OW20482   0.585   0.057   3.317
 6528SOL    HW120483   0.562   0.148   3.281
 6528SOL    HW220484   0.510   7.020   3.297
 6529SOL     OW20485   6.841   2.846   2.396
 6529SOL    HW120486   6.831   2.895   2.309
 6529SOL    HW220487   6.854   2.912   2.470
 6530SOL     OW20488   0.618   1.819   0.736
 6530SOL    HW120489   0.667   1.747   0.686
 6530SOL    HW220490   0.520   1.810   0.721
 6531SOL     OW20491   5.072   2.108   5.116
 6531SOL    HW120492   4.987   2.063   5.143
 6531SOL    HW220493   5.057   2.162   5.033
 6532SOL     OW20494   1.231   2.512   6.938
 6532SOL    HW120495   1.261   2.448   6.867
 6532SOL    HW220496   1.291   2.592   6.939
 6533SOL     OW20497   4.553   0.519   1.173
 6533SOL    HW120498   4.561   0.471   1.260
 6533SOL    HW220499   4.515   0.456   1.104
 6534SOL     OW20500   2.237   3.372   0.303
 6534SOL    HW120501   2.305   3.371   0.229
 6534SOL    HW220502   2.221   3.466   0.332
 6535SOL     OW20503   1.808   3.719   5.332
 6535SOL    HW120504   1.827   3.777   5.253
 6535SOL    HW220505   1.768   3.774   5.405
 6536SOL     OW20506   6.783   2.319   6.808
 6536SOL    HW120507   6.843   2.266   6.748
 6536SOL    HW220508   6.811   2.307   6.903
 6537SOL     OW20509   1.204   0.502   6.437
 6537SOL    HW120510   1.118   0.540   6.405
 6537SOL    HW220511   1.265   0.576   6.465
 6538SOL     OW20512   2.032   2.770   5.709
 6538SOL    HW120513   2.074   2.847   5.757
 6538SOL    HW220514   1.968   2.804   5.640
 6539SOL     OW20515   3.460   1.590   6.274
 6539SOL    HW120516   3.510   1.652   6.334
 6539SOL    HW220517   3.418   1.642   6.199
 6540SOL     OW20518   3.734   1.983   3.890
 6540SOL    HW120519   3.821   2.008   3.847
 6540SOL    HW220520   3.716   2.046   3.966
 6541SOL     OW20521   2.877   2.757   5.420
 6541SOL    HW120522   2.812   2.826   5.452
 6541SOL    HW220523   2.862   2.671   5.468
 6542SOL     OW20524   5.757   3.836   3.426
 6542SOL    HW120525   5.835   3.817   3.486
 6542SOL    HW220526   5.708   3.751   3.408
 6543SOL     OW20527   0.930   6.328   5.982
 6543SOL    HW120528   0.959   6.233   5.984
 6543SOL    HW220529   0.994   6.381   5.925
 6544SOL     OW20530   0.204   5.821   2.598
 6544SOL    HW120531   0.138   5.882   2.555
 6544SOL    HW220532   0.250   5.869   2.673
 6545SOL     OW20533   5.889   3.083   6.501
 6545SOL    HW120534   5.951   3.031   6.443
 6545SOL    HW220535   5.862   3.026   6.580
 6546SOL     OW20536   3.557   4.551   5.959
 6546SOL    HW120537   3.462   4.580   5.954
 6546SOL    HW220538   3.592   4.535   5.867
 6547SOL     OW20539   5.081   0.258   6.546
 6547SOL    HW120540   5.044   0.172   6.580
 6547SOL    HW220541   5.161   0.239   6.489
 6548SOL     OW20542   5.704   3.526   5.540
 6548SOL    HW120543   5.697   3.463   5.617
 6548SOL    HW220544   5.795   3.568   5.539
 6549SOL     OW20545   2.862   2.125   2.520
 6549SOL    HW120546   2.917   2.044   2.500
 6549SOL    HW220547   2.851   2.179   2.437
 6550SOL     OW20548   1.177   5.438   3.087
 6550SOL    HW120549   1.252   5.505   3.093
 6550SOL    HW220550   1.164   5.395   3.176
 6551SOL     OW20551   3.029   5.187   2.376
 6551SOL    HW120552   3.033   5.133   2.460
 6551SOL    HW220553   2.987   5.133   2.303
 6552SOL     OW20554   4.425   5.277   6.811
 6552SOL    HW120555   4.458   5.235   6.895
 6552SOL    HW220556   4.332   5.311   6.824
 6553SOL     OW20557   0.104   3.293   3.023
 6553SOL    HW120558   0.076   3.198   3.041
 6553SOL    HW220559   0.158   3.296   2.939
 6554SOL     OW20560   6.957   3.711   4.230
 6554SOL    HW120561   6.993   3.656   4.306
 6554SOL    HW220562   6.864   3.681   4.208
 6555SOL     OW20563   0.599   1.407   1.465
 6555SOL    HW120564   0.657   1.339   1.510
 6555SOL    HW220565   0.656   1.483   1.433
 6556SOL     OW20566   3.826   0.026   3.883
 6556SOL    HW120567   3.741   7.006   3.910
 6556SOL    HW220568   3.895   6.983   3.860
 6557SOL     OW20569   5.413   6.280   0.502
 6557SOL    HW120570   5.455   6.358   0.455
 6557SOL    HW220571   5.313   6.293   0.504
 6558SOL     OW20572   0.187   6.463   5.786
 6558SOL    HW120573   0.109   6.519   5.759
 6558SOL    HW220574   0.184   6.448   5.885
 6559SOL     OW20575   3.308   3.219   0.990
 6559SOL    HW120576   3.245   3.279   0.941
 6559SOL    HW220577   3.393   3.210   0.938
 6560SOL     OW20578   4.478   1.880   1.090
 6560SOL    HW120579   4.493   1.873   1.188
 6560SOL    HW220580   4.403   1.819   1.063
 6561SOL     OW20581   3.514   3.799   4.319
 6561SOL    HW120582   3.607   3.762   4.313
 6561SOL    HW220583   3.448   3.724   4.309
 6562SOL     OW20584   6.831   4.530   5.355
 6562SOL    HW120585   6.917   4.479   5.363
 6562SOL    HW220586   6.812   4.547   5.259
 6563SOL     OW20587   0.717   5.423   2.458
 6563SOL    HW120588   0.787   5.441   2.528
 6563SOL    HW220589   0.627   5.441   2.496
 6564SOL     OW20590   1.607   5.335   2.674
 6564SOL    HW120591   1.704   5.310   2.679
 6564SOL    HW220592   1.598   5.433   2.693
 6565SOL     OW20593   6.576   3.497   5.523
 6565SOL    HW120594   6.485   3.458   5.508
 6565SOL    HW220595   6.570   3.567   5.594
 6566SOL     OW20596   3.906   1.007   0.905
 6566SOL    HW120597   3.930   0.911   0.891
 6566SOL    HW220598   3.807   1.017   0.899
 6567SOL     OW20599   6.388   2.485   0.958
 6567SOL    HW120600   6.451   2.501   1.034
 6567SOL    HW220601   6.294   2.482   0.993
 6568SOL     OW20602   4.461   3.843   1.545
 6568SOL    HW120603   4.423   3.866   1.455
 6568SOL    HW220604   4.389   3.846   1.614
 6569SOL     OW20605   1.275   4.886   6.407
 6569SOL    HW120606   1.302   4.799   6.365
 6569SOL    HW220607   1.296   4.961   6.346
 6570SOL     OW20608   6.475   3.644   1.892
 6570SOL    HW120609   6.545   3.665   1.824
 6570SOL    HW220610   6.419   3.725   1.910
 6571SOL     OW20611   2.277   6.147   3.504
 6571SOL    HW120612   2.306   6.158   3.409
 6571SOL    HW220613   2.353   6.167   3.565
 6572SOL     OW20614   1.288   4.377   6.393
 6572SOL    HW120615   1.225   4.399   6.467
 6572SOL    HW220616   1.242   4.320   6.325
 6573SOL     OW20617   1.538   1.897   1.954
 6573SOL    HW120618   1.500   1.918   2.044
 6573SOL    HW220619   1.610   1.829   1.963
 6574SOL     OW20620   1.750   4.463   4.463
 6574SOL    HW120621   1.791   4.496   4.548
 6574SOL    HW220622   1.675   4.523   4.437
 6575SOL     OW20623   2.054   1.901   2.971
 6575SOL    HW120624   2.105   1.941   2.895
 6575SOL    HW220625   1.962   1.877   2.940
 6576SOL     OW20626   1.049   5.920   4.323
 6576SOL    HW120627   0.968   5.861   4.315
 6576SOL    HW220628   1.051   5.984   4.246
 6577SOL     OW20629   0.059   3.630   5.185
 6577SOL    HW120630   0.116   3.549   5.187
 6577SOL    HW220631   0.066   3.679   5.272
 6578SOL     OW20632   6.301   5.392   3.325
 6578SOL    HW120633   6.398   5.376   3.344
 6578SOL    HW220634   6.247   5.370   3.406
 6579SOL     OW20635   0.049   4.364   3.671
 6579SOL    HW120636   7.015   4.395   3.744
 6579SOL    HW220637   0.065   4.265   3.681
 6580SOL     OW20638   5.438   2.424   0.663
 6580SOL    HW120639   5.470   2.519   0.665
 6580SOL    HW220640   5.387   2.405   0.747
 6581SOL     OW20641   2.504   2.760   5.725
 6581SOL    HW120642   2.594   2.801   5.745
 6581SOL    HW220643   2.481   2.776   5.629
 6582SOL     OW20644   6.870   6.997   2.207
 6582SOL    HW120645   6.844   0.007   2.118
 6582SOL    HW220646   6.924   0.039   2.256
 6583SOL     OW20647   6.395   1.474   6.341
 6583SOL    HW120648   6.360   1.496   6.250
 6583SOL    HW220649   6.336   1.517   6.410
 6584SOL     OW20650   5.789   2.376   0.235
 6584SOL    HW120651   5.839   2.427   0.166
 6584SOL    HW220652   5.785   2.430   0.320
 6585SOL     OW20653   2.682   1.064   1.863
 6585SOL    HW120654   2.702   1.123   1.785
 6585SOL    HW220655   2.587   1.033   1.858
 6586SOL     OW20656   6.526   1.880   0.146
 6586SOL    HW120657   6.541   1.786   0.176
 6586SOL    HW220658   6.429   1.895   0.127
 6587SOL     OW20659   1.995   6.261   2.378
 6587SOL    HW120660   1.923   6.196   2.353
 6587SOL    HW220661   2.054   6.277   2.298
 6588SOL     OW20662   2.679   2.035   0.084
 6588SOL    HW120663   2.770   2.005   0.055
 6588SOL    HW220664   2.681   2.059   0.181
 6589SOL     OW20665   5.008   1.666   6.269
 6589SOL    HW120666   5.019   1.745   6.328
 6589SOL    HW220667   4.995   1.697   6.174
 6590SOL     OW20668   6.631   1.116   5.558
 6590SOL    HW120669   6.556   1.051   5.567
 6590SOL    HW220670   6.656   1.125   5.461
 6591SOL     OW20671   5.646   0.096   3.227
 6591SOL    HW120672   5.666   0.171   3.290
 6591SOL    HW220673   5.634   0.132   3.135
 6592SOL     OW20674   6.210   5.753   4.528
 6592SOL    HW120675   6.112   5.759   4.513
 6592SOL    HW220676   6.250   5.845   4.528
 6593SOL     OW20677   5.230   0.879   2.698
 6593SOL    HW120678   5.150   0.828   2.667
 6593SOL    HW220679   5.210   0.977   2.699
 6594SOL     OW20680   5.832   0.982   0.130
 6594SOL    HW120681   5.774   1.044   0.183
 6594SOL    HW220682   5.790   0.966   0.041
 6595SOL     OW20683   2.094   3.100   7.022
 6595SOL    HW120684   2.026   3.037   0.034
 6595SOL    HW220685   2.118   3.072   6.929
 6596SOL     OW20686   3.305   6.766   5.164
 6596SOL    HW120687   3.270   6.699   5.098
 6596SOL    HW220688   3.286   6.733   5.257
 6597SOL     OW20689   0.138   4.155   6.702
 6597SOL    HW120690   0.193   4.238   6.692
 6597SOL    HW220691   0.179   4.081   6.650
 6598SOL     OW20692   2.191   5.659   4.817
 6598SOL    HW120693   2.235   5.657   4.907
 6598SOL    HW220694   2.259   5.637   4.746
 6599SOL     OW20695   4.316   3.153   6.314
 6599SOL    HW120696   4.310   3.219   6.389
 6599SOL    HW220697   4.390   3.179   6.253
 6600SOL     OW20698   4.130   5.028   4.607
 6600SOL    HW120699   4.153   4.997   4.700
 6600SOL    HW220700   4.096   5.122   4.612
 6601SOL     OW20701   0.687   0.631   1.260
 6601SOL    HW120702   0.627   0.659   1.335
 6601SOL    HW220703   0.759   0.699   1.247
 6602SOL     OW20704   6.606   1.529   1.636
 6602SOL    HW120705   6.580   1.551   1.730
 6602SOL    HW220706   6.632   1.433   1.630
 6603SOL     OW20707   2.445   1.834   1.758
 6603SOL    HW120708   2.502   1.805   1.835
 6603SOL    HW220709   2.455   1.768   1.683
 6604SOL     OW20710   3.916   5.743   4.026
 6604SOL    HW120711   3.860   5.730   3.944
 6604SOL    HW220712   3.856   5.759   4.104
 6605SOL     OW20713   4.950   6.087   0.054
 6605SOL    HW120714   5.026   6.041   0.007
 6605SOL    HW220715   4.985   6.164   0.106
 6606SOL     OW20716   6.846   1.825   2.988
 6606SOL    HW120717   6.767   1.769   3.014
 6606SOL    HW220718   6.847   1.908   3.043
 6607SOL     OW20719   1.401   2.719   3.080
 6607SOL    HW120720   1.437   2.626   3.071
 6607SOL    HW220721   1.451   2.780   3.020
 6608SOL     OW20722   5.506   4.935   4.840
 6608SOL    HW120723   5.465   4.965   4.926
 6608SOL    HW220724   5.551   4.847   4.853
 6609SOL     OW20725   5.612   1.888   0.233
 6609SOL    HW120726   5.686   1.866   0.297
 6609SOL    HW220727   5.636   1.969   0.180
 6610SOL     OW20728   3.865   1.215   0.604
 6610SOL    HW120729   3.771   1.182   0.594
 6610SOL    HW220730   3.895   1.202   0.699
 6611SOL     OW20731   5.700   3.016   3.199
 6611SOL    HW120732   5.714   2.994   3.103
 6611SOL    HW220733   5.786   3.005   3.249
 6612SOL     OW20734   1.158   6.044   6.439
 6612SOL    HW120735   1.109   5.982   6.500
 6612SOL    HW220736   1.155   6.137   6.476
 6613SOL     OW20737   5.215   4.800   0.866
 6613SOL    HW120738   5.237   4.703   0.867
 6613SOL    HW220739   5.298   4.854   0.856
 6614SOL     OW20740   5.608   4.588   5.446
 6614SOL    HW120741   5.696   4.611   5.404
 6614SOL    HW220742   5.623   4.556   5.540
 6615SOL     OW20743   6.979   3.979   5.264
 6615SOL    HW120744   0.046   3.941   5.257
 6615SOL    HW220745   6.946   4.001   5.172
 6616SOL     OW20746   4.843   0.852   4.196
 6616SOL    HW120747   4.859   0.893   4.106
 6616SOL    HW220748   4.875   0.758   4.196
 6617SOL     OW20749   4.157   0.038   4.945
 6617SOL    HW120750   4.181   0.124   4.991
 6617SOL    HW220751   4.167   0.050   4.846
 6618SOL     OW20752   0.019   5.031   1.193
 6618SOL    HW120753   0.087   5.060   1.125
 6618SOL    HW220754   6.999   4.947   1.162
 6619SOL     OW20755   0.124   6.595   1.582
 6619SOL    HW120756   0.205   6.635   1.627
 6619SOL    HW220757   0.114   6.636   1.491
 6620SOL     OW20758   4.230   3.257   5.619
 6620SOL    HW120759   4.228   3.160   5.643
 6620SOL    HW220760   4.137   3.290   5.605
 6621SOL     OW20761   2.181   4.009   0.304
 6621SOL    HW120762   2.229   3.935   0.258
 6621SOL    HW220763   2.227   4.030   0.391
 6622SOL     OW20764   6.621   5.474   0.870
 6622SOL    HW120765   6.635   5.485   0.968
 6622SOL    HW220766   6.525   5.451   0.852
 6623SOL     OW20767   3.562   4.135   2.427
 6623SOL    HW120768   3.470   4.140   2.467
 6623SOL    HW220769   3.624   4.089   2.491
 6624SOL     OW20770   4.204   4.891   4.187
 6624SOL    HW120771   4.173   4.893   4.092
 6624SOL    HW220772   4.304   4.880   4.189
 6625SOL     OW20773   6.145   6.606   0.226
 6625SOL    HW120774   6.220   6.658   0.184
 6625SOL    HW220775   6.167   6.588   0.321
 6626SOL     OW20776   2.636   4.954   3.686
 6626SOL    HW120777   2.607   5.025   3.750
 6626SOL    HW220778   2.735   4.942   3.693
 6627SOL     OW20779   1.959   6.731   1.732
 6627SOL    HW120780   2.046   6.731   1.781
 6627SOL    HW220781   1.886   6.763   1.792
 6628SOL     OW20782   4.080   5.793   3.502
 6628SOL    HW120783   4.120   5.868   3.449
 6628SOL    HW220784   4.149   5.756   3.565
 6629SOL     OW20785   3.190   3.888   0.227
 6629SOL    HW120786   3.244   3.852   0.303
 6629SOL    HW220787   3.233   3.971   0.191
 6630SOL     OW20788   3.534   1.267   6.558
 6630SOL    HW120789   3.577   1.218   6.482
 6630SOL    HW220790   3.598   1.336   6.593
 6631SOL     OW20791   4.549   0.212   1.309
 6631SOL    HW120792   4.582   0.119   1.294
 6631SOL    HW220793   4.451   0.216   1.287
 6632SOL     OW20794   6.452   2.880   2.747
 6632SOL    HW120795   6.395   2.839   2.676
 6632SOL    HW220796   6.397   2.942   2.803
 6633SOL     OW20797   0.853   6.184   2.003
 6633SOL    HW120798   0.848   6.104   1.942
 6633SOL    HW220799   0.948   6.213   2.012
 6634SOL     OW20800   6.726   2.482   5.600
 6634SOL    HW120801   6.711   2.423   5.521
 6634SOL    HW220802   6.778   2.432   5.670
 6635SOL     OW20803   4.179   4.928   2.817
 6635SOL    HW120804   4.108   4.896   2.755
 6635SOL    HW220805   4.160   4.897   2.910
 6636SOL     OW20806   1.726   3.367   4.238
 6636SOL    HW120807   1.750   3.301   4.167
 6636SOL    HW220808   1.638   3.341   4.278
 6637SOL     OW20809   6.641   2.328   2.001
 6637SOL    HW120810   6.597   2.250   1.957
 6637SOL    HW220811   6.572   2.394   2.031
 6638SOL     OW20812   1.952   0.361   6.580
 6638SOL    HW120813   1.950   0.263   6.559
 6638SOL    HW220814   1.879   0.383   6.644
 6639SOL     OW20815   4.250   5.548   6.171
 6639SOL    HW120816   4.321   5.547   6.241
 6639SOL    HW220817   4.289   5.579   6.084
 6640SOL     OW20818   5.860   2.933   3.572
 6640SOL    HW120819   5.813   2.847   3.553
 6640SOL    HW220820   5.894   2.972   3.486
 6641SOL     OW20821   2.562   5.500   6.776
 6641SOL    HW120822   2.540   5.435   6.703
 6641SOL    HW220823   2.501   5.485   6.853
 6642SOL     OW20824   6.465   6.156   6.702
 6642SOL    HW120825   6.481   6.254   6.690
 6642SOL    HW220826   6.543   6.105   6.667
 6643SOL     OW20827   3.592   5.563   0.407
 6643SOL    HW120828   3.684   5.577   0.443
 6643SOL    HW220829   3.589   5.591   0.311
 6644SOL     OW20830   1.533   4.172   1.715
 6644SOL    HW120831   1.465   4.155   1.644
 6644SOL    HW220832   1.559   4.085   1.757
 6645SOL     OW20833   6.289   4.912   5.321
 6645SOL    HW120834   6.339   4.993   5.290
 6645SOL    HW220835   6.353   4.848   5.364
 6646SOL     OW20836   1.090   5.783   3.903
 6646SOL    HW120837   1.027   5.733   3.963
 6646SOL    HW220838   1.059   5.878   3.895
 6647SOL     OW20839   4.122   1.746   2.144
 6647SOL    HW120840   4.073   1.827   2.112
 6647SOL    HW220841   4.143   1.756   2.241
 6648SOL     OW20842   4.069   5.578   1.781
 6648SOL    HW120843   4.041   5.608   1.872
 6648SOL    HW220844   4.155   5.622   1.756
 6649SOL     OW20845   4.527   1.986   5.940
 6649SOL    HW120846   4.437   2.021   5.964
 6649SOL    HW220847   4.585   1.985   6.022
 6650SOL     OW20848   3.256   0.958   3.925
 6650SOL    HW120849   3.214   1.046   3.949
 6650SOL    HW220850   3.187   0.899   3.883
 6651SOL     OW20851   1.016   1.811   0.669
 6651SOL    HW120852   1.024   1.894   0.615
 6651SOL    HW220853   1.025   1.833   0.766
 6652SOL     OW20854   0.852   5.292   3.113
 6652SOL    HW120855   0.918   5.279   3.187
 6652SOL    HW220856   0.882   5.367   3.054
 6653SOL     OW20857   3.218   3.645   3.468
 6653SOL    HW120858   3.304   3.628   3.421
 6653SOL    HW220859   3.232   3.710   3.542
 6654SOL     OW20860   1.612   3.525   1.555
 6654SOL    HW120861   1.551   3.493   1.627
 6654SOL    HW220862   1.607   3.625   1.548
 6655SOL     OW20863   1.684   0.404   0.388
 6655SOL    HW120864   1.773   0.358   0.379
 6655SOL    HW220865   1.699   0.497   0.422
 6656SOL     OW20866   0.037   2.826   2.018
 6656SOL    HW120867   0.041   2.805   1.921
 6656SOL    HW220868   0.116   2.786   2.064
 6657SOL     OW20869   3.087   4.775   5.595
 6657SOL    HW120870   3.117   4.817   5.509
 6657SOL    HW220871   3.164   4.726   5.637
 6658SOL     OW20872   6.302   0.068   6.333
 6658SOL    HW120873   6.336   7.001   6.344
 6658SOL    HW220874   6.373   0.126   6.293
 6659SOL     OW20875   1.932   2.640   6.875
 6659SOL    HW120876   1.934   2.545   6.841
 6659SOL    HW220877   2.013   2.688   6.841
 6660SOL     OW20878   0.944   6.800   2.769
 6660SOL    HW120879   0.889   6.873   2.810
 6660SOL    HW220880   1.022   6.840   2.722
 6661SOL     OW20881   0.024   6.194   3.783
 6661SOL    HW120882   7.009   6.140   3.709
 6661SOL    HW220883   6.978   6.234   3.839
 6662SOL     OW20884   1.485   3.979   6.004
 6662SOL    HW120885   1.503   4.024   5.917
 6662SOL    HW220886   1.526   4.032   6.078
 6663SOL     OW20887   0.682   4.923   2.310
 6663SOL    HW120888   0.751   4.866   2.264
 6663SOL    HW220889   0.700   5.019   2.290
 6664SOL     OW20890   6.981   1.934   2.648
 6664SOL    HW120891   6.884   1.949   2.666
 6664SOL    HW220892   7.008   1.987   2.567
 6665SOL     OW20893   2.618   0.086   1.964
 6665SOL    HW120894   2.532   0.081   1.914
 6665SOL    HW220895   2.601   0.068   2.061
 6666SOL     OW20896   5.412   1.152   0.451
 6666SOL    HW120897   5.490   1.199   0.491
 6666SOL    HW220898   5.328   1.203   0.471
 6667SOL     OW20899   6.245   4.998   4.800
 6667SOL    HW120900   6.191   5.029   4.878
 6667SOL    HW220901   6.196   5.020   4.715
 6668SOL     OW20902   0.232   6.376   1.165
 6668SOL    HW120903   0.276   6.307   1.222
 6668SOL    HW220904   0.175   6.435   1.222
 6669SOL     OW20905   1.089   5.239   2.842
 6669SOL    HW120906   1.124   5.333   2.843
 6669SOL    HW220907   1.128   5.188   2.919
 6670SOL     OW20908   4.100   4.597   0.486
 6670SOL    HW120909   4.099   4.615   0.387
 6670SOL    HW220910   4.055   4.671   0.534
 6671SOL     OW20911   0.583   3.240   5.244
 6671SOL    HW120912   0.512   3.184   5.286
 6671SOL    HW220913   0.545   3.289   5.166
 6672SOL     OW20914   0.512   0.397   5.425
 6672SOL    HW120915   0.599   0.374   5.381
 6672SOL    HW220916   0.526   0.409   5.523
 6673SOL     OW20917   4.693   5.625   1.049
 6673SOL    HW120918   4.686   5.676   0.963
 6673SOL    HW220919   4.765   5.556   1.039
 6674SOL     OW20920   0.726   0.017   5.661
 6674SOL    HW120921   0.800   0.056   5.606
 6674SOL    HW220922   0.638   0.048   5.625
 6675SOL     OW20923   7.007   6.346   0.251
 6675SOL    HW120924   7.012   6.264   0.194
 6675SOL    HW220925   0.036   6.332   0.334
 6676SOL     OW20926   0.283   1.863   1.183
 6676SOL    HW120927   0.303   1.934   1.115
 6676SOL    HW220928   0.264   1.905   1.271
 6677SOL     OW20929   6.713   4.461   0.220
 6677SOL    HW120930   6.706   4.526   0.296
 6677SOL    HW220931   6.796   4.479   0.167
 6678SOL     OW20932   0.916   3.351   4.346
 6678SOL    HW120933   1.010   3.319   4.334
 6678SOL    HW220934   0.857   3.307   4.278
 6679SOL     OW20935   1.612   0.804   4.673
 6679SOL    HW120936   1.613   0.729   4.740
 6679SOL    HW220937   1.664   0.881   4.709
 6680SOL     OW20938   2.762   0.834   6.460
 6680SOL    HW120939   2.746   0.847   6.362
 6680SOL    HW220940   2.762   0.923   6.506
 6681SOL     OW20941   5.235   5.728   0.037
 6681SOL    HW120942   5.196   5.671   0.109
 6681SOL    HW220943   5.292   5.799   0.078
 6682SOL     OW20944   6.643   5.409   2.025
 6682SOL    HW120945   6.594   5.494   2.043
 6682SOL    HW220946   6.683   5.374   2.109
 6683SOL     OW20947   5.222   1.666   4.751
 6683SOL    HW120948   5.129   1.674   4.787
 6683SOL    HW220949   5.267   1.755   4.756
 6684SOL     OW20950   1.865   1.308   2.663
 6684SOL    HW120951   1.871   1.211   2.637
 6684SOL    HW220952   1.769   1.333   2.676
 6685SOL     OW20953   5.591   2.773   6.658
 6685SOL    HW120954   5.534   2.824   6.723
 6685SOL    HW220955   5.536   2.746   6.579
 6686SOL     OW20956   6.213   3.565   4.270
 6686SOL    HW120957   6.256   3.524   4.189
 6686SOL    HW220958   6.282   3.575   4.342
 6687SOL     OW20959   0.598   0.720   0.200
 6687SOL    HW120960   0.683   0.766   0.175
 6687SOL    HW220961   0.618   0.642   0.260
 6688SOL     OW20962   0.674   5.102   2.565
 6688SOL    HW120963   0.719   5.125   2.479
 6688SOL    HW220964   0.650   5.187   2.614
 6689SOL     OW20965   4.559   4.945   0.109
 6689SOL    HW120966   4.539   4.891   0.026
 6689SOL    HW220967   4.647   4.916   0.146
 6690SOL     OW20968   1.120   1.816   0.942
 6690SOL    HW120969   1.166   1.728   0.930
 6690SOL    HW220970   1.077   1.819   1.032
 6691SOL     OW20971   1.786   5.118   0.875
 6691SOL    HW120972   1.710   5.172   0.911
 6691SOL    HW220973   1.751   5.050   0.810
 6692SOL     OW20974   4.451   4.251   6.190
 6692SOL    HW120975   4.404   4.165   6.210
 6692SOL    HW220976   4.547   4.233   6.168
 6693SOL     OW20977   4.066   3.649   5.509
 6693SOL    HW120978   4.126   3.610   5.579
 6693SOL    HW220979   4.056   3.747   5.524
 6694SOL     OW20980   2.400   6.409   0.169
 6694SOL    HW120981   2.485   6.378   0.211
 6694SOL    HW220982   2.330   6.422   0.239
 6695SOL     OW20983   1.544   1.496   6.781
 6695SOL    HW120984   1.459   1.456   6.817
 6695SOL    HW220985   1.527   1.591   6.755
 6696SOL     OW20986   1.889   2.842   1.317
 6696SOL    HW120987   1.801   2.815   1.355
 6696SOL    HW220988   1.963   2.800   1.371
 6697SOL     OW20989   4.913   3.158   4.065
 6697SOL    HW120990   4.892   3.219   4.141
 6697SOL    HW220991   4.882   3.065   4.087
 6698SOL     OW20992   2.977   4.332   0.094
 6698SOL    HW120993   2.985   4.407   0.160
 6698SOL    HW220994   3.010   4.363   0.005
 6699SOL     OW20995   1.348   3.277   6.476
 6699SOL    HW120996   1.284   3.354   6.472
 6699SOL    HW220997   1.298   3.191   6.480
 6700SOL     OW20998   6.980   6.497   6.238
 6700SOL    HW120999   0.030   6.559   6.259
 6700SOL    HW221000   6.894   6.540   6.265
 6701SOL     OW21001   0.288   2.933   1.256
 6701SOL    HW121002   0.363   2.866   1.247
 6701SOL    HW221003   0.290   2.972   1.348
 6702SOL     OW21004   1.446   3.467   0.497
 6702SOL    HW121005   1.349   3.469   0.473
 6702SOL    HW221006   1.456   3.438   0.592
 6703SOL     OW21007   0.547   2.475   6.751
 6703SOL    HW121008   0.551   2.406   6.679
 6703SOL    HW221009   0.461   2.526   6.744
 6704SOL     OW21010   4.801   2.668   2.938
 6704SOL    HW121011   4.842   2.586   2.899
 6704SOL    HW221012   4.785   2.655   3.035
 6705SOL     OW21013   5.724   1.197   1.106
 6705SOL    HW121014   5.626   1.217   1.108
 6705SOL    HW221015   5.742   1.122   1.043
 6706SOL     OW21016   1.159   5.999   6.815
 6706SOL    HW121017   1.231   5.950   6.865
 6706SOL    HW221018   1.124   5.941   6.742
 6707SOL     OW21019   1.101   5.458   2.400
 6707SOL    HW121020   1.092   5.402   2.482
 6707SOL    HW221021   1.057   5.412   2.323
 6708SOL     OW21022   2.145   6.516   1.474
 6708SOL    HW121023   2.059   6.466   1.485
 6708SOL    HW221024   2.158   6.579   1.550
 6709SOL     OW21025   5.099   1.912   3.103
 6709SOL    HW121026   5.101   1.874   3.195
 6709SOL    HW221027   5.029   1.983   3.098
 6710SOL     OW21028   1.451   1.972   0.473
 6710SOL    HW121029   1.488   1.880   0.462
 6710SOL    HW221030   1.452   2.019   0.385
 6711SOL     OW21031   5.172   3.583   6.916
 6711SOL    HW121032   5.094   3.600   6.976
 6711SOL    HW221033   5.204   3.489   6.927
 6712SOL     OW21034   3.677   6.432   1.224
 6712SOL    HW121035   3.587   6.407   1.187
 6712SOL    HW221036   3.666   6.467   1.317
 6713SOL     OW21037   1.624   1.873   3.187
 6713SOL    HW121038   1.551   1.803   3.183
 6713SOL    HW221039   1.667   1.871   3.277
 6714SOL     OW21040   6.584   0.373   4.571
 6714SOL    HW121041   6.584   0.435   4.649
 6714SOL    HW221042   6.600   0.279   4.602
 6715SOL     OW21043   6.279   2.253   0.590
 6715SOL    HW121044   6.307   2.161   0.562
 6715SOL    HW221045   6.219   2.292   0.520
 6716SOL     OW21046   2.991   6.038   0.859
 6716SOL    HW121047   3.085   6.021   0.829
 6716SOL    HW221048   2.951   6.111   0.803
 6717SOL     OW21049   4.228   0.991   6.896
 6717SOL    HW121050   4.138   1.022   6.867
 6717SOL    HW221051   4.246   1.023   6.989
 6718SOL     OW21052   3.596   6.997   0.209
 6718SOL    HW121053   3.580   7.010   0.306
 6718SOL    HW221054   3.656   0.043   0.175
 6719SOL     OW21055   0.843   1.248   5.140
 6719SOL    HW121056   0.934   1.208   5.123
 6719SOL    HW221057   0.854   1.334   5.190
 6720SOL     OW21058   1.465   4.708   1.184
 6720SOL    HW121059   1.510   4.715   1.273
 6720SOL    HW221060   1.366   4.707   1.196
 6721SOL     OW21061   0.222   6.170   2.890
 6721SOL    HW121062   0.293   6.160   2.820
 6721SOL    HW221063   0.225   6.261   2.929
 6722SOL     OW21064   4.859   5.018   6.697
 6722SOL    HW121065   4.913   5.023   6.781
 6722SOL    HW221066   4.855   5.108   6.654
 6723SOL     OW21067   4.663   0.578   2.923
 6723SOL    HW121068   4.650   0.663   2.874
 6723SOL    HW221069   4.691   0.598   3.017
 6724SOL     OW21070   3.577   4.599   5.646
 6724SOL    HW121071   3.606   4.690   5.673
 6724SOL    HW221072   3.656   4.538   5.646
 6725SOL     OW21073   6.960   5.308   1.292
 6725SOL    HW121074   6.908   5.304   1.378
 6725SOL    HW221075   7.001   5.219   1.274
 6726SOL     OW21076   2.486   2.848   1.807
 6726SOL    HW121077   2.542   2.766   1.794
 6726SOL    HW221078   2.522   2.922   1.752
 6727SOL     OW21079   3.269   3.922   0.617
 6727SOL    HW121080   3.255   4.009   0.570
 6727SOL    HW221081   3.240   3.847   0.557
 6728SOL     OW21082   4.755   1.673   4.819
 6728SOL    HW121083   4.734   1.627   4.905
 6728SOL    HW221084   4.706   1.629   4.744
 6729SOL     OW21085   4.642   6.194   3.452
 6729SOL    HW121086   4.732   6.154   3.464
 6729SOL    HW221087   4.627   6.214   3.355
 6730SOL     OW21088   1.325   0.567   2.035
 6730SOL    HW121089   1.416   0.527   2.050
 6730SOL    HW221090   1.316   0.650   2.090
 6731SOL     OW21091   1.917   4.065   2.215
 6731SOL    HW121092   1.820   4.064   2.189
 6731SOL    HW221093   1.969   4.120   2.150
 6732SOL     OW21094   2.718   5.649   0.292
 6732SOL    HW121095   2.701   5.696   0.205
 6732SOL    HW221096   2.762   5.560   0.275
 6733SOL     OW21097   5.972   5.899   4.612
 6733SOL    HW121098   5.926   5.869   4.695
 6733SOL    HW221099   5.909   5.895   4.535
 6734SOL     OW21100   2.700   3.698   5.659
 6734SOL    HW121101   2.678   3.691   5.756
 6734SOL    HW221102   2.623   3.666   5.604
 6735SOL     OW21103   0.904   6.569   6.822
 6735SOL    HW121104   0.878   6.476   6.846
 6735SOL    HW221105   0.897   6.582   6.723
 6736SOL     OW21106   2.266   4.191   2.417
 6736SOL    HW121107   2.190   4.214   2.477
 6736SOL    HW221108   2.331   4.267   2.415
 6737SOL     OW21109   2.048   0.003   0.859
 6737SOL    HW121110   1.967   6.987   0.819
 6737SOL    HW221111   2.109   0.034   0.786
 6738SOL     OW21112   4.970   1.636   1.131
 6738SOL    HW121113   4.962   1.536   1.135
 6738SOL    HW221114   4.901   1.677   1.191
 6739SOL     OW21115   4.182   6.565   5.753
 6739SOL    HW121116   4.214   6.487   5.807
 6739SOL    HW221117   4.252   6.589   5.686
 6740SOL     OW21118   5.946   2.802   5.587
 6740SOL    HW121119   6.026   2.857   5.564
 6740SOL    HW221120   5.891   2.851   5.655
 6741SOL     OW21121   0.434   0.031   6.409
 6741SOL    HW121122   0.357   6.998   6.432
 6741SOL    HW221123   0.443   0.103   6.479
 6742SOL     OW21124   6.223   5.968   4.743
 6742SOL    HW121125   6.131   5.958   4.704
 6742SOL    HW221126   6.233   6.060   4.782
 6743SOL     OW21127   5.790   2.258   1.567
 6743SOL    HW121128   5.837   2.216   1.489
 6743SOL    HW221129   5.696   2.280   1.541
 6744SOL     OW21130   4.680   6.486   4.389
 6744SOL    HW121131   4.713   6.458   4.298
 6744SOL    HW221132   4.743   6.452   4.459
 6745SOL     OW21133   0.869   3.151   2.774
 6745SOL    HW121134   0.818   3.237   2.776
 6745SOL    HW221135   0.966   3.169   2.786
 6746SOL     OW21136   6.488   1.107   0.722
 6746SOL    HW121137   6.429   1.064   0.791
 6746SOL    HW221138   6.451   1.088   0.631
 6747SOL     OW21139   4.478   5.550   6.904
 6747SOL    HW121140   4.480   5.450   6.896
 6747SOL    HW221141   4.566   5.587   6.875
 6748SOL     OW21142   0.128   6.508   2.071
 6748SOL    HW121143   0.140   6.599   2.032
 6748SOL    HW221144   0.151   6.510   2.168
 6749SOL     OW21145   3.092   5.417   1.319
 6749SOL    HW121146   3.181   5.372   1.324
 6749SOL    HW221147   3.093   5.485   1.246
 6750SOL     OW21148   2.149   3.003   5.226
 6750SOL    HW121149   2.172   3.041   5.316
 6750SOL    HW221150   2.227   3.015   5.165
 6751SOL     OW21151   4.098   2.026   6.218
 6751SOL    HW121152   4.130   1.982   6.301
 6751SOL    HW221153   4.015   1.981   6.185
 6752SOL     OW21154   6.991   1.846   0.065
 6752SOL    HW121155   0.016   1.894   7.020
 6752SOL    HW221156   6.943   1.911   0.123
 6753SOL     OW21157   6.461   1.318   0.030
 6753SOL    HW121158   6.514   1.276   6.983
 6753SOL    HW221159   6.418   1.402   7.022
 6754SOL     OW21160   4.525   0.661   6.564
 6754SOL    HW121161   4.442   0.701   6.604
 6754SOL    HW221162   4.604   0.716   6.592
 6755SOL     OW21163   5.482   2.060   3.775
 6755SOL    HW121164   5.394   2.072   3.820
 6755SOL    HW221165   5.479   2.103   3.684
 6756SOL     OW21166   4.780   4.102   3.783
 6756SOL    HW121167   4.797   4.003   3.782
 6756SOL    HW221168   4.742   4.128   3.871
 6757SOL     OW21169   6.107   4.450   1.265
 6757SOL    HW121170   6.120   4.548   1.256
 6757SOL    HW221171   6.195   4.404   1.259
 6758SOL     OW21172   6.031   1.646   3.374
 6758SOL    HW121173   6.042   1.624   3.471
 6758SOL    HW221174   5.988   1.568   3.328
 6759SOL     OW21175   1.415   5.584   3.098
 6759SOL    HW121176   1.414   5.656   3.029
 6759SOL    HW221177   1.503   5.537   3.095
 6760SOL     OW21178   6.660   3.880   5.117
 6760SOL    HW121179   6.579   3.936   5.101
 6760SOL    HW221180   6.670   3.862   5.215
 6761SOL     OW21181   5.955   2.667   6.216
 6761SOL    HW121182   5.902   2.602   6.271
 6761SOL    HW221183   5.931   2.656   6.119
 6762SOL     OW21184   0.121   4.154   3.288
 6762SOL    HW121185   0.080   4.235   3.331
 6762SOL    HW221186   0.198   4.123   3.344
 6763SOL     OW21187   5.771   6.991   4.817
 6763SOL    HW121188   5.839   0.030   4.782
 6763SOL    HW221189   5.786   6.977   4.915
 6764SOL     OW21190   1.826   3.517   6.819
 6764SOL    HW121191   1.825   3.418   6.803
 6764SOL    HW221192   1.732   3.551   6.826
 6765SOL     OW21193   5.016   4.961   2.498
 6765SOL    HW121194   5.000   4.882   2.440
 6765SOL    HW221195   4.987   4.940   2.592
 6766SOL     OW21196   1.792   2.782   6.129
 6766SOL    HW121197   1.796   2.697   6.076
 6766SOL    HW221198   1.859   2.778   6.203
 6767SOL     OW21199   0.451   2.853   5.882
 6767SOL    HW121200   0.367   2.812   5.917
 6767SOL    HW221201   0.429   2.939   5.834
 6768SOL     OW21202   6.551   0.829   6.163
 6768SOL    HW121203   6.606   0.905   6.195
 6768SOL    HW221204   6.502   0.788   6.240
 6769SOL     OW21205   1.007   2.506   6.052
 6769SOL    HW121206   1.063   2.425   6.033
 6769SOL    HW221207   1.017   2.571   5.977
 6770SOL     OW21208   6.943   1.566   3.814
 6770SOL    HW121209   7.008   1.641   3.801
 6770SOL    HW221210   6.885   1.585   3.893
 6771SOL     OW21211   6.020   1.881   2.709
 6771SOL    HW121212   6.106   1.913   2.750
 6771SOL    HW221213   5.943   1.917   2.762
 6772SOL     OW21214   0.887   0.710   1.991
 6772SOL    HW121215   0.912   0.644   1.920
 6772SOL    HW221216   0.842   0.789   1.949
 6773SOL     OW21217   1.711   1.026   2.778
 6773SOL    HW121218   1.730   1.095   2.848
 6773SOL    HW221219   1.616   1.033   2.749
 6774SOL     OW21220   4.393   1.299   5.200
 6774SOL    HW121221   4.473   1.324   5.146
 6774SOL    HW221222   4.409   1.211   5.245
 6775SOL     OW21223   1.492   2.158   4.539
 6775SOL    HW121224   1.483   2.223   4.463
 6775SOL    HW221225   1.556   2.085   4.512
 6776SOL     OW21226   3.660   3.745   3.455
 6776SOL    HW121227   3.575   3.698   3.430
 6776SOL    HW221228   3.734   3.714   3.396
 6777SOL     OW21229   0.468   6.985   6.148
 6777SOL    HW121230   0.435   7.008   6.240
 6777SOL    HW221231   0.537   6.913   6.155
 6778SOL     OW21232   6.629   6.096   1.924
 6778SOL    HW121233   6.671   6.077   1.836
 6778SOL    HW221234   6.545   6.043   1.933
 6779SOL     OW21235   5.026   4.802   6.544
 6779SOL    HW121236   5.014   4.881   6.605
 6779SOL    HW221237   5.085   4.735   6.589
 6780SOL     OW21238   4.703   1.019   2.522
 6780SOL    HW121239   4.606   1.012   2.500
 6780SOL    HW221240   4.732   0.939   2.574
 6781SOL     OW21241   6.269   3.177   3.152
 6781SOL    HW121242   6.214   3.260   3.149
 6781SOL    HW221243   6.222   3.108   3.208
 6782SOL     OW21244   0.069   1.397   2.760
 6782SOL    HW121245   0.072   1.319   2.698
 6782SOL    HW221246   7.015   1.389   2.820
 6783SOL     OW21247   0.490   6.555   6.610
 6783SOL    HW121248   0.496   6.535   6.512
 6783SOL    HW221249   0.480   6.470   6.661
 6784SOL     OW21250   1.282   4.947   0.352
 6784SOL    HW121251   1.229   5.031   0.348
 6784SOL    HW221252   1.372   4.962   0.312
 6785SOL     OW21253   5.254   4.470   1.662
 6785SOL    HW121254   5.332   4.500   1.717
 6785SOL    HW221255   5.170   4.482   1.714
 6786SOL     OW21256   6.559   2.025   5.516
 6786SOL    HW121257   6.492   2.082   5.564
 6786SOL    HW221258   6.513   1.945   5.477
 6787SOL     OW21259   4.075   2.312   1.296
 6787SOL    HW121260   4.071   2.405   1.331
 6787SOL    HW221261   3.993   2.293   1.242
 6788SOL     OW21262   1.237   4.458   1.081
 6788SOL    HW121263   1.220   4.556   1.079
 6788SOL    HW221264   1.283   4.431   0.996
 6789SOL     OW21265   5.507   3.547   2.357
 6789SOL    HW121266   5.534   3.629   2.307
 6789SOL    HW221267   5.417   3.562   2.399
 6790SOL     OW21268   6.999   5.601   0.643
 6790SOL    HW121269   0.008   5.518   0.687
 6790SOL    HW221270   6.899   5.602   0.646
 6791SOL     OW21271   2.222   6.526   3.576
 6791SOL    HW121272   2.256   6.503   3.667
 6791SOL    HW221273   2.299   6.528   3.512
 6792SOL     OW21274   3.478   5.876   6.872
 6792SOL    HW121275   3.516   5.791   6.835
 6792SOL    HW221276   3.420   5.919   6.802
 6793SOL     OW21277   2.727   4.162   6.592
 6793SOL    HW121278   2.723   4.161   6.692
 6793SOL    HW221279   2.648   4.113   6.555
 6794SOL     OW21280   4.783   2.308   4.371
 6794SOL    HW121281   4.827   2.341   4.287
 6794SOL    HW221282   4.685   2.298   4.354
 6795SOL     OW21283   0.577   0.952   1.974
 6795SOL    HW121284   0.526   1.038   1.976
 6795SOL    HW221285   0.675   0.971   1.961
 6796SOL     OW21286   6.817   3.021   2.202
 6796SOL    HW121287   6.898   3.056   2.155
 6796SOL    HW221288   6.736   3.038   2.146
 6797SOL     OW21289   1.837   4.015   1.394
 6797SOL    HW121290   1.912   4.080   1.381
 6797SOL    HW221291   1.751   4.058   1.366
 6798SOL     OW21292   4.666   1.643   1.963
 6798SOL    HW121293   4.616   1.684   2.040
 6798SOL    HW221294   4.606   1.581   1.913
 6799SOL     OW21295   5.627   6.734   3.126
 6799SOL    HW121296   5.672   6.801   3.067
 6799SOL    HW221297   5.556   6.687   3.075
 6800SOL     OW21298   6.456   2.738   2.357
 6800SOL    HW121299   6.553   2.754   2.370
 6800SOL    HW221300   6.421   2.801   2.288
 6801SOL     OW21301   1.666   5.290   5.179
 6801SOL    HW121302   1.642   5.325   5.088
 6801SOL    HW221303   1.698   5.196   5.170
 6802SOL     OW21304   2.715   4.494   1.632
 6802SOL    HW121305   2.765   4.450   1.558
 6802SOL    HW221306   2.766   4.485   1.717
 6803SOL     OW21307   6.067   4.893   6.810
 6803SOL    HW121308   6.000   4.939   6.868
 6803SOL    HW221309   6.137   4.851   6.868
 6804SOL     OW21310   3.392   4.981   2.088
 6804SOL    HW121311   3.430   4.903   2.038
 6804SOL    HW221312   3.453   5.006   2.163
 6805SOL     OW21313   0.818   4.516   3.320
 6805SOL    HW121314   0.822   4.491   3.417
 6805SOL    HW221315   0.729   4.488   3.283
 6806SOL     OW21316   6.222   3.818   1.928
 6806SOL    HW121317   6.208   3.913   1.958
 6806SOL    HW221318   6.134   3.774   1.916
 6807SOL     OW21319   3.685   3.332   2.432
 6807SOL    HW121320   3.681   3.392   2.352
 6807SOL    HW221321   3.659   3.239   2.405
 6808SOL     OW21322   3.697   6.168   3.169
 6808SOL    HW121323   3.722   6.205   3.080
 6808SOL    HW221324   3.777   6.126   3.211
 6809SOL     OW21325   5.794   2.457   0.491
 6809SOL    HW121326   5.838   2.429   0.576
 6809SOL    HW221327   5.728   2.530   0.510
 6810SOL     OW21328   2.496   6.809   4.428
 6810SOL    HW121329   2.583   6.782   4.386
 6810SOL    HW221330   2.505   6.803   4.528
 6811SOL     OW21331   6.161   1.472   1.551
 6811SOL    HW121332   6.136   1.463   1.648
 6811SOL    HW221333   6.219   1.552   1.539
 6812SOL     OW21334   3.333   4.231   5.681
 6812SOL    HW121335   3.329   4.146   5.733
 6812SOL    HW221336   3.260   4.232   5.613
 6813SOL     OW21337   0.290   3.687   2.045
 6813SOL    HW121338   0.264   3.726   1.957
 6813SOL    HW221339   0.278   3.587   2.042
 6814SOL     OW21340   4.184   2.215   1.726
 6814SOL    HW121341   4.086   2.228   1.716
 6814SOL    HW221342   4.230   2.304   1.728
 6815SOL     OW21343   1.082   5.710   0.149
 6815SOL    HW121344   1.068   5.782   0.217
 6815SOL    HW221345   1.038   5.736   0.063
 6816SOL     OW21346   5.690   6.559   4.469
 6816SOL    HW121347   5.721   6.615   4.545
 6816SOL    HW221348   5.666   6.619   4.392
 6817SOL     OW21349   5.719   0.576   1.853
 6817SOL    HW121350   5.728   0.478   1.872
 6817SOL    HW221351   5.624   0.604   1.870
 6818SOL     OW21352   6.847   6.899   5.485
 6818SOL    HW121353   6.944   6.912   5.464
 6818SOL    HW221354   6.826   6.943   5.573
 6819SOL     OW21355   5.350   3.835   0.462
 6819SOL    HW121356   5.307   3.746   0.474
 6819SOL    HW221357   5.303   3.903   0.519
 6820SOL     OW21358   2.277   3.588   1.442
 6820SOL    HW121359   2.362   3.560   1.396
 6820SOL    HW221360   2.210   3.514   1.435
 6821SOL     OW21361   2.697   3.172   5.982
 6821SOL    HW121362   2.767   3.161   6.053
 6821SOL    HW221363   2.732   3.232   5.910
 6822SOL     OW21364   6.445   4.186   4.872
 6822SOL    HW121365   6.359   4.236   4.873
 6822SOL    HW221366   6.487   4.193   4.781
 6823SOL     OW21367   6.782   3.129   5.975
 6823SOL    HW121368   6.744   3.216   5.943
 6823SOL    HW221369   6.789   3.066   5.898
 6824SOL     OW21370   0.743   0.223   3.711
 6824SOL    HW121371   0.674   0.295   3.715
 6824SOL    HW221372   0.782   0.220   3.619
 6825SOL     OW21373   4.555   4.528   1.527
 6825SOL    HW121374   4.495   4.449   1.536
 6825SOL    HW221375   4.619   4.514   1.451
 6826SOL     OW21376   5.845   1.076   3.719
 6826SOL    HW121377   5.847   0.979   3.694
 6826SOL    HW221378   5.913   1.093   3.790
 6827SOL     OW21379   5.371   5.531   5.616
 6827SOL    HW121380   5.336   5.612   5.570
 6827SOL    HW221381   5.295   5.470   5.638
 6828SOL     OW21382   2.600   2.352   2.740
 6828SOL    HW121383   2.664   2.313   2.806
 6828SOL    HW221384   2.563   2.280   2.682
 6829SOL     OW21385   5.245   6.753   3.981
 6829SOL    HW121386   5.196   6.789   4.061
 6829SOL    HW221387   5.205   6.665   3.955
 6830SOL     OW21388   3.885   6.340   2.049
 6830SOL    HW121389   3.934   6.269   1.999
 6830SOL    HW221390   3.908   6.429   2.010
 6831SOL     OW21391   2.381   1.120   0.133
 6831SOL    HW121392   2.325   1.179   0.190
 6831SOL    HW221393   2.440   1.175   0.073
 6832SOL     OW21394   3.570   3.660   0.252
 6832SOL    HW121395   3.602   3.565   0.255
 6832SOL    HW221396   3.474   3.664   0.277
 6833SOL     OW21397   4.830   5.318   6.851
 6833SOL    HW121398   4.768   5.251   6.891
 6833SOL    HW221399   4.778   5.399   6.824
 6834SOL     OW21400   6.052   5.749   5.677
 6834SOL    HW121401   6.089   5.658   5.657
 6834SOL    HW221402   6.126   5.808   5.709
 6835SOL     OW21403   3.770   0.310   2.957
 6835SOL    HW121404   3.670   0.314   2.963
 6835SOL    HW221405   3.796   0.272   2.868
 6836SOL     OW21406   0.873   4.606   6.712
 6836SOL    HW121407   0.798   4.582   6.774
 6836SOL    HW221408   0.960   4.599   6.760
 6837SOL     OW21409   6.508   2.094   1.933
 6837SOL    HW121410   6.519   1.996   1.916
 6837SOL    HW221411   6.411   2.114   1.947
 6838SOL     OW21412   1.891   4.435   6.943
 6838SOL    HW121413   1.839   4.414   6.859
 6838SOL    HW221414   1.929   4.351   6.980
 6839SOL     OW21415   5.747   2.446   5.566
 6839SOL    HW121416   5.740   2.518   5.634
 6839SOL    HW221417   5.663   2.442   5.512
 6840SOL     OW21418   3.352   6.959   4.611
 6840SOL    HW121419   3.257   6.933   4.590
 6840SOL    HW221420   3.352   7.025   4.686
 6841SOL     OW21421   4.521   6.304   0.703
 6841SOL    HW121422   4.527   6.277   0.799
 6841SOL    HW221423   4.446   6.370   0.692
 6842SOL     OW21424   1.279   3.331   3.661
 6842SOL    HW121425   1.210   3.395   3.629
 6842SOL    HW221426   1.246   3.237   3.648
 6843SOL     OW21427   4.898   2.996   1.783
 6843SOL    HW121428   4.834   3.031   1.852
 6843SOL    HW221429   4.932   2.907   1.812
 6844SOL     OW21430   3.161   6.811   4.869
 6844SOL    HW121431   3.102   6.785   4.946
 6844SOL    HW221432   3.254   6.822   4.902
 6845SOL     OW21433   3.649   3.707   6.980
 6845SOL    HW121434   3.689   3.656   0.031
 6845SOL    HW221435   3.617   3.643   6.910
 6846SOL     OW21436   4.130   3.300   3.879
 6846SOL    HW121437   4.139   3.286   3.780
 6846SOL    HW221438   4.052   3.248   3.914
 6847SOL     OW21439   5.444   2.799   2.595
 6847SOL    HW121440   5.540   2.823   2.604
 6847SOL    HW221441   5.402   2.793   2.686
 6848SOL     OW21442   0.626   5.950   5.067
 6848SOL    HW121443   0.632   6.042   5.029
 6848SOL    HW221444   0.646   5.953   5.165
 6849SOL     OW21445   3.102   0.310   4.797
 6849SOL    HW121446   3.121   0.377   4.868
 6849SOL    HW221447   3.133   0.345   4.709
 6850SOL     OW21448   6.597   3.658   1.642
 6850SOL    HW121449   6.613   3.562   1.668
 6850SOL    HW221450   6.537   3.661   1.562
 6851SOL     OW21451   1.772   6.038   6.758
 6851SOL    HW121452   1.722   5.989   6.830
 6851SOL    HW221453   1.844   5.978   6.722
 6852SOL     OW21454   5.912   5.115   1.980
 6852SOL    HW121455   5.814   5.132   1.988
 6852SOL    HW221456   5.959   5.201   1.961
 6853SOL     OW21457   6.323   3.969   4.810
 6853SOL    HW121458   6.283   3.982   4.719
 6853SOL    HW221459   6.383   4.045   4.831
 6854SOL     OW21460   6.256   1.118   6.834
 6854SOL    HW121461   6.229   1.063   6.756
 6854SOL    HW221462   6.221   1.077   6.918
 6855SOL     OW21463   3.027   6.849   1.848
 6855SOL    HW121464   3.037   6.772   1.911
 6855SOL    HW221465   2.980   6.924   1.895
 6856SOL     OW21466   0.362   5.957   5.720
 6856SOL    HW121467   0.263   5.946   5.731
 6856SOL    HW221468   0.403   5.869   5.697
 6857SOL     OW21469   4.980   0.488   6.764
 6857SOL    HW121470   5.006   0.582   6.743
 6857SOL    HW221471   5.040   0.425   6.714
 6858SOL     OW21472   3.546   2.761   6.723
 6858SOL    HW121473   3.535   2.757   6.623
 6858SOL    HW221474   3.509   2.847   6.757
 6859SOL     OW21475   4.459   0.750   0.176
 6859SOL    HW121476   4.525   0.810   0.132
 6859SOL    HW221477   4.443   0.780   0.270
 6860SOL     OW21478   4.794   3.518   6.586
 6860SOL    HW121479   4.893   3.516   6.599
 6860SOL    HW221480   4.774   3.525   6.488
 6861SOL     OW21481   5.792   3.365   0.575
 6861SOL    HW121482   5.771   3.462   0.565
 6861SOL    HW221483   5.742   3.328   0.653
 6862SOL     OW21484   2.523   4.662   4.687
 6862SOL    HW121485   2.604   4.695   4.736
 6862SOL    HW221486   2.479   4.739   4.639
 6863SOL     OW21487   1.362   3.329   3.930
 6863SOL    HW121488   1.326   3.322   3.837
 6863SOL    HW221489   1.454   3.369   3.928
 6864SOL     OW21490   3.730   5.381   6.154
 6864SOL    HW121491   3.821   5.341   6.139
 6864SOL    HW221492   3.674   5.367   6.072
 6865SOL     OW21493   0.689   2.846   4.421
 6865SOL    HW121494   0.782   2.875   4.397
 6865SOL    HW221495   0.694   2.771   4.488
 6866SOL     OW21496   0.702   3.911   2.660
 6866SOL    HW121497   0.740   4.002   2.642
 6866SOL    HW221498   0.723   3.884   2.754
 6867SOL     OW21499   2.163   5.648   3.481
 6867SOL    HW121500   2.158   5.747   3.491
 6867SOL    HW221501   2.203   5.608   3.564
 6868SOL     OW21502   1.940   5.527   4.796
 6868SOL    HW121503   2.033   5.560   4.811
 6868SOL    HW221504   1.890   5.529   4.883
 6869SOL     OW21505   0.241   3.445   5.064
 6869SOL    HW121506   0.252   3.371   4.998
 6869SOL    HW221507   0.292   3.525   5.032
 6870SOL     OW21508   5.441   3.540   3.031
 6870SOL    HW121509   5.521   3.571   2.980
 6870SOL    HW221510   5.416   3.448   3.002
 6871SOL     OW21511   4.920   5.684   1.391
 6871SOL    HW121512   4.955   5.757   1.448
 6871SOL    HW221513   4.820   5.685   1.394
 6872SOL     OW21514   3.466   4.390   0.970
 6872SOL    HW121515   3.418   4.424   0.889
 6872SOL    HW221516   3.548   4.340   0.942
 6873SOL     OW21517   5.717   4.688   4.610
 6873SOL    HW121518   5.650   4.709   4.539
 6873SOL    HW221519   5.761   4.772   4.640
 6874SOL     OW21520   0.932   1.848   6.254
 6874SOL    HW121521   0.840   1.883   6.273
 6874SOL    HW221522   0.925   1.759   6.209
 6875SOL     OW21523   3.966   0.437   4.621
 6875SOL    HW121524   3.904   0.405   4.693
 6875SOL    HW221525   3.927   0.418   4.532
 6876SOL     OW21526   3.243   6.034   4.562
 6876SOL    HW121527   3.312   6.105   4.579
 6876SOL    HW221528   3.279   5.969   4.495
 6877SOL     OW21529   1.536   3.598   6.149
 6877SOL    HW121530   1.536   3.500   6.126
 6877SOL    HW221531   1.487   3.649   6.079
 6878SOL     OW21532   1.271   1.207   4.672
 6878SOL    HW121533   1.303   1.301   4.676
 6878SOL    HW221534   1.318   1.159   4.597
 6879SOL     OW21535   6.709   0.683   5.148
 6879SOL    HW121536   6.730   0.692   5.051
 6879SOL    HW221537   6.698   0.774   5.189
 6880SOL     OW21538   1.102   4.204   5.028
 6880SOL    HW121539   1.025   4.181   5.087
 6880SOL    HW221540   1.093   4.156   4.941
 6881SOL     OW21541   5.233   5.669   1.613
 6881SOL    HW121542   5.302   5.702   1.676
 6881SOL    HW221543   5.175   5.744   1.583
 6882SOL     OW21544   2.404   6.019   5.794
 6882SOL    HW121545   2.432   5.973   5.878
 6882SOL    HW221546   2.485   6.036   5.737
 6883SOL     OW21547   3.061   6.082   2.292
 6883SOL    HW121548   3.114   6.017   2.346
 6883SOL    HW221549   3.060   6.053   2.196
 6884SOL     OW21550   1.834   4.932   2.016
 6884SOL    HW121551   1.878   5.013   1.978
 6884SOL    HW221552   1.737   4.931   1.990
 6885SOL     OW21553   4.208   4.821   5.060
 6885SOL    HW121554   4.142   4.801   5.133
 6885SOL    HW221555   4.250   4.736   5.029
 6886SOL     OW21556   5.220   1.183   1.587
 6886SOL    HW121557   5.226   1.094   1.541
 6886SOL    HW221558   5.296   1.191   1.652
 6887SOL     OW21559   6.202   0.880   4.984
 6887SOL    HW121560   6.241   0.826   4.909
 6887SOL    HW221561   6.248   0.855   5.070
 6888SOL     OW21562   5.720   0.250   3.980
 6888SOL    HW121563   5.696   0.330   4.035
 6888SOL    HW221564   5.637   0.212   3.938
 6889SOL     OW21565   1.932   4.173   6.350
 6889SOL    HW121566   2.011   4.120   6.320
 6889SOL    HW221567   1.872   4.192   6.273
 6890SOL     OW21568   2.116   0.441   1.208
 6890SOL    HW121569   2.088   0.346   1.222
 6890SOL    HW221570   2.117   0.461   1.110
 6891SOL     OW21571   4.517   5.473   5.873
 6891SOL    HW121572   4.478   5.565   5.880
 6891SOL    HW221573   4.553   5.445   5.963
 6892SOL     OW21574   3.288   1.583   4.778
 6892SOL    HW121575   3.307   1.531   4.694
 6892SOL    HW221576   3.371   1.586   4.834
 6893SOL     OW21577   4.959   0.240   1.181
 6893SOL    HW121578   5.016   0.198   1.111
 6893SOL    HW221579   4.863   0.233   1.154
 6894SOL     OW21580   5.780   4.533   6.444
 6894SOL    HW121581   5.776   4.492   6.535
 6894SOL    HW221582   5.819   4.625   6.450
 6895SOL     OW21583   4.158   5.201   5.583
 6895SOL    HW121584   4.195   5.234   5.670
 6895SOL    HW221585   4.104   5.273   5.540
 6896SOL     OW21586   4.542   1.432   2.600
 6896SOL    HW121587   4.568   1.443   2.696
 6896SOL    HW221588   4.566   1.514   2.550
 6897SOL     OW21589   3.736   0.513   1.330
 6897SOL    HW121590   3.790   0.585   1.372
 6897SOL    HW221591   3.698   0.545   1.243
 6898SOL     OW21592   4.272   1.510   2.718
 6898SOL    HW121593   4.345   1.496   2.651
 6898SOL    HW221594   4.187   1.532   2.670
 6899SOL     OW21595   5.578   6.029   6.085
 6899SOL    HW121596   5.595   5.935   6.115
 6899SOL    HW221597   5.525   6.028   6.000
 6900SOL     OW21598   4.210   0.356   6.482
 6900SOL    HW121599   4.297   0.307   6.477
 6900SOL    HW221600   4.216   0.426   6.553
 6901SOL     OW21601   2.081   0.861   0.253
 6901SOL    HW121602   2.028   0.778   0.264
 6901SOL    HW221603   2.044   0.933   0.313
 6902SOL     OW21604   6.728   5.688   2.765
 6902SOL    HW121605   6.699   5.604   2.719
 6902SOL    HW221606   6.723   5.764   2.700
 6903SOL     OW21607   4.851   4.155   0.304
 6903SOL    HW121608   4.789   4.187   0.232
 6903SOL    HW221609   4.833   4.059   0.324
 6904SOL     OW21610   0.672   0.743   2.616
 6904SOL    HW121611   0.715   0.674   2.557
 6904SOL    HW221612   0.629   0.697   2.694
 6905SOL     OW21613   3.562   5.477   1.027
 6905SOL    HW121614   3.646   5.468   1.080
 6905SOL    HW221615   3.574   5.547   0.957
 6906SOL     OW21616   5.997   6.121   3.374
 6906SOL    HW121617   6.081   6.068   3.384
 6906SOL    HW221618   5.922   6.075   3.423
 6907SOL     OW21619   3.458   0.473   1.496
 6907SOL    HW121620   3.536   0.449   1.439
 6907SOL    HW221621   3.380   0.496   1.439
 6908SOL     OW21622   5.553   6.867   6.783
 6908SOL    HW121623   5.640   6.870   6.734
 6908SOL    HW221624   5.489   6.932   6.741
 6909SOL     OW21625   2.180   2.441   0.161
 6909SOL    HW121626   2.234   2.461   0.079
 6909SOL    HW221627   2.197   2.347   0.189
 6910SOL     OW21628   5.315   1.669   1.022
 6910SOL    HW121629   5.235   1.670   0.962
 6910SOL    HW221630   5.292   1.623   1.107
 6911SOL     OW21631   4.253   0.303   4.978
 6911SOL    HW121632   4.296   0.343   5.059
 6911SOL    HW221633   4.297   0.339   4.896
 6912SOL     OW21634   4.235   4.732   1.735
 6912SOL    HW121635   4.289   4.746   1.819
 6912SOL    HW221636   4.245   4.637   1.705
 6913SOL     OW21637   4.560   5.784   5.306
 6913SOL    HW121638   4.598   5.707   5.254
 6913SOL    HW221639   4.567   5.765   5.404
 6914SOL     OW21640   6.448   4.875   0.296
 6914SOL    HW121641   6.473   4.791   0.246
 6914SOL    HW221642   6.416   4.851   0.387
 6915SOL     OW21643   0.198   6.640   0.785
 6915SOL    HW121644   0.108   6.684   0.788
 6915SOL    HW221645   0.268   6.709   0.763
 6916SOL     OW21646   6.216   0.428   5.522
 6916SOL    HW121647   6.259   0.362   5.583
 6916SOL    HW221648   6.188   0.383   5.438
 6917SOL     OW21649   4.271   6.841   5.810
 6917SOL    HW121650   4.340   6.809   5.876
 6917SOL    HW221651   4.220   6.763   5.775
 6918SOL     OW21652   2.372   2.768   3.515
 6918SOL    HW121653   2.292   2.735   3.565
 6918SOL    HW221654   2.454   2.722   3.551
 6919SOL     OW21655   1.038   5.956   3.524
 6919SOL    HW121656   1.126   5.910   3.530
 6919SOL    HW221657   1.026   6.017   3.603
 6920SOL     OW21658   5.487   5.868   4.474
 6920SOL    HW121659   5.394   5.834   4.484
 6920SOL    HW221660   5.544   5.796   4.434
 6921SOL     OW21661   1.295   5.543   3.481
 6921SOL    HW121662   1.317   5.507   3.571
 6921SOL    HW221663   1.196   5.536   3.466
 6922SOL     OW21664   1.999   6.708   0.757
 6922SOL    HW121665   1.941   6.756   0.691
 6922SOL    HW221666   1.949   6.694   0.842
 6923SOL     OW21667   4.899   5.533   3.381
 6923SOL    HW121668   4.800   5.532   3.364
 6923SOL    HW221669   4.917   5.512   3.477
 6924SOL     OW21670   6.156   5.670   2.255
 6924SOL    HW121671   6.190   5.650   2.164
 6924SOL    HW221672   6.101   5.593   2.288
 6925SOL     OW21673   5.142   5.400   2.459
 6925SOL    HW121674   5.056   5.450   2.468
 6925SOL    HW221675   5.132   5.329   2.390
 6926SOL     OW21676   2.783   4.056   5.451
 6926SOL    HW121677   2.738   4.125   5.394
 6926SOL    HW221678   2.789   4.090   5.545
 6927SOL     OW21679   4.107   3.788   0.770
 6927SOL    HW121680   4.117   3.884   0.798
 6927SOL    HW221681   4.096   3.731   0.851
 6928SOL     OW21682   7.011   0.734   6.615
 6928SOL    HW121683   0.026   0.805   6.673
 6928SOL    HW221684   6.991   0.772   6.525
 6929SOL     OW21685   3.170   5.387   1.938
 6929SOL    HW121686   3.172   5.452   2.014
 6929SOL    HW221687   3.155   5.294   1.974
 6930SOL     OW21688   0.144   0.295   3.161
 6930SOL    HW121689   0.181   0.383   3.130
 6930SOL    HW221690   0.061   0.275   3.109
 6931SOL     OW21691   2.449   0.100   0.117
 6931SOL    HW121692   2.489   0.062   0.033
 6931SOL    HW221693   2.399   0.028   0.165
 6932SOL     OW21694   2.488   2.492   0.512
 6932SOL    HW121695   2.480   2.404   0.465
 6932SOL    HW221696   2.396   2.527   0.531
 6933SOL     OW21697   2.008   6.106   5.005
 6933SOL    HW121698   1.952   6.085   4.925
 6933SOL    HW221699   2.104   6.089   4.985
 6934SOL     OW21700   5.707   4.892   6.568
 6934SOL    HW121701   5.741   4.985   6.575
 6934SOL    HW221702   5.780   4.828   6.589
 6935SOL     OW21703   4.637   5.779   3.089
 6935SOL    HW121704   4.562   5.762   3.153
 6935SOL    HW221705   4.707   5.835   3.134
 6936SOL     OW21706   0.663   4.587   0.190
 6936SOL    HW121707   0.690   4.507   0.137
 6936SOL    HW221708   0.736   4.655   0.189
 6937SOL     OW21709   4.598   6.128   5.823
 6937SOL    HW121710   4.637   6.215   5.795
 6937SOL    HW221711   4.503   6.122   5.794
 6938SOL     OW21712   5.717   2.830   5.247
 6938SOL    HW121713   5.682   2.755   5.303
 6938SOL    HW221714   5.706   2.916   5.297
 6939SOL     OW21715   6.570   4.658   1.771
 6939SOL    HW121716   6.495   4.591   1.764
 6939SOL    HW221717   6.656   4.609   1.783
 6940SOL     OW21718   4.189   0.593   4.622
 6940SOL    HW121719   4.187   0.657   4.699
 6940SOL    HW221720   4.099   0.551   4.611
 6941SOL     OW21721   4.000   3.154   4.979
 6941SOL    HW121722   3.982   3.092   5.055
 6941SOL    HW221723   4.042   3.103   4.903
 6942SOL     OW21724   6.121   1.727   0.013
 6942SOL    HW121725   6.057   1.736   6.963
 6942SOL    HW221726   6.072   1.691   0.094
 6943SOL     OW21727   6.053   5.766   6.469
 6943SOL    HW121728   6.039   5.675   6.429
 6943SOL    HW221729   5.968   5.818   6.463
 6944SOL     OW21730   1.436   6.560   0.501
 6944SOL    HW121731   1.447   6.632   0.433
 6944SOL    HW221732   1.462   6.595   0.591
 6945SOL     OW21733   4.656   1.968   6.210
 6945SOL    HW121734   4.624   2.033   6.278
 6945SOL    HW221735   4.624   1.876   6.233
 6946SOL     OW21736   6.473   3.787   3.536
 6946SOL    HW121737   6.466   3.848   3.615
 6946SOL    HW221738   6.537   3.825   3.470
 6947SOL     OW21739   3.737   6.946   1.195
 6947SOL    HW121740   3.638   6.958   1.202
 6947SOL    HW221741   3.771   6.898   1.276
 6948SOL     OW21742   3.667   2.593   5.555
 6948SOL    HW121743   3.687   2.605   5.458
 6948SOL    HW221744   3.719   2.661   5.608
 6949SOL     OW21745   5.020   0.959   2.433
 6949SOL    HW121746   5.058   0.966   2.341
 6949SOL    HW221747   4.978   1.047   2.458
 6950SOL     OW21748   3.431   1.448   3.224
 6950SOL    HW121749   3.420   1.492   3.135
 6950SOL    HW221750   3.384   1.502   3.294
 6951SOL     OW21751   5.065   4.915   5.588
 6951SOL    HW121752   5.143   4.955   5.635
 6951SOL    HW221753   5.050   4.822   5.622
 6952SOL     OW21754   7.005   4.113   5.755
 6952SOL    HW121755   7.019   4.132   5.658
 6952SOL    HW221756   6.948   4.032   5.766
 6953SOL     OW21757   4.991   2.260   4.864
 6953SOL    HW121758   4.926   2.246   4.789
 6953SOL    HW221759   5.078   2.292   4.826
 6954SOL     OW21760   0.143   4.273   1.941
 6954SOL    HW121761   0.196   4.289   1.858
 6954SOL    HW221762   0.045   4.277   1.919
 6955SOL     OW21763   6.582   0.515   3.251
 6955SOL    HW121764   6.503   0.489   3.307
 6955SOL    HW221765   6.611   0.438   3.196
 6956SOL     OW21766   2.416   4.114   0.861
 6956SOL    HW121767   2.337   4.106   0.801
 6956SOL    HW221768   2.411   4.045   0.932
 6957SOL     OW21769   1.011   4.265   0.086
 6957SOL    HW121770   1.044   4.186   0.137
 6957SOL    HW221771   0.967   4.235   0.001
 6958SOL     OW21772   2.546   3.984   5.981
 6958SOL    HW121773   2.626   3.965   6.037
 6958SOL    HW221774   2.566   3.963   5.886
 6959SOL     OW21775   3.905   1.229   4.550
 6959SOL    HW121776   3.854   1.206   4.633
 6959SOL    HW221777   3.990   1.275   4.576
 6960SOL     OW21778   0.410   5.507   0.011
 6960SOL    HW121779   0.423   5.550   0.101
 6960SOL    HW221780   0.412   5.408   0.022
 6961SOL     OW21781   6.393   1.601   3.258
 6961SOL    HW121782   6.450   1.683   3.256
 6961SOL    HW221783   6.360   1.586   3.351
 6962SOL     OW21784   3.829   4.025   1.033
 6962SOL    HW121785   3.745   4.032   0.978
 6962SOL    HW221786   3.820   3.949   1.098
 6963SOL     OW21787   6.330   5.893   2.246
 6963SOL    HW121788   6.321   5.950   2.328
 6963SOL    HW221789   6.268   5.815   2.254
 6964SOL     OW21790   3.012   6.030   5.673
 6964SOL    HW121791   3.087   6.002   5.733
 6964SOL    HW221792   3.048   6.062   5.586
 6965SOL     OW21793   6.159   1.757   5.322
 6965SOL    HW121794   6.089   1.686   5.311
 6965SOL    HW221795   6.118   1.846   5.302
 6966SOL     OW21796   5.327   2.350   3.827
 6966SOL    HW121797   5.377   2.280   3.877
 6966SOL    HW221798   5.371   2.439   3.841
 6967SOL     OW21799   2.580   2.498   6.007
 6967SOL    HW121800   2.494   2.481   5.959
 6967SOL    HW221801   2.603   2.595   6.000
 6968SOL     OW21802   4.350   6.970   4.191
 6968SOL    HW121803   4.436   6.919   4.189
 6968SOL    HW221804   4.273   6.905   4.187
 6969SOL     OW21805   3.072   3.613   0.803
 6969SOL    HW121806   3.025   3.572   0.881
 6969SOL    HW221807   3.140   3.679   0.836
 6970SOL     OW21808   4.636   4.140   0.734
 6970SOL    HW121809   4.566   4.133   0.663
 6970SOL    HW221810   4.725   4.156   0.691
 6971SOL     OW21811   6.286   1.293   2.449
 6971SOL    HW121812   6.383   1.286   2.425
 6971SOL    HW221813   6.267   1.236   2.529
 6972SOL     OW21814   5.690   4.963   4.454
 6972SOL    HW121815   5.603   4.973   4.503
 6972SOL    HW221816   5.755   5.031   4.488
 6973SOL     OW21817   1.357   4.423   3.967
 6973SOL    HW121818   1.303   4.480   3.905
 6973SOL    HW221819   1.345   4.327   3.942
 6974SOL     OW21820   3.726   4.176   5.166
 6974SOL    HW121821   3.653   4.215   5.223
 6974SOL    HW221822   3.731   4.077   5.182
 6975SOL     OW21823   3.317   6.827   6.138
 6975SOL    HW121824   3.239   6.769   6.161
 6975SOL    HW221825   3.352   6.871   6.220
 6976SOL     OW21826   1.267   6.320   0.468
 6976SOL    HW121827   1.322   6.404   0.465
 6976SOL    HW221828   1.232   6.301   0.377
 6977SOL     OW21829   4.882   2.877   2.114
 6977SOL    HW121830   4.833   2.958   2.080
 6977SOL    HW221831   4.961   2.907   2.168
 6978SOL     OW21832   4.658   2.293   3.815
 6978SOL    HW121833   4.584   2.259   3.756
 6978SOL    HW221834   4.635   2.384   3.849
 6979SOL     OW21835   0.612   3.981   3.797
 6979SOL    HW121836   0.581   3.890   3.825
 6979SOL    HW221837   0.625   4.038   3.878
 6980SOL     OW21838   4.748   1.279   4.772
 6980SOL    HW121839   4.729   1.183   4.748
 6980SOL    HW221840   4.772   1.285   4.869
 6981SOL     OW21841   3.011   3.669   6.743
 6981SOL    HW121842   3.058   3.648   6.829
 6981SOL    HW221843   2.974   3.585   6.704
 6982SOL     OW21844   0.510   0.079   5.224
 6982SOL    HW121845   0.512   0.169   5.181
 6982SOL    HW221846   0.487   0.088   5.321
 6983SOL     OW21847   6.206   1.166   2.721
 6983SOL    HW121848   6.223   1.227   2.798
 6983SOL    HW221849   6.115   1.126   2.728
 6984SOL     OW21850   1.710   1.178   6.086
 6984SOL    HW121851   1.750   1.185   6.177
 6984SOL    HW221852   1.736   1.259   6.032
 6985SOL     OW21853   4.928   0.148   4.055
 6985SOL    HW121854   4.846   0.202   4.034
 6985SOL    HW221855   4.909   0.051   4.039
 6986SOL     OW21856   1.444   6.847   5.230
 6986SOL    HW121857   1.537   6.841   5.193
 6986SOL    HW221858   1.432   6.936   5.274
 6987SOL     OW21859   6.854   3.233   6.640
 6987SOL    HW121860   6.857   3.174   6.559
 6987SOL    HW221861   6.894   3.322   6.618
 6988SOL     OW21862   5.822   1.756   5.950
 6988SOL    HW121863   5.765   1.722   5.876
 6988SOL    HW221864   5.895   1.690   5.970
 6989SOL     OW21865   2.135   3.041   3.736
 6989SOL    HW121866   2.185   3.113   3.785
 6989SOL    HW221867   2.169   3.036   3.642
 6990SOL     OW21868   3.617   3.462   1.035
 6990SOL    HW121869   3.629   3.388   1.102
 6990SOL    HW221870   3.618   3.550   1.083
 6991SOL     OW21871   4.028   4.724   5.242
 6991SOL    HW121872   3.985   4.813   5.244
 6991SOL    HW221873   3.977   4.660   5.300
 6992SOL     OW21874   6.366   6.841   4.362
 6992SOL    HW121875   6.284   6.818   4.309
 6992SOL    HW221876   6.435   6.881   4.301
 6993SOL     OW21877   0.347   0.093   3.200
 6993SOL    HW121878   0.298   0.007   3.189
 6993SOL    HW221879   0.283   0.170   3.197
 6994SOL     OW21880   1.334   2.578   0.279
 6994SOL    HW121881   1.357   2.662   0.229
 6994SOL    HW221882   1.240   2.551   0.258
 6995SOL     OW21883   0.702   5.357   4.211
 6995SOL    HW121884   0.750   5.344   4.125
 6995SOL    HW221885   0.657   5.446   4.211
 6996SOL     OW21886   1.981   0.035   6.149
 6996SOL    HW121887   1.918   0.110   6.170
 6996SOL    HW221888   1.930   6.981   6.116
 6997SOL     OW21889   4.562   5.217   4.424
 6997SOL    HW121890   4.557   5.298   4.367
 6997SOL    HW221891   4.475   5.167   4.419
 6998SOL     OW21892   3.024   1.937   2.903
 6998SOL    HW121893   2.976   2.015   2.861
 6998SOL    HW221894   3.068   1.882   2.833
 6999SOL     OW21895   5.637   2.143   0.142
 6999SOL    HW121896   5.543   2.143   0.176
 6999SOL    HW221897   5.683   2.227   0.170
 7000SOL     OW21898   6.656   0.112   1.728
 7000SOL    HW121899   6.574   0.159   1.696
 7000SOL    HW221900   6.682   0.041   1.663
 7001SOL     OW21901   3.221   1.472   6.248
 7001SOL    HW121902   3.316   1.504   6.250
 7001SOL    HW221903   3.159   1.550   6.257
 7002SOL     OW21904   2.262   4.767   2.164
 7002SOL    HW121905   2.239   4.844   2.104
 7002SOL    HW221906   2.240   4.681   2.117
 7003SOL     OW21907   1.825   6.380   5.866
 7003SOL    HW121908   1.809   6.478   5.851
 7003SOL    HW221909   1.764   6.327   5.808
 7004SOL     OW21910   1.625   4.100   6.860
 7004SOL    HW121911   1.551   4.082   6.795
 7004SOL    HW221912   1.713   4.099   6.813
 7005SOL     OW21913   6.912   0.007   6.009
 7005SOL    HW121914   6.915   0.107   6.015
 7005SOL    HW221915   6.878   6.994   6.094
 7006SOL     OW21916   4.539   4.643   4.018
 7006SOL    HW121917   4.496   4.621   4.105
 7006SOL    HW221918   4.615   4.580   4.002
 7007SOL     OW21919   4.647   5.046   2.703
 7007SOL    HW121920   4.741   5.073   2.685
 7007SOL    HW221921   4.647   4.962   2.757
 7008SOL     OW21922   1.110   5.126   4.076
 7008SOL    HW121923   1.033   5.075   4.115
 7008SOL    HW221924   1.153   5.181   4.147
 7009SOL     OW21925   6.762   3.825   2.080
 7009SOL    HW121926   6.777   3.829   1.981
 7009SOL    HW221927   6.848   3.804   2.126
 7010SOL     OW21928   5.469   4.619   6.477
 7010SOL    HW121929   5.532   4.541   6.484
 7010SOL    HW221930   5.420   4.614   6.390
 7011SOL     OW21931   0.877   0.905   5.276
 7011SOL    HW121932   0.868   0.961   5.358
 7011SOL    HW221933   0.813   0.938   5.206
 7012SOL     OW21934   1.330   1.309   1.499
 7012SOL    HW121935   1.291   1.232   1.550
 7012SOL    HW221936   1.396   1.358   1.557
 7013SOL     OW21937   6.979   1.927   2.083
 7013SOL    HW121938   0.037   1.954   2.034
 7013SOL    HW221939   7.003   1.896   2.175
 7014SOL     OW21940   2.408   5.310   0.567
 7014SOL    HW121941   2.506   5.292   0.577
 7014SOL    HW221942   2.386   5.398   0.609
 7015SOL     OW21943   4.820   2.083   2.885
 7015SOL    HW121944   4.814   2.136   2.800
 7015SOL    HW221945   4.787   1.990   2.868
 7016SOL     OW21946   4.411   4.294   1.591
 7016SOL    HW121947   4.432   4.243   1.675
 7016SOL    HW221948   4.387   4.229   1.519
 7017SOL     OW21949   5.186   1.656   5.497
 7017SOL    HW121950   5.089   1.649   5.522
 7017SOL    HW221951   5.194   1.712   5.414
 7018SOL     OW21952   0.589   3.256   2.961
 7018SOL    HW121953   0.653   3.276   2.887
 7018SOL    HW221954   0.545   3.341   2.990
 7019SOL     OW21955   1.260   6.094   1.252
 7019SOL    HW121956   1.219   6.086   1.343
 7019SOL    HW221957   1.193   6.067   1.182
 7020SOL     OW21958   0.308   5.923   6.888
 7020SOL    HW121959   0.246   5.990   6.846
 7020SOL    HW221960   0.255   5.844   6.919
 7021SOL     OW21961   3.660   6.870   6.022
 7021SOL    HW121962   3.725   6.943   6.007
 7021SOL    HW221963   3.648   6.855   6.120
 7022SOL     OW21964   4.649   5.329   5.661
 7022SOL    HW121965   4.595   5.378   5.729
 7022SOL    HW221966   4.704   5.258   5.706
 7023SOL     OW21967   4.674   4.306   2.605
 7023SOL    HW121968   4.721   4.258   2.531
 7023SOL    HW221969   4.590   4.348   2.569
 7024SOL     OW21970   6.186   6.721   1.043
 7024SOL    HW121971   6.276   6.690   1.073
 7024SOL    HW221972   6.124   6.726   1.122
 7025SOL     OW21973   2.570   0.350   0.198
 7025SOL    HW121974   2.514   0.426   0.228
 7025SOL    HW221975   2.511   0.270   0.182
 7026SOL     OW21976   3.919   1.949   1.371
 7026SOL    HW121977   4.000   2.004   1.389
 7026SOL    HW221978   3.935   1.854   1.400
 7027SOL     OW21979   5.848   5.838   3.915
 7027SOL    HW121980   5.883   5.826   4.008
 7027SOL    HW221981   5.898   5.912   3.869
 7028SOL     OW21982   2.758   0.393   4.555
 7028SOL    HW121983   2.680   0.343   4.516
 7028SOL    HW221984   2.831   0.398   4.487
 7029SOL     OW21985   4.334   1.441   4.338
 7029SOL    HW121986   4.433   1.455   4.345
 7029SOL    HW221987   4.315   1.372   4.267
 7030SOL     OW21988   1.835   3.201   4.042
 7030SOL    HW121989   1.932   3.185   4.056
 7030SOL    HW221990   1.793   3.122   3.998
 7031SOL     OW21991   1.374   0.998   4.534
 7031SOL    HW121992   1.362   0.901   4.556
 7031SOL    HW221993   1.352   1.013   4.438
 7032SOL     OW21994   6.219   2.381   3.923
 7032SOL    HW121995   6.142   2.437   3.894
 7032SOL    HW221996   6.224   2.299   3.867
 7033SOL     OW21997   0.856   0.150   5.481
 7033SOL    HW121998   0.883   0.090   5.406
 7033SOL    HW221999   0.831   0.240   5.445
 7034SOL     OW22000   0.289   5.156   3.306
 7034SOL    HW122001   0.244   5.244   3.319
 7034SOL    HW222002   0.237   5.101   3.240
 7035SOL     OW22003   6.676   4.870   1.919
 7035SOL    HW122004   6.665   4.777   1.884
 7035SOL    HW222005   6.631   4.934   1.858
 7036SOL     OW22006   5.883   4.826   0.894
 7036SOL    HW122007   5.843   4.916   0.879
 7036SOL    HW222008   5.848   4.761   0.827
 7037SOL     OW22009   1.579   0.349   6.387
 7037SOL    HW122010   1.628   0.417   6.442
 7037SOL    HW222011   1.508   0.306   6.443
 7038SOL     OW22012   2.154   3.036   4.358
 7038SOL    HW122013   2.241   3.010   4.401
 7038SOL    HW222014   2.135   3.133   4.377
 7039SOL     OW22015   3.263   2.286   6.718
 7039SOL    HW122016   3.192   2.216   6.707
 7039SOL    HW222017   3.277   2.304   6.816
 7040SOL     OW22018   5.287   2.782   6.709
 7040SOL    HW122019   5.216   2.844   6.742
 7040SOL    HW222020   5.306   2.802   6.613
 7041SOL     OW22021   1.971   1.748   3.573
 7041SOL    HW122022   1.975   1.718   3.669
 7041SOL    HW222023   2.059   1.785   3.546
 7042SOL     OW22024   1.378   0.716   6.492
 7042SOL    HW122025   1.447   0.763   6.437
 7042SOL    HW222026   1.389   0.740   6.588
 7043SOL     OW22027   1.891   2.236   2.097
 7043SOL    HW122028   1.828   2.248   2.021
 7043SOL    HW222029   1.907   2.139   2.112
 7044SOL     OW22030   6.738   6.511   1.839
 7044SOL    HW122031   6.750   6.520   1.938
 7044SOL    HW222032   6.819   6.468   1.799
 7045SOL     OW22033   6.673   5.007   0.157
 7045SOL    HW122034   6.597   4.982   0.218
 7045SOL    HW222035   6.718   5.089   0.193
 7046SOL     OW22036   3.422   1.260   4.025
 7046SOL    HW122037   3.406   1.260   4.124
 7046SOL    HW222038   3.509   1.217   4.005
 7047SOL     OW22039   1.616   0.331   2.989
 7047SOL    HW122040   1.572   0.248   2.955
 7047SOL    HW222041   1.669   0.309   3.071
 7048SOL     OW22042   6.631   5.660   0.038
 7048SOL    HW122043   6.563   5.655   0.111
 7048SOL    HW222044   6.723   5.649   0.076
 7049SOL     OW22045   2.135   1.065   6.712
 7049SOL    HW122046   2.145   1.029   6.805
 7049SOL    HW222047   2.114   1.162   6.716
 7050SOL     OW22048   3.895   3.922   5.044
 7050SOL    HW122049   3.804   3.909   5.083
 7050SOL    HW222050   3.918   4.019   5.042
 7051SOL     OW22051   6.646   6.779   3.035
 7051SOL    HW122052   6.648   6.874   3.003
 7051SOL    HW222053   6.716   6.727   2.986
 7052SOL     OW22054   6.689   0.434   5.273
 7052SOL    HW122055   6.688   0.519   5.221
 7052SOL    HW222056   6.690   0.356   5.210
 7053SOL     OW22057   6.431   4.508   5.808
 7053SOL    HW122058   6.496   4.532   5.881
 7053SOL    HW222059   6.382   4.590   5.779
 7054SOL     OW22060   6.277   1.717   1.459
 7054SOL    HW122061   6.362   1.748   1.501
 7054SOL    HW222062   6.229   1.795   1.419
 7055SOL     OW22063   4.594   1.384   4.355
 7055SOL    HW122064   4.671   1.447   4.364
 7055SOL    HW222065   4.624   1.302   4.307
 7056SOL     OW22066   4.250   5.296   3.957
 7056SOL    HW122067   4.170   5.262   4.005
 7056SOL    HW222068   4.228   5.384   3.914
 7057SOL     OW22069   5.913   5.760   3.005
 7057SOL    HW122070   5.940   5.665   2.990
 7057SOL    HW222071   5.968   5.819   2.946
 7058SOL     OW22072   6.874   4.364   4.538
 7058SOL    HW122073   6.858   4.342   4.442
 7058SOL    HW222074   6.946   4.305   4.574
 7059SOL     OW22075   1.929   1.701   2.662
 7059SOL    HW122076   1.970   1.618   2.700
 7059SOL    HW222077   1.864   1.739   2.728
 7060SOL     OW22078   3.124   6.362   0.930
 7060SOL    HW122079   3.109   6.341   1.027
 7060SOL    HW222080   3.152   6.279   0.882
 7061SOL     OW22081   0.019   0.660   2.902
 7061SOL    HW122082   6.970   0.640   2.838
 7061SOL    HW222083   0.036   0.758   2.904
 7062SOL     OW22084   6.231   1.143   5.420
 7062SOL    HW122085   6.304   1.101   5.474
 7062SOL    HW222086   6.263   1.232   5.386
 7063SOL     OW22087   2.040   6.888   2.291
 7063SOL    HW122088   1.960   6.937   2.258
 7063SOL    HW222089   2.041   6.796   2.251
 7064SOL     OW22090   4.191   2.667   0.333
 7064SOL    HW122091   4.187   2.588   0.393
 7064SOL    HW222092   4.112   2.726   0.351
 7065SOL     OW22093   3.481   3.352   2.093
 7065SOL    HW122094   3.581   3.347   2.095
 7065SOL    HW222095   3.444   3.317   2.180
 7066SOL     OW22096   2.649   5.480   1.309
 7066SOL    HW122097   2.640   5.574   1.343
 7066SOL    HW222098   2.643   5.417   1.386
 7067SOL     OW22099   0.352   4.105   4.174
 7067SOL    HW122100   0.287   4.081   4.102
 7067SOL    HW222101   0.308   4.165   4.241
 7068SOL     OW22102   0.355   0.389   2.741
 7068SOL    HW122103   0.381   0.424   2.650
 7068SOL    HW222104   0.415   0.429   2.810
 7069SOL     OW22105   1.546   5.015   5.037
 7069SOL    HW122106   1.574   4.961   5.116
 7069SOL    HW222107   1.483   5.087   5.066
 7070SOL     OW22108   5.824   5.378   3.647
 7070SOL    HW122109   5.878   5.453   3.608
 7070SOL    HW222110   5.727   5.400   3.640
 7071SOL     OW22111   1.800   6.938   5.274
 7071SOL    HW122112   1.765   6.895   5.358
 7071SOL    HW222113   1.754   6.898   5.195
 7072SOL     OW22114   0.499   0.037   0.051
 7072SOL    HW122115   0.591   0.039   0.012
 7072SOL    HW222116   0.491   6.984   0.113
 7073SOL     OW22117   1.874   2.038   6.150
 7073SOL    HW122118   1.798   2.016   6.090
 7073SOL    HW222119   1.955   2.059   6.096
 7074SOL     OW22120   3.514   1.186   0.311
 7074SOL    HW122121   3.473   1.115   0.253
 7074SOL    HW222122   3.595   1.223   0.267
 7075SOL     OW22123   0.637   5.888   2.535
 7075SOL    HW122124   0.692   5.882   2.619
 7075SOL    HW222125   0.594   5.977   2.530
 7076SOL     OW22126   3.750   1.769   5.990
 7076SOL    HW122127   3.833   1.726   5.954
 7076SOL    HW222128   3.766   1.798   6.084
 7077SOL     OW22129   1.665   5.263   6.532
 7077SOL    HW122130   1.743   5.246   6.472
 7077SOL    HW222131   1.695   5.314   6.613
 7078SOL     OW22132   6.656   0.753   2.050
 7078SOL    HW122133   6.592   0.829   2.060
 7078SOL    HW222134   6.648   0.714   1.958
 7079SOL     OW22135   5.532   5.787   5.324
 7079SOL    HW122136   5.542   5.758   5.420
 7079SOL    HW222137   5.609   5.847   5.300
 7080SOL     OW22138   5.906   0.643   3.987
 7080SOL    HW122139   5.825   0.612   4.036
 7080SOL    HW222140   5.958   0.705   4.045
 7081SOL     OW22141   4.698   0.554   5.239
 7081SOL    HW122142   4.609   0.543   5.283
 7081SOL    HW222143   4.768   0.509   5.294
 7082SOL     OW22144   6.016   1.219   0.107
 7082SOL    HW122145   6.017   1.307   0.155
 7082SOL    HW222146   5.929   1.173   0.123
 7083SOL     OW22147   3.262   0.421   5.703
 7083SOL    HW122148   3.291   0.499   5.647
 7083SOL    HW222149   3.325   0.410   5.779
 7084SOL     OW22150   5.939   5.810   0.255
 7084SOL    HW122151   5.907   5.842   0.165
 7084SOL    HW222152   6.030   5.847   0.272
 7085SOL     OW22153   3.917   1.515   1.269
 7085SOL    HW122154   3.852   1.440   1.276
 7085SOL    HW222155   3.908   1.559   1.180
 7086SOL     OW22156   1.212   1.243   5.962
 7086SOL    HW122157   1.302   1.239   5.918
 7086SOL    HW222158   1.142   1.213   5.898
 7087SOL     OW22159   2.275   2.760   5.022
 7087SOL    HW122160   2.306   2.845   5.063
 7087SOL    HW222161   2.274   2.768   4.923
 7088SOL     OW22162   0.568   2.126   5.378
 7088SOL    HW122163   0.557   2.181   5.295
 7088SOL    HW222164   0.664   2.125   5.404
 7089SOL     OW22165   3.117   1.851   1.389
 7089SOL    HW122166   3.192   1.917   1.391
 7089SOL    HW222167   3.112   1.803   1.477
 7090SOL     OW22168   2.327   2.393   5.620
 7090SOL    HW122169   2.425   2.383   5.605
 7090SOL    HW222170   2.297   2.483   5.588
 7091SOL     OW22171   6.754   6.515   0.718
 7091SOL    HW122172   6.727   6.506   0.814
 7091SOL    HW222173   6.697   6.456   0.661
 7092SOL     OW22174   2.697   2.324   0.609
 7092SOL    HW122175   2.617   2.365   0.564
 7092SOL    HW222176   2.691   2.225   0.603
 7093SOL     OW22177   4.372   3.258   5.948
 7093SOL    HW122178   4.290   3.307   5.977
 7093SOL    HW222179   4.359   3.160   5.963
 7094SOL     OW22180   6.664   0.842   5.702
 7094SOL    HW122181   6.606   0.795   5.635
 7094SOL    HW222182   6.663   0.940   5.684
 7095SOL     OW22183   0.197   4.125   0.501
 7095SOL    HW122184   0.133   4.192   0.537
 7095SOL    HW222185   0.149   4.041   0.479
 7096SOL     OW22186   4.804   0.143   2.752
 7096SOL    HW122187   4.830   0.189   2.837
 7096SOL    HW222188   4.880   0.147   2.687
 7097SOL     OW22189   1.906   1.012   1.757
 7097SOL    HW122190   1.982   1.052   1.808
 7097SOL    HW222191   1.921   0.913   1.747
 7098SOL     OW22192   1.062   0.765   6.074
 7098SOL    HW122193   1.159   0.743   6.088
 7098SOL    HW222194   1.030   0.721   5.991
 7099SOL     OW22195   7.011   1.079   5.592
 7099SOL    HW122196   0.010   1.138   5.669
 7099SOL    HW222197   6.977   0.991   5.628
 7100SOL     OW22198   5.576   1.939   1.404
 7100SOL    HW122199   5.493   1.964   1.454
 7100SOL    HW222200   5.654   1.936   1.467
 7101SOL     OW22201   1.345   0.628   3.788
 7101SOL    HW122202   1.356   0.587   3.698
 7101SOL    HW222203   1.319   0.557   3.854
 7102SOL     OW22204   5.063   2.888   0.384
 7102SOL    HW122205   4.973   2.847   0.372
 7102SOL    HW222206   5.098   2.918   0.295
 7103SOL     OW22207   2.966   0.151   6.047
 7103SOL    HW122208   3.060   0.139   6.015
 7103SOL    HW222209   2.907   0.085   6.001
 7104SOL     OW22210   0.565   2.577   1.940
 7104SOL    HW122211   0.545   2.492   1.891
 7104SOL    HW222212   0.664   2.582   1.958
 7105SOL     OW22213   2.080   3.831   5.475
 7105SOL    HW122214   2.165   3.813   5.425
 7105SOL    HW222215   2.066   3.758   5.542
 7106SOL     OW22216   3.138   2.728   5.331
 7106SOL    HW122217   3.042   2.740   5.356
 7106SOL    HW222218   3.150   2.639   5.287
 7107SOL     OW22219   1.830   1.252   0.570
 7107SOL    HW122220   1.798   1.313   0.498
 7107SOL    HW222221   1.870   1.305   0.644
 7108SOL     OW22222   4.496   6.439   1.721
 7108SOL    HW122223   4.505   6.511   1.790
 7108SOL    HW222224   4.405   6.442   1.681
 7109SOL     OW22225   4.039   5.850   6.499
 7109SOL    HW122226   4.055   5.758   6.536
 7109SOL    HW222227   3.980   5.901   6.561
 7110SOL     OW22228   3.062   5.077   4.247
 7110SOL    HW122229   3.123   5.109   4.175
 7110SOL    HW222230   3.017   5.156   4.290
 7111SOL     OW22231   1.485   2.517   3.464
 7111SOL    HW122232   1.474   2.497   3.561
 7111SOL    HW222233   1.414   2.470   3.412
 7112SOL     OW22234   1.500   6.457   2.713
 7112SOL    HW122235   1.558   6.535   2.737
 7112SOL    HW222236   1.407   6.489   2.694
 7113SOL     OW22237   3.598   3.525   5.193
 7113SOL    HW122238   3.561   3.518   5.285
 7113SOL    HW222239   3.678   3.585   5.193
 7114SOL     OW22240   3.762   6.646   0.659
 7114SOL    HW122241   3.718   6.733   0.637
 7114SOL    HW222242   3.691   6.577   0.676
 7115SOL     OW22243   3.946   1.729   1.517
 7115SOL    HW122244   4.040   1.700   1.498
 7115SOL    HW222245   3.926   1.714   1.614
 7116SOL     OW22246   5.844   4.013   3.048
 7116SOL    HW122247   5.900   4.018   2.965
 7116SOL    HW222248   5.899   3.977   3.123
 7117SOL     OW22249   6.103   6.824   2.368
 7117SOL    HW122250   6.174   6.871   2.420
 7117SOL    HW222251   6.140   6.795   2.280
 7118SOL     OW22252   0.087   3.279   2.645
 7118SOL    HW122253   0.043   3.190   2.633
 7118SOL    HW222254   0.181   3.265   2.676
 7119SOL     OW22255   1.038   2.284   2.716
 7119SOL    HW122256   0.952   2.324   2.684
 7119SOL    HW222257   1.114   2.344   2.688
 7120SOL     OW22258   4.854   6.349   2.868
 7120SOL    HW122259   4.926   6.378   2.930
 7120SOL    HW222260   4.887   6.353   2.774
 7121SOL     OW22261   2.602   6.529   1.218
 7121SOL    HW122262   2.502   6.520   1.219
 7121SOL    HW222263   2.643   6.439   1.205
 7122SOL     OW22264   6.749   6.400   0.359
 7122SOL    HW122265   6.835   6.401   0.307
 7122SOL    HW222266   6.672   6.404   0.296
 7123SOL     OW22267   2.631   5.570   0.551
 7123SOL    HW122268   2.630   5.606   0.458
 7123SOL    HW222269   2.666   5.477   0.550
 7124SOL     OW22270   0.010   6.114   0.046
 7124SOL    HW122271   0.089   6.175   0.041
 7124SOL    HW222272   0.037   6.027   0.087
 7125SOL     OW22273   0.292   6.683   3.356
 7125SOL    HW122274   0.242   6.604   3.392
 7125SOL    HW222275   0.369   6.650   3.301
 7126SOL     OW22276   1.748   4.306   1.204
 7126SOL    HW122277   1.795   4.295   1.291
 7126SOL    HW222278   1.813   4.334   1.134
 7127SOL     OW22279   2.503   0.283   4.431
 7127SOL    HW122280   2.449   0.201   4.453
 7127SOL    HW222281   2.450   0.365   4.452
 7128SOL     OW22282   2.981   3.834   1.695
 7128SOL    HW122283   2.947   3.925   1.720
 7128SOL    HW222284   3.052   3.806   1.760
 7129SOL     OW22285   2.482   1.875   1.330
 7129SOL    HW122286   2.417   1.925   1.387
 7129SOL    HW222287   2.461   1.892   1.233
 7130SOL     OW22288   2.641   0.331   2.923
 7130SOL    HW122289   2.550   0.334   2.880
 7130SOL    HW222290   2.696   0.261   2.879
 7131SOL     OW22291   3.104   1.441   3.706
 7131SOL    HW122292   3.021   1.433   3.761
 7131SOL    HW222293   3.171   1.374   3.739
 7132SOL     OW22294   3.152   4.104   1.937
 7132SOL    HW122295   3.084   4.113   1.863
 7132SOL    HW222296   3.105   4.088   2.023
 7133SOL     OW22297   5.756   4.070   2.320
 7133SOL    HW122298   5.835   4.126   2.296
 7133SOL    HW222299   5.777   4.015   2.400
 7134SOL     OW22300   5.488   4.631   2.552
 7134SOL    HW122301   5.446   4.554   2.600
 7134SOL    HW222302   5.452   4.717   2.587
 7135SOL     OW22303   0.433   2.234   5.586
 7135SOL    HW122304   0.447   2.333   5.588
 7135SOL    HW222305   0.485   2.195   5.510
 7136SOL     OW22306   2.229   2.094   6.490
 7136SOL    HW122307   2.140   2.110   6.534
 7136SOL    HW222308   2.253   1.997   6.498
 7137SOL     OW22309   4.727   1.922   5.171
 7137SOL    HW122310   4.737   1.992   5.101
 7137SOL    HW222311   4.800   1.854   5.162
 7138SOL     OW22312   2.164   2.761   6.808
 7138SOL    HW122313   2.176   2.857   6.833
 7138SOL    HW222314   2.216   2.703   6.871
 7139SOL     OW22315   2.768   1.461   0.779
 7139SOL    HW122316   2.768   1.555   0.814
 7139SOL    HW222317   2.840   1.452   0.709
 7140SOL     OW22318   6.885   3.979   5.001
 7140SOL    HW122319   6.794   3.941   5.018
 7140SOL    HW222320   6.879   4.078   4.989
 7141SOL     OW22321   1.234   6.578   1.821
 7141SOL    HW122322   1.311   6.525   1.785
 7141SOL    HW222323   1.210   6.649   1.756
 7142SOL     OW22324   3.467   6.432   3.312
 7142SOL    HW122325   3.488   6.461   3.405
 7142SOL    HW222326   3.523   6.353   3.288
 7143SOL     OW22327   2.532   2.197   4.120
 7143SOL    HW122328   2.459   2.255   4.158
 7143SOL    HW222329   2.600   2.254   4.074
 7144SOL     OW22330   1.608   3.243   3.621
 7144SOL    HW122331   1.609   3.154   3.574
 7144SOL    HW222332   1.517   3.284   3.611
 7145SOL     OW22333   4.346   6.132   5.729
 7145SOL    HW122334   4.332   6.035   5.707
 7145SOL    HW222335   4.325   6.188   5.648
 7146SOL     OW22336   3.163   5.137   2.035
 7146SOL    HW122337   3.248   5.091   2.059
 7146SOL    HW222338   3.094   5.119   2.106
 7147SOL     OW22339   0.047   0.954   3.273
 7147SOL    HW122340   0.043   1.044   3.230
 7147SOL    HW222341   6.980   0.919   3.286
 7148SOL     OW22342   0.109   1.520   0.998
 7148SOL    HW122343   0.200   1.560   0.993
 7148SOL    HW222344   0.095   1.481   1.089
 7149SOL     OW22345   0.414   0.570   4.795
 7149SOL    HW122346   0.402   0.664   4.763
 7149SOL    HW222347   0.510   0.544   4.789
 7150SOL     OW22348   6.287   3.600   6.498
 7150SOL    HW122349   6.269   3.540   6.576
 7150SOL    HW222350   6.207   3.603   6.438
 7151SOL     OW22351   2.496   6.707   0.861
 7151SOL    HW122352   2.588   6.730   0.890
 7151SOL    HW222353   2.463   6.627   0.912
 7152SOL     OW22354   1.126   2.562   4.059
 7152SOL    HW122355   1.220   2.528   4.073
 7152SOL    HW222356   1.062   2.485   4.062
 7153SOL     OW22357   3.802   1.878   3.061
 7153SOL    HW122358   3.812   1.825   3.145
 7153SOL    HW222359   3.787   1.817   2.983
 7154SOL     OW22360   3.818   6.231   5.062
 7154SOL    HW122361   3.885   6.304   5.046
 7154SOL    HW222362   3.726   6.269   5.065
 7155SOL     OW22363   2.646   1.691   3.040
 7155SOL    HW122364   2.649   1.593   3.061
 7155SOL    HW222365   2.597   1.739   3.112
 7156SOL     OW22366   1.673   5.797   5.496
 7156SOL    HW122367   1.772   5.788   5.484
 7156SOL    HW222368   1.654   5.844   5.583
 7157SOL     OW22369   5.046   3.867   0.767
 7157SOL    HW122370   5.093   3.791   0.812
 7157SOL    HW222371   5.110   3.943   0.756
 7158SOL     OW22372   4.700   6.735   3.985
 7158SOL    HW122373   4.770   6.806   3.988
 7158SOL    HW222374   4.706   6.685   3.898
 7159SOL     OW22375   0.747   5.278   0.277
 7159SOL    HW122376   0.654   5.315   0.269
 7159SOL    HW222377   0.798   5.300   0.193
 7160SOL     OW22378   6.390   0.862   1.426
 7160SOL    HW122379   6.325   0.822   1.492
 7160SOL    HW222380   6.435   0.788   1.376
 7161SOL     OW22381   3.765   4.101   4.473
 7161SOL    HW122382   3.801   4.187   4.509
 7161SOL    HW222383   3.689   4.070   4.529
 7162SOL     OW22384   3.413   4.973   4.277
 7162SOL    HW122385   3.410   4.912   4.356
 7162SOL    HW222386   3.425   5.067   4.308
 7163SOL     OW22387   1.629   6.371   3.292
 7163SOL    HW122388   1.533   6.391   3.309
 7163SOL    HW222389   1.647   6.274   3.306
 7164SOL     OW22390   2.291   2.231   4.646
 7164SOL    HW122391   2.289   2.316   4.698
 7164SOL    HW222392   2.383   2.220   4.606
 7165SOL     OW22393   5.116   5.968   2.247
 7165SOL    HW122394   5.020   5.991   2.230
 7165SOL    HW222395   5.169   6.051   2.263
 7166SOL     OW22396   3.946   5.906   2.379
 7166SOL    HW122397   4.013   5.861   2.438
 7166SOL    HW222398   3.873   5.841   2.356
 7167SOL     OW22399   5.142   3.355   6.380
 7167SOL    HW122400   5.109   3.448   6.364
 7167SOL    HW222401   5.241   3.357   6.393
 7168SOL     OW22402   0.761   1.767   3.821
 7168SOL    HW122403   0.740   1.693   3.885
 7168SOL    HW222404   0.823   1.832   3.866
 7169SOL     OW22405   2.047   3.137   6.569
 7169SOL    HW122406   2.111   3.129   6.494
 7169SOL    HW222407   1.954   3.126   6.535
 7170SOL     OW22408   5.638   4.682   3.549
 7170SOL    HW122409   5.602   4.623   3.621
 7170SOL    HW222410   5.591   4.770   3.551
 7171SOL     OW22411   4.235   3.388   5.365
 7171SOL    HW122412   4.250   3.344   5.454
 7171SOL    HW222413   4.322   3.426   5.332
 7172SOL     OW22414   0.415   6.945   1.958
 7172SOL    HW122415   0.421   6.918   2.054
 7172SOL    HW222416   0.340   7.010   1.947
 7173SOL     OW22417   6.549   6.433   4.208
 7173SOL    HW122418   6.526   6.486   4.289
 7173SOL    HW222419   6.559   6.494   4.129
 7174SOL     OW22420   0.745   5.994   6.206
 7174SOL    HW122421   0.789   5.909   6.234
 7174SOL    HW222422   0.777   6.020   6.115
 7175SOL     OW22423   5.979   3.574   5.651
 7175SOL    HW122424   6.035   3.500   5.687
 7175SOL    HW222425   5.967   3.644   5.722
 7176SOL     OW22426   0.210   3.499   1.659
 7176SOL    HW122427   0.265   3.569   1.705
 7176SOL    HW222428   0.236   3.409   1.694
 7177SOL     OW22429   1.065   5.260   2.194
 7177SOL    HW122430   1.067   5.179   2.253
 7177SOL    HW222431   1.135   5.251   2.123
 7178SOL     OW22432   6.523   1.200   6.814
 7178SOL    HW122433   6.426   1.190   6.833
 7178SOL    HW222434   6.537   1.220   6.717
 7179SOL     OW22435   1.689   4.664   6.360
 7179SOL    HW122436   1.709   4.760   6.340
 7179SOL    HW222437   1.616   4.659   6.428
 7180SOL     OW22438   0.194   0.012   2.964
 7180SOL    HW122439   0.139   0.095   2.980
 7180SOL    HW222440   0.182   6.975   3.041
 7181SOL     OW22441   5.837   6.383   2.362
 7181SOL    HW122442   5.937   6.386   2.367
 7181SOL    HW222443   5.800   6.459   2.416
 7182SOL     OW22444   4.270   3.532   5.728
 7182SOL    HW122445   4.283   3.435   5.707
 7182SOL    HW222446   4.316   3.587   5.658
 7183SOL     OW22447   1.888   3.616   3.740
 7183SOL    HW122448   1.984   3.612   3.769
 7183SOL    HW222449   1.831   3.647   3.816
 7184SOL     OW22450   2.620   5.669   3.618
 7184SOL    HW122451   2.624   5.610   3.538
 7184SOL    HW222452   2.559   5.628   3.686
 7185SOL     OW22453   4.436   2.835   6.998
 7185SOL    HW122454   4.522   2.795   0.006
 7185SOL    HW222455   4.441   2.845   6.899
 7186SOL     OW22456   0.601   6.678   4.843
 7186SOL    HW122457   0.502   6.671   4.860
 7186SOL    HW222458   0.641   6.586   4.846
 7187SOL     OW22459   1.585   5.457   0.891
 7187SOL    HW122460   1.585   5.361   0.917
 7187SOL    HW222461   1.600   5.464   0.792
 7188SOL     OW22462   4.963   6.812   2.078
 7188SOL    HW122463   4.921   6.762   2.154
 7188SOL    HW222464   4.923   6.903   2.071
 7189SOL     OW22465   6.396   0.688   5.218
 7189SOL    HW122466   6.415   0.596   5.183
 7189SOL    HW222467   6.476   0.746   5.204
 7190SOL     OW22468   4.379   5.109   2.846
 7190SOL    HW122469   4.305   5.047   2.818
 7190SOL    HW222470   4.467   5.069   2.820
 7191SOL     OW22471   0.871   3.155   1.662
 7191SOL    HW122472   0.928   3.235   1.648
 7191SOL    HW222473   0.928   3.073   1.666
 7192SOL     OW22474   3.633   4.693   6.787
 7192SOL    HW122475   3.638   4.656   6.880
 7192SOL    HW222476   3.538   4.694   6.757
 7193SOL     OW22477   5.356   1.378   4.230
 7193SOL    HW122478   5.338   1.429   4.146
 7193SOL    HW222479   5.283   1.395   4.296
 7194SOL     OW22480   3.193   1.534   1.509
 7194SOL    HW122481   3.179   1.596   1.586
 7194SOL    HW222482   3.105   1.519   1.462
 7195SOL     OW22483   0.274   6.305   1.866
 7195SOL    HW122484   0.265   6.386   1.923
 7195SOL    HW222485   0.274   6.223   1.924
 7196SOL     OW22486   3.622   3.269   1.244
 7196SOL    HW122487   3.643   3.181   1.201
 7196SOL    HW222488   3.680   3.281   1.324
 7197SOL     OW22489   1.136   1.353   4.233
 7197SOL    HW122490   1.182   1.275   4.275
 7197SOL    HW222491   1.182   1.378   4.147
 7198SOL     OW22492   0.262   6.840   6.061
 7198SOL    HW122493   0.338   6.892   6.098
 7198SOL    HW222494   0.285   6.807   5.970
 7199SOL     OW22495   5.581   5.956   2.478
 7199SOL    HW122496   5.618   5.864   2.482
 7199SOL    HW222497   5.571   5.985   2.383
 7200SOL     OW22498   2.316   2.202   2.069
 7200SOL    HW122499   2.334   2.104   2.058
 7200SOL    HW222500   2.401   2.253   2.057
 7201SOL     OW22501   2.102   4.853   3.398
 7201SOL    HW122502   2.052   4.858   3.485
 7201SOL    HW222503   2.057   4.912   3.331
 7202SOL     OW22504   3.125   0.288   5.476
 7202SOL    HW122505   3.177   0.300   5.561
 7202SOL    HW222506   3.070   0.369   5.460
 7203SOL     OW22507   5.790   0.256   7.016
 7203SOL    HW122508   5.752   0.237   6.926
 7203SOL    HW222509   5.865   0.193   0.009
 7204SOL     OW22510   5.696   1.984   3.076
 7204SOL    HW122511   5.660   1.893   3.100
 7204SOL    HW222512   5.620   2.044   3.051
 7205SOL     OW22513   1.729   4.585   1.512
 7205SOL    HW122514   1.713   4.510   1.448
 7205SOL    HW222515   1.677   4.665   1.484
 7206SOL     OW22516   6.015   1.300   1.820
 7206SOL    HW122517   5.929   1.298   1.769
 7206SOL    HW222518   5.995   1.300   1.918
 7207SOL     OW22519   4.215   6.452   1.668
 7207SOL    HW122520   4.179   6.545   1.669
 7207SOL    HW222521   4.171   6.400   1.595
 7208SOL     OW22522   2.802   0.432   5.111
 7208SOL    HW122523   2.796   0.473   5.202
 7208SOL    HW222524   2.854   0.493   5.051
 7209SOL     OW22525   2.905   3.494   4.084
 7209SOL    HW122526   2.883   3.520   4.178
 7209SOL    HW222527   2.976   3.555   4.048
 7210SOL     OW22528   4.574   6.851   4.198
 7210SOL    HW122529   4.618   6.797   4.126
 7210SOL    HW222530   4.641   6.874   4.269
 7211SOL     OW22531   0.901   4.843   2.165
 7211SOL    HW122532   0.982   4.902   2.169
 7211SOL    HW222533   0.925   4.751   2.196
 7212SOL     OW22534   5.052   6.434   3.301
 7212SOL    HW122535   5.067   6.389   3.389
 7212SOL    HW222536   5.116   6.511   3.292
 7213SOL     OW22537   5.039   6.331   4.906
 7213SOL    HW122538   5.137   6.322   4.890
 7213SOL    HW222539   4.992   6.249   4.874
 7214SOL     OW22540   1.008   4.605   5.546
 7214SOL    HW122541   1.093   4.651   5.571
 7214SOL    HW222542   0.934   4.672   5.544
 7215SOL     OW22543   1.059   3.044   2.003
 7215SOL    HW122544   1.089   3.016   2.094
 7215SOL    HW222545   1.137   3.042   1.940
 7216SOL     OW22546   3.200   1.870   2.252
 7216SOL    HW122547   3.227   1.954   2.206
 7216SOL    HW222548   3.273   1.803   2.244
 7217SOL     OW22549   0.698   3.225   2.152
 7217SOL    HW122550   0.606   3.254   2.178
 7217SOL    HW222551   0.706   3.126   2.162
 7218SOL     OW22552   6.252   2.554   5.080
 7218SOL    HW122553   6.277   2.582   4.987
 7218SOL    HW222554   6.257   2.633   5.141
 7219SOL     OW22555   3.373   0.795   1.404
 7219SOL    HW122556   3.322   0.865   1.453
 7219SOL    HW222557   3.465   0.787   1.442
 7220SOL     OW22558   6.582   1.510   2.913
 7220SOL    HW122559   6.645   1.432   2.906
 7220SOL    HW222560   6.499   1.481   2.960
 7221SOL     OW22561   6.375   4.191   5.583
 7221SOL    HW122562   6.458   4.144   5.552
 7221SOL    HW222563   6.297   4.160   5.527
 7222SOL     OW22564   7.007   6.759   3.583
 7222SOL    HW122565   6.974   6.821   3.654
 7222SOL    HW222566   0.024   6.813   3.510
 7223SOL     OW22567   4.642   0.615   4.974
 7223SOL    HW122568   4.673   0.586   5.065
 7223SOL    HW222569   4.569   0.683   4.984
 7224SOL     OW22570   6.006   1.359   3.470
 7224SOL    HW122571   5.963   1.371   3.381
 7224SOL    HW222572   5.959   1.416   3.537
 7225SOL     OW22573   2.755   0.285   1.717
 7225SOL    HW122574   2.774   0.281   1.815
 7225SOL    HW222575   2.659   0.264   1.701
 7226SOL     OW22576   6.250   6.678   4.975
 7226SOL    HW122577   6.228   6.764   5.020
 7226SOL    HW222578   6.170   6.644   4.926
 7227SOL     OW22579   0.050   2.504   5.744
 7227SOL    HW122580   0.024   2.547   5.831
 7227SOL    HW222581   7.016   2.426   5.727
 7228SOL     OW22582   2.426   1.132   3.357
 7228SOL    HW122583   2.463   1.078   3.281
 7228SOL    HW222584   2.328   1.144   3.344
 7229SOL     OW22585   0.103   0.369   3.423
 7229SOL    HW122586   0.119   0.325   3.334
 7229SOL    HW222587   0.006   0.388   3.433
 7230SOL     OW22588   6.457   5.464   1.126
 7230SOL    HW122589   6.401   5.382   1.139
 7230SOL    HW222590   6.433   5.508   1.040
 7231SOL     OW22591   5.711   0.826   0.442
 7231SOL    HW122592   5.680   0.754   0.504
 7231SOL    HW222593   5.648   0.833   0.365
 7232SOL     OW22594   4.085   4.025   0.907
 7232SOL    HW122595   3.986   4.018   0.914
 7232SOL    HW222596   4.117   4.104   0.959
 7233SOL     OW22597   0.857   2.048   5.439
 7233SOL    HW122598   0.911   1.971   5.472
 7233SOL    HW222599   0.868   2.056   5.340
 7234SOL     OW22600   4.643   2.004   3.667
 7234SOL    HW122601   4.664   1.966   3.757
 7234SOL    HW222602   4.721   2.056   3.633
 7235SOL     OW22603   5.772   2.712   4.514
 7235SOL    HW122604   5.855   2.766   4.527
 7235SOL    HW222605   5.718   2.713   4.598
 7236SOL     OW22606   1.802   1.525   2.986
 7236SOL    HW122607   1.878   1.505   2.925
 7236SOL    HW222608   1.834   1.577   3.065
 7237SOL     OW22609   5.466   5.125   4.679
 7237SOL    HW122610   5.486   5.059   4.752
 7237SOL    HW222611   5.496   5.216   4.707
 7238SOL     OW22612   1.619   0.430   1.359
 7238SOL    HW122613   1.580   0.339   1.374
 7238SOL    HW222614   1.704   0.438   1.411
 7239SOL     OW22615   3.983   0.929   1.853
 7239SOL    HW122616   3.921   0.851   1.862
 7239SOL    HW222617   4.028   0.946   1.941
 7240SOL     OW22618   3.172   3.279   2.215
 7240SOL    HW122619   3.152   3.284   2.313
 7240SOL    HW222620   3.128   3.356   2.169
 7241SOL     OW22621   4.237   6.801   4.688
 7241SOL    HW122622   4.287   6.858   4.623
 7241SOL    HW222623   4.299   6.732   4.727
 7242SOL     OW22624   6.357   5.504   0.868
 7242SOL    HW122625   6.300   5.491   0.786
 7242SOL    HW222626   6.325   5.584   0.918
 7243SOL     OW22627   0.225   5.732   0.664
 7243SOL    HW122628   0.130   5.700   0.658
 7243SOL    HW222629   0.280   5.687   0.594
 7244SOL     OW22630   4.867   1.928   1.116
 7244SOL    HW122631   4.834   1.892   1.029
 7244SOL    HW222632   4.846   1.863   1.189
 7245SOL     OW22633   6.045   2.101   4.124
 7245SOL    HW122634   6.078   2.182   4.173
 7245SOL    HW222635   5.975   2.128   4.059
 7246SOL     OW22636   0.937   5.891   5.615
 7246SOL    HW122637   0.851   5.938   5.636
 7246SOL    HW222638   0.956   5.900   5.517
 7247SOL     OW22639   3.510   5.367   4.142
 7247SOL    HW122640   3.506   5.446   4.203
 7247SOL    HW222641   3.448   5.381   4.064
 7248SOL     OW22642   3.131   0.872   4.305
 7248SOL    HW122643   3.222   0.831   4.298
 7248SOL    HW222644   3.127   0.954   4.248
 7249SOL     OW22645   4.688   3.558   5.637
 7249SOL    HW122646   4.660   3.468   5.670
 7249SOL    HW222647   4.613   3.600   5.585
 7250SOL     OW22648   2.657   3.585   6.518
 7250SOL    HW122649   2.614   3.597   6.608
 7250SOL    HW222650   2.611   3.510   6.470
 7251SOL     OW22651   6.003   0.875   5.195
 7251SOL    HW122652   6.061   0.922   5.128
 7251SOL    HW222653   6.058   0.809   5.246
 7252SOL     OW22654   4.398   3.649   5.268
 7252SOL    HW122655   4.484   3.612   5.234
 7252SOL    HW222656   4.331   3.653   5.194
 7253SOL     OW22657   5.229   4.524   0.819
 7253SOL    HW122658   5.222   4.500   0.722
 7253SOL    HW222659   5.166   4.467   0.872
 7254SOL     OW22660   5.347   6.586   4.470
 7254SOL    HW122661   5.355   6.686   4.466
 7254SOL    HW222662   5.354   6.549   4.378
 7255SOL     OW22663   3.974   3.196   3.194
 7255SOL    HW122664   3.970   3.296   3.193
 7255SOL    HW222665   3.935   3.161   3.109
 7256SOL     OW22666   3.279   5.433   3.933
 7256SOL    HW122667   3.305   5.517   3.885
 7256SOL    HW222668   3.216   5.380   3.875
 7257SOL     OW22669   6.085   4.653   2.353
 7257SOL    HW122670   5.986   4.670   2.353
 7257SOL    HW222671   6.125   4.691   2.270
 7258SOL     OW22672   2.664   0.427   5.565
 7258SOL    HW122673   2.727   0.383   5.629
 7258SOL    HW222674   2.652   0.368   5.485
 7259SOL     OW22675   3.377   4.286   6.250
 7259SOL    HW122676   3.464   4.332   6.232
 7259SOL    HW222677   3.303   4.352   6.244
 7260SOL     OW22678   4.652   2.230   3.077
 7260SOL    HW122679   4.611   2.183   2.999
 7260SOL    HW222680   4.751   2.213   3.077
 7261SOL     OW22681   2.569   4.901   1.040
 7261SOL    HW122682   2.592   4.994   1.013
 7261SOL    HW222683   2.629   4.836   0.994
 7262SOL     OW22684   6.454   0.749   4.539
 7262SOL    HW122685   6.381   0.705   4.486
 7262SOL    HW222686   6.529   0.774   4.478
 7263SOL     OW22687   5.305   5.330   1.838
 7263SOL    HW122688   5.235   5.360   1.773
 7263SOL    HW222689   5.272   5.343   1.931
 7264SOL     OW22690   0.586   6.358   4.337
 7264SOL    HW122691   0.643   6.402   4.406
 7264SOL    HW222692   0.644   6.325   4.262
 7265SOL     OW22693   4.411   3.276   6.834
 7265SOL    HW122694   4.399   3.351   6.770
 7265SOL    HW222695   4.387   3.190   6.790
 7266SOL     OW22696   4.050   1.517   1.944
 7266SOL    HW122697   4.094   1.593   1.993
 7266SOL    HW222698   4.016   1.550   1.856
 7267SOL     OW22699   5.388   2.487   4.451
 7267SOL    HW122700   5.450   2.437   4.511
 7267SOL    HW222701   5.432   2.502   4.362
 7268SOL     OW22702   4.244   0.161   0.442
 7268SOL    HW122703   4.313   0.233   0.443
 7268SOL    HW222704   4.158   0.197   0.406
 7269SOL     OW22705   1.216   0.871   1.626
 7269SOL    HW122706   1.227   0.778   1.591
 7269SOL    HW222707   1.173   0.869   1.716
 7270SOL     OW22708   3.236   1.989   1.957
 7270SOL    HW122709   3.179   1.989   1.875
 7270SOL    HW222710   3.201   2.057   2.022
 7271SOL     OW22711   6.001   5.471   4.023
 7271SOL    HW122712   6.063   5.519   3.961
 7271SOL    HW222713   5.910   5.465   3.980
 7272SOL     OW22714   5.968   1.770   1.186
 7272SOL    HW122715   5.875   1.804   1.199
 7272SOL    HW222716   5.971   1.672   1.207
 7273SOL     OW22717   5.791   5.564   5.411
 7273SOL    HW122718   5.828   5.517   5.490
 7273SOL    HW222719   5.833   5.655   5.403
 7274SOL     OW22720   5.318   4.573   4.060
 7274SOL    HW122721   5.223   4.580   4.091
 7274SOL    HW222722   5.328   4.617   3.971
 7275SOL     OW22723   5.749   6.573   1.985
 7275SOL    HW122724   5.739   6.481   1.946
 7275SOL    HW222725   5.810   6.568   2.064
 7276SOL     OW22726   3.797   1.932   3.363
 7276SOL    HW122727   3.785   1.992   3.442
 7276SOL    HW222728   3.887   1.890   3.367
 7277SOL     OW22729   6.388   2.040   4.063
 7277SOL    HW122730   6.383   2.093   4.148
 7277SOL    HW222731   6.300   1.995   4.046
 7278SOL     OW22732   4.010   1.943   3.782
 7278SOL    HW122733   4.094   1.988   3.812
 7278SOL    HW222734   4.027   1.894   3.697
 7279SOL     OW22735   3.438   3.478   1.682
 7279SOL    HW122736   3.520   3.447   1.730
 7279SOL    HW222737   3.439   3.443   1.588
 7280SOL     OW22738   6.555   1.554   5.461
 7280SOL    HW122739   6.612   1.525   5.383
 7280SOL    HW222740   6.534   1.651   5.452
 7281SOL     OW22741   3.398   6.348   2.865
 7281SOL    HW122742   3.462   6.280   2.829
 7281SOL    HW222743   3.309   6.305   2.880
 7282SOL     OW22744   0.229   3.356   1.046
 7282SOL    HW122745   0.302   3.422   1.029
 7282SOL    HW222746   0.150   3.376   0.989
 7283SOL     OW22747   3.405   6.002   2.715
 7283SOL    HW122748   3.477   6.049   2.665
 7283SOL    HW222749   3.443   5.965   2.800
 7284SOL     OW22750   0.726   0.346   2.752
 7284SOL    HW122751   0.629   0.327   2.764
 7284SOL    HW222752   0.737   0.433   2.704
 7285SOL     OW22753   5.204   2.707   2.196
 7285SOL    HW122754   5.270   2.670   2.261
 7285SOL    HW222755   5.158   2.632   2.149
 7286SOL     OW22756   6.838   1.261   4.094
 7286SOL    HW122757   6.868   1.330   4.028
 7286SOL    HW222758   6.824   1.174   4.047
 7287SOL     OW22759   3.355   1.791   4.501
 7287SOL    HW122760   3.315   1.700   4.514
 7287SOL    HW222761   3.344   1.819   4.406
 7288SOL     OW22762   3.073   2.045   1.740
 7288SOL    HW122763   3.105   2.140   1.747
 7288SOL    HW222764   2.975   2.041   1.757
 7289SOL     OW22765   6.797   2.506   1.860
 7289SOL    HW122766   6.744   2.457   1.929
 7289SOL    HW222767   6.777   2.469   1.769
 7290SOL     OW22768   3.584   2.110   4.628
 7290SOL    HW122769   3.485   2.105   4.644
 7290SOL    HW222770   3.632   2.088   4.713
 7291SOL     OW22771   1.155   1.146   0.413
 7291SOL    HW122772   1.090   1.073   0.432
 7291SOL    HW222773   1.113   1.211   0.349
 7292SOL     OW22774   4.050   1.056   2.401
 7292SOL    HW122775   3.971   1.013   2.445
 7292SOL    HW222776   4.106   1.103   2.470
 7293SOL     OW22777   6.306   1.034   4.246
 7293SOL    HW122778   6.364   1.073   4.318
 7293SOL    HW222779   6.332   0.939   4.229
 7294SOL     OW22780   3.487   0.296   2.914
 7294SOL    HW122781   3.419   0.238   2.869
 7294SOL    HW222782   3.486   0.278   3.012
 7295SOL     OW22783   5.056   3.613   1.631
 7295SOL    HW122784   5.096   3.698   1.664
 7295SOL    HW222785   5.122   3.565   1.574
 7296SOL     OW22786   3.421   6.337   2.174
 7296SOL    HW122787   3.429   6.306   2.268
 7296SOL    HW222788   3.382   6.264   2.118
 7297SOL     OW22789   3.721   0.048   0.763
 7297SOL    HW122790   3.754   0.089   0.678
 7297SOL    HW222791   3.791   7.012   0.799
 7298SOL     OW22792   4.284   4.880   1.507
 7298SOL    HW122793   4.211   4.943   1.479
 7298SOL    HW222794   4.249   4.819   1.578
 7299SOL     OW22795   0.352   3.341   7.013
 7299SOL    HW122796   0.441   3.366   0.024
 7299SOL    HW222797   0.290   3.319   0.063
 7300SOL     OW22798   0.989   3.838   1.333
 7300SOL    HW122799   0.947   3.894   1.404
 7300SOL    HW222800   0.942   3.749   1.329
 7301SOL     OW22801   4.346   1.884   0.476
 7301SOL    HW122802   4.321   1.839   0.562
 7301SOL    HW222803   4.264   1.926   0.435
 7302SOL     OW22804   5.697   1.815   6.212
 7302SOL    HW122805   5.733   1.784   6.124
 7302SOL    HW222806   5.761   1.881   6.252
 7303SOL     OW22807   3.350   1.965   1.496
 7303SOL    HW122808   3.385   1.906   1.569
 7303SOL    HW222809   3.359   2.061   1.523
 7304SOL     OW22810   2.561   0.093   0.529
 7304SOL    HW122811   2.475   0.093   0.477
 7304SOL    HW222812   2.592   7.024   0.541
 7305SOL     OW22813   6.725   6.915   6.251
 7305SOL    HW122814   6.763   6.977   6.319
 7305SOL    HW222815   6.748   6.820   6.276
 7306SOL     OW22816   1.448   3.369   0.752
 7306SOL    HW122817   1.501   3.315   0.817
 7306SOL    HW222818   1.350   3.361   0.772
 7307SOL     OW22819   3.336   6.515   1.822
 7307SOL    HW122820   3.435   6.527   1.828
 7307SOL    HW222821   3.306   6.447   1.888
 7308SOL     OW22822   4.057   1.530   2.913
 7308SOL    HW122823   4.149   1.509   2.878
 7308SOL    HW222824   4.030   1.621   2.881
 7309SOL     OW22825   2.022   4.502   4.192
 7309SOL    HW122826   1.969   4.574   4.147
 7309SOL    HW222827   2.089   4.542   4.254
 7310SOL     OW22828   2.822   3.034   6.819
 7310SOL    HW122829   2.843   2.996   6.909
 7310SOL    HW222830   2.819   2.961   6.751
 7311SOL     OW22831   1.131   6.507   5.865
 7311SOL    HW122832   1.095   6.593   5.901
 7311SOL    HW222833   1.214   6.482   5.916
 7312SOL     OW22834   6.489   1.976   4.669
 7312SOL    HW122835   6.447   1.912   4.734
 7312SOL    HW222836   6.587   1.955   4.660
 7313SOL     OW22837   3.680   1.217   2.854
 7313SOL    HW122838   3.641   1.171   2.934
 7313SOL    HW222839   3.737   1.152   2.803
 7314SOL     OW22840   2.181   5.639   5.356
 7314SOL    HW122841   2.163   5.562   5.294
 7314SOL    HW222842   2.233   5.709   5.307
 7315SOL     OW22843   2.297   5.796   2.647
 7315SOL    HW122844   2.316   5.893   2.639
 7315SOL    HW222845   2.379   5.743   2.626
 7316SOL     OW22846   4.070   0.587   1.885
 7316SOL    HW122847   3.972   0.584   1.866
 7316SOL    HW222848   4.106   0.494   1.890
 7317SOL     OW22849   6.185   1.916   1.272
 7317SOL    HW122850   6.211   1.988   1.208
 7317SOL    HW222851   6.112   1.861   1.232
 7318SOL     OW22852   5.092   6.111   1.393
 7318SOL    HW122853   5.165   6.061   1.348
 7318SOL    HW222854   5.028   6.146   1.325
 7319SOL     OW22855   4.466   5.935   6.178
 7319SOL    HW122856   4.420   5.855   6.218
 7319SOL    HW222857   4.496   5.912   6.085
 7320SOL     OW22858   1.264   3.004   0.042
 7320SOL    HW122859   1.260   2.939   0.118
 7320SOL    HW222860   1.172   3.022   0.008
 7321SOL     OW22861   2.207   2.628   5.565
 7321SOL    HW122862   2.128   2.668   5.611
 7321SOL    HW222863   2.269   2.702   5.537
 7322SOL     OW22864   2.114   1.837   4.252
 7322SOL    HW122865   2.172   1.906   4.296
 7322SOL    HW222866   2.171   1.765   4.212
 7323SOL     OW22867   2.097   2.112   1.224
 7323SOL    HW122868   2.117   2.026   1.269
 7323SOL    HW222869   2.106   2.187   1.290
 7324SOL     OW22870   4.878   3.686   4.608
 7324SOL    HW122871   4.957   3.629   4.584
 7324SOL    HW222872   4.866   3.688   4.707
 7325SOL     OW22873   4.069   1.149   6.391
 7325SOL    HW122874   4.011   1.086   6.443
 7325SOL    HW222875   4.164   1.120   6.396
 7326SOL     OW22876   3.540   6.457   0.712
 7326SOL    HW122877   3.558   6.400   0.632
 7326SOL    HW222878   3.451   6.501   0.703
 7327SOL     OW22879   1.526   4.117   3.321
 7327SOL    HW122880   1.478   4.203   3.305
 7327SOL    HW222881   1.603   4.109   3.258
 7328SOL     OW22882   4.689   5.242   6.301
 7328SOL    HW122883   4.683   5.245   6.401
 7328SOL    HW222884   4.777   5.201   6.275
 7329SOL     OW22885   2.605   4.042   0.185
 7329SOL    HW122886   2.517   4.090   0.178
 7329SOL    HW222887   2.639   4.021   0.094
 7330SOL     OW22888   2.379   3.047   0.725
 7330SOL    HW122889   2.396   2.954   0.759
 7330SOL    HW222890   2.303   3.045   0.660
 7331SOL     OW22891   4.861   1.219   2.261
 7331SOL    HW122892   4.927   1.223   2.336
 7331SOL    HW222893   4.910   1.217   2.174
 7332SOL     OW22894   2.722   6.904   5.470
 7332SOL    HW122895   2.700   6.916   5.373
 7332SOL    HW222896   2.802   6.960   5.492
 7333SOL     OW22897   6.147   1.235   1.464
 7333SOL    HW122898   6.188   1.186   1.541
 7333SOL    HW222899   6.153   1.333   1.479
 7334SOL     OW22900   1.362   4.719   4.643
 7334SOL    HW122901   1.363   4.631   4.689
 7334SOL    HW222902   1.294   4.717   4.569
 7335SOL     OW22903   0.541   2.796   2.837
 7335SOL    HW122904   0.494   2.717   2.797
 7335SOL    HW222905   0.554   2.781   2.935
 7336SOL     OW22906   2.332   0.456   0.729
 7336SOL    HW122907   2.400   0.521   0.695
 7336SOL    HW222908   2.368   0.408   0.809
 7337SOL     OW22909   3.665   1.496   2.914
 7337SOL    HW122910   3.648   1.406   2.873
 7337SOL    HW222911   3.733   1.487   2.986
 7338SOL     OW22912   5.079   3.586   0.272
 7338SOL    HW122913   5.129   3.649   0.212
 7338SOL    HW222914   5.007   3.541   0.221
 7339SOL     OW22915   6.982   6.663   3.948
 7339SOL    HW122916   6.969   6.581   3.893
 7339SOL    HW222917   6.931   6.655   4.034
 7340SOL     OW22918   3.003   6.465   0.183
 7340SOL    HW122919   2.977   6.540   0.121
 7340SOL    HW222920   3.085   6.492   0.233
 7341SOL     OW22921   6.183   5.610   3.660
 7341SOL    HW122922   6.190   5.682   3.729
 7341SOL    HW222923   6.097   5.620   3.610
 7342SOL     OW22924   0.398   5.505   0.517
 7342SOL    HW122925   0.484   5.539   0.554
 7342SOL    HW222926   0.402   5.406   0.511
 7343SOL     OW22927   6.908   2.668   2.923
 7343SOL    HW122928   6.849   2.633   2.850
 7343SOL    HW222929   6.976   2.599   2.948
 7344SOL     OW22930   1.933   1.294   6.640
 7344SOL    HW122931   1.961   1.339   6.555
 7344SOL    HW222932   1.834   1.279   6.640
 7345SOL     OW22933   1.771   0.084   6.704
 7345SOL    HW122934   1.826   0.073   6.621
 7345SOL    HW222935   1.813   0.032   6.779
 7346SOL     OW22936   3.518   5.116   3.830
 7346SOL    HW122937   3.586   5.085   3.896
 7346SOL    HW222938   3.549   5.201   3.787
 7347SOL     OW22939   6.114   2.797   3.542
 7347SOL    HW122940   6.176   2.772   3.616
 7347SOL    HW222941   6.042   2.857   3.577
 7348SOL     OW22942   5.767   0.726   6.180
 7348SOL    HW122943   5.737   0.658   6.114
 7348SOL    HW222944   5.829   0.791   6.135
 7349SOL     OW22945   3.651   1.596   1.472
 7349SOL    HW122946   3.590   1.579   1.549
 7349SOL    HW222947   3.728   1.652   1.502
 7350SOL     OW22948   2.062   1.362   3.312
 7350SOL    HW122949   2.032   1.452   3.279
 7350SOL    HW222950   2.081   1.368   3.410
 7351SOL     OW22951   4.847   4.214   0.583
 7351SOL    HW122952   4.866   4.310   0.603
 7351SOL    HW222953   4.845   4.201   0.484
 7352SOL     OW22954   6.715   1.128   3.230
 7352SOL    HW122955   6.804   1.174   3.227
 7352SOL    HW222956   6.690   1.110   3.325
 7353SOL     OW22957   5.430   1.804   5.501
 7353SOL    HW122958   5.358   1.748   5.540
 7353SOL    HW222959   5.475   1.857   5.573
 7354SOL     OW22960   5.598   4.280   5.312
 7354SOL    HW122961   5.569   4.287   5.217
 7354SOL    HW222962   5.697   4.266   5.315
 7355SOL     OW22963   6.765   5.735   0.444
 7355SOL    HW122964   6.770   5.834   0.449
 7355SOL    HW222965   6.745   5.698   0.535
 7356SOL     OW22966   0.019   1.658   5.905
 7356SOL    HW122967   0.005   1.754   5.880
 7356SOL    HW222968   0.099   1.623   5.856
 7357SOL     OW22969   0.953   1.430   0.879
 7357SOL    HW122970   0.967   1.464   0.786
 7357SOL    HW222971   0.873   1.476   0.920
 7358SOL     OW22972   3.607   1.052   4.015
 7358SOL    HW122973   3.597   1.024   3.919
 7358SOL    HW222974   3.550   0.993   4.072
 7359SOL     OW22975   3.113   3.634   3.983
 7359SOL    HW122976   3.095   3.628   3.884
 7359SOL    HW222977   3.094   3.726   4.015
 7360SOL     OW22978   0.865   4.277   6.532
 7360SOL    HW122979   0.775   4.277   6.490
 7360SOL    HW222980   0.895   4.182   6.549
 7361SOL     OW22981   4.653   6.463   1.370
 7361SOL    HW122982   4.558   6.495   1.377
 7361SOL    HW222983   4.654   6.365   1.353
 7362SOL     OW22984   1.356   5.610   6.636
 7362SOL    HW122985   1.257   5.626   6.626
 7362SOL    HW222986   1.377   5.516   6.609
 7363SOL     OW22987   4.631   2.428   6.466
 7363SOL    HW122988   4.543   2.471   6.488
 7363SOL    HW222989   4.637   2.414   6.367
 7364SOL     OW22990   5.030   6.952   0.816
 7364SOL    HW122991   5.077   6.956   0.728
 7364SOL    HW222992   5.000   6.858   0.834
 7365SOL     OW22993   4.163   6.892   1.194
 7365SOL    HW122994   4.114   6.810   1.222
 7365SOL    HW222995   4.155   6.904   1.095
 7366SOL     OW22996   1.875   0.225   0.459
 7366SOL    HW122997   1.955   0.285   0.465
 7366SOL    HW222998   1.831   0.221   0.549
 7367SOL     OW22999   4.448   2.764   6.734
 7367SOL    HW123000   4.515   2.692   6.749
 7367SOL    HW223001   4.356   2.726   6.741
 7368SOL     OW23002   3.187   3.084   4.483
 7368SOL    HW123003   3.174   3.069   4.581
 7368SOL    HW223004   3.110   3.137   4.447
 7369SOL     OW23005   6.121   0.719   6.503
 7369SOL    HW123006   6.156   0.652   6.437
 7369SOL    HW223007   6.021   0.722   6.498
 7370SOL     OW23008   0.545   6.014   0.856
 7370SOL    HW123009   0.455   6.013   0.811
 7370SOL    HW223010   0.569   5.921   0.883
 7371SOL     OW23011   1.540   5.088   4.297
 7371SOL    HW123012   1.618   5.126   4.247
 7371SOL    HW223013   1.514   5.151   4.371
 7372SOL     OW23014   3.280   0.497   5.040
 7372SOL    HW123015   3.265   0.544   5.127
 7372SOL    HW223016   3.210   0.525   4.975
 7373SOL     OW23017   3.250   0.551   1.325
 7373SOL    HW123018   3.262   0.645   1.358
 7373SOL    HW223019   3.292   0.541   1.235
 7374SOL     OW23020   2.287   3.431   6.529
 7374SOL    HW123021   2.276   3.334   6.509
 7374SOL    HW223022   2.272   3.447   6.627
 7375SOL     OW23023   2.849   6.271   3.493
 7375SOL    HW123024   2.914   6.313   3.431
 7375SOL    HW223025   2.885   6.274   3.587
 7376SOL     OW23026   3.279   3.890   6.514
 7376SOL    HW123027   3.344   3.964   6.500
 7376SOL    HW223028   3.217   3.884   6.436
 7377SOL     OW23029   6.308   6.091   1.658
 7377SOL    HW123030   6.238   6.021   1.649
 7377SOL    HW223031   6.322   6.113   1.755
 7378SOL     OW23032   0.803   1.662   5.493
 7378SOL    HW123033   0.746   1.667   5.412
 7378SOL    HW223034   0.891   1.707   5.475
 7379SOL     OW23035   4.478   0.346   0.421
 7379SOL    HW123036   4.569   0.308   0.437
 7379SOL    HW223037   4.442   0.384   0.507
 7380SOL     OW23038   6.768   2.724   6.403
 7380SOL    HW123039   6.672   2.701   6.417
 7380SOL    HW223040   6.813   2.736   6.491
 7381SOL     OW23041   5.391   2.153   6.914
 7381SOL    HW123042   5.397   2.065   6.867
 7381SOL    HW223043   5.483   2.187   6.935
 7382SOL     OW23044   0.896   5.322   4.011
 7382SOL    HW123045   0.974   5.260   4.007
 7382SOL    HW223046   0.824   5.289   3.951
 7383SOL     OW23047   1.652   4.174   2.775
 7383SOL    HW123048   1.675   4.186   2.678
 7383SOL    HW223049   1.734   4.192   2.830
 7384SOL     OW23050   6.093   2.074   0.935
 7384SOL    HW123051   6.179   2.039   0.896
 7384SOL    HW223052   6.019   2.011   0.914
 7385SOL     OW23053   5.144   0.411   2.340
 7385SOL    HW123054   5.068   0.451   2.289
 7385SOL    HW223055   5.174   0.327   2.296
 7386SOL     OW23056   6.717   1.593   5.847
 7386SOL    HW123057   6.679   1.502   5.830
 7386SOL    HW223058   6.778   1.618   5.771
 7387SOL     OW23059   5.229   5.839   3.374
 7387SOL    HW123060   5.249   5.924   3.326
 7387SOL    HW223061   5.135   5.811   3.354
 7388SOL     OW23062   5.301   3.985   5.028
 7388SOL    HW123063   5.260   4.074   5.011
 7388SOL    HW223064   5.232   3.913   5.018
 7389SOL     OW23065   0.850   3.251   5.033
 7389SOL    HW123066   0.791   3.188   4.983
 7389SOL    HW223067   0.901   3.201   5.103
 7390SOL     OW23068   4.695   0.225   0.168
 7390SOL    HW123069   4.793   0.220   0.148
 7390SOL    HW223070   4.664   0.319   0.155
 7391SOL     OW23071   0.515   5.221   6.948
 7391SOL    HW123072   0.588   5.175   6.898
 7391SOL    HW223073   0.500   5.175   0.010
 7392SOL     OW23074   2.429   4.423   1.978
 7392SOL    HW123075   2.330   4.438   1.985
 7392SOL    HW223076   2.475   4.511   1.966
 7393SOL     OW23077   1.048   3.655   6.997
 7393SOL    HW123078   0.965   3.600   6.994
 7393SOL    HW223079   1.074   3.672   0.067
 7394SOL     OW23080   2.221   3.173   6.366
 7394SOL    HW123081   2.318   3.159   6.344
 7394SOL    HW223082   2.182   3.240   6.304
 7395SOL     OW23083   2.782   1.019   6.988
 7395SOL    HW123084   2.808   1.107   6.947
 7395SOL    HW223085   2.772   0.951   6.916
 7396SOL     OW23086   7.011   6.812   2.381
 7396SOL    HW123087   6.960   6.736   2.419
 7396SOL    HW223088   6.961   6.852   2.304
 7397SOL     OW23089   6.464   4.037   4.499
 7397SOL    HW123090   6.491   3.955   4.448
 7397SOL    HW223091   6.535   4.060   4.566
 7398SOL     OW23092   4.414   6.442   3.088
 7398SOL    HW123093   4.393   6.518   3.149
 7398SOL    HW223094   4.395   6.356   3.135
 7399SOL     OW23095   5.075   5.342   3.908
 7399SOL    HW123096   5.008   5.360   3.980
 7399SOL    HW223097   5.156   5.299   3.947
 7400SOL     OW23098   3.002   3.958   0.051
 7400SOL    HW123099   2.909   3.949   0.087
 7400SOL    HW223100   3.068   3.931   0.122
 7401SOL     OW23101   5.999   2.848   4.613
 7401SOL    HW123102   6.011   2.946   4.628
 7401SOL    HW223103   6.079   2.799   4.648
 7402SOL     OW23104   1.959   6.204   4.564
 7402SOL    HW123105   2.037   6.142   4.560
 7402SOL    HW223106   1.874   6.151   4.559
 7403SOL     OW23107   2.544   3.119   1.699
 7403SOL    HW123108   2.554   3.183   1.776
 7403SOL    HW223109   2.548   3.170   1.613
 7404SOL     OW23110   1.133   2.319   2.995
 7404SOL    HW123111   1.051   2.341   3.048
 7404SOL    HW223112   1.114   2.330   2.898
 7405SOL     OW23113   3.675   4.977   5.964
 7405SOL    HW123114   3.680   4.917   5.883
 7405SOL    HW223115   3.765   4.981   6.008
 7406SOL     OW23116   0.609   6.147   2.810
 7406SOL    HW123117   0.604   6.148   2.910
 7406SOL    HW223118   0.608   6.241   2.775
 7407SOL     OW23119   3.070   1.461   5.842
 7407SOL    HW123120   3.138   1.532   5.824
 7407SOL    HW223121   2.995   1.469   5.777
 7408SOL     OW23122   0.775   3.552   5.480
 7408SOL    HW123123   0.867   3.588   5.466
 7408SOL    HW223124   0.709   3.627   5.475
 7409SOL     OW23125   2.553   6.692   4.657
 7409SOL    HW123126   2.530   6.694   4.755
 7409SOL    HW223127   2.602   6.608   4.636
 7410SOL     OW23128   4.599   5.850   5.942
 7410SOL    HW123129   4.587   5.898   5.854
 7410SOL    HW223130   4.695   5.829   5.956
 7411SOL     OW23131   5.516   3.872   5.726
 7411SOL    HW123132   5.450   3.866   5.651
 7411SOL    HW223133   5.522   3.967   5.758
 7412SOL     OW23134   1.941   1.380   0.142
 7412SOL    HW123135   1.912   1.424   0.227
 7412SOL    HW223136   1.877   1.404   0.069
 7413SOL     OW23137   6.819   3.500   3.805
 7413SOL    HW123138   6.794   3.436   3.878
 7413SOL    HW223139   6.869   3.578   3.844
 7414SOL     OW23140   0.291   5.067   1.562
 7414SOL    HW123141   0.295   4.993   1.494
 7414SOL    HW223142   0.384   5.094   1.587
 7415SOL     OW23143   3.418   1.588   2.953
 7415SOL    HW123144   3.497   1.537   2.918
 7415SOL    HW223145   3.426   1.684   2.925
 7416SOL     OW23146   6.601   0.044   3.198
 7416SOL    HW123147   6.535   0.069   3.270
 7416SOL    HW223148   6.551   0.026   3.113
 7417SOL     OW23149   0.191   5.015   0.977
 7417SOL    HW123150   0.290   5.022   0.967
 7417SOL    HW223151   0.157   4.940   0.920
 7418SOL     OW23152   1.230   3.727   0.196
 7418SOL    HW123153   1.327   3.722   0.171
 7418SOL    HW223154   1.218   3.791   0.272
 7419SOL     OW23155   6.174   2.457   5.324
 7419SOL    HW123156   6.177   2.469   5.225
 7419SOL    HW223157   6.083   2.481   5.357
 7420SOL     OW23158   6.546   5.677   1.972
 7420SOL    HW123159   6.612   5.743   2.009
 7420SOL    HW223160   6.521   5.703   1.878
 7421SOL     OW23161   3.904   1.747   1.781
 7421SOL    HW123162   3.891   1.843   1.757
 7421SOL    HW223163   3.839   1.721   1.853
 7422SOL     OW23164   0.792   1.595   1.377
 7422SOL    HW123165   0.851   1.632   1.449
 7422SOL    HW223166   0.848   1.546   1.310
 7423SOL     OW23167   2.572   4.325   0.421
 7423SOL    HW123168   2.649   4.301   0.361
 7423SOL    HW223169   2.607   4.361   0.507
 7424SOL     OW23170   4.869   0.586   4.219
 7424SOL    HW123171   4.938   0.542   4.276
 7424SOL    HW223172   4.839   0.523   4.147
 7425SOL     OW23173   3.262   0.006   4.247
 7425SOL    HW123174   3.321   6.952   4.234
 7425SOL    HW223175   3.269   0.067   4.168
 7426SOL     OW23176   0.245   0.740   6.805
 7426SOL    HW123177   0.301   0.726   6.886
 7426SOL    HW223178   0.303   0.768   6.729
 7427SOL     OW23179   5.749   5.100   4.968
 7427SOL    HW123180   5.741   5.054   5.057
 7427SOL    HW223181   5.725   5.036   4.895
 7428SOL     OW23182   4.543   0.888   5.568
 7428SOL    HW123183   4.490   0.803   5.566
 7428SOL    HW223184   4.563   0.913   5.663
 7429SOL     OW23185   6.539   6.454   3.771
 7429SOL    HW123186   6.577   6.368   3.738
 7429SOL    HW223187   6.470   6.487   3.706
 7430SOL     OW23188   0.619   4.107   4.064
 7430SOL    HW123189   0.689   4.172   4.093
 7430SOL    HW223190   0.528   4.148   4.075
 7431SOL     OW23191   0.239   3.806   2.621
 7431SOL    HW123192   0.304   3.882   2.627
 7431SOL    HW223193   0.173   3.813   2.696
 7432SOL     OW23194   1.721   6.498   5.365
 7432SOL    HW123195   1.696   6.425   5.300
 7432SOL    HW223196   1.821   6.502   5.372
 7433SOL     OW23197   0.333   6.865   1.009
 7433SOL    HW123198   0.332   6.766   1.025
 7433SOL    HW223199   0.246   6.904   1.039
 7434SOL     OW23200   4.703   6.383   0.291
 7434SOL    HW123201   4.619   6.346   0.251
 7434SOL    HW223202   4.701   6.483   0.287
 7435SOL     OW23203   1.533   5.462   0.355
 7435SOL    HW123204   1.543   5.373   0.400
 7435SOL    HW223205   1.438   5.476   0.329
 7436SOL     OW23206   4.322   3.900   6.849
 7436SOL    HW123207   4.405   3.921   6.899
 7436SOL    HW223208   4.289   3.981   6.802
 7437SOL     OW23209   0.086   6.447   5.020
 7437SOL    HW123210   0.114   6.367   5.074
 7437SOL    HW223211   0.119   6.436   4.926
 7438SOL     OW23212   5.588   3.829   0.774
 7438SOL    HW123213   5.567   3.845   0.871
 7438SOL    HW223214   5.677   3.784   0.767
 7439SOL     OW23215   1.478   6.637   2.953
 7439SOL    HW123216   1.552   6.659   2.890
 7439SOL    HW223217   1.394   6.619   2.901
 7440SOL     OW23218   0.723   1.092   3.918
 7440SOL    HW123219   0.693   1.187   3.919
 7440SOL    HW223220   0.675   1.043   3.845
 7441SOL     OW23221   6.265   0.121   3.784
 7441SOL    HW123222   6.222   0.035   3.811
 7441SOL    HW223223   6.329   0.150   3.855
 7442SOL     OW23224   1.700   0.954   6.537
 7442SOL    HW123225   1.797   0.958   6.512
 7442SOL    HW223226   1.647   0.923   6.458
 7443SOL     OW23227   0.234   2.287   2.015
 7443SOL    HW123228   0.180   2.211   1.978
 7443SOL    HW223229   0.172   2.353   2.057
 7444SOL     OW23230   0.857   2.675   4.916
 7444SOL    HW123231   0.774   2.728   4.938
 7444SOL    HW223232   0.837   2.577   4.924
 7445SOL     OW23233   5.993   2.820   1.841
 7445SOL    HW123234   6.000   2.750   1.770
 7445SOL    HW223235   6.080   2.826   1.890
 7446SOL     OW23236   5.740   3.443   3.091
 7446SOL    HW123237   5.746   3.527   3.038
 7446SOL    HW223238   5.833   3.412   3.113
 7447SOL     OW23239   0.459   3.786   6.506
 7447SOL    HW123240   0.533   3.765   6.569
 7447SOL    HW223241   0.387   3.837   6.554
 7448SOL     OW23242   0.442   0.325   6.289
 7448SOL    HW123243   0.369   0.351   6.353
 7448SOL    HW223244   0.401   0.287   6.206
 7449SOL     OW23245   4.172   0.018   1.828
 7449SOL    HW123246   4.252   0.032   1.885
 7449SOL    HW223247   4.189   0.053   1.736
 7450SOL     OW23248   3.426   1.388   1.724
 7450SOL    HW123249   3.415   1.352   1.816
 7450SOL    HW223250   3.479   1.323   1.669
 7451SOL     OW23251   1.103   0.532   2.621
 7451SOL    HW123252   1.124   0.522   2.523
 7451SOL    HW223253   1.121   0.626   2.649
 7452SOL     OW23254   1.685   5.877   3.512
 7452SOL    HW123255   1.637   5.862   3.425
 7452SOL    HW223256   1.687   5.793   3.565
 7453SOL     OW23257   6.589   4.871   5.334
 7453SOL    HW123258   6.588   4.771   5.329
 7453SOL    HW223259   6.574   4.909   5.242
 7454SOL     OW23260   1.360   2.960   6.803
 7454SOL    HW123261   1.348   3.042   6.746
 7454SOL    HW223262   1.330   2.980   6.896
 7455SOL     OW23263   4.711   0.331   0.596
 7455SOL    HW123264   4.774   0.254   0.580
 7455SOL    HW223265   4.715   0.357   0.693
 7456SOL     OW23266   1.012   4.185   6.227
 7456SOL    HW123267   1.062   4.132   6.296
 7456SOL    HW223268   1.022   4.141   6.138
 7457SOL     OW23269   6.949   6.533   5.824
 7457SOL    HW123270   6.888   6.463   5.860
 7457SOL    HW223271   6.970   6.599   5.897
 7458SOL     OW23272   2.830   0.464   1.009
 7458SOL    HW123273   2.769   0.432   0.937
 7458SOL    HW223274   2.821   0.564   1.017
 7459SOL     OW23275   3.645   6.072   4.309
 7459SOL    HW123276   3.639   6.087   4.210
 7459SOL    HW223277   3.616   6.155   4.357
 7460SOL     OW23278   0.844   5.232   7.002
 7460SOL    HW123279   0.822   5.286   6.921
 7460SOL    HW223280   0.767   5.171   7.023
 7461SOL     OW23281   4.037   0.618   4.220
 7461SOL    HW123282   4.111   0.553   4.203
 7461SOL    HW223283   3.950   0.568   4.227
 7462SOL     OW23284   2.246   1.677   3.815
 7462SOL    HW123285   2.258   1.581   3.788
 7462SOL    HW223286   2.327   1.729   3.787
 7463SOL     OW23287   3.678   4.088   2.183
 7463SOL    HW123288   3.648   4.106   2.276
 7463SOL    HW223289   3.613   4.128   2.118
 7464SOL     OW23290   4.669   6.108   0.110
 7464SOL    HW123291   4.635   6.187   0.059
 7464SOL    HW223292   4.766   6.094   0.089
 7465SOL     OW23293   3.912   0.557   3.082
 7465SOL    HW123294   3.961   0.584   3.165
 7465SOL    HW223295   3.888   0.460   3.088
 7466SOL     OW23296   6.317   0.051   0.238
 7466SOL    HW123297   6.291   0.020   0.330
 7466SOL    HW223298   6.401   0.104   0.244
 7467SOL     OW23299   4.866   2.554   0.948
 7467SOL    HW123300   4.910   2.515   1.029
 7467SOL    HW223301   4.766   2.546   0.957
 7468SOL     OW23302   5.712   4.273   4.407
 7468SOL    HW123303   5.776   4.254   4.332
 7468SOL    HW223304   5.740   4.358   4.453
 7469SOL     OW23305   4.964   1.283   2.005
 7469SOL    HW123306   4.936   1.216   1.936
 7469SOL    HW223307   5.061   1.305   1.993
 7470SOL     OW23308   0.070   3.183   3.454
 7470SOL    HW123309   0.165   3.212   3.463
 7470SOL    HW223310   0.064   3.107   3.389
 7471SOL     OW23311   6.390   5.175   5.264
 7471SOL    HW123312   6.387   5.185   5.164
 7471SOL    HW223313   6.429   5.258   5.304
 7472SOL     OW23314   4.063   5.192   2.935
 7472SOL    HW123315   4.020   5.170   2.847
 7472SOL    HW223316   4.145   5.135   2.947
 7473SOL     OW23317   1.355   2.926   5.681
 7473SOL    HW123318   1.269   2.938   5.632
 7473SOL    HW223319   1.379   3.011   5.729
 7474SOL     OW23320   2.760   1.639   2.784
 7474SOL    HW123321   2.690   1.658   2.715
 7474SOL    HW223322   2.732   1.676   2.872
 7475SOL     OW23323   4.671   0.529   6.362
 7475SOL    HW123324   4.632   0.574   6.442
 7475SOL    HW223325   4.760   0.489   6.387
 7476SOL     OW23326   2.272   6.859   4.992
 7476SOL    HW123327   2.199   6.848   5.059
 7476SOL    HW223328   2.342   6.920   5.029
 7477SOL     OW23329   4.951   3.836   4.314
 7477SOL    HW123330   4.903   3.808   4.397
 7477SOL    HW223331   4.993   3.926   4.328
 7478SOL     OW23332   0.679   4.614   1.500
 7478SOL    HW123333   0.604   4.656   1.552
 7478SOL    HW223334   0.761   4.670   1.509
 7479SOL     OW23335   3.769   0.339   4.790
 7479SOL    HW123336   3.760   0.386   4.878
 7479SOL    HW223337   3.679   0.330   4.748
 7480SOL     OW23338   6.063   5.321   0.438
 7480SOL    HW123339   6.049   5.396   0.374
 7480SOL    HW223340   6.006   5.243   0.412
 7481SOL     OW23341   6.120   6.136   0.312
 7481SOL    HW123342   6.077   6.209   0.260
 7481SOL    HW223343   6.216   6.158   0.328
 7482SOL     OW23344   4.988   0.187   4.714
 7482SOL    HW123345   4.934   0.251   4.658
 7482SOL    HW223346   5.078   0.226   4.731
 7483SOL     OW23347   3.626   0.511   6.696
 7483SOL    HW123348   3.572   0.551   6.770
 7483SOL    HW223349   3.678   0.433   6.731
 7484SOL     OW23350   3.448   6.986   1.761
 7484SOL    HW123351   3.454   0.059   1.777
 7484SOL    HW223352   3.401   6.942   1.837
 7485SOL     OW23353   1.053   6.343   4.891
 7485SOL    HW123354   1.031   6.437   4.865
 7485SOL    HW223355   1.149   6.339   4.919
 7486SOL     OW23356   1.139   2.018   5.256
 7486SOL    HW123357   1.163   2.103   5.303
 7486SOL    HW223358   1.054   2.032   5.204
 7487SOL     OW23359   3.335   5.133   3.358
 7487SOL    HW123360   3.241   5.162   3.374
 7487SOL    HW223361   3.372   5.180   3.278
 7488SOL     OW23362   4.286   0.849   5.144
 7488SOL    HW123363   4.216   0.779   5.160
 7488SOL    HW223364   4.304   0.899   5.228
 7489SOL     OW23365   6.651   3.286   3.972
 7489SOL    HW123366   6.563   3.328   3.952
 7489SOL    HW223367   6.649   3.190   3.944
 7490SOL     OW23368   5.826   6.894   2.952
 7490SOL    HW123369   5.875   6.966   3.001
 7490SOL    HW223370   5.777   6.934   2.874
 7491SOL     OW23371   0.144   6.953   0.592
 7491SOL    HW123372   0.116   6.863   0.558
 7491SOL    HW223373   0.064   7.010   0.605
 7492SOL     OW23374   2.835   1.959   3.357
 7492SOL    HW123375   2.883   1.893   3.299
 7492SOL    HW223376   2.764   1.911   3.409
 7493SOL     OW23377   5.074   4.819   6.254
 7493SOL    HW123378   5.053   4.769   6.170
 7493SOL    HW223379   5.045   4.764   6.333
 7494SOL     OW23380   5.018   1.894   1.768
 7494SOL    HW123381   5.036   1.798   1.787
 7494SOL    HW223382   5.020   1.946   1.854
 7495SOL     OW23383   1.041   1.848   2.731
 7495SOL    HW123384   1.139   1.868   2.730
 7495SOL    HW223385   0.991   1.926   2.769
 7496SOL     OW23386   0.382   5.667   5.691
 7496SOL    HW123387   0.464   5.610   5.679
 7496SOL    HW223388   0.334   5.640   5.774
 7497SOL     OW23389   1.860   5.051   2.459
 7497SOL    HW123390   1.776   5.003   2.485
 7497SOL    HW223391   1.925   4.985   2.420
 7498SOL     OW23392   5.816   2.150   4.436
 7498SOL    HW123393   5.757   2.070   4.441
 7498SOL    HW223394   5.761   2.233   4.448
 7499SOL     OW23395   3.893   5.133   3.755
 7499SOL    HW123396   3.871   5.056   3.815
 7499SOL    HW223397   3.832   5.210   3.774
 7500SOL     OW23398   4.797   3.939   1.850
 7500SOL    HW123399   4.764   3.906   1.761
 7500SOL    HW223400   4.752   4.025   1.873
 7501SOL     OW23401   0.544   4.538   4.145
 7501SOL    HW123402   0.624   4.489   4.178
 7501SOL    HW223403   0.470   4.473   4.126
 7502SOL     OW23404   1.618   2.272   3.861
 7502SOL    HW123405   1.683   2.239   3.792
 7502SOL    HW223406   1.662   2.273   3.950
 7503SOL     OW23407   2.429   2.843   6.832
 7503SOL    HW123408   2.528   2.828   6.826
 7503SOL    HW223409   2.388   2.775   6.892
 7504SOL     OW23410   4.093   5.537   4.075
 7504SOL    HW123411   4.032   5.616   4.074
 7504SOL    HW223412   4.185   5.567   4.049
 7505SOL     OW23413   2.028   1.075   4.393
 7505SOL    HW123414   2.055   1.167   4.421
 7505SOL    HW223415   2.110   1.021   4.373
 7506SOL     OW23416   4.405   0.892   3.150
 7506SOL    HW123417   4.442   0.850   3.233
 7506SOL    HW223418   4.479   0.919   3.090
 7507SOL     OW23419   2.354   0.376   5.478
 7507SOL    HW123420   2.419   0.315   5.523
 7507SOL    HW223421   2.283   0.322   5.433
 7508SOL     OW23422   5.440   5.499   3.199
 7508SOL    HW123423   5.487   5.419   3.235
 7508SOL    HW223424   5.342   5.482   3.198
 7509SOL     OW23425   4.127   4.259   6.282
 7509SOL    HW123426   4.199   4.328   6.276
 7509SOL    HW223427   4.144   4.187   6.215
 7510SOL     OW23428   3.553   3.495   4.702
 7510SOL    HW123429   3.474   3.442   4.671
 7510SOL    HW223430   3.551   3.585   4.660
 7511SOL     OW23431   1.190   1.606   2.609
 7511SOL    HW123432   1.211   1.578   2.515
 7511SOL    HW223433   1.125   1.681   2.609
 7512SOL     OW23434   2.164   3.124   2.497
 7512SOL    HW123435   2.071   3.087   2.490
 7512SOL    HW223436   2.160   3.224   2.496
 7513SOL     OW23437   1.535   3.327   6.140
 7513SOL    HW123438   1.474   3.256   6.105
 7513SOL    HW223439   1.548   3.315   6.238
 7514SOL     OW23440   3.505   5.540   3.510
 7514SOL    HW123441   3.415   5.496   3.514
 7514SOL    HW223442   3.504   5.624   3.565
 7515SOL     OW23443   0.292   4.654   2.658
 7515SOL    HW123444   0.352   4.582   2.694
 7515SOL    HW223445   0.307   4.663   2.560
 7516SOL     OW23446   2.102   2.734   1.432
 7516SOL    HW123447   2.115   2.687   1.345
 7516SOL    HW223448   2.127   2.673   1.508
 7517SOL     OW23449   0.246   4.971   1.838
 7517SOL    HW123450   0.317   4.905   1.815
 7517SOL    HW223451   0.245   5.044   1.770
 7518SOL     OW23452   5.144   4.079   3.336
 7518SOL    HW123453   5.113   4.059   3.428
 7518SOL    HW223454   5.125   4.174   3.314
 7519SOL     OW23455   1.877   0.011   4.141
 7519SOL    HW123456   1.796   7.011   4.193
 7519SOL    HW223457   1.850   0.059   4.058
 7520SOL     OW23458   2.482   6.747   3.665
 7520SOL    HW123459   2.459   6.650   3.655
 7520SOL    HW223460   2.436   6.784   3.746
 7521SOL     OW23461   4.698   3.343   5.329
 7521SOL    HW123462   4.670   3.433   5.295
 7521SOL    HW223463   4.621   3.300   5.376
 7522SOL     OW23464   1.673   0.019   2.417
 7522SOL    HW123465   1.709   6.962   2.373
 7522SOL    HW223466   1.727   0.098   2.390
 7523SOL     OW23467   6.502   6.493   6.219
 7523SOL    HW123468   6.555   6.522   6.140
 7523SOL    HW223469   6.406   6.481   6.193
 7524SOL     OW23470   6.540   1.180   4.806
 7524SOL    HW123471   6.515   1.213   4.714
 7524SOL    HW223472   6.629   1.219   4.831
 7525SOL     OW23473   0.964   0.186   0.756
 7525SOL    HW123474   0.889   0.251   0.772
 7525SOL    HW223475   0.959   0.113   0.823
 7526SOL     OW23476   3.679   3.331   5.619
 7526SOL    HW123477   3.599   3.354   5.675
 7526SOL    HW223478   3.705   3.411   5.564
 7527SOL     OW23479   3.695   6.058   2.061
 7527SOL    HW123480   3.786   6.098   2.068
 7527SOL    HW223481   3.652   6.087   1.975
 7528SOL     OW23482   5.995   3.267   6.896
 7528SOL    HW123483   5.925   3.323   6.940
 7528SOL    HW223484   6.058   3.233   6.966
 7529SOL     OW23485   2.079   0.115   4.424
 7529SOL    HW123486   2.108   0.037   4.368
 7529SOL    HW223487   2.004   0.163   4.378
 7530SOL     OW23488   6.800   2.945   2.887
 7530SOL    HW123489   6.874   2.930   2.953
 7530SOL    HW223490   6.778   2.859   2.841
 7531SOL     OW23491   2.424   1.574   4.447
 7531SOL    HW123492   2.357   1.520   4.397
 7531SOL    HW223493   2.426   1.667   4.411
 7532SOL     OW23494   4.833   4.818   2.102
 7532SOL    HW123495   4.786   4.743   2.058
 7532SOL    HW223496   4.922   4.832   2.059
 7533SOL     OW23497   3.391   0.832   5.011
 7533SOL    HW123498   3.468   0.768   5.011
 7533SOL    HW223499   3.311   0.789   4.969
 7534SOL     OW23500   4.939   6.914   3.998
 7534SOL    HW123501   5.009   6.885   4.063
 7534SOL    HW223502   4.983   6.944   3.913
 7535SOL     OW23503   3.018   4.711   0.506
 7535SOL    HW123504   3.018   4.769   0.424
 7535SOL    HW223505   2.927   4.671   0.519
 7536SOL     OW23506   4.354   5.694   5.943
 7536SOL    HW123507   4.295   5.713   5.865
 7536SOL    HW223508   4.438   5.748   5.935
 7537SOL     OW23509   1.786   4.784   5.482
 7537SOL    HW123510   1.810   4.687   5.483
 7537SOL    HW223511   1.792   4.820   5.575
 7538SOL     OW23512   3.284   4.155   4.837
 7538SOL    HW123513   3.208   4.197   4.887
 7538SOL    HW223514   3.293   4.200   4.748
 7539SOL     OW23515   0.898   2.273   4.678
 7539SOL    HW123516   0.957   2.296   4.600
 7539SOL    HW223517   0.946   2.212   4.740
 7540SOL     OW23518   2.100   1.194   0.210
 7540SOL    HW123519   2.045   1.275   0.192
 7540SOL    HW223520   2.049   1.133   0.271
 7541SOL     OW23521   6.885   2.681   5.464
 7541SOL    HW123522   6.944   2.610   5.424
 7541SOL    HW223523   6.807   2.638   5.509
 7542SOL     OW23524   1.771   0.552   5.625
 7542SOL    HW123525   1.826   0.508   5.553
 7542SOL    HW223526   1.820   0.545   5.712
 7543SOL     OW23527   2.957   2.700   0.318
 7543SOL    HW123528   2.868   2.680   0.360
 7543SOL    HW223529   3.001   2.774   0.368
 7544SOL     OW23530   1.470   1.988   2.437
 7544SOL    HW123531   1.565   1.963   2.420
 7544SOL    HW223532   1.415   1.968   2.355
 7545SOL     OW23533   3.977   0.430   3.676
 7545SOL    HW123534   4.018   0.377   3.601
 7545SOL    HW223535   4.050   0.473   3.730
 7546SOL     OW23536   5.337   0.405   5.515
 7546SOL    HW123537   5.309   0.347   5.439
 7546SOL    HW223538   5.360   0.496   5.480
 7547SOL     OW23539   3.047   0.510   0.178
 7547SOL    HW123540   3.015   0.447   0.250
 7547SOL    HW223541   2.968   0.543   0.126
 7548SOL     OW23542   1.897   3.158   1.313
 7548SOL    HW123543   1.913   3.061   1.333
 7548SOL    HW223544   1.825   3.192   1.374
 7549SOL     OW23545   5.560   0.472   2.509
 7549SOL    HW123546   5.475   0.507   2.468
 7549SOL    HW223547   5.568   0.374   2.491
 7550SOL     OW23548   1.245   5.731   0.520
 7550SOL    HW123549   1.236   5.648   0.575
 7550SOL    HW223550   1.334   5.773   0.538
 7551SOL     OW23551   5.308   3.662   6.470
 7551SOL    HW123552   5.314   3.760   6.451
 7551SOL    HW223553   5.359   3.611   6.400
 7552SOL     OW23554   3.773   5.616   3.809
 7552SOL    HW123555   3.827   5.533   3.825
 7552SOL    HW223556   3.802   5.658   3.723
 7553SOL     OW23557   4.204   4.070   6.115
 7553SOL    HW123558   4.277   4.012   6.152
 7553SOL    HW223559   4.197   4.055   6.017
 7554SOL     OW23560   0.055   1.405   1.269
 7554SOL    HW123561   0.069   1.479   1.334
 7554SOL    HW223562   6.982   1.387   1.260
 7555SOL     OW23563   1.704   5.954   5.730
 7555SOL    HW123564   1.616   5.969   5.776
 7555SOL    HW223565   1.773   5.932   5.799
 7556SOL     OW23566   6.677   4.111   3.776
 7556SOL    HW123567   6.585   4.094   3.740
 7556SOL    HW223568   6.742   4.049   3.732
 7557SOL     OW23569   3.979   3.872   0.541
 7557SOL    HW123570   3.927   3.817   0.475
 7557SOL    HW223571   4.023   3.812   0.607
 7558SOL     OW23572   1.831   2.807   3.308
 7558SOL    HW123573   1.922   2.769   3.322
 7558SOL    HW223574   1.834   2.906   3.317
 7559SOL     OW23575   0.823   4.793   7.017
 7559SOL    HW123576   0.853   4.698   7.022
 7559SOL    HW223577   0.899   4.850   6.985
 7560SOL     OW23578   4.774   0.444   5.739
 7560SOL    HW123579   4.858   0.480   5.781
 7560SOL    HW223580   4.786   0.347   5.719
 7561SOL     OW23581   0.029   4.228   0.098
 7561SOL    HW123582   0.034   4.200   0.194
 7561SOL    HW223583   6.966   4.202   0.060
 7562SOL     OW23584   4.794   5.895   4.598
 7562SOL    HW123585   4.785   5.832   4.521
 7562SOL    HW223586   4.891   5.916   4.611
 7563SOL     OW23587   2.408   0.985   4.141
 7563SOL    HW123588   2.479   1.015   4.204
 7563SOL    HW223589   2.425   1.022   4.050
 7564SOL     OW23590   5.869   5.558   4.244
 7564SOL    HW123591   5.949   5.519   4.290
 7564SOL    HW223592   5.860   5.518   4.153
 7565SOL     OW23593   4.744   5.647   6.848
 7565SOL    HW123594   4.767   5.695   6.763
 7565SOL    HW223595   4.773   5.703   6.926
 7566SOL     OW23596   1.491   5.608   4.374
 7566SOL    HW123597   1.441   5.650   4.450
 7566SOL    HW223598   1.438   5.531   4.338
 7567SOL     OW23599   2.294   3.115   0.418
 7567SOL    HW123600   2.285   3.210   0.388
 7567SOL    HW223601   2.329   3.059   0.344
 7568SOL     OW23602   3.787   4.908   2.770
 7568SOL    HW123603   3.839   4.846   2.711
 7568SOL    HW223604   3.689   4.893   2.756
 7569SOL     OW23605   3.771   6.895   2.025
 7569SOL    HW123606   3.863   6.935   2.035
 7569SOL    HW223607   3.734   6.921   1.936
 7570SOL     OW23608   5.923   4.950   4.822
 7570SOL    HW123609   5.987   5.010   4.871
 7570SOL    HW223610   5.951   4.943   4.727
 7571SOL     OW23611   5.846   3.713   0.718
 7571SOL    HW123612   5.860   3.661   0.802
 7571SOL    HW223613   5.864   3.810   0.735
 7572SOL     OW23614   6.805   1.243   2.913
 7572SOL    HW123615   6.712   1.218   2.940
 7572SOL    HW223616   6.863   1.253   2.994
 7573SOL     OW23617   3.380   5.226   4.962
 7573SOL    HW123618   3.443   5.252   5.035
 7573SOL    HW223619   3.304   5.174   5.001
 7574SOL     OW23620   4.841   6.245   2.155
 7574SOL    HW123621   4.843   6.265   2.253
 7574SOL    HW223622   4.839   6.146   2.142
 7575SOL     OW23623   4.970   2.705   5.142
 7575SOL    HW123624   4.879   2.743   5.160
 7575SOL    HW223625   4.959   2.613   5.104
 7576SOL     OW23626   6.970   3.587   1.704
 7576SOL    HW123627   0.031   3.556   1.665
 7576SOL    HW223628   6.925   3.511   1.752
 7577SOL     OW23629   4.651   1.523   4.625
 7577SOL    HW123630   4.565   1.533   4.574
 7577SOL    HW223631   4.659   1.428   4.656
 7578SOL     OW23632   2.238   5.422   5.142
 7578SOL    HW123633   2.327   5.421   5.096
 7578SOL    HW223634   2.170   5.381   5.082
 7579SOL     OW23635   4.419   2.390   3.962
 7579SOL    HW123636   4.360   2.371   3.883
 7579SOL    HW223637   4.432   2.306   4.014
 7580SOL     OW23638   2.004   3.467   2.153
 7580SOL    HW123639   2.091   3.513   2.132
 7580SOL    HW223640   1.940   3.482   2.078
 7581SOL     OW23641   5.293   0.735   0.844
 7581SOL    HW123642   5.347   0.660   0.805
 7581SOL    HW223643   5.231   0.770   0.774
 7582SOL     OW23644   3.458   2.460   1.108
 7582SOL    HW123645   3.557   2.448   1.111
 7582SOL    HW223646   3.414   2.376   1.140
 7583SOL     OW23647   6.779   4.179   2.984
 7583SOL    HW123648   6.873   4.148   3.002
 7583SOL    HW223649   6.740   4.217   3.068
 7584SOL     OW23650   2.340   1.403   1.892
 7584SOL    HW123651   2.247   1.404   1.928
 7584SOL    HW223652   2.371   1.497   1.876
 7585SOL     OW23653   1.835   4.291   6.691
 7585SOL    HW123654   1.933   4.281   6.674
 7585SOL    HW223655   1.786   4.216   6.648
 7586SOL     OW23656   1.527   2.064   3.021
 7586SOL    HW123657   1.578   2.002   3.081
 7586SOL    HW223658   1.565   2.156   3.029
 7587SOL     OW23659   2.460   1.349   5.747
 7587SOL    HW123660   2.528   1.329   5.677
 7587SOL    HW223661   2.413   1.434   5.723
 7588SOL     OW23662   0.499   4.285   1.548
 7588SOL    HW123663   0.549   4.345   1.611
 7588SOL    HW223664   0.564   4.243   1.484
 7589SOL     OW23665   5.177   6.336   6.473
 7589SOL    HW123666   5.140   6.364   6.562
 7589SOL    HW223667   5.108   6.285   6.423
 7590SOL     OW23668   1.408   0.725   5.877
 7590SOL    HW123669   1.371   0.818   5.870
 7590SOL    HW223670   1.362   0.677   5.952
 7591SOL     OW23671   6.259   5.626   6.592
 7591SOL    HW123672   6.177   5.657   6.544
 7591SOL    HW223673   6.284   5.694   6.661
 7592SOL     OW23674   4.488   4.894   6.066
 7592SOL    HW123675   4.563   4.832   6.044
 7592SOL    HW223676   4.485   4.908   6.165
 7593SOL     OW23677   5.559   4.000   0.542
 7593SOL    HW123678   5.583   3.967   0.633
 7593SOL    HW223679   5.482   3.947   0.507
 7594SOL     OW23680   0.961   6.849   3.796
 7594SOL    HW123681   0.994   6.760   3.830
 7594SOL    HW223682   1.015   6.922   3.836
 7595SOL     OW23683   6.277   2.638   6.856
 7595SOL    HW123684   6.342   2.579   6.808
 7595SOL    HW223685   6.326   2.712   6.902
 7596SOL     OW23686   4.808   5.347   2.216
 7596SOL    HW123687   4.710   5.343   2.200
 7596SOL    HW223688   4.840   5.261   2.254
 7597SOL     OW23689   2.305   5.782   1.623
 7597SOL    HW123690   2.349   5.839   1.692
 7597SOL    HW223691   2.372   5.753   1.555
 7598SOL     OW23692   6.506   0.963   2.195
 7598SOL    HW123693   6.488   0.908   2.276
 7598SOL    HW223694   6.427   1.021   2.175
 7599SOL     OW23695   5.757   2.799   1.974
 7599SOL    HW123696   5.688   2.760   1.914
 7599SOL    HW223697   5.847   2.794   1.930
 7600SOL     OW23698   2.502   2.453   2.964
 7600SOL    HW123699   2.521   2.388   3.038
 7600SOL    HW223700   2.531   2.415   2.877
 7601SOL     OW23701   2.225   0.754   5.334
 7601SOL    HW123702   2.247   0.824   5.402
 7601SOL    HW223703   2.301   0.744   5.271
 7602SOL     OW23704   2.163   3.413   5.206
 7602SOL    HW123705   2.223   3.335   5.221
 7602SOL    HW223706   2.179   3.451   5.115
 7603SOL     OW23707   6.643   1.195   2.182
 7603SOL    HW123708   6.593   1.111   2.163
 7603SOL    HW223709   6.741   1.179   2.175
 7604SOL     OW23710   5.121   5.406   6.884
 7604SOL    HW123711   5.117   5.499   6.846
 7604SOL    HW223712   5.039   5.356   6.856
 7605SOL     OW23713   6.028   3.699   6.347
 7605SOL    HW123714   6.050   3.784   6.300
 7605SOL    HW223715   6.036   3.622   6.283
 7606SOL     OW23716   5.707   1.918   3.689
 7606SOL    HW123717   5.649   1.887   3.613
 7606SOL    HW223718   5.658   1.986   3.742
 7607SOL     OW23719   4.857   6.927   6.103
 7607SOL    HW123720   4.941   6.969   6.137
 7607SOL    HW223721   4.779   6.958   6.158
 7608SOL     OW23722   3.315   3.325   4.708
 7608SOL    HW123723   3.288   3.229   4.695
 7608SOL    HW223724   3.275   3.381   4.635
 7609SOL     OW23725   1.597   2.781   3.470
 7609SOL    HW123726   1.530   2.708   3.458
 7609SOL    HW223727   1.669   2.772   3.402
 7610SOL     OW23728   5.704   0.313   1.939
 7610SOL    HW123729   5.689   0.347   2.031
 7610SOL    HW223730   5.798   0.278   1.931
 7611SOL     OW23731   2.066   1.645   1.761
 7611SOL    HW123732   2.054   1.549   1.787
 7611SOL    HW223733   2.133   1.652   1.688
 7612SOL     OW23734   4.391   1.776   2.891
 7612SOL    HW123735   4.293   1.794   2.879
 7612SOL    HW223736   4.443   1.850   2.849
 7613SOL     OW23737   5.631   0.439   2.776
 7613SOL    HW123738   5.611   0.429   2.678
 7613SOL    HW223739   5.570   0.507   2.816
 7614SOL     OW23740   4.378   0.832   0.407
 7614SOL    HW123741   4.312   0.883   0.462
 7614SOL    HW223742   4.422   0.762   0.463
 7615SOL     OW23743   3.867   4.610   5.992
 7615SOL    HW123744   3.873   4.536   6.058
 7615SOL    HW223745   3.823   4.690   6.035
 7616SOL     OW23746   0.169   5.068   3.066
 7616SOL    HW123747   0.219   5.150   3.038
 7616SOL    HW223748   0.084   5.061   3.014
 7617SOL     OW23749   3.240   5.938   2.936
 7617SOL    HW123750   3.218   5.840   2.935
 7617SOL    HW223751   3.201   5.982   2.855
 7618SOL     OW23752   2.286   1.866   0.549
 7618SOL    HW123753   2.303   1.772   0.519
 7618SOL    HW223754   2.188   1.879   0.564
 7619SOL     OW23755   6.052   3.473   6.180
 7619SOL    HW123756   6.124   3.537   6.152
 7619SOL    HW223757   6.093   3.385   6.204
 7620SOL     OW23758   3.098   6.028   1.453
 7620SOL    HW123759   3.155   5.963   1.503
 7620SOL    HW223760   3.119   6.023   1.356
 7621SOL     OW23761   1.721   2.502   0.837
 7621SOL    HW123762   1.807   2.553   0.839
 7621SOL    HW223763   1.734   2.413   0.881
 7622SOL     OW23764   4.374   2.009   1.500
 7622SOL    HW123765   4.286   2.052   1.482
 7622SOL    HW223766   4.445   2.055   1.447
 7623SOL     OW23767   6.018   6.417   5.052
 7623SOL    HW123768   6.039   6.340   5.113
 7623SOL    HW223769   6.033   6.389   4.957
 7624SOL     OW23770   7.014   0.638   4.432
 7624SOL    HW123771   6.985   0.726   4.396
 7624SOL    HW223772   0.042   0.652   4.515
 7625SOL     OW23773   3.518   5.769   0.861
 7625SOL    HW123774   3.611   5.783   0.827
 7625SOL    HW223775   3.454   5.766   0.784
 7626SOL     OW23776   2.635   4.308   5.365
 7626SOL    HW123777   2.672   4.401   5.358
 7626SOL    HW223778   2.644   4.277   5.460
 7627SOL     OW23779   0.073   1.193   0.463
 7627SOL    HW123780   0.124   1.118   0.506
 7627SOL    HW223781   0.002   1.224   0.526
 7628SOL     OW23782   4.867   1.772   1.542
 7628SOL    HW123783   4.904   1.831   1.614
 7628SOL    HW223784   4.890   1.677   1.563
 7629SOL     OW23785   6.248   6.047   3.317
 7629SOL    HW123786   6.313   6.108   3.271
 7629SOL    HW223787   6.212   5.981   3.251
 7630SOL     OW23788   6.458   1.410   2.138
 7630SOL    HW123789   6.526   1.337   2.145
 7630SOL    HW223790   6.486   1.488   2.194
 7631SOL     OW23791   1.457   0.885   3.611
 7631SOL    HW123792   1.514   0.836   3.677
 7631SOL    HW223793   1.406   0.958   3.659
 7632SOL     OW23794   4.176   0.498   5.403
 7632SOL    HW123795   4.125   0.575   5.366
 7632SOL    HW223796   4.260   0.532   5.445
 7633SOL     OW23797   5.880   3.987   6.735
 7633SOL    HW123798   5.802   4.044   6.710
 7633SOL    HW223799   5.872   3.898   6.690
 7634SOL     OW23800   1.148   2.462   2.386
 7634SOL    HW123801   1.052   2.437   2.393
 7634SOL    HW223802   1.196   2.434   2.470
 7635SOL     OW23803   2.682   5.145   5.893
 7635SOL    HW123804   2.648   5.085   5.965
 7635SOL    HW223805   2.737   5.218   5.933
 7636SOL     OW23806   1.632   0.072   3.424
 7636SOL    HW123807   1.596   0.113   3.508
 7636SOL    HW223808   1.592   7.007   3.411
 7637SOL     OW23809   2.922   6.292   3.754
 7637SOL    HW123810   2.965   6.375   3.790
 7637SOL    HW223811   2.974   6.212   3.785
 7638SOL     OW23812   4.230   4.488   1.644
 7638SOL    HW123813   4.306   4.426   1.627
 7638SOL    HW223814   4.144   4.443   1.621
 7639SOL     OW23815   0.380   1.961   4.322
 7639SOL    HW123816   0.389   1.864   4.345
 7639SOL    HW223817   0.464   1.993   4.279
 7640SOL     OW23818   2.364   3.290   5.611
 7640SOL    HW123819   2.424   3.272   5.533
 7640SOL    HW223820   2.305   3.368   5.591
 7641SOL     OW23821   6.167   2.915   3.239
 7641SOL    HW123822   6.211   2.881   3.155
 7641SOL    HW223823   6.207   2.869   3.318
 7642SOL     OW23824   1.462   1.693   2.698
 7642SOL    HW123825   1.507   1.782   2.705
 7642SOL    HW223826   1.382   1.700   2.639
 7643SOL     OW23827   5.800   3.366   3.557
 7643SOL    HW123828   5.743   3.392   3.478
 7643SOL    HW223829   5.770   3.416   3.638
 7644SOL     OW23830   6.622   3.369   3.626
 7644SOL    HW123831   6.663   3.280   3.646
 7644SOL    HW223832   6.681   3.442   3.661
 7645SOL     OW23833   3.182   2.687   0.130
 7645SOL    HW123834   3.124   2.658   0.053
 7645SOL    HW223835   3.137   2.663   0.216
 7646SOL     OW23836   1.138   0.338   1.594
 7646SOL    HW123837   1.076   0.400   1.545
 7646SOL    HW223838   1.087   0.289   1.665
 7647SOL     OW23839   2.250   5.124   0.099
 7647SOL    HW123840   2.260   5.201   0.161
 7647SOL    HW223841   2.174   5.066   0.129
 7648SOL     OW23842   3.283   1.263   3.743
 7648SOL    HW123843   3.326   1.272   3.833
 7648SOL    HW223844   3.350   1.229   3.677
 7649SOL     OW23845   2.843   1.581   1.484
 7649SOL    HW123846   2.830   1.657   1.547
 7649SOL    HW223847   2.794   1.600   1.399
 7650SOL     OW23848   6.041   4.772   0.501
 7650SOL    HW123849   6.087   4.683   0.503
 7650SOL    HW223850   6.109   4.844   0.486
 7651SOL     OW23851   5.353   2.059   6.195
 7651SOL    HW123852   5.267   2.083   6.241
 7651SOL    HW223853   5.396   2.142   6.160
 7652SOL     OW23854   1.134   3.267   2.825
 7652SOL    HW123855   1.132   3.365   2.845
 7652SOL    HW223856   1.200   3.222   2.885
 7653SOL     OW23857   4.587   2.420   2.245
 7653SOL    HW123858   4.638   2.480   2.183
 7653SOL    HW223859   4.569   2.469   2.331
 7654SOL     OW23860   5.246   3.709   4.285
 7654SOL    HW123861   5.152   3.742   4.301
 7654SOL    HW223862   5.281   3.748   4.201
 7655SOL     OW23863   5.279   5.064   5.676
 7655SOL    HW123864   5.347   5.081   5.606
 7655SOL    HW223865   5.287   5.134   5.748
 7656SOL     OW23866   1.124   0.443   4.866
 7656SOL    HW123867   1.149   0.350   4.895
 7656SOL    HW223868   1.196   0.480   4.807
 7657SOL     OW23869   3.849   1.700   3.761
 7657SOL    HW123870   3.754   1.685   3.791
 7657SOL    HW223871   3.866   1.799   3.755
 7658SOL     OW23872   4.043   0.323   5.981
 7658SOL    HW123873   4.112   0.375   6.032
 7658SOL    HW223874   4.068   0.322   5.884
 7659SOL     OW23875   5.215   6.151   6.681
 7659SOL    HW123876   5.184   6.175   6.589
 7659SOL    HW223877   5.266   6.228   6.720
 7660SOL     OW23878   5.538   4.948   3.950
 7660SOL    HW123879   5.569   4.854   3.934
 7660SOL    HW223880   5.618   5.006   3.967
 7661SOL     OW23881   6.329   3.487   4.636
 7661SOL    HW123882   6.346   3.563   4.699
 7661SOL    HW223883   6.358   3.512   4.544
 7662SOL     OW23884   6.111   5.584   3.199
 7662SOL    HW123885   6.174   5.510   3.222
 7662SOL    HW223886   6.162   5.663   3.167
 7663SOL     OW23887   0.323   6.062   0.484
 7663SOL    HW123888   0.266   6.145   0.478
 7663SOL    HW223889   0.335   6.037   0.580
 7664SOL     OW23890   2.912   5.695   5.156
 7664SOL    HW123891   2.856   5.638   5.216
 7664SOL    HW223892   2.947   5.773   5.208
 7665SOL     OW23893   2.457   5.579   3.840
 7665SOL    HW123894   2.469   5.645   3.914
 7665SOL    HW223895   2.497   5.491   3.866
 7666SOL     OW23896   2.267   0.761   2.044
 7666SOL    HW123897   2.210   0.718   2.114
 7666SOL    HW223898   2.284   0.696   1.971
 7667SOL     OW23899   5.664   6.473   5.382
 7667SOL    HW123900   5.633   6.565   5.407
 7667SOL    HW223901   5.585   6.416   5.360
 7668SOL     OW23902   2.933   4.109   1.771
 7668SOL    HW123903   2.836   4.120   1.748
 7668SOL    HW223904   2.984   4.188   1.736
 7669SOL     OW23905   4.550   6.305   4.785
 7669SOL    HW123906   4.531   6.312   4.883
 7669SOL    HW223907   4.553   6.209   4.759
 7670SOL     OW23908   1.285   6.102   0.646
 7670SOL    HW123909   1.262   6.156   0.565
 7670SOL    HW223910   1.343   6.025   0.619
 7671SOL     OW23911   5.292   1.975   4.760
 7671SOL    HW123912   5.281   1.975   4.859
 7671SOL    HW223913   5.384   2.007   4.737
 7672SOL     OW23914   6.053   0.365   1.744
 7672SOL    HW123915   5.984   0.429   1.712
 7672SOL    HW223916   6.013   0.303   1.812
 7673SOL     OW23917   0.296   3.950   0.231
 7673SOL    HW123918   0.336   4.010   0.162
 7673SOL    HW223919   0.368   3.915   0.290
 7674SOL     OW23920   6.148   0.304   5.274
 7674SOL    HW123921   6.105   0.233   5.218
 7674SOL    HW223922   6.077   0.361   5.315
 7675SOL     OW23923   4.953   7.009   3.214
 7675SOL    HW123924   4.994   7.025   3.124
 7675SOL    HW223925   4.923   0.071   3.253
 7676SOL     OW23926   1.187   0.479   1.123
 7676SOL    HW123927   1.118   0.416   1.087
 7676SOL    HW223928   1.253   0.501   1.051
 7677SOL     OW23929   1.387   2.433   3.047
 7677SOL    HW123930   1.449   2.369   3.002
 7677SOL    HW223931   1.294   2.396   3.048
 7678SOL     OW23932   5.503   6.798   5.801
 7678SOL    HW123933   5.457   6.887   5.807
 7678SOL    HW223934   5.439   6.730   5.768
 7679SOL     OW23935   1.167   5.234   4.329
 7679SOL    HW123936   1.257   5.216   4.370
 7679SOL    HW223937   1.144   5.330   4.341
 7680SOL     OW23938   5.367   0.760   6.783
 7680SOL    HW123939   5.338   0.664   6.773
 7680SOL    HW223940   5.416   0.771   6.869
 7681SOL     OW23941   2.923   2.344   6.526
 7681SOL    HW123942   2.833   2.305   6.511
 7681SOL    HW223943   2.965   2.366   6.438
 7682SOL     OW23944   2.868   7.015   0.571
 7682SOL    HW123945   2.901   6.949   0.638
 7682SOL    HW223946   2.926   0.071   0.572
 7683SOL     OW23947   6.994   2.544   3.667
 7683SOL    HW123948   0.049   2.492   3.638
 7683SOL    HW223949   6.911   2.499   3.633
 7684SOL     OW23950   3.976   2.325   5.760
 7684SOL    HW123951   3.994   2.280   5.672
 7684SOL    HW223952   3.949   2.257   5.828
 7685SOL     OW23953   3.854   4.016   1.453
 7685SOL    HW123954   3.941   4.032   1.405
 7685SOL    HW223955   3.843   4.085   1.524
 7686SOL     OW23956   3.322   1.016   3.366
 7686SOL    HW123957   3.282   1.069   3.291
 7686SOL    HW223958   3.365   0.934   3.328
 7687SOL     OW23959   4.539   4.524   5.986
 7687SOL    HW123960   4.445   4.551   6.005
 7687SOL    HW223961   4.539   4.432   5.945
 7688SOL     OW23962   6.509   0.756   3.118
 7688SOL    HW123963   6.521   0.679   3.180
 7688SOL    HW223964   6.470   0.833   3.169
 7689SOL     OW23965   3.365   6.288   4.784
 7689SOL    HW123966   3.268   6.299   4.805
 7689SOL    HW223967   3.378   6.290   4.685
 7690SOL     OW23968   0.603   5.541   2.143
 7690SOL    HW123969   0.585   5.620   2.202
 7690SOL    HW223970   0.701   5.524   2.139
 7691SOL     OW23971   6.252   3.811   5.901
 7691SOL    HW123972   6.214   3.798   5.809
 7691SOL    HW223973   6.278   3.906   5.913
 7692SOL     OW23974   1.368   6.512   1.184
 7692SOL    HW123975   1.468   6.517   1.189
 7692SOL    HW223976   1.332   6.477   1.271
 7693SOL     OW23977   5.426   1.697   0.470
 7693SOL    HW123978   5.367   1.767   0.429
 7693SOL    HW223979   5.483   1.739   0.540
 7694SOL     OW23980   5.688   4.978   3.533
 7694SOL    HW123981   5.670   5.050   3.466
 7694SOL    HW223982   5.783   4.948   3.525
 7695SOL     OW23983   4.777   0.284   6.676
 7695SOL    HW123984   4.686   0.312   6.707
 7695SOL    HW223985   4.838   0.363   6.673
 7696SOL     OW23986   1.296   4.383   5.579
 7696SOL    HW123987   1.343   4.345   5.500
 7696SOL    HW223988   1.256   4.310   5.634
 7697SOL     OW23989   4.613   1.366   2.315
 7697SOL    HW123990   4.675   1.441   2.292
 7697SOL    HW223991   4.663   1.280   2.319
 7698SOL     OW23992   0.000   2.871   5.627
 7698SOL    HW123993   6.960   2.920   5.685
 7698SOL    HW223994   6.976   2.808   5.567
 7699SOL     OW23995   3.212   4.191   0.139
 7699SOL    HW123996   3.267   4.247   0.202
 7699SOL    HW223997   3.121   4.231   0.130
 7700SOL     OW23998   5.615   6.731   4.270
 7700SOL    HW123999   5.665   6.782   4.201
 7700SOL    HW224000   5.552   6.667   4.225
 7701SOL     OW24001   6.936   2.172   5.269
 7701SOL    HW124002   6.959   2.113   5.192
 7701SOL    HW224003   6.958   2.126   5.355
 7702SOL     OW24004   1.835   6.587   6.594
 7702SOL    HW124005   1.821   6.508   6.534
 7702SOL    HW224006   1.911   6.642   6.559
 7703SOL     OW24007   0.770   2.558   5.542
 7703SOL    HW124008   0.766   2.465   5.579
 7703SOL    HW224009   0.850   2.605   5.579
 7704SOL     OW24010   2.462   4.206   1.197
 7704SOL    HW124011   2.425   4.287   1.153
 7704SOL    HW224012   2.446   4.126   1.139
 7705SOL     OW24013   3.523   4.026   4.639
 7705SOL    HW124014   3.432   4.052   4.606
 7705SOL    HW224015   3.536   4.060   4.733
 7706SOL     OW24016   6.496   0.734   5.471
 7706SOL    HW124017   6.510   0.656   5.532
 7706SOL    HW224018   6.453   0.703   5.386
 7707SOL     OW24019   6.957   5.791   6.677
 7707SOL    HW124020   6.889   5.734   6.631
 7707SOL    HW224021   6.961   5.767   6.774
 7708SOL     OW24022   4.928   1.430   5.149
 7708SOL    HW124023   5.022   1.462   5.138
 7708SOL    HW224024   4.914   1.348   5.093
 7709SOL     OW24025   3.921   2.236   1.711
 7709SOL    HW124026   3.861   2.281   1.777
 7709SOL    HW224027   3.887   2.253   1.618
 7710SOL     OW24028   2.818   1.820   6.795
 7710SOL    HW124029   2.910   1.840   6.762
 7710SOL    HW224030   2.818   1.821   6.895
 7711SOL     OW24031   4.503   5.530   4.597
 7711SOL    HW124032   4.512   5.533   4.497
 7711SOL    HW224033   4.583   5.486   4.636
 7712SOL     OW24034   5.225   4.621   6.648
 7712SOL    HW124035   5.249   4.672   6.731
 7712SOL    HW224036   5.298   4.631   6.581
 7713SOL     OW24037   0.356   5.607   6.150
 7713SOL    HW124038   0.445   5.572   6.121
 7713SOL    HW224039   0.368   5.692   6.200
 7714SOL     OW24040   5.216   3.967   4.736
 7714SOL    HW124041   5.167   3.880   4.743
 7714SOL    HW224042   5.254   3.992   4.826
 7715SOL     OW24043   3.800   1.999   1.888
 7715SOL    HW124044   3.832   2.027   1.797
 7715SOL    HW224045   3.736   2.068   1.923
 7716SOL     OW24046   4.512   2.501   4.297
 7716SOL    HW124047   4.453   2.481   4.218
 7716SOL    HW224048   4.471   2.462   4.380
 7717SOL     OW24049   3.166   0.048   6.397
 7717SOL    HW124050   3.165   0.128   6.456
 7717SOL    HW224051   3.072   0.026   6.370
 7718SOL     OW24052   2.676   6.222   3.880
 7718SOL    HW124053   2.657   6.301   3.939
 7718SOL    HW224054   2.772   6.225   3.852
 7719SOL     OW24055   6.029   2.828   5.261
 7719SOL    HW124056   5.951   2.888   5.249
 7719SOL    HW224057   6.003   2.749   5.317
 7720SOL     OW24058   5.856   5.798   1.796
 7720SOL    HW124059   5.827   5.773   1.888
 7720SOL    HW224060   5.777   5.829   1.743
 7721SOL     OW24061   0.918   5.033   2.796
 7721SOL    HW124062   0.960   4.988   2.717
 7721SOL    HW224063   0.969   5.116   2.818
 7722SOL     OW24064   0.727   6.064   4.460
 7722SOL    HW124065   0.665   5.986   4.456
 7722SOL    HW224066   0.675   6.149   4.447
 7723SOL     OW24067   6.775   1.985   0.534
 7723SOL    HW124068   6.861   1.952   0.575
 7723SOL    HW224069   6.710   1.910   0.530
 7724SOL     OW24070   2.313   6.642   7.016
 7724SOL    HW124071   2.362   6.568   0.037
 7724SOL    HW224072   2.261   6.604   6.940
 7725SOL     OW24073   4.999   3.432   4.470
 7725SOL    HW124074   5.046   3.359   4.420
 7725SOL    HW224075   5.033   3.435   4.564
 7726SOL     OW24076   5.098   4.378   2.970
 7726SOL    HW124077   5.173   4.315   2.950
 7726SOL    HW224078   5.124   4.441   3.043
 7727SOL     OW24079   5.378   3.267   2.417
 7727SOL    HW124080   5.316   3.247   2.342
 7727SOL    HW224081   5.354   3.356   2.457
 7728SOL     OW24082   2.279   2.764   2.695
 7728SOL    HW124083   2.304   2.756   2.791
 7728SOL    HW224084   2.184   2.736   2.682
 7729SOL     OW24085   5.114   2.225   6.923
 7729SOL    HW124086   5.205   2.191   6.947
 7729SOL    HW224087   5.070   2.263   7.004
 7730SOL     OW24088   4.485   6.992   2.223
 7730SOL    HW124089   4.482   0.054   2.271
 7730SOL    HW224090   4.525   6.922   2.283
 7731SOL     OW24091   0.266   1.527   4.222
 7731SOL    HW124092   0.215   1.573   4.149
 7731SOL    HW224093   0.306   1.595   4.283
 7732SOL     OW24094   4.385   4.975   0.752
 7732SOL    HW124095   4.319   5.012   0.817
 7732SOL    HW224096   4.353   4.991   0.658
 7733SOL     OW24097   2.975   6.210   0.449
 7733SOL    HW124098   2.997   6.300   0.413
 7733SOL    HW224099   2.934   6.154   0.377
 7734SOL     OW24100   1.528   3.007   2.284
 7734SOL    HW124101   1.501   2.987   2.378
 7734SOL    HW224102   1.470   3.080   2.247
 7735SOL     OW24103   4.955   4.268   0.881
 7735SOL    HW124104   4.872   4.314   0.912
 7735SOL    HW224105   5.031   4.288   0.943
 7736SOL     OW24106   5.870   4.360   6.233
 7736SOL    HW124107   5.872   4.443   6.177
 7736SOL    HW224108   5.856   4.386   6.329
 7737SOL     OW24109   4.586   2.652   0.321
 7737SOL    HW124110   4.548   2.562   0.343
 7737SOL    HW224111   4.516   2.722   0.337
 7738SOL     OW24112   2.418   5.128   6.928
 7738SOL    HW124113   2.358   5.093   7.000
 7738SOL    HW224114   2.364   5.156   6.849
 7739SOL     OW24115   5.145   3.841   2.695
 7739SOL    HW124116   5.237   3.854   2.659
 7739SOL    HW224117   5.145   3.854   2.794
 7740SOL     OW24118   0.248   6.222   3.956
 7740SOL    HW124119   0.300   6.297   3.915
 7740SOL    HW224120   0.184   6.185   3.889
 7741SOL     OW24121   3.241   5.509   4.470
 7741SOL    HW124122   3.149   5.514   4.510
 7741SOL    HW224123   3.235   5.482   4.374
 7742SOL     OW24124   6.917   0.911   4.354
 7742SOL    HW124125   6.859   0.958   4.288
 7742SOL    HW224126   6.976   0.977   4.401
 7743SOL     OW24127   4.822   3.194   2.401
 7743SOL    HW124128   4.735   3.233   2.371
 7743SOL    HW224129   4.805   3.106   2.445
 7744SOL     OW24130   0.253   6.390   4.821
 7744SOL    HW124131   0.254   6.298   4.860
 7744SOL    HW224132   0.318   6.395   4.745
 7745SOL     OW24133   5.031   3.374   5.284
 7745SOL    HW124134   4.994   3.362   5.192
 7745SOL    HW224135   5.129   3.355   5.283
 7746SOL     OW24136   1.892   0.699   6.536
 7746SOL    HW124137   1.969   0.635   6.531
 7746SOL    HW224138   1.807   0.647   6.534
 7747SOL     OW24139   4.937   5.278   0.570
 7747SOL    HW124140   4.958   5.201   0.509
 7747SOL    HW224141   4.990   5.270   0.654
 7748SOL     OW24142   2.142   4.354   6.190
 7748SOL    HW124143   2.099   4.335   6.102
 7748SOL    HW224144   2.076   4.398   6.251
 7749SOL     OW24145   5.640   3.181   6.060
 7749SOL    HW124146   5.673   3.102   6.112
 7749SOL    HW224147   5.669   3.265   6.107
 7750SOL     OW24148   4.469   5.557   2.566
 7750SOL    HW124149   4.542   5.588   2.626
 7750SOL    HW224150   4.423   5.478   2.607
 7751SOL     OW24151   0.514   2.734   1.212
 7751SOL    HW124152   0.508   2.678   1.295
 7751SOL    HW224153   0.559   2.681   1.140
 7752SOL     OW24154   3.924   1.196   3.195
 7752SOL    HW124155   3.936   1.114   3.138
 7752SOL    HW224156   4.004   1.206   3.255
 7753SOL     OW24157   4.084   1.096   5.129
 7753SOL    HW124158   4.084   1.178   5.187
 7753SOL    HW224159   4.143   1.026   5.170
 7754SOL     OW24160   4.996   5.500   1.642
 7754SOL    HW124161   4.988   5.461   1.550
 7754SOL    HW224162   5.050   5.584   1.638
 7755SOL     OW24163   0.142   4.662   5.416
 7755SOL    HW124164   0.241   4.662   5.424
 7755SOL    HW224165   0.110   4.567   5.407
 7756SOL     OW24166   2.226   3.979   2.226
 7756SOL    HW124167   2.131   4.005   2.245
 7756SOL    HW224168   2.287   4.027   2.289
 7757SOL     OW24169   6.995   4.272   0.562
 7757SOL    HW124170   6.898   4.265   0.538
 7757SOL    HW224171   7.005   4.273   0.661
 7758SOL     OW24172   0.679   1.288   5.907
 7758SOL    HW124173   0.673   1.252   5.814
 7758SOL    HW224174   0.643   1.381   5.909
 7759SOL     OW24175   3.632   1.328   2.565
 7759SOL    HW124176   3.679   1.249   2.606
 7759SOL    HW224177   3.654   1.332   2.468
 7760SOL     OW24178   4.952   3.251   6.814
 7760SOL    HW124179   4.896   3.334   6.809
 7760SOL    HW224180   4.975   3.220   6.722
 7761SOL     OW24181   5.532   5.272   3.290
 7761SOL    HW124182   5.531   5.181   3.250
 7761SOL    HW224183   5.625   5.295   3.318
 7762SOL     OW24184   5.042   2.020   2.030
 7762SOL    HW124185   4.991   2.104   2.009
 7762SOL    HW224186   5.124   2.043   2.083
 7763SOL     OW24187   2.233   0.698   3.263
 7763SOL    HW124188   2.313   0.645   3.291
 7763SOL    HW224189   2.178   0.719   3.344
 7764SOL     OW24190   3.816   5.242   5.600
 7764SOL    HW124191   3.836   5.211   5.507
 7764SOL    HW224192   3.790   5.339   5.598
 7765SOL     OW24193   5.441   3.922   4.584
 7765SOL    HW124194   5.447   3.939   4.485
 7765SOL    HW224195   5.350   3.945   4.616
 7766SOL     OW24196   6.594   2.218   6.294
 7766SOL    HW124197   6.581   2.200   6.391
 7766SOL    HW224198   6.505   2.218   6.248
 7767SOL     OW24199   4.292   0.149   4.025
 7767SOL    HW124200   4.346   0.156   3.941
 7767SOL    HW224201   4.323   0.069   4.078
 7768SOL     OW24202   3.096   5.735   4.300
 7768SOL    HW124203   3.112   5.636   4.292
 7768SOL    HW224204   3.038   5.766   4.225
 7769SOL     OW24205   3.569   2.525   6.871
 7769SOL    HW124206   3.564   2.538   6.970
 7769SOL    HW224207   3.552   2.612   6.825
 7770SOL     OW24208   1.260   3.795   3.747
 7770SOL    HW124209   1.213   3.731   3.808
 7770SOL    HW224210   1.310   3.744   3.677
 7771SOL     OW24211   1.028   3.648   5.447
 7771SOL    HW124212   1.077   3.578   5.498
 7771SOL    HW224213   1.073   3.737   5.458
 7772SOL     OW24214   5.322   6.066   1.716
 7772SOL    HW124215   5.342   5.983   1.768
 7772SOL    HW224216   5.357   6.057   1.623
 7773SOL     OW24217   2.871   0.303   6.667
 7773SOL    HW124218   2.801   0.250   6.619
 7773SOL    HW224219   2.837   0.395   6.684
 7774SOL     OW24220   5.064   1.170   3.003
 7774SOL    HW124221   5.027   1.239   2.940
 7774SOL    HW224222   5.062   1.205   3.096
 7775SOL     OW24223   3.366   1.583   0.894
 7775SOL    HW124224   3.272   1.567   0.925
 7775SOL    HW224225   3.369   1.669   0.843
 7776SOL     OW24226   3.424   0.899   4.125
 7776SOL    HW124227   3.357   0.912   4.052
 7776SOL    HW224228   3.417   0.807   4.162
 7777SOL     OW24229   5.150   4.912   3.024
 7777SOL    HW124230   5.052   4.909   3.043
 7777SOL    HW224231   5.176   5.006   3.002
 7778SOL     OW24232   1.559   4.255   2.345
 7778SOL    HW124233   1.580   4.352   2.335
 7778SOL    HW224234   1.480   4.243   2.405
 7779SOL     OW24235   3.149   6.352   2.275
 7779SOL    HW124236   3.205   6.368   2.194
 7779SOL    HW224237   3.088   6.275   2.258
 7780SOL     OW24238   6.803   5.570   4.158
 7780SOL    HW124239   6.748   5.620   4.091
 7780SOL    HW224240   6.845   5.635   4.221
 7781SOL     OW24241   2.224   2.593   0.458
 7781SOL    HW124242   2.204   2.497   0.439
 7781SOL    HW224243   2.213   2.647   0.375
 7782SOL     OW24244   6.015   3.890   4.462
 7782SOL    HW124245   6.024   3.853   4.554
 7782SOL    HW224246   5.918   3.903   4.440
 7783SOL     OW24247   1.370   6.314   4.164
 7783SOL    HW124248   1.458   6.352   4.195
 7783SOL    HW224249   1.295   6.368   4.202
 7784SOL     OW24250   1.796   2.484   2.966
 7784SOL    HW124251   1.773   2.574   3.002
 7784SOL    HW224252   1.874   2.446   3.018
 7785SOL     OW24253   6.574   6.338   2.604
 7785SOL    HW124254   6.672   6.341   2.621
 7785SOL    HW224255   6.545   6.243   2.592
 7786SOL     OW24256   5.049   1.033   6.495
 7786SOL    HW124257   4.978   1.038   6.565
 7786SOL    HW224258   5.115   1.107   6.510
 7787SOL     OW24259   1.205   3.017   1.170
 7787SOL    HW124260   1.223   2.953   1.096
 7787SOL    HW224261   1.277   3.008   1.240
 7788SOL     OW24262   0.862   3.988   2.107
 7788SOL    HW124263   0.806   4.030   2.035
 7788SOL    HW224264   0.836   4.026   2.195
 7789SOL     OW24265   3.621   0.926   5.905
 7789SOL    HW124266   3.589   0.913   5.998
 7789SOL    HW224267   3.543   0.937   5.844
 7790SOL     OW24268   3.813   5.006   4.229
 7790SOL    HW124269   3.874   4.975   4.303
 7790SOL    HW224270   3.778   5.097   4.252
 7791SOL     OW24271   2.335   6.135   1.897
 7791SOL    HW124272   2.345   6.071   1.820
 7791SOL    HW224273   2.399   6.110   1.969
 7792SOL     OW24274   1.377   1.215   2.432
 7792SOL    HW124275   1.342   1.283   2.497
 7792SOL    HW224276   1.459   1.251   2.388
 7793SOL     OW24277   4.696   1.784   0.924
 7793SOL    HW124278   4.626   1.787   0.995
 7793SOL    HW224279   4.725   1.689   0.910
 7794SOL     OW24280   1.478   0.936   2.950
 7794SOL    HW124281   1.487   1.032   2.923
 7794SOL    HW224282   1.537   0.918   3.028
 7795SOL     OW24283   3.852   3.842   1.230
 7795SOL    HW124284   3.929   3.778   1.236
 7795SOL    HW224285   3.849   3.899   1.312
 7796SOL     OW24286   4.197   1.505   0.482
 7796SOL    HW124287   4.210   1.576   0.551
 7796SOL    HW224288   4.209   1.415   0.524
 7797SOL     OW24289   1.381   6.406   3.102
 7797SOL    HW124290   1.283   6.425   3.113
 7797SOL    HW224291   1.425   6.482   3.054
 7798SOL     OW24292   2.007   3.460   1.129
 7798SOL    HW124293   1.957   3.409   1.059
 7798SOL    HW224294   2.086   3.505   1.088
 7799SOL     OW24295   2.359   6.514   3.843
 7799SOL    HW124296   2.342   6.420   3.873
 7799SOL    HW224297   2.450   6.520   3.803
 7800SOL     OW24298   1.556   1.368   2.582
 7800SOL    HW124299   1.529   1.462   2.599
 7800SOL    HW224300   1.614   1.363   2.501
 7801SOL     OW24301   1.921   1.977   1.041
 7801SOL    HW124302   1.975   2.018   1.115
 7801SOL    HW224303   1.839   1.935   1.080
 7802SOL     OW24304   6.061   4.910   4.116
 7802SOL    HW124305   6.022   4.950   4.199
 7802SOL    HW224306   5.987   4.877   4.057
 7803SOL     OW24307   3.259   2.456   6.383
 7803SOL    HW124308   3.297   2.501   6.464
 7803SOL    HW224309   3.183   2.510   6.347
 7804SOL     OW24310   2.869   1.745   5.297
 7804SOL    HW124311   2.907   1.660   5.260
 7804SOL    HW224312   2.834   1.801   5.223
 7805SOL     OW24313   5.520   2.979   6.879
 7805SOL    HW124314   5.603   3.028   6.906
 7805SOL    HW224315   5.461   3.041   6.827
 7806SOL     OW24316   6.110   2.080   5.253
 7806SOL    HW124317   6.143   2.029   5.173
 7806SOL    HW224318   6.018   2.114   5.234
 7807SOL     OW24319   1.741   5.424   5.867
 7807SOL    HW124320   1.675   5.353   5.894
 7807SOL    HW224321   1.803   5.386   5.798
 7808SOL     OW24322   0.249   3.119   4.129
 7808SOL    HW124323   0.237   3.065   4.211
 7808SOL    HW224324   0.252   3.216   4.153
 7809SOL     OW24325   4.540   6.850   2.630
 7809SOL    HW124326   4.531   6.869   2.728
 7809SOL    HW224327   4.627   6.805   2.612
 7810SOL     OW24328   1.983   6.924   5.871
 7810SOL    HW124329   1.996   7.016   5.908
 7810SOL    HW224330   1.993   6.927   5.771
 7811SOL     OW24331   1.307   5.885   3.167
 7811SOL    HW124332   1.318   5.846   3.076
 7811SOL    HW224333   1.354   5.973   3.172
 7812SOL     OW24334   2.949   1.175   5.711
 7812SOL    HW124335   3.009   1.160   5.633
 7812SOL    HW224336   2.913   1.269   5.707
 7813SOL     OW24337   5.498   1.486   0.912
 7813SOL    HW124338   5.438   1.551   0.865
 7813SOL    HW224339   5.593   1.515   0.901
 7814SOL     OW24340   6.394   2.760   1.806
 7814SOL    HW124341   6.478   2.713   1.776
 7814SOL    HW224342   6.415   2.855   1.828
 7815SOL     OW24343   4.593   5.149   3.612
 7815SOL    HW124344   4.645   5.083   3.666
 7815SOL    HW224345   4.525   5.101   3.556
 7816SOL     OW24346   1.299   1.324   5.106
 7816SOL    HW124347   1.372   1.352   5.044
 7816SOL    HW224348   1.241   1.402   5.128
 7817SOL     OW24349   4.312   1.423   6.502
 7817SOL    HW124350   4.295   1.390   6.410
 7817SOL    HW224351   4.323   1.523   6.501
 7818SOL     OW24352   5.755   1.043   3.026
 7818SOL    HW124353   5.836   0.992   3.056
 7818SOL    HW224354   5.717   1.094   3.104
 7819SOL     OW24355   2.390   2.840   4.525
 7819SOL    HW124356   2.459   2.839   4.597
 7819SOL    HW224357   2.417   2.776   4.452
 7820SOL     OW24358   1.663   0.982   5.884
 7820SOL    HW124359   1.636   1.040   5.961
 7820SOL    HW224360   1.598   0.992   5.809
 7821SOL     OW24361   3.625   5.752   0.188
 7821SOL    HW124362   3.645   5.812   0.111
 7821SOL    HW224363   3.680   5.777   0.266
 7822SOL     OW24364   1.000   1.223   4.614
 7822SOL    HW124365   1.098   1.220   4.635
 7822SOL    HW224366   0.950   1.261   4.692
 7823SOL     OW24367   2.913   2.860   6.131
 7823SOL    HW124368   2.822   2.824   6.113
 7823SOL    HW224369   2.910   2.960   6.130
 7824SOL     OW24370   5.971   4.022   2.797
 7824SOL    HW124371   5.979   4.080   2.716
 7824SOL    HW224372   6.034   3.944   2.789
 7825SOL     OW24373   3.542   2.995   3.031
 7825SOL    HW124374   3.641   3.001   3.048
 7825SOL    HW224375   3.493   3.019   3.115
 7826SOL     OW24376   6.453   0.044   0.947
 7826SOL    HW124377   6.498   6.996   0.996
 7826SOL    HW224378   6.478   0.040   0.850
 7827SOL     OW24379   4.573   3.426   0.239
 7827SOL    HW124380   4.484   3.397   0.274
 7827SOL    HW224381   4.620   3.481   0.308
 7828SOL     OW24382   1.286   6.467   0.924
 7828SOL    HW124383   1.306   6.487   1.020
 7828SOL    HW224384   1.346   6.522   0.866
 7829SOL     OW24385   3.559   3.831   2.704
 7829SOL    HW124386   3.557   3.842   2.804
 7829SOL    HW224387   3.625   3.895   2.665
 7830SOL     OW24388   6.450   4.029   0.661
 7830SOL    HW124389   6.511   4.020   0.739
 7830SOL    HW224390   6.487   3.979   0.582
 7831SOL     OW24391   1.989   2.084   0.607
 7831SOL    HW124392   2.027   2.074   0.516
 7831SOL    HW224393   2.023   2.169   0.648
 7832SOL     OW24394   3.484   2.577   6.123
 7832SOL    HW124395   3.576   2.538   6.132
 7832SOL    HW224396   3.469   2.606   6.028
 7833SOL     OW24397   6.734   6.811   1.801
 7833SOL    HW124398   6.748   6.712   1.801
 7833SOL    HW224399   6.822   6.857   1.796
 7834SOL     OW24400   5.449   1.284   1.101
 7834SOL    HW124401   5.364   1.300   1.152
 7834SOL    HW224402   5.460   1.354   1.031
 7835SOL     OW24403   2.279   2.077   4.391
 7835SOL    HW124404   2.286   2.114   4.484
 7835SOL    HW224405   2.293   2.150   4.325
 7836SOL     OW24406   2.116   0.696   6.814
 7836SOL    HW124407   2.126   0.639   6.732
 7836SOL    HW224408   2.022   0.689   6.848
 7837SOL     OW24409   5.702   5.694   2.428
 7837SOL    HW124410   5.655   5.628   2.369
 7837SOL    HW224411   5.758   5.755   2.371
 7838SOL     OW24412   3.648   5.856   3.907
 7838SOL    HW124413   3.674   5.769   3.866
 7838SOL    HW224414   3.613   5.918   3.837
 7839SOL     OW24415   6.825   4.890   3.458
 7839SOL    HW124416   6.798   4.873   3.363
 7839SOL    HW224417   6.772   4.831   3.519
 7840SOL     OW24418   4.574   3.320   5.756
 7840SOL    HW124419   4.507   3.313   5.829
 7840SOL    HW224420   4.635   3.241   5.758
 7841SOL     OW24421   0.985   2.659   5.823
 7841SOL    HW124422   0.991   2.583   5.758
 7841SOL    HW224423   1.064   2.720   5.810
 7842SOL     OW24424   2.632   0.967   2.812
 7842SOL    HW124425   2.624   0.934   2.718
 7842SOL    HW224426   2.581   0.905   2.873
 7843SOL     OW24427   0.207   2.658   2.175
 7843SOL    HW124428   0.166   2.656   2.266
 7843SOL    HW224429   0.306   2.644   2.183
 7844SOL     OW24430   4.247   2.350   3.749
 7844SOL    HW124431   4.159   2.358   3.702
 7844SOL    HW224432   4.316   2.314   3.686
 7845SOL     OW24433   0.042   0.782   4.063
 7845SOL    HW124434   0.123   0.724   4.061
 7845SOL    HW224435   0.070   0.878   4.075
 7846SOL     OW24436   4.520   0.453   2.479
 7846SOL    HW124437   4.620   0.457   2.479
 7846SOL    HW224438   4.483   0.543   2.459
 7847SOL     OW24439   0.262   6.953   6.962
 7847SOL    HW124440   0.349   6.999   6.979
 7847SOL    HW224441   0.247   6.945   6.864
 7848SOL     OW24442   3.579   3.976   1.492
 7848SOL    HW124443   3.679   3.973   1.481
 7848SOL    HW224444   3.553   3.926   1.575
 7849SOL     OW24445   5.296   4.419   4.875
 7849SOL    HW124446   5.238   4.493   4.908
 7849SOL    HW224447   5.376   4.457   4.829
 7850SOL     OW24448   0.572   2.831   4.798
 7850SOL    HW124449   0.557   2.774   4.878
 7850SOL    HW224450   0.639   2.787   4.738
 7851SOL     OW24451   3.706   6.594   1.018
 7851SOL    HW124452   3.608   6.614   1.013
 7851SOL    HW224453   3.725   6.538   1.098
 7852SOL     OW24454   2.795   0.060   0.136
 7852SOL    HW124455   2.747   0.129   0.190
 7852SOL    HW224456   2.794   0.086   0.039
 7853SOL     OW24457   2.071   2.072   0.340
 7853SOL    HW124458   2.155   2.102   0.296
 7853SOL    HW224459   1.994   2.081   0.277
 7854SOL     OW24460   4.115   3.734   4.191
 7854SOL    HW124461   4.130   3.808   4.257
 7854SOL    HW224462   4.070   3.771   4.110
 7855SOL     OW24463   2.829   0.255   4.789
 7855SOL    HW124464   2.795   0.287   4.701
 7855SOL    HW224465   2.928   0.272   4.795
 7856SOL     OW24466   2.897   3.292   6.884
 7856SOL    HW124467   2.822   3.358   6.892
 7856SOL    HW224468   2.863   3.208   6.842
 7857SOL     OW24469   0.455   3.053   4.730
 7857SOL    HW124470   0.514   3.088   4.657
 7857SOL    HW224471   0.488   2.964   4.760
 7858SOL     OW24472   5.319   3.320   2.861
 7858SOL    HW124473   5.262   3.257   2.914
 7858SOL    HW224474   5.263   3.397   2.829
 7859SOL     OW24475   0.412   6.836   0.741
 7859SOL    HW124476   0.347   6.900   0.700
 7859SOL    HW224477   0.411   6.846   0.841
 7860SOL     OW24478   4.944   6.421   1.073
 7860SOL    HW124479   5.039   6.411   1.044
 7860SOL    HW224480   4.890   6.460   0.999
 7861SOL     OW24481   5.810   3.646   0.399
 7861SOL    HW124482   5.785   3.689   0.486
 7861SOL    HW224483   5.728   3.613   0.353
 7862SOL     OW24484   3.130   4.731   1.658
 7862SOL    HW124485   3.092   4.664   1.722
 7862SOL    HW224486   3.150   4.816   1.707
 7863SOL     OW24487   4.336   6.162   2.831
 7863SOL    HW124488   4.378   6.145   2.742
 7863SOL    HW224489   4.387   6.114   2.902
 7864SOL     OW24490   1.225   5.604   5.420
 7864SOL    HW124491   1.165   5.553   5.481
 7864SOL    HW224492   1.183   5.692   5.397
 7865SOL     OW24493   4.569   0.356   3.327
 7865SOL    HW124494   4.509   0.369   3.248
 7865SOL    HW224495   4.534   0.408   3.404
 7866SOL     OW24496   2.776   2.214   5.983
 7866SOL    HW124497   2.875   2.200   5.979
 7866SOL    HW224498   2.736   2.191   5.895
 7867SOL     OW24499   6.011   3.315   1.334
 7867SOL    HW124500   6.002   3.221   1.366
 7867SOL    HW224501   5.936   3.370   1.371
 7868SOL     OW24502   4.522   0.047   0.296
 7868SOL    HW124503   4.433   0.080   0.327
 7868SOL    HW224504   4.571   0.121   0.250
 7869SOL     OW24505   6.155   1.661   4.188
 7869SOL    HW124506   6.167   1.724   4.111
 7869SOL    HW224507   6.244   1.629   4.219
 7870SOL     OW24508   6.582   0.637   2.883
 7870SOL    HW124509   6.566   0.673   2.975
 7870SOL    HW224510   6.679   0.645   2.860
 7871SOL     OW24511   5.417   3.072   4.393
 7871SOL    HW124512   5.441   3.102   4.301
 7871SOL    HW224513   5.489   3.011   4.428
 7872SOL     OW24514   7.007   4.272   4.098
 7872SOL    HW124515   0.032   4.200   4.051
 7872SOL    HW224516   6.929   4.301   4.042
 7873SOL     OW24517   6.913   5.519   4.544
 7873SOL    HW124518   6.849   5.497   4.617
 7873SOL    HW224519   7.005   5.529   4.581
 7874SOL     OW24520   6.005   0.075   0.090
 7874SOL    HW124521   6.070   0.124   0.032
 7874SOL    HW224522   6.055   0.014   0.151
 7875SOL     OW24523   4.759   3.147   0.203
 7875SOL    HW124524   4.846   3.143   0.153
 7875SOL    HW224525   4.700   3.216   0.162
 7876SOL     OW24526   0.502   1.790   4.819
 7876SOL    HW124527   0.567   1.865   4.830
 7876SOL    HW224528   0.452   1.802   4.733
 7877SOL     OW24529   6.097   3.770   2.529
 7877SOL    HW124530   6.049   3.717   2.460
 7877SOL    HW224531   6.196   3.764   2.515
 7878SOL     OW24532   3.576   4.106   1.247
 7878SOL    HW124533   3.595   4.031   1.311
 7878SOL    HW224534   3.579   4.071   1.153
 7879SOL     OW24535   6.831   1.065   5.010
 7879SOL    HW124536   6.904   1.072   4.942
 7879SOL    HW224537   6.818   0.970   5.037
 7880SOL     OW24538   1.739   6.125   6.425
 7880SOL    HW124539   1.642   6.152   6.421
 7880SOL    HW224540   1.749   6.050   6.491
 7881SOL     OW24541   0.992   5.519   4.511
 7881SOL    HW124542   1.005   5.460   4.591
 7881SOL    HW224543   0.904   5.567   4.518
 7882SOL     OW24544   1.558   4.776   1.457
 7882SOL    HW124545   1.521   4.759   1.548
 7882SOL    HW224546   1.568   4.874   1.443
 7883SOL     OW24547   3.516   1.871   2.292
 7883SOL    HW124548   3.606   1.875   2.248
 7883SOL    HW224549   3.491   1.962   2.325
 7884SOL     OW24550   1.008   2.872   4.487
 7884SOL    HW124551   1.053   2.794   4.444
 7884SOL    HW224552   0.985   2.850   4.582
 7885SOL     OW24553   5.963   5.467   2.348
 7885SOL    HW124554   5.965   5.503   2.441
 7885SOL    HW224555   6.004   5.375   2.347
 7886SOL     OW24556   4.002   4.765   2.653
 7886SOL    HW124557   4.060   4.743   2.575
 7886SOL    HW224558   4.029   4.708   2.731
 7887SOL     OW24559   0.768   3.281   1.025
 7887SOL    HW124560   0.846   3.218   1.026
 7887SOL    HW224561   0.689   3.236   1.068
 7888SOL     OW24562   6.979   1.426   5.063
 7888SOL    HW124563   7.004   1.337   5.024
 7888SOL    HW224564   0.031   1.488   5.057
 7889SOL     OW24565   5.352   5.060   0.425
 7889SOL    HW124566   5.366   5.156   0.402
 7889SOL    HW224567   5.318   5.053   0.519
 7890SOL     OW24568   2.192   3.050   3.198
 7890SOL    HW124569   2.099   3.024   3.172
 7890SOL    HW224570   2.224   3.125   3.140
 7891SOL     OW24571   6.427   1.342   4.607
 7891SOL    HW124572   6.466   1.434   4.609
 7891SOL    HW224573   6.327   1.348   4.604
 7892SOL     OW24574   1.402   1.842   4.891
 7892SOL    HW124575   1.403   1.788   4.807
 7892SOL    HW224576   1.457   1.924   4.879
 7893SOL     OW24577   5.851   6.412   0.927
 7893SOL    HW124578   5.889   6.502   0.905
 7893SOL    HW224579   5.917   6.361   0.984
 7894SOL     OW24580   3.178   0.939   6.283
 7894SOL    HW124581   3.101   1.000   6.267
 7894SOL    HW224582   3.164   0.854   6.234
 7895SOL     OW24583   6.359   6.368   3.020
 7895SOL    HW124584   6.399   6.452   3.054
 7895SOL    HW224585   6.293   6.333   3.087
 7896SOL     OW24586   2.537   1.798   0.422
 7896SOL    HW124587   2.478   1.877   0.438
 7896SOL    HW224588   2.542   1.743   0.506
 7897SOL     OW24589   4.756   1.381   1.150
 7897SOL    HW124590   4.715   1.328   1.076
 7897SOL    HW224591   4.701   1.372   1.233
 7898SOL     OW24592   4.811   6.298   3.227
 7898SOL    HW124593   4.794   6.283   3.130
 7898SOL    HW224594   4.901   6.339   3.240
 7899SOL     OW24595   5.885   4.482   3.077
 7899SOL    HW124596   5.834   4.500   2.992
 7899SOL    HW224597   5.846   4.403   3.123
 7900SOL     OW24598   0.278   3.614   0.287
 7900SOL    HW124599   0.238   3.524   0.306
 7900SOL    HW224600   0.228   3.658   0.213
 7901SOL     OW24601   0.433   2.245   0.341
 7901SOL    HW124602   0.494   2.323   0.352
 7901SOL    HW224603   0.381   2.230   0.425
 7902SOL     OW24604   1.475   0.206   1.163
 7902SOL    HW124605   1.400   0.227   1.226
 7902SOL    HW224606   1.555   0.176   1.215
 7903SOL     OW24607   3.247   2.029   5.518
 7903SOL    HW124608   3.322   2.011   5.582
 7903SOL    HW224609   3.276   2.098   5.452
 7904SOL     OW24610   4.883   3.078   2.906
 7904SOL    HW124611   4.899   3.170   2.942
 7904SOL    HW224612   4.908   3.076   2.809
 7905SOL     OW24613   6.028   2.041   1.528
 7905SOL    HW124614   6.046   1.991   1.444
 7905SOL    HW224615   6.098   2.020   1.596
 7906SOL     OW24616   0.529   5.554   6.508
 7906SOL    HW124617   0.469   5.621   6.465
 7906SOL    HW224618   0.518   5.559   6.608
 7907SOL     OW24619   6.131   6.287   3.173
 7907SOL    HW124620   6.072   6.218   3.216
 7907SOL    HW224621   6.090   6.377   3.185
 7908SOL     OW24622   2.182   0.462   6.203
 7908SOL    HW124623   2.196   0.374   6.249
 7908SOL    HW224624   2.265   0.487   6.154
 7909SOL     OW24625   6.742   3.255   1.411
 7909SOL    HW124626   6.784   3.346   1.418
 7909SOL    HW224627   6.812   3.185   1.428
 7910SOL     OW24628   1.769   4.891   4.939
 7910SOL    HW124629   1.692   4.954   4.940
 7910SOL    HW224630   1.770   4.838   5.024
 7911SOL     OW24631   5.894   4.659   5.728
 7911SOL    HW124632   5.843   4.582   5.690
 7911SOL    HW224633   5.979   4.626   5.769
 7912SOL     OW24634   5.775   5.870   0.695
 7912SOL    HW124635   5.869   5.850   0.723
 7912SOL    HW224636   5.748   5.960   0.729
 7913SOL     OW24637   1.585   5.050   6.675
 7913SOL    HW124638   1.652   5.091   6.736
 7913SOL    HW224639   1.579   5.103   6.590
 7914SOL     OW24640   0.998   6.939   4.551
 7914SOL    HW124641   0.969   6.965   4.643
 7914SOL    HW224642   0.970   7.010   4.486
 7915SOL     OW24643   2.908   5.031   2.174
 7915SOL    HW124644   2.811   5.045   2.192
 7915SOL    HW224645   2.923   4.936   2.146
 7916SOL     OW24646   0.799   6.924   3.587
 7916SOL    HW124647   0.705   6.889   3.586
 7916SOL    HW224648   0.854   6.870   3.650
 7917SOL     OW24649   4.883   2.165   2.621
 7917SOL    HW124650   4.867   2.255   2.581
 7917SOL    HW224651   4.804   2.107   2.605
 7918SOL     OW24652   1.918   2.973   2.774
 7918SOL    HW124653   1.949   3.029   2.697
 7918SOL    HW224654   1.826   2.940   2.756
 7919SOL     OW24655   0.991   6.597   4.820
 7919SOL    HW124656   0.935   6.603   4.737
 7919SOL    HW224657   1.053   6.675   4.824
 7920SOL     OW24658   5.379   0.107   1.343
 7920SOL    HW124659   5.456   0.164   1.317
 7920SOL    HW224660   5.330   0.077   1.261
 7921SOL     OW24661   5.296   2.998   0.536
 7921SOL    HW124662   5.352   2.981   0.455
 7921SOL    HW224663   5.206   2.956   0.524
 7922SOL     OW24664   2.451   0.065   2.681
 7922SOL    HW124665   2.525   0.088   2.617
 7922SOL    HW224666   2.419   0.149   2.726
 7923SOL     OW24667   4.514   0.645   0.559
 7923SOL    HW124668   4.602   0.677   0.594
 7923SOL    HW224669   4.495   0.553   0.593
 7924SOL     OW24670   5.745   6.123   0.111
 7924SOL    HW124671   5.812   6.051   0.094
 7924SOL    HW224672   5.700   6.107   0.198
 7925SOL     OW24673   1.327   4.648   6.277
 7925SOL    HW124674   1.250   4.584   6.278
 7925SOL    HW224675   1.340   4.683   6.185
 7926SOL     OW24676   5.373   6.006   5.410
 7926SOL    HW124677   5.390   6.055   5.496
 7926SOL    HW224678   5.396   5.910   5.422
 7927SOL     OW24679   4.642   6.933   3.528
 7927SOL    HW124680   4.646   6.862   3.598
 7927SOL    HW224681   4.683   6.900   3.443
 7928SOL     OW24682   5.837   2.271   3.898
 7928SOL    HW124683   5.822   2.370   3.897
 7928SOL    HW224684   5.795   2.231   3.979
 7929SOL     OW24685   4.760   4.114   5.799
 7929SOL    HW124686   4.854   4.098   5.769
 7929SOL    HW224687   4.754   4.099   5.898
 7930SOL     OW24688   4.172   5.725   0.023
 7930SOL    HW124689   4.215   5.637   0.046
 7930SOL    HW224690   4.217   5.798   0.073
 7931SOL     OW24691   4.976   1.159   0.865
 7931SOL    HW124692   5.048   1.122   0.924
 7931SOL    HW224693   5.016   1.228   0.804
 7932SOL     OW24694   1.167   3.748   1.134
 7932SOL    HW124695   1.212   3.658   1.139
 7932SOL    HW224696   1.128   3.771   1.223
 7933SOL     OW24697   1.205   1.890   0.041
 7933SOL    HW124698   1.205   1.989   0.052
 7933SOL    HW224699   1.146   1.848   0.110
 7934SOL     OW24700   6.949   5.299   1.004
 7934SOL    HW124701   6.946   5.201   0.988
 7934SOL    HW224702   6.939   5.317   1.102
 7935SOL     OW24703   6.752   3.194   3.018
 7935SOL    HW124704   6.675   3.173   3.079
 7935SOL    HW224705   6.786   3.109   2.978
 7936SOL     OW24706   2.428   6.492   3.418
 7936SOL    HW124707   2.487   6.564   3.382
 7936SOL    HW224708   2.484   6.420   3.458
 7937SOL     OW24709   4.398   1.197   1.076
 7937SOL    HW124710   4.379   1.280   1.129
 7937SOL    HW224711   4.484   1.156   1.107
 7938SOL     OW24712   2.402   6.999   3.119
 7938SOL    HW124713   2.432   6.973   3.211
 7938SOL    HW224714   2.435   6.931   3.053
 7939SOL     OW24715   1.962   0.581   2.610
 7939SOL    HW124716   2.007   0.653   2.664
 7939SOL    HW224717   1.900   0.529   2.668
 7940SOL     OW24718   6.097   1.660   5.023
 7940SOL    HW124719   6.066   1.657   4.928
 7940SOL    HW224720   6.081   1.571   5.066
 7941SOL     OW24721   3.469   0.005   0.870
 7941SOL    HW124722   3.478   0.041   0.963
 7941SOL    HW224723   3.560   7.015   0.831
 7942SOL     OW24724   1.366   4.283   0.583
 7942SOL    HW124725   1.405   4.250   0.497
 7942SOL    HW224726   1.289   4.343   0.564
 7943SOL     OW24727   1.431   6.202   6.355
 7943SOL    HW124728   1.337   6.173   6.372
 7943SOL    HW224729   1.452   6.281   6.413
 7944SOL     OW24730   1.813   1.782   1.504
 7944SOL    HW124731   1.714   1.793   1.505
 7944SOL    HW224732   1.837   1.695   1.462
 7945SOL     OW24733   6.426   3.307   2.756
 7945SOL    HW124734   6.465   3.267   2.673
 7945SOL    HW224735   6.498   3.353   2.808
 7946SOL     OW24736   4.344   1.341   6.115
 7946SOL    HW124737   4.343   1.251   6.073
 7946SOL    HW224738   4.436   1.380   6.111
 7947SOL     OW24739   6.882   3.419   6.045
 7947SOL    HW124740   6.908   3.393   6.138
 7947SOL    HW224741   6.955   3.394   5.981
 7948SOL     OW24742   1.328   5.998   0.900
 7948SOL    HW124743   1.304   6.042   0.813
 7948SOL    HW224744   1.248   5.999   0.960
 7949SOL     OW24745   2.769   5.918   5.661
 7949SOL    HW124746   2.778   5.818   5.658
 7949SOL    HW224747   2.857   5.958   5.687
 7950SOL     OW24748   6.615   4.060   5.522
 7950SOL    HW124749   6.636   3.979   5.468
 7950SOL    HW224750   6.684   4.130   5.505
 7951SOL     OW24751   3.830   0.204   2.722
 7951SOL    HW124752   3.859   0.235   2.631
 7951SOL    HW224753   3.827   0.104   2.723
 7952SOL     OW24754   6.614   3.342   5.104
 7952SOL    HW124755   6.518   3.351   5.130
 7952SOL    HW224756   6.669   3.406   5.157
 7953SOL     OW24757   1.691   0.127   0.256
 7953SOL    HW124758   1.725   0.186   0.330
 7953SOL    HW224759   1.607   0.082   0.286
 7954SOL     OW24760   3.359   2.896   0.049
 7954SOL    HW124761   3.443   2.893   0.104
 7954SOL    HW224762   3.296   2.826   0.083
 7955SOL     OW24763   0.623   1.399   6.846
 7955SOL    HW124764   0.659   1.367   6.934
 7955SOL    HW224765   0.698   1.439   6.793
 7956SOL     OW24766   0.324   0.128   0.561
 7956SOL    HW124767   0.296   0.203   0.620
 7956SOL    HW224768   0.265   0.049   0.576
 7957SOL     OW24769   5.451   1.342   5.844
 7957SOL    HW124770   5.434   1.351   5.746
 7957SOL    HW224771   5.380   1.285   5.886
 7958SOL     OW24772   4.523   2.175   0.043
 7958SOL    HW124773   4.617   2.146   0.027
 7958SOL    HW224774   4.517   2.274   0.039
 7959SOL     OW24775   5.029   2.807   0.025
 7959SOL    HW124776   5.062   2.738   6.986
 7959SOL    HW224777   5.093   2.884   0.028
 7960SOL     OW24778   1.079   1.547   4.896
 7960SOL    HW124779   1.069   1.615   4.823
 7960SOL    HW224780   1.010   1.476   4.885
 7961SOL     OW24781   6.131   0.223   0.495
 7961SOL    HW124782   6.081   0.249   0.577
 7961SOL    HW224783   6.069   0.178   0.430
 7962SOL     OW24784   6.229   6.573   4.595
 7962SOL    HW124785   6.299   6.635   4.560
 7962SOL    HW224786   6.139   6.604   4.565
 7963SOL     OW24787   5.561   6.139   3.009
 7963SOL    HW124788   5.638   6.121   3.070
 7963SOL    HW224789   5.590   6.130   2.914
 7964SOL     OW24790   6.791   3.443   1.184
 7964SOL    HW124791   6.777   3.345   1.198
 7964SOL    HW224792   6.849   3.479   1.258
 7965SOL     OW24793   4.797   1.769   6.563
 7965SOL    HW124794   4.878   1.826   6.551
 7965SOL    HW224795   4.821   1.673   6.546
 7966SOL     OW24796   5.893   3.297   4.849
 7966SOL    HW124797   5.831   3.246   4.909
 7966SOL    HW224798   5.933   3.234   4.781
 7967SOL     OW24799   1.673   4.643   1.044
 7967SOL    HW124800   1.725   4.568   1.084
 7967SOL    HW224801   1.597   4.667   1.105
 7968SOL     OW24802   2.229   2.558   3.657
 7968SOL    HW124803   2.301   2.488   3.660
 7968SOL    HW224804   2.166   2.544   3.734
 7969SOL     OW24805   3.226   4.535   6.244
 7969SOL    HW124806   3.146   4.583   6.208
 7969SOL    HW224807   3.267   4.589   6.318
 7970SOL     OW24808   6.440   2.876   3.667
 7970SOL    HW124809   6.418   2.958   3.721
 7970SOL    HW224810   6.372   2.805   3.686
 7971SOL     OW24811   3.447   0.816   6.729
 7971SOL    HW124812   3.413   0.844   6.639
 7971SOL    HW224813   3.373   0.773   6.780
 7972SOL     OW24814   4.038   3.822   4.519
 7972SOL    HW124815   3.962   3.813   4.583
 7972SOL    HW224816   4.017   3.893   4.452
 7973SOL     OW24817   6.811   4.977   2.145
 7973SOL    HW124818   6.750   4.971   2.065
 7973SOL    HW224819   6.855   4.889   2.160
 7974SOL     OW24820   0.594   3.666   4.725
 7974SOL    HW124821   0.621   3.648   4.820
 7974SOL    HW224822   0.542   3.589   4.690
 7975SOL     OW24823   4.413   6.942   0.081
 7975SOL    HW124824   4.476   6.973   0.152
 7975SOL    HW224825   4.458   6.872   0.026
 7976SOL     OW24826   0.988   0.452   0.378
 7976SOL    HW124827   0.901   0.405   0.395
 7976SOL    HW224828   1.060   0.409   0.431
 7977SOL     OW24829   5.139   5.221   2.658
 7977SOL    HW124830   5.091   5.144   2.617
 7977SOL    HW224831   5.162   5.287   2.587
 7978SOL     OW24832   0.135   3.948   1.385
 7978SOL    HW124833   0.146   3.853   1.355
 7978SOL    HW224834   0.173   4.009   1.316
 7979SOL     OW24835   2.839   2.445   5.317
 7979SOL    HW124836   2.783   2.426   5.236
 7979SOL    HW224837   2.781   2.474   5.392
 7980SOL     OW24838   3.454   5.377   1.893
 7980SOL    HW124839   3.357   5.394   1.880
 7980SOL    HW224840   3.481   5.296   1.841
 7981SOL     OW24841   1.621   3.671   4.764
 7981SOL    HW124842   1.684   3.600   4.734
 7981SOL    HW224843   1.550   3.630   4.822
 7982SOL     OW24844   6.929   0.916   6.975
 7982SOL    HW124845   6.894   0.899   0.042
 7982SOL    HW224846   6.853   0.941   6.915
 7983SOL     OW24847   3.616   0.969   1.846
 7983SOL    HW124848   3.689   1.030   1.879
 7983SOL    HW224849   3.536   1.024   1.822
 7984SOL     OW24850   6.446   2.865   3.119
 7984SOL    HW124851   6.372   2.824   3.065
 7984SOL    HW224852   6.533   2.823   3.095
 7985SOL     OW24853   2.974   2.980   5.656
 7985SOL    HW124854   3.012   2.979   5.748
 7985SOL    HW224855   2.953   3.074   5.630
 7986SOL     OW24856   4.067   1.108   3.667
 7986SOL    HW124857   4.054   1.049   3.746
 7986SOL    HW224858   3.993   1.174   3.662
 7987SOL     OW24859   1.024   3.102   6.400
 7987SOL    HW124860   1.045   3.107   6.497
 7987SOL    HW224861   0.938   3.151   6.382
 7988SOL     OW24862   6.288   0.625   1.014
 7988SOL    HW124863   6.191   0.605   1.002
 7988SOL    HW224864   6.321   0.675   0.934
 7989SOL     OW24865   0.364   4.645   1.532
 7989SOL    HW124866   0.296   4.679   1.466
 7989SOL    HW224867   0.371   4.708   1.608
 7990SOL     OW24868   4.530   5.244   4.924
 7990SOL    HW124869   4.435   5.273   4.933
 7990SOL    HW224870   4.571   5.233   5.015
 7991SOL     OW24871   5.621   0.693   4.331
 7991SOL    HW124872   5.615   0.604   4.377
 7991SOL    HW224873   5.574   0.689   4.243
 7992SOL     OW24874   1.854   0.675   6.864
 7992SOL    HW124875   1.833   0.591   6.815
 7992SOL    HW224876   1.779   0.741   6.851
 7993SOL     OW24877   6.481   6.325   0.786
 7993SOL    HW124878   6.519   6.292   0.873
 7993SOL    HW224879   6.419   6.401   0.804
 7994SOL     OW24880   0.376   0.725   4.474
 7994SOL    HW124881   0.321   0.774   4.406
 7994SOL    HW224882   0.469   0.761   4.473
 7995SOL     OW24883   0.477   5.980   1.284
 7995SOL    HW124884   0.395   5.924   1.291
 7995SOL    HW224885   0.466   6.046   1.210
 7996SOL     OW24886   1.927   6.519   3.792
 7996SOL    HW124887   1.994   6.464   3.842
 7996SOL    HW224888   1.971   6.557   3.710
 7997SOL     OW24889   2.003   1.528   5.824
 7997SOL    HW124890   1.934   1.490   5.886
 7997SOL    HW224891   2.094   1.504   5.857
 7998SOL     OW24892   2.106   0.642   0.924
 7998SOL    HW124893   2.205   0.658   0.921
 7998SOL    HW224894   2.058   0.729   0.938
 7999SOL     OW24895   0.194   0.548   3.070
 7999SOL    HW124896   0.220   0.616   3.138
 7999SOL    HW224897   0.111   0.578   3.022
 8000SOL     OW24898   3.986   6.006   0.685
 8000SOL    HW124899   4.056   6.064   0.643
 8000SOL    HW224900   4.026   5.919   0.713
 8001SOL     OW24901   4.958   4.276   1.657
 8001SOL    HW124902   5.018   4.279   1.737
 8001SOL    HW224903   4.863   4.285   1.687
 8002SOL     OW24904   1.325   0.544   4.704
 8002SOL    HW124905   1.375   0.482   4.643
 8002SOL    HW224906   1.383   0.622   4.728
 8003SOL     OW24907   2.617   5.491   3.398
 8003SOL    HW124908   2.584   5.397   3.404
 8003SOL    HW224909   2.549   5.548   3.352
 8004SOL     OW24910   2.168   3.357   4.018
 8004SOL    HW124911   2.167   3.366   3.919
 8004SOL    HW224912   2.157   3.448   4.060
 8005SOL     OW24913   2.812   0.216   4.013
 8005SOL    HW124914   2.729   0.210   4.068
 8005SOL    HW224915   2.802   0.159   3.932
 8006SOL     OW24916   5.047   5.334   6.164
 8006SOL    HW124917   4.993   5.384   6.096
 8006SOL    HW224918   4.993   5.259   6.202
 8007SOL     OW24919   6.973   0.646   0.584
 8007SOL    HW124920   6.993   0.562   0.534
 8007SOL    HW224921   6.968   0.723   0.520
 8008SOL     OW24922   4.613   4.669   1.217
 8008SOL    HW124923   4.515   4.679   1.204
 8008SOL    HW224924   4.637   4.572   1.225
 8009SOL     OW24925   6.692   1.246   1.593
 8009SOL    HW124926   6.695   1.177   1.521
 8009SOL    HW224927   6.615   1.227   1.654
 8010SOL     OW24928   3.510   0.495   6.127
 8010SOL    HW124929   3.606   0.468   6.118
 8010SOL    HW224930   3.463   0.429   6.186
 8011SOL     OW24931   3.907   2.165   2.669
 8011SOL    HW124932   3.908   2.126   2.577
 8011SOL    HW224933   3.999   2.158   2.709
 8012SOL     OW24934   6.314   0.752   4.787
 8012SOL    HW124935   6.279   0.664   4.818
 8012SOL    HW224936   6.373   0.738   4.707
 8013SOL     OW24937   3.679   0.091   3.115
 8013SOL    HW124938   3.683   0.123   3.021
 8013SOL    HW224939   3.733   0.153   3.173
 8014SOL     OW24940   2.455   2.498   3.320
 8014SOL    HW124941   2.442   2.509   3.221
 8014SOL    HW224942   2.401   2.566   3.369
 8015SOL     OW24943   3.151   6.452   4.532
 8015SOL    HW124944   3.094   6.376   4.504
 8015SOL    HW224945   3.248   6.426   4.528
 8016SOL     OW24946   3.497   2.830   5.544
 8016SOL    HW124947   3.537   2.739   5.529
 8016SOL    HW224948   3.414   2.821   5.600
 8017SOL     OW24949   6.360   6.143   1.103
 8017SOL    HW124950   6.342   6.210   1.174
 8017SOL    HW224951   6.445   6.094   1.122
 8018SOL     OW24952   2.816   3.741   1.051
 8018SOL    HW124953   2.909   3.703   1.062
 8018SOL    HW224954   2.822   3.832   1.010
 8019SOL     OW24955   2.237   3.417   0.583
 8019SOL    HW124956   2.189   3.352   0.524
 8019SOL    HW224957   2.332   3.425   0.554
 8020SOL     OW24958   0.170   0.243   6.795
 8020SOL    HW124959   0.165   0.232   6.895
 8020SOL    HW224960   0.258   0.209   6.762
 8021SOL     OW24961   0.958   3.278   0.751
 8021SOL    HW124962   0.926   3.364   0.791
 8021SOL    HW224963   0.880   3.221   0.726
 8022SOL     OW24964   4.143   6.737   2.050
 8022SOL    HW124965   4.236   6.757   2.019
 8022SOL    HW224966   4.146   6.700   2.143
 8023SOL     OW24967   3.992   5.104   2.336
 8023SOL    HW124968   3.988   5.005   2.320
 8023SOL    HW224969   4.064   5.125   2.402
 8024SOL     OW24970   2.401   1.276   6.734
 8024SOL    HW124971   2.381   1.322   6.648
 8024SOL    HW224972   2.410   1.178   6.718
 8025SOL     OW24973   1.049   6.662   1.465
 8025SOL    HW124974   1.013   6.657   1.372
 8025SOL    HW224975   0.978   6.632   1.529
 8026SOL     OW24976   0.639   6.792   6.220
 8026SOL    HW124977   0.704   6.736   6.167
 8026SOL    HW224978   0.660   6.784   6.317
 8027SOL     OW24979   4.065   0.131   6.643
 8027SOL    HW124980   4.108   0.186   6.571
 8027SOL    HW224981   4.111   0.043   6.650
 8028SOL     OW24982   3.773   6.006   6.413
 8028SOL    HW124983   3.772   6.098   6.454
 8028SOL    HW224984   3.846   6.001   6.344
 8029SOL     OW24985   0.643   6.958   1.823
 8029SOL    HW124986   0.694   6.965   1.908
 8029SOL    HW224987   0.546   6.940   1.844
 8030SOL     OW24988   0.629   4.292   0.966
 8030SOL    HW124989   0.619   4.385   0.931
 8030SOL    HW224990   0.541   4.245   0.961
 8031SOL     OW24991   6.716   6.918   2.421
 8031SOL    HW124992   6.703   6.843   2.356
 8031SOL    HW224993   6.780   6.985   2.382
 8032SOL     OW24994   0.248   3.082   0.561
 8032SOL    HW124995   0.254   3.065   0.659
 8032SOL    HW224996   0.165   3.135   0.542
 8033SOL     OW24997   3.310   4.439   1.374
 8033SOL    HW124998   3.211   4.440   1.357
 8033SOL    HW224999   3.335   4.520   1.428
 8034SOL     OW25000   0.787   0.642   5.584
 8034SOL    HW125001   0.815   0.690   5.501
 8034SOL    HW225002   0.740   0.557   5.559
 8035SOL     OW25003   5.921   6.910   4.470
 8035SOL    HW125004   5.835   6.956   4.490
 8035SOL    HW225005   5.994   6.949   4.526
 8036SOL     OW25006   4.831   3.931   4.087
 8036SOL    HW125007   4.861   3.905   3.996
 8036SOL    HW225008   4.900   3.904   4.154
 8037SOL     OW25009   2.506   1.631   6.225
 8037SOL    HW125010   2.451   1.630   6.142
 8037SOL    HW225011   2.600   1.603   6.204
 8038SOL     OW25012   6.311   5.594   2.052
 8038SOL    HW125013   6.403   5.633   2.038
 8038SOL    HW225014   6.250   5.626   1.980
 8039SOL     OW25015   1.967   2.591   5.132
 8039SOL    HW125016   1.990   2.643   5.214
 8039SOL    HW225017   2.025   2.621   5.056
 8040SOL     OW25018   0.784   6.508   6.117
 8040SOL    HW125019   0.819   6.416   6.103
 8040SOL    HW225020   0.858   6.568   6.147
 8041SOL     OW25021   3.174   1.473   2.901
 8041SOL    HW125022   3.266   1.493   2.933
 8041SOL    HW225023   3.111   1.472   2.979
 8042SOL     OW25024   3.834   3.991   5.953
 8042SOL    HW125025   3.833   4.087   5.927
 8042SOL    HW225026   3.767   3.976   6.026
 8043SOL     OW25027   5.010   5.053   6.937
 8043SOL    HW125028   4.967   5.123   6.994
 8043SOL    HW225029   5.018   4.968   6.989
 8044SOL     OW25030   1.311   3.183   1.592
 8044SOL    HW125031   1.342   3.197   1.498
 8044SOL    HW225032   1.234   3.243   1.612
 8045SOL     OW25033   6.335   3.369   5.438
 8045SOL    HW125034   6.340   3.320   5.351
 8045SOL    HW225035   6.271   3.444   5.431
 8046SOL     OW25036   0.090   4.047   0.980
 8046SOL    HW125037   0.093   4.101   0.895
 8046SOL    HW225038   0.079   3.950   0.957
 8047SOL     OW25039   3.138   6.585   6.586
 8047SOL    HW125040   3.171   6.675   6.559
 8047SOL    HW225041   3.044   6.592   6.620
 8048SOL     OW25042   3.881   1.701   6.625
 8048SOL    HW125043   3.827   1.783   6.647
 8048SOL    HW225044   3.826   1.619   6.643
 8049SOL     OW25045   2.010   1.218   0.835
 8049SOL    HW125046   2.044   1.129   0.803
 8049SOL    HW225047   1.931   1.204   0.896
 8050SOL     OW25048   0.257   5.553   5.886
 8050SOL    HW125049   0.223   5.460   5.898
 8050SOL    HW225050   0.286   5.589   5.974
 8051SOL     OW25051   4.608   6.502   2.839
 8051SOL    HW125052   4.553   6.473   2.917
 8051SOL    HW225053   4.697   6.457   2.842
 8052SOL     OW25054   3.163   1.676   3.258
 8052SOL    HW125055   3.113   1.610   3.201
 8052SOL    HW225056   3.178   1.637   3.349
 8053SOL     OW25057   0.819   2.502   6.314
 8053SOL    HW125058   0.884   2.498   6.239
 8053SOL    HW225059   0.761   2.583   6.304
 8054SOL     OW25060   5.080   3.728   5.356
 8054SOL    HW125061   5.027   3.684   5.429
 8054SOL    HW225062   5.074   3.827   5.366
 8055SOL     OW25063   6.608   6.969   6.838
 8055SOL    HW125064   6.684   7.014   6.884
 8055SOL    HW225065   6.530   0.006   6.833
 8056SOL     OW25066   2.760   1.747   3.870
 8056SOL    HW125067   2.798   1.680   3.807
 8056SOL    HW225068   2.810   1.743   3.957
 8057SOL     OW25069   3.122   2.138   2.146
 8057SOL    HW125070   3.107   2.183   2.234
 8057SOL    HW225071   3.063   2.179   2.077
 8058SOL     OW25072   3.819   6.272   1.640
 8058SOL    HW125073   3.744   6.321   1.595
 8058SOL    HW225074   3.832   6.309   1.733
 8059SOL     OW25075   3.951   3.329   5.767
 8059SOL    HW125076   3.901   3.370   5.690
 8059SOL    HW225077   3.922   3.372   5.852
 8060SOL     OW25078   0.502   0.778   6.094
 8060SOL    HW125079   0.553   0.861   6.072
 8060SOL    HW225080   0.542   0.735   6.175
 8061SOL     OW25081   7.021   1.010   1.693
 8061SOL    HW125082   0.007   1.109   1.698
 8061SOL    HW225083   0.066   0.972   1.633
 8062SOL     OW25084   4.502   4.769   5.637
 8062SOL    HW125085   4.495   4.793   5.734
 8062SOL    HW225086   4.553   4.841   5.589
 8063SOL     OW25087   2.299   4.608   3.042
 8063SOL    HW125088   2.314   4.521   3.089
 8063SOL    HW225089   2.322   4.597   2.945
 8064SOL     OW25090   0.119   2.787   0.738
 8064SOL    HW125091   0.127   2.863   0.802
 8064SOL    HW225092   0.054   2.720   0.774
 8065SOL     OW25093   4.668   0.098   6.537
 8065SOL    HW125094   4.722   0.169   6.582
 8065SOL    HW225095   4.622   0.042   6.606
 8066SOL     OW25096   0.066   0.555   6.077
 8066SOL    HW125097   7.019   0.605   6.124
 8066SOL    HW225098   0.088   0.472   6.127
 8067SOL     OW25099   5.200   0.636   4.397
 8067SOL    HW125100   5.194   0.679   4.306
 8067SOL    HW225101   5.234   0.703   4.463
 8068SOL     OW25102   6.792   3.803   1.811
 8068SOL    HW125103   6.730   3.805   1.732
 8068SOL    HW225104   6.863   3.734   1.797
 8069SOL     OW25105   1.345   2.561   2.031
 8069SOL    HW125106   1.282   2.629   2.068
 8069SOL    HW225107   1.341   2.478   2.088
 8070SOL     OW25108   5.195   3.770   1.261
 8070SOL    HW125109   5.163   3.776   1.167
 8070SOL    HW225110   5.249   3.852   1.283
 8071SOL     OW25111   3.006   0.471   5.833
 8071SOL    HW125112   3.084   0.435   5.782
 8071SOL    HW225113   3.012   0.571   5.835
 8072SOL     OW25114   2.112   2.219   5.724
 8072SOL    HW125115   2.140   2.183   5.813
 8072SOL    HW225116   2.182   2.281   5.690
 8073SOL     OW25117   5.504   0.376   6.309
 8073SOL    HW125118   5.515   0.365   6.210
 8073SOL    HW225119   5.591   0.405   6.349
 8074SOL     OW25120   6.530   0.767   0.541
 8074SOL    HW125121   6.515   0.672   0.570
 8074SOL    HW225122   6.563   0.821   0.618
 8075SOL     OW25123   0.395   0.387   1.031
 8075SOL    HW125124   0.422   0.481   1.052
 8075SOL    HW225125   0.298   0.385   1.008
 8076SOL     OW25126   6.490   6.149   0.594
 8076SOL    HW125127   6.489   6.208   0.675
 8076SOL    HW225128   6.581   6.149   0.553
 8077SOL     OW25129   5.995   4.137   1.439
 8077SOL    HW125130   5.986   4.203   1.513
 8077SOL    HW225131   5.937   4.165   1.362
 8078SOL     OW25132   6.404   1.061   1.608
 8078SOL    HW125133   6.377   1.016   1.522
 8078SOL    HW225134   6.322   1.093   1.655
 8079SOL     OW25135   0.504   1.116   6.899
 8079SOL    HW125136   0.597   1.095   6.931
 8079SOL    HW225137   0.450   1.152   6.975
 8080SOL     OW25138   1.690   3.934   3.659
 8080SOL    HW125139   1.744   3.965   3.581
 8080SOL    HW225140   1.600   3.977   3.656
 8081SOL     OW25141   6.454   0.100   5.501
 8081SOL    HW125142   6.434   0.192   5.534
 8081SOL    HW225143   6.408   0.032   5.559
 8082SOL     OW25144   4.306   2.115   4.594
 8082SOL    HW125145   4.392   2.064   4.592
 8082SOL    HW225146   4.305   2.176   4.673
 8083SOL     OW25147   6.657   2.853   4.533
 8083SOL    HW125148   6.703   2.888   4.451
 8083SOL    HW225149   6.668   2.918   4.607
 8084SOL     OW25150   5.301   1.542   6.655
 8084SOL    HW125151   5.340   1.492   6.732
 8084SOL    HW225152   5.370   1.603   6.616
 8085SOL     OW25153   1.453   6.063   4.100
 8085SOL    HW125154   1.427   6.156   4.126
 8085SOL    HW225155   1.394   5.997   4.147
 8086SOL     OW25156   6.887   2.258   2.662
 8086SOL    HW125157   6.862   2.262   2.758
 8086SOL    HW225158   6.987   2.260   2.654
 8087SOL     OW25159   6.949   1.093   6.716
 8087SOL    HW125160   6.934   1.054   6.625
 8087SOL    HW225161   0.016   1.132   6.721
 8088SOL     OW25162   0.413   6.837   5.125
 8088SOL    HW125163   0.320   6.832   5.161
 8088SOL    HW225164   0.450   6.929   5.140
 8089SOL     OW25165   6.542   1.674   6.927
 8089SOL    HW125166   6.475   1.600   6.920
 8089SOL    HW225167   6.589   1.668   7.015
 8090SOL     OW25168   4.453   2.493   5.007
 8090SOL    HW125169   4.359   2.474   4.978
 8090SOL    HW225170   4.484   2.579   4.967
 8091SOL     OW25171   0.277   3.997   4.653
 8091SOL    HW125172   0.318   3.979   4.563
 8091SOL    HW225173   0.349   3.993   4.723
 8092SOL     OW25174   4.936   0.354   5.974
 8092SOL    HW125175   4.889   0.319   6.055
 8092SOL    HW225176   4.938   0.454   5.977
 8093SOL     OW25177   3.065   6.374   3.369
 8093SOL    HW125178   3.134   6.399   3.437
 8093SOL    HW225179   3.111   6.332   3.290
 8094SOL     OW25180   2.195   3.931   4.333
 8094SOL    HW125181   2.163   4.025   4.344
 8094SOL    HW225182   2.212   3.912   4.237
 8095SOL     OW25183   1.059   5.401   4.958
 8095SOL    HW125184   1.139   5.462   4.965
 8095SOL    HW225185   1.073   5.322   5.017
 8096SOL     OW25186   0.735   4.934   1.109
 8096SOL    HW125187   0.782   4.908   1.025
 8096SOL    HW225188   0.780   4.890   1.187
 8097SOL     OW25189   4.717   6.366   6.796
 8097SOL    HW125190   4.646   6.335   6.860
 8097SOL    HW225191   4.794   6.302   6.799
 8098SOL     OW25192   2.234   5.961   4.858
 8098SOL    HW125193   2.193   5.878   4.895
 8098SOL    HW225194   2.330   5.944   4.836
 8099SOL     OW25195   2.150   4.383   2.609
 8099SOL    HW125196   2.068   4.405   2.557
 8099SOL    HW225197   2.126   4.366   2.704
 8100SOL     OW25198   0.116   0.329   0.333
 8100SOL    HW125199   0.125   0.396   0.259
 8100SOL    HW225200   0.146   0.239   0.300
 8101SOL     OW25201   1.925   5.794   0.439
 8101SOL    HW125202   1.983   5.793   0.520
 8101SOL    HW225203   1.976   5.831   0.362
 8102SOL     OW25204   0.623   4.352   4.335
 8102SOL    HW125205   0.671   4.266   4.315
 8102SOL    HW225206   0.690   4.421   4.364
 8103SOL     OW25207   4.394   0.742   1.563
 8103SOL    HW125208   4.491   0.729   1.583
 8103SOL    HW225209   4.376   0.837   1.539
 8104SOL     OW25210   1.086   5.555   6.606
 8104SOL    HW125211   1.017   5.523   6.541
 8104SOL    HW225212   1.090   5.492   6.684
 8105SOL     OW25213   6.948   6.847   3.196
 8105SOL    HW125214   6.878   6.915   3.219
 8105SOL    HW225215   6.927   6.761   3.244
 8106SOL     OW25216   2.958   6.787   6.004
 8106SOL    HW125217   2.999   6.875   6.030
 8106SOL    HW225218   2.879   6.803   5.944
 8107SOL     OW25219   1.168   6.860   0.240
 8107SOL    HW125220   1.212   6.875   0.328
 8107SOL    HW225221   1.207   6.778   0.197
 8108SOL     OW25222   1.543   1.468   0.375
 8108SOL    HW125223   1.529   1.467   0.276
 8108SOL    HW225224   1.526   1.377   0.412
 8109SOL     OW25225   6.891   3.350   2.048
 8109SOL    HW125226   6.880   3.385   2.141
 8109SOL    HW225227   6.962   3.279   2.047
 8110SOL     OW25228   4.361   4.478   0.558
 8110SOL    HW125229   4.426   4.538   0.512
 8110SOL    HW225230   4.272   4.523   0.564
 8111SOL     OW25231   6.146   1.589   2.292
 8111SOL    HW125232   6.155   1.688   2.282
 8111SOL    HW225233   6.219   1.554   2.351
 8112SOL     OW25234   1.724   5.493   6.152
 8112SOL    HW125235   1.729   5.493   6.052
 8112SOL    HW225236   1.714   5.587   6.185
 8113SOL     OW25237   4.927   5.094   6.286
 8113SOL    HW125238   4.916   4.994   6.277
 8113SOL    HW225239   5.005   5.114   6.345
 8114SOL     OW25240   2.040   3.606   2.722
 8114SOL    HW125241   1.950   3.646   2.743
 8114SOL    HW225242   2.107   3.680   2.712
 8115SOL     OW25243   1.850   1.822   5.941
 8115SOL    HW125244   1.911   1.774   6.004
 8115SOL    HW225245   1.904   1.876   5.876
 8116SOL     OW25246   4.070   3.141   2.191
 8116SOL    HW125247   4.140   3.124   2.122
 8116SOL    HW225248   3.983   3.102   2.162
 8117SOL     OW25249   1.500   6.894   3.944
 8117SOL    HW125250   1.573   6.884   3.877
 8117SOL    HW225251   1.461   6.986   3.939
 8118SOL     OW25252   6.900   2.740   6.647
 8118SOL    HW125253   6.930   2.820   6.699
 8118SOL    HW225254   6.844   2.681   6.706
 8119SOL     OW25255   5.113   5.794   6.482
 8119SOL    HW125256   5.034   5.737   6.456
 8119SOL    HW225257   5.177   5.738   6.536
 8120SOL     OW25258   2.346   6.316   2.702
 8120SOL    HW125259   2.282   6.370   2.647
 8120SOL    HW225260   2.425   6.372   2.727
 8121SOL     OW25261   1.977   2.541   2.342
 8121SOL    HW125262   1.902   2.477   2.327
 8121SOL    HW225263   1.943   2.621   2.392
 8122SOL     OW25264   0.842   4.775   1.291
 8122SOL    HW125265   0.903   4.702   1.261
 8122SOL    HW225266   0.858   4.795   1.387
 8123SOL     OW25267   6.938   2.161   6.572
 8123SOL    HW125268   6.921   2.072   6.529
 8123SOL    HW225269   6.948   2.230   6.501
 8124SOL     OW25270   6.353   6.318   5.577
 8124SOL    HW125271   6.378   6.400   5.525
 8124SOL    HW225272   6.428   6.253   5.576
 8125SOL     OW25273   0.993   5.316   1.610
 8125SOL    HW125274   1.059   5.312   1.685
 8125SOL    HW225275   0.930   5.239   1.617
 8126SOL     OW25276   3.173   5.658   5.032
 8126SOL    HW125277   3.085   5.698   5.056
 8126SOL    HW225278   3.180   5.650   4.932
 8127SOL     OW25279   3.888   1.780   6.368
 8127SOL    HW125280   3.918   1.760   6.461
 8127SOL    HW225281   3.855   1.696   6.325
 8128SOL     OW25282   3.275   3.505   1.017
 8128SOL    HW125283   3.341   3.553   0.959
 8128SOL    HW225284   3.313   3.418   1.046
 8129SOL     OW25285   0.418   2.396   3.325
 8129SOL    HW125286   0.425   2.298   3.342
 8129SOL    HW225287   0.480   2.445   3.387
 8130SOL     OW25288   6.701   6.292   6.879
 8130SOL    HW125289   6.791   6.334   6.890
 8130SOL    HW225290   6.632   6.364   6.871
 8131SOL     OW25291   1.464   2.408   0.778
 8131SOL    HW125292   1.471   2.316   0.815
 8131SOL    HW225293   1.552   2.455   0.786
 8132SOL     OW25294   6.323   1.776   4.747
 8132SOL    HW125295   6.269   1.719   4.809
 8132SOL    HW225296   6.272   1.789   4.662
 8133SOL     OW25297   3.881   5.433   1.378
 8133SOL    HW125298   3.954   5.401   1.438
 8133SOL    HW225299   3.809   5.475   1.434
 8134SOL     OW25300   5.913   2.390   5.965
 8134SOL    HW125301   6.012   2.386   5.948
 8134SOL    HW225302   5.893   2.350   6.054
 8135SOL     OW25303   2.059   6.666   2.097
 8135SOL    HW125304   2.100   6.667   2.006
 8135SOL    HW225305   2.126   6.634   2.163
 8136SOL     OW25306   4.687   4.619   1.864
 8136SOL    HW125307   4.590   4.612   1.844
 8136SOL    HW225308   4.703   4.592   1.960
 8137SOL     OW25309   4.749   1.553   6.207
 8137SOL    HW125310   4.695   1.623   6.253
 8137SOL    HW225311   4.846   1.566   6.228
 8138SOL     OW25312   5.349   1.143   2.028
 8138SOL    HW125313   5.286   1.066   2.022
 8138SOL    HW225314   5.414   1.129   2.102
 8139SOL     OW25315   0.656   1.345   3.835
 8139SOL    HW125316   0.579   1.399   3.801
 8139SOL    HW225317   0.741   1.395   3.821
 8140SOL     OW25318   5.331   2.653   3.156
 8140SOL    HW125319   5.299   2.581   3.217
 8140SOL    HW225320   5.377   2.724   3.209
 8141SOL     OW25321   5.980   3.540   3.906
 8141SOL    HW125322   6.026   3.511   3.822
 8141SOL    HW225323   6.017   3.628   3.935
 8142SOL     OW25324   0.036   6.547   0.052
 8142SOL    HW125325   0.057   6.480   0.123
 8142SOL    HW225326   7.021   6.501   6.999
 8143SOL     OW25327   6.440   2.916   5.457
 8143SOL    HW125328   6.431   2.843   5.388
 8143SOL    HW225329   6.485   2.995   5.416
 8144SOL     OW25330   4.955   6.265   6.828
 8144SOL    HW125331   4.998   6.346   6.868
 8144SOL    HW225332   4.951   6.192   6.896
 8145SOL     OW25333   4.473   6.342   3.624
 8145SOL    HW125334   4.479   6.423   3.566
 8145SOL    HW225335   4.508   6.263   3.574
 8146SOL     OW25336   3.602   1.715   4.617
 8146SOL    HW125337   3.514   1.754   4.590
 8146SOL    HW225338   3.626   1.642   4.553
 8147SOL     OW25339   5.648   1.151   3.262
 8147SOL    HW125340   5.583   1.076   3.249
 8147SOL    HW225341   5.692   1.143   3.351
 8148SOL     OW25342   0.109   4.155   2.810
 8148SOL    HW125343   0.068   4.064   2.812
 8148SOL    HW225344   0.169   4.163   2.730
 8149SOL     OW25345   3.588   5.353   3.715
 8149SOL    HW125346   3.532   5.424   3.758
 8149SOL    HW225347   3.609   5.379   3.621
 8150SOL     OW25348   1.159   6.217   0.908
 8150SOL    HW125349   1.109   6.220   0.994
 8150SOL    HW225350   1.208   6.302   0.894
 8151SOL     OW25351   0.432   1.353   4.557
 8151SOL    HW125352   0.332   1.342   4.562
 8151SOL    HW225353   0.467   1.377   4.648
 8152SOL     OW25354   0.843   0.541   3.550
 8152SOL    HW125355   0.937   0.530   3.582
 8152SOL    HW225356   0.783   0.564   3.627
 8153SOL     OW25357   2.321   6.956   0.438
 8153SOL    HW125358   2.389   6.904   0.490
 8153SOL    HW225359   2.230   6.923   0.461
 8154SOL     OW25360   2.270   6.739   3.095
 8154SOL    HW125361   2.286   6.701   3.004
 8154SOL    HW225362   2.221   6.826   3.088
 8155SOL     OW25363   2.911   3.601   4.827
 8155SOL    HW125364   2.820   3.617   4.865
 8155SOL    HW225365   2.906   3.604   4.727
 8156SOL     OW25366   6.984   0.365   5.605
 8156SOL    HW125367   6.884   0.372   5.609
 8156SOL    HW225368   7.011   0.319   5.521
 8157SOL     OW25369   5.848   1.893   6.648
 8157SOL    HW125370   5.762   1.906   6.696
 8157SOL    HW225371   5.909   1.836   6.703
 8158SOL     OW25372   1.483   5.397   2.153
 8158SOL    HW125373   1.412   5.452   2.199
 8158SOL    HW225374   1.496   5.432   2.060
 8159SOL     OW25375   0.397   5.519   0.839
 8159SOL    HW125376   0.465   5.559   0.776
 8159SOL    HW225377   0.306   5.553   0.816
 8160SOL     OW25378   4.224   1.787   1.765
 8160SOL    HW125379   4.266   1.698   1.750
 8160SOL    HW225380   4.132   1.774   1.802
 8161SOL     OW25381   4.204   2.883   1.417
 8161SOL    HW125382   4.133   2.849   1.478
 8161SOL    HW225383   4.171   2.881   1.323
 8162SOL     OW25384   5.955   0.924   1.675
 8162SOL    HW125385   5.917   0.882   1.757
 8162SOL    HW225386   5.881   0.950   1.613
 8163SOL     OW25387   1.948   3.466   5.368
 8163SOL    HW125388   2.019   3.459   5.297
 8163SOL    HW225389   1.904   3.555   5.361
 8164SOL     OW25390   4.710   3.530   1.684
 8164SOL    HW125391   4.725   3.620   1.644
 8164SOL    HW225392   4.790   3.503   1.737
 8165SOL     OW25393   2.081   4.762   1.818
 8165SOL    HW125394   1.988   4.795   1.833
 8165SOL    HW225395   2.094   4.738   1.722
 8166SOL     OW25396   3.813   6.789   1.455
 8166SOL    HW125397   3.713   6.787   1.447
 8166SOL    HW225398   3.844   6.705   1.498
 8167SOL     OW25399   5.270   2.713   4.541
 8167SOL    HW125400   5.200   2.722   4.612
 8167SOL    HW225401   5.302   2.619   4.537
 8168SOL     OW25402   2.627   2.077   2.625
 8168SOL    HW125403   2.562   2.047   2.556
 8168SOL    HW225404   2.718   2.086   2.585
 8169SOL     OW25405   5.563   4.020   5.103
 8169SOL    HW125406   5.465   4.004   5.094
 8169SOL    HW225407   5.605   3.942   5.151
 8170SOL     OW25408   1.722   5.017   3.759
 8170SOL    HW125409   1.635   5.063   3.777
 8170SOL    HW225410   1.758   5.049   3.672
 8171SOL     OW25411   1.659   1.186   6.674
 8171SOL    HW125412   1.597   1.197   6.751
 8171SOL    HW225413   1.634   1.105   6.622
 8172SOL     OW25414   0.117   5.748   0.982
 8172SOL    HW125415   0.212   5.774   0.969
 8172SOL    HW225416   0.110   5.683   1.059
 8173SOL     OW25417   5.869   3.347   0.261
 8173SOL    HW125418   5.805   3.363   0.336
 8173SOL    HW225419   5.952   3.402   0.275
 8174SOL     OW25420   5.506   6.384   2.578
 8174SOL    HW125421   5.467   6.295   2.556
 8174SOL    HW225422   5.508   6.441   2.496
 8175SOL     OW25423   1.990   2.349   4.064
 8175SOL    HW125424   1.897   2.312   4.071
 8175SOL    HW225425   1.986   2.443   4.032
 8176SOL     OW25426   3.827   5.802   3.572
 8176SOL    HW125427   3.773   5.792   3.488
 8176SOL    HW225428   3.924   5.804   3.550
 8177SOL     OW25429   1.375   6.475   5.967
 8177SOL    HW125430   1.402   6.386   6.003
 8177SOL    HW225431   1.411   6.548   6.026
 8178SOL     OW25432   2.428   6.661   5.879
 8178SOL    HW125433   2.420   6.566   5.908
 8178SOL    HW225434   2.487   6.667   5.798
 8179SOL     OW25435   4.093   0.294   0.143
 8179SOL    HW125436   4.059   0.373   0.092
 8179SOL    HW225437   4.140   0.232   0.080
 8180SOL     OW25438   4.925   4.383   5.128
 8180SOL    HW125439   4.916   4.380   5.227
 8180SOL    HW225440   4.907   4.476   5.095
 8181SOL     OW25441   2.592   2.413   2.387
 8181SOL    HW125442   2.529   2.483   2.354
 8181SOL    HW225443   2.648   2.451   2.461
 8182SOL     OW25444   5.456   2.964   6.027
 8182SOL    HW125445   5.499   3.053   6.010
 8182SOL    HW225446   5.390   2.945   5.955
 8183SOL     OW25447   2.209   3.005   3.471
 8183SOL    HW125448   2.287   2.944   3.485
 8183SOL    HW225449   2.184   3.006   3.374
 8184SOL     OW25450   6.035   6.158   4.387
 8184SOL    HW125451   5.981   6.138   4.306
 8184SOL    HW225452   5.974   6.175   4.465
 8185SOL     OW25453   1.400   2.205   3.338
 8185SOL    HW125454   1.495   2.215   3.367
 8185SOL    HW225455   1.376   2.280   3.277
 8186SOL     OW25456   4.421   4.177   6.637
 8186SOL    HW125457   4.334   4.148   6.677
 8186SOL    HW225458   4.404   4.254   6.574
 8187SOL     OW25459   2.150   2.057   6.046
 8187SOL    HW125460   2.194   2.146   6.057
 8187SOL    HW225461   2.187   1.994   6.114
 8188SOL     OW25462   4.811   2.938   2.512
 8188SOL    HW125463   4.764   2.871   2.454
 8188SOL    HW225464   4.805   2.909   2.608
 8189SOL     OW25465   6.665   5.053   2.798
 8189SOL    HW125466   6.649   5.090   2.890
 8189SOL    HW225467   6.751   5.003   2.796
 8190SOL     OW25468   6.223   3.523   2.379
 8190SOL    HW125469   6.206   3.565   2.290
 8190SOL    HW225470   6.301   3.568   2.423
 8191SOL     OW25471   5.973   5.020   1.615
 8191SOL    HW125472   6.012   5.095   1.669
 8191SOL    HW225473   6.039   4.946   1.607
 8192SOL     OW25474   1.261   2.569   0.897
 8192SOL    HW125475   1.170   2.576   0.855
 8192SOL    HW225476   1.311   2.493   0.857
 8193SOL     OW25477   3.936   6.651   5.612
 8193SOL    HW125478   3.941   6.748   5.590
 8193SOL    HW225479   4.018   6.625   5.664
 8194SOL     OW25480   2.108   0.990   2.597
 8194SOL    HW125481   2.026   1.041   2.571
 8194SOL    HW225482   2.136   1.017   2.689
 8195SOL     OW25483   5.645   1.555   1.738
 8195SOL    HW125484   5.597   1.625   1.685
 8195SOL    HW225485   5.712   1.598   1.798
 8196SOL     OW25486   1.680   1.046   0.646
 8196SOL    HW125487   1.618   1.054   0.568
 8196SOL    HW225488   1.761   1.103   0.630
 8197SOL     OW25489   0.700   6.983   0.862
 8197SOL    HW125490   0.662   6.928   0.787
 8197SOL    HW225491   0.645   0.040   0.874
 8198SOL     OW25492   3.600   0.660   3.003
 8198SOL    HW125493   3.601   0.600   3.084
 8198SOL    HW225494   3.693   0.690   2.982
 8199SOL     OW25495   5.703   4.575   1.239
 8199SOL    HW125496   5.681   4.531   1.152
 8199SOL    HW225497   5.710   4.506   1.311
 8200SOL     OW25498   4.221   3.462   1.886
 8200SOL    HW125499   4.302   3.435   1.833
 8200SOL    HW225500   4.217   3.561   1.892
 8201SOL     OW25501   0.566   1.205   5.347
 8201SOL    HW125502   0.494   1.243   5.288
 8201SOL    HW225503   0.647   1.184   5.293
 8202SOL     OW25504   1.802   3.496   4.672
 8202SOL    HW125505   1.838   3.403   4.685
 8202SOL    HW225506   1.822   3.526   4.578
 8203SOL     OW25507   6.055   4.407   6.867
 8203SOL    HW125508   6.093   4.332   6.920
 8203SOL    HW225509   6.128   4.471   6.842
 8204SOL     OW25510   3.421   0.310   0.671
 8204SOL    HW125511   3.426   0.256   0.587
 8204SOL    HW225512   3.363   0.263   0.738
 8205SOL     OW25513   4.353   6.589   3.410
 8205SOL    HW125514   4.309   6.658   3.351
 8205SOL    HW225515   4.444   6.568   3.374
 8206SOL     OW25516   3.755   1.999   4.815
 8206SOL    HW125517   3.784   1.912   4.777
 8206SOL    HW225518   3.789   2.008   4.909
 8207SOL     OW25519   3.170   5.951   6.963
 8207SOL    HW125520   3.265   5.943   6.936
 8207SOL    HW225521   3.111   5.946   6.882
 8208SOL     OW25522   1.937   6.202   0.291
 8208SOL    HW125523   2.011   6.164   0.345
 8208SOL    HW225524   1.858   6.222   0.350
 8209SOL     OW25525   0.693   5.321   5.544
 8209SOL    HW125526   0.785   5.295   5.512
 8209SOL    HW225527   0.629   5.248   5.521
 8210SOL     OW25528   2.319   1.215   0.465
 8210SOL    HW125529   2.365   1.301   0.485
 8210SOL    HW225530   2.241   1.232   0.404
 8211SOL     OW25531   3.473   4.119   3.323
 8211SOL    HW125532   3.554   4.078   3.365
 8211SOL    HW225533   3.405   4.139   3.394
 8212SOL     OW25534   4.287   4.848   6.868
 8212SOL    HW125535   4.373   4.798   6.883
 8212SOL    HW225536   4.293   4.937   6.913
 8213SOL     OW25537   4.737   4.308   1.791
 8213SOL    HW125538   4.654   4.266   1.828
 8213SOL    HW225539   4.722   4.406   1.777
 8214SOL     OW25540   3.876   5.456   3.515
 8214SOL    HW125541   3.824   5.372   3.502
 8214SOL    HW225542   3.840   5.527   3.454
 8215SOL     OW25543   2.761   6.342   6.327
 8215SOL    HW125544   2.719   6.326   6.417
 8215SOL    HW225545   2.785   6.255   6.286
 8216SOL     OW25546   5.103   5.609   0.926
 8216SOL    HW125547   5.072   5.521   0.963
 8216SOL    HW225548   5.070   5.683   0.984
 8217SOL     OW25549   3.534   6.553   3.546
 8217SOL    HW125550   3.502   6.569   3.639
 8217SOL    HW225551   3.532   6.639   3.494
 8218SOL     OW25552   1.885   6.684   4.175
 8218SOL    HW125553   1.898   6.739   4.093
 8218SOL    HW225554   1.850   6.594   4.151
 8219SOL     OW25555   3.630   3.496   3.160
 8219SOL    HW125556   3.556   3.429   3.164
 8219SOL    HW225557   3.707   3.458   3.108
 8220SOL     OW25558   4.306   4.241   5.603
 8220SOL    HW125559   4.316   4.324   5.657
 8220SOL    HW225560   4.223   4.248   5.546
 8221SOL     OW25561   6.406   3.703   4.066
 8221SOL    HW125562   6.432   3.608   4.055
 8221SOL    HW225563   6.477   3.762   4.026
 8222SOL     OW25564   5.860   2.182   6.174
 8222SOL    HW125565   5.841   2.134   6.088
 8222SOL    HW225566   5.942   2.145   6.216
 8223SOL     OW25567   1.377   6.380   5.660
 8223SOL    HW125568   1.335   6.290   5.646
 8223SOL    HW225569   1.328   6.429   5.732
 8224SOL     OW25570   5.800   1.163   6.004
 8224SOL    HW125571   5.796   1.201   5.911
 8224SOL    HW225572   5.719   1.192   6.055
 8225SOL     OW25573   5.921   2.764   0.226
 8225SOL    HW125574   5.849   2.707   0.186
 8225SOL    HW225575   6.011   2.731   0.195
 8226SOL     OW25576   3.957   1.136   0.054
 8226SOL    HW125577   4.048   1.169   0.079
 8226SOL    HW225578   3.946   1.141   6.980
 8227SOL     OW25579   4.913   3.461   2.767
 8227SOL    HW125580   4.918   3.381   2.706
 8227SOL    HW225581   4.932   3.432   2.860
 8228SOL     OW25582   3.062   1.383   4.778
 8228SOL    HW125583   3.115   1.299   4.764
 8228SOL    HW225584   3.125   1.460   4.786
 8229SOL     OW25585   4.310   4.804   1.071
 8229SOL    HW125586   4.339   4.710   1.092
 8229SOL    HW225587   4.251   4.803   0.990
 8230SOL     OW25588   6.146   0.812   6.049
 8230SOL    HW125589   6.068   0.833   5.990
 8230SOL    HW225590   6.228   0.857   6.014
 8231SOL     OW25591   3.513   1.601   2.290
 8231SOL    HW125592   3.452   1.567   2.219
 8231SOL    HW225593   3.502   1.700   2.300
 8232SOL     OW25594   4.110   6.560   3.514
 8232SOL    HW125595   4.093   6.531   3.608
 8232SOL    HW225596   4.204   6.538   3.488
 8233SOL     OW25597   2.197   1.597   6.497
 8233SOL    HW125598   2.142   1.639   6.569
 8233SOL    HW225599   2.136   1.566   6.423
 8234SOL     OW25600   1.414   2.717   0.019
 8234SOL    HW125601   1.488   2.745   6.983
 8234SOL    HW225602   1.360   2.798   0.045
 8235SOL     OW25603   0.502   6.790   1.534
 8235SOL    HW125604   0.447   6.762   1.613
 8235SOL    HW225605   0.598   6.793   1.560
 8236SOL     OW25606   1.112   0.235   1.050
 8236SOL    HW125607   1.129   0.154   0.994
 8236SOL    HW225608   1.134   0.215   1.145
 8237SOL     OW25609   4.221   5.193   5.326
 8237SOL    HW125610   4.143   5.235   5.279
 8237SOL    HW225611   4.199   5.179   5.422
 8238SOL     OW25612   6.777   5.225   0.284
 8238SOL    HW125613   6.804   5.262   0.195
 8238SOL    HW225614   6.767   5.299   0.350
 8239SOL     OW25615   4.806   2.124   5.027
 8239SOL    HW125616   4.772   2.204   5.077
 8239SOL    HW225617   4.869   2.154   4.956
 8240SOL     OW25618   3.501   3.711   4.985
 8240SOL    HW125619   3.477   3.701   5.081
 8240SOL    HW225620   3.421   3.741   4.933
 8241SOL     OW25621   1.186   2.986   5.263
 8241SOL    HW125622   1.149   2.937   5.184
 8241SOL    HW225623   1.203   2.921   5.337
 8242SOL     OW25624   0.398   3.037   3.389
 8242SOL    HW125625   0.446   3.073   3.309
 8242SOL    HW225626   0.334   2.967   3.360
 8243SOL     OW25627   1.333   6.422   3.395
 8243SOL    HW125628   1.360   6.461   3.484
 8243SOL    HW225629   1.270   6.485   3.349
 8244SOL     OW25630   5.645   1.225   3.600
 8244SOL    HW125631   5.718   1.176   3.648
 8244SOL    HW225632   5.568   1.163   3.586
 8245SOL     OW25633   5.509   3.209   2.015
 8245SOL    HW125634   5.424   3.190   2.065
 8245SOL    HW225635   5.572   3.259   2.075
 8246SOL     OW25636   2.071   4.307   6.544
 8246SOL    HW125637   2.033   4.246   6.475
 8246SOL    HW225638   2.033   4.399   6.532
 8247SOL     OW25639   2.096   4.838   3.694
 8247SOL    HW125640   2.049   4.901   3.755
 8247SOL    HW225641   2.193   4.835   3.718
 8248SOL     OW25642   6.980   6.152   2.774
 8248SOL    HW125643   0.047   6.164   2.808
 8248SOL    HW225644   6.929   6.091   2.835
 8249SOL     OW25645   2.885   0.735   6.115
 8249SOL    HW125646   2.853   0.826   6.142
 8249SOL    HW225647   2.908   0.682   6.196
 8250SOL     OW25648   1.396   1.695   0.085
 8250SOL    HW125649   1.488   1.733   0.096
 8250SOL    HW225650   1.332   1.768   0.064
 8251SOL     OW25651   1.290   2.338   6.171
 8251SOL    HW125652   1.274   2.252   6.123
 8251SOL    HW225653   1.311   2.410   6.104
 8252SOL     OW25654   0.571   2.107   6.802
 8252SOL    HW125655   0.523   2.156   6.874
 8252SOL    HW225656   0.669   2.106   6.822
 8253SOL     OW25657   6.113   4.693   5.917
 8253SOL    HW125658   6.160   4.697   5.829
 8253SOL    HW225659   6.105   4.785   5.955
 8254SOL     OW25660   5.451   5.021   6.732
 8254SOL    HW125661   5.449   5.048   6.829
 8254SOL    HW225662   5.530   5.065   6.688
 8255SOL     OW25663   1.536   0.021   5.648
 8255SOL    HW125664   1.504   0.075   5.726
 8255SOL    HW225665   1.550   0.082   5.569
 8256SOL     OW25666   1.325   5.766   2.913
 8256SOL    HW125667   1.240   5.800   2.873
 8256SOL    HW225668   1.391   5.746   2.840
 8257SOL     OW25669   4.871   3.847   3.786
 8257SOL    HW125670   4.959   3.858   3.831
 8257SOL    HW225671   4.884   3.810   3.694
 8258SOL     OW25672   0.412   3.795   3.882
 8258SOL    HW125673   0.351   3.823   3.956
 8258SOL    HW225674   0.406   3.696   3.870
 8259SOL     OW25675   5.513   2.799   4.122
 8259SOL    HW125676   5.418   2.784   4.151
 8259SOL    HW225677   5.534   2.897   4.130
 8260SOL     OW25678   4.619   2.187   6.779
 8260SOL    HW125679   4.636   2.089   6.773
 8260SOL    HW225680   4.527   2.204   6.813
 8261SOL     OW25681   5.841   2.044   2.848
 8261SOL    HW125682   5.775   2.103   2.801
 8261SOL    HW225683   5.799   2.009   2.932
 8262SOL     OW25684   4.884   3.767   2.074
 8262SOL    HW125685   4.917   3.690   2.020
 8262SOL    HW225686   4.849   3.839   2.013
 8263SOL     OW25687   6.299   1.520   6.930
 8263SOL    HW125688   6.264   1.577   7.005
 8263SOL    HW225689   6.232   1.449   6.909
 8264SOL     OW25690   2.960   0.795   1.678
 8264SOL    HW125691   2.905   0.808   1.761
 8264SOL    HW225692   2.953   0.876   1.620
 8265SOL     OW25693   4.439   5.759   0.394
 8265SOL    HW125694   4.520   5.818   0.385
 8265SOL    HW225695   4.464   5.665   0.370
 8266SOL     OW25696   4.250   1.962   3.337
 8266SOL    HW125697   4.211   2.049   3.305
 8266SOL    HW225698   4.341   1.979   3.374
 8267SOL     OW25699   1.902   3.060   3.314
 8267SOL    HW125700   1.871   3.136   3.258
 8267SOL    HW225701   1.917   3.091   3.408
 8268SOL     OW25702   2.671   5.325   1.544
 8268SOL    HW125703   2.767   5.315   1.518
 8268SOL    HW225704   2.662   5.315   1.643
 8269SOL     OW25705   6.920   1.408   4.297
 8269SOL    HW125706   6.906   1.346   4.220
 8269SOL    HW225707   7.007   1.387   4.342
 8270SOL     OW25708   3.488   4.632   0.093
 8270SOL    HW125709   3.462   4.718   0.051
 8270SOL    HW225710   3.406   4.585   0.128
 8271SOL     OW25711   3.404   6.946   5.391
 8271SOL    HW125712   3.390   6.931   5.293
 8271SOL    HW225713   3.317   6.935   5.439
 8272SOL     OW25714   1.075   0.372   1.913
 8272SOL    HW125715   1.041   0.444   1.854
 8272SOL    HW225716   1.134   0.412   1.984
 8273SOL     OW25717   4.448   6.744   6.011
 8273SOL    HW125718   4.529   6.793   5.981
 8273SOL    HW225719   4.415   6.783   6.097
 8274SOL     OW25720   5.532   6.723   3.894
 8274SOL    HW125721   5.498   6.683   3.809
 8274SOL    HW225722   5.455   6.752   3.950
 8275SOL     OW25723   4.834   0.809   4.945
 8275SOL    HW125724   4.758   0.744   4.937
 8275SOL    HW225725   4.839   0.843   5.039
 8276SOL     OW25726   5.808   2.919   0.854
 8276SOL    HW125727   5.908   2.912   0.847
 8276SOL    HW225728   5.776   2.863   0.930
 8277SOL     OW25729   1.537   0.204   1.454
 8277SOL    HW125730   1.585   0.150   1.523
 8277SOL    HW225731   1.442   0.215   1.481
 8278SOL     OW25732   1.681   0.922   1.092
 8278SOL    HW125733   1.687   0.823   1.081
 8278SOL    HW225734   1.585   0.948   1.106
 8279SOL     OW25735   5.822   5.119   5.596
 8279SOL    HW125736   5.836   5.196   5.534
 8279SOL    HW225737   5.895   5.052   5.584
 8280SOL     OW25738   5.866   3.987   7.018
 8280SOL    HW125739   5.864   3.992   6.918
 8280SOL    HW225740   5.961   3.991   0.024
 8281SOL     OW25741   3.193   4.879   6.314
 8281SOL    HW125742   3.265   4.948   6.317
 8281SOL    HW225743   3.229   4.792   6.349
 8282SOL     OW25744   4.106   2.915   1.142
 8282SOL    HW125745   4.044   2.985   1.178
 8282SOL    HW225746   4.069   2.880   1.055
 8283SOL     OW25747   0.514   0.509   3.443
 8283SOL    HW125748   0.446   0.441   3.415
 8283SOL    HW225749   0.605   0.471   3.434
 8284SOL     OW25750   5.335   2.015   1.874
 8284SOL    HW125751   5.276   1.988   1.950
 8284SOL    HW225752   5.409   2.073   1.908
 8285SOL     OW25753   0.494   4.558   0.422
 8285SOL    HW125754   0.559   4.575   0.349
 8285SOL    HW225755   0.449   4.470   0.407
 8286SOL     OW25756   6.645   1.905   6.491
 8286SOL    HW125757   6.729   1.934   6.445
 8286SOL    HW225758   6.590   1.849   6.429
 8287SOL     OW25759   0.252   0.263   3.610
 8287SOL    HW125760   0.197   0.308   3.539
 8287SOL    HW225761   0.340   0.235   3.572
 8288SOL     OW25762   3.023   0.244   2.253
 8288SOL    HW125763   3.042   0.328   2.202
 8288SOL    HW225764   3.082   0.171   2.220
 8289SOL     OW25765   6.068   6.881   0.228
 8289SOL    HW125766   6.024   6.864   0.317
 8289SOL    HW225767   6.121   6.800   0.202
 8290SOL     OW25768   4.984   2.774   1.894
 8290SOL    HW125769   5.040   2.694   1.914
 8290SOL    HW225770   4.943   2.808   1.978
 8291SOL     OW25771   5.227   5.778   5.582
 8291SOL    HW125772   5.135   5.765   5.545
 8291SOL    HW225773   5.221   5.784   5.682
 8292SOL     OW25774   6.759   3.863   5.379
 8292SOL    HW125775   6.837   3.911   5.339
 8292SOL    HW225776   6.789   3.814   5.461
 8293SOL     OW25777   2.756   5.665   4.224
 8293SOL    HW125778   2.662   5.699   4.232
 8293SOL    HW225779   2.811   5.729   4.171
 8294SOL     OW25780   6.997   3.364   6.295
 8294SOL    HW125781   0.028   3.282   6.293
 8294SOL    HW225782   0.011   3.430   6.359
 8295SOL     OW25783   4.093   5.271   2.129
 8295SOL    HW125784   4.025   5.292   2.060
 8295SOL    HW225785   4.052   5.218   2.203
 8296SOL     OW25786   4.130   0.057   2.404
 8296SOL    HW125787   4.124   0.143   2.454
 8296SOL    HW225788   4.066   0.058   2.327
 8297SOL     OW25789   5.502   4.241   1.876
 8297SOL    HW125790   5.499   4.175   1.951
 8297SOL    HW225791   5.597   4.266   1.858
 8298SOL     OW25792   6.903   7.020   0.961
 8298SOL    HW125793   6.989   6.988   1.000
 8298SOL    HW225794   6.921   0.067   0.894
 8299SOL     OW25795   0.910   2.901   6.218
 8299SOL    HW125796   0.861   2.819   6.189
 8299SOL    HW225797   0.928   2.896   6.316
 8300SOL     OW25798   5.240   5.584   3.958
 8300SOL    HW125799   5.236   5.665   3.900
 8300SOL    HW225800   5.197   5.507   3.911
 8301SOL     OW25801   6.523   5.691   0.322
 8301SOL    HW125802   6.492   5.602   0.353
 8301SOL    HW225803   6.612   5.711   0.362
 8302SOL     OW25804   3.600   6.698   5.803
 8302SOL    HW125805   3.637   6.746   5.883
 8302SOL    HW225806   3.504   6.676   5.819
 8303SOL     OW25807   1.425   5.110   3.758
 8303SOL    HW125808   1.455   5.191   3.708
 8303SOL    HW225809   1.328   5.116   3.779
 8304SOL     OW25810   5.516   2.879   3.752
 8304SOL    HW125811   5.564   2.934   3.683
 8304SOL    HW225812   5.456   2.813   3.707
 8305SOL     OW25813   4.624   6.798   5.468
 8305SOL    HW125814   4.691   6.803   5.394
 8305SOL    HW225815   4.594   6.890   5.492
 8306SOL     OW25816   4.941   0.975   3.972
 8306SOL    HW125817   4.998   1.055   3.952
 8306SOL    HW225818   4.850   0.989   3.934
 8307SOL     OW25819   7.003   4.963   4.254
 8307SOL    HW125820   0.018   5.015   4.179
 8307SOL    HW225821   6.911   4.998   4.272
 8308SOL     OW25822   1.803   5.480   0.356
 8308SOL    HW125823   1.710   5.448   0.371
 8308SOL    HW225824   1.847   5.501   0.444
 8309SOL     OW25825   6.191   4.539   2.740
 8309SOL    HW125826   6.268   4.485   2.772
 8309SOL    HW225827   6.196   4.549   2.640
 8310SOL     OW25828   2.033   6.473   3.119
 8310SOL    HW125829   2.041   6.555   3.176
 8310SOL    HW225830   2.069   6.394   3.169
 8311SOL     OW25831   4.838   5.961   1.846
 8311SOL    HW125832   4.857   5.870   1.811
 8311SOL    HW225833   4.764   6.002   1.793
 8312SOL     OW25834   6.465   1.515   0.597
 8312SOL    HW125835   6.465   1.460   0.681
 8312SOL    HW225836   6.498   1.459   0.521
 8313SOL     OW25837   4.678   2.747   6.039
 8313SOL    HW125838   4.709   2.682   5.970
 8313SOL    HW225839   4.661   2.698   6.125
 8314SOL     OW25840   4.550   5.446   3.909
 8314SOL    HW125841   4.484   5.397   3.851
 8314SOL    HW225842   4.581   5.385   3.982
 8315SOL     OW25843   3.027   2.580   6.671
 8315SOL    HW125844   2.974   2.503   6.636
 8315SOL    HW225845   3.122   2.571   6.641
 8316SOL     OW25846   1.708   1.374   4.540
 8316SOL    HW125847   1.721   1.473   4.540
 8316SOL    HW225848   1.614   1.353   4.513
 8317SOL     OW25849   1.320   1.859   5.910
 8317SOL    HW125850   1.236   1.805   5.917
 8317SOL    HW225851   1.338   1.880   5.814
 8318SOL     OW25852   4.556   6.555   5.340
 8318SOL    HW125853   4.649   6.523   5.362
 8318SOL    HW225854   4.552   6.654   5.352
 8319SOL     OW25855   2.644   5.990   6.923
 8319SOL    HW125856   2.608   5.950   6.838
 8319SOL    HW225857   2.589   6.069   6.948
 8320SOL     OW25858   3.910   4.985   5.728
 8320SOL    HW125859   3.877   5.073   5.695
 8320SOL    HW225860   3.906   4.983   5.828
 8321SOL     OW25861   0.494   0.651   1.047
 8321SOL    HW125862   0.541   0.673   0.961
 8321SOL    HW225863   0.562   0.629   1.117
 8322SOL     OW25864   1.831   1.062   1.382
 8322SOL    HW125865   1.812   0.964   1.380
 8322SOL    HW225866   1.922   1.080   1.345
 8323SOL     OW25867   5.745   4.865   0.176
 8323SOL    HW125868   5.810   4.929   0.135
 8323SOL    HW225869   5.790   4.777   0.192
 8324SOL     OW25870   5.481   6.681   6.085
 8324SOL    HW125871   5.545   6.672   6.161
 8324SOL    HW225872   5.516   6.746   6.018
 8325SOL     OW25873   1.331   6.453   4.605
 8325SOL    HW125874   1.270   6.514   4.554
 8325SOL    HW225875   1.369   6.384   4.542
 8326SOL     OW25876   2.371   2.018   6.796
 8326SOL    HW125877   2.383   1.919   6.806
 8326SOL    HW225878   2.308   2.036   6.720
 8327SOL     OW25879   0.636   6.256   4.969
 8327SOL    HW125880   0.590   6.319   5.032
 8327SOL    HW225881   0.609   6.277   4.875
 8328SOL     OW25882   1.390   6.752   0.993
 8328SOL    HW125883   1.387   6.692   1.073
 8328SOL    HW225884   1.418   6.844   1.022
 8329SOL     OW25885   1.404   2.474   5.018
 8329SOL    HW125886   1.416   2.539   4.944
 8329SOL    HW225887   1.488   2.467   5.072
 8330SOL     OW25888   3.114   0.102   0.047
 8330SOL    HW125889   3.069   0.050   0.119
 8330SOL    HW225890   3.126   0.197   0.076
 8331SOL     OW25891   2.067   2.523   6.097
 8331SOL    HW125892   2.126   2.594   6.135
 8331SOL    HW225893   2.058   2.537   5.998
 8332SOL     OW25894   5.658   3.691   1.328
 8332SOL    HW125895   5.715   3.772   1.344
 8332SOL    HW225896   5.585   3.688   1.396
 8333SOL     OW25897   3.075   4.410   6.472
 8333SOL    HW125898   3.036   4.327   6.512
 8333SOL    HW225899   3.133   4.387   6.395
 8334SOL     OW25900   3.410   2.573   5.348
 8334SOL    HW125901   3.354   2.519   5.286
 8334SOL    HW225902   3.495   2.599   5.303
 8335SOL     OW25903   5.446   3.957   6.161
 8335SOL    HW125904   5.463   3.863   6.131
 8335SOL    HW225905   5.502   4.020   6.107
 8336SOL     OW25906   1.109   4.349   3.392
 8336SOL    HW125907   1.095   4.406   3.473
 8336SOL    HW225908   1.070   4.394   3.312
 8337SOL     OW25909   6.602   0.953   4.187
 8337SOL    HW125910   6.522   0.898   4.209
 8337SOL    HW225911   6.610   1.029   4.251
 8338SOL     OW25912   2.455   5.868   0.992
 8338SOL    HW125913   2.376   5.821   1.032
 8338SOL    HW225914   2.439   5.966   0.993
 8339SOL     OW25915   6.661   0.670   1.658
 8339SOL    HW125916   6.638   0.766   1.676
 8339SOL    HW225917   6.685   0.626   1.744
 8340SOL     OW25918   5.918   2.463   6.655
 8340SOL    HW125919   5.947   2.368   6.660
 8340SOL    HW225920   5.999   2.523   6.653
 8341SOL     OW25921   3.471   0.352   1.224
 8341SOL    HW125922   3.399   0.368   1.291
 8341SOL    HW225923   3.483   0.434   1.168
 8342SOL     OW25924   4.716   1.228   0.932
 8342SOL    HW125925   4.804   1.184   0.915
 8342SOL    HW225926   4.645   1.179   0.881
 8343SOL     OW25927   5.132   5.694   3.020
 8343SOL    HW125928   5.191   5.615   3.006
 8343SOL    HW225929   5.086   5.686   3.108
 8344SOL     OW25930   2.385   4.554   6.154
 8344SOL    HW125931   2.424   4.589   6.069
 8344SOL    HW225932   2.300   4.505   6.135
 8345SOL     OW25933   6.270   0.430   3.830
 8345SOL    HW125934   6.176   0.396   3.834
 8345SOL    HW225935   6.329   0.363   3.784
 8346SOL     OW25936   5.795   3.878   3.810
 8346SOL    HW125937   5.825   3.892   3.905
 8346SOL    HW225938   5.795   3.966   3.762
 8347SOL     OW25939   1.523   1.954   6.324
 8347SOL    HW125940   1.541   1.872   6.270
 8347SOL    HW225941   1.528   1.932   6.422
 8348SOL     OW25942   3.436   5.782   1.121
 8348SOL    HW125943   3.431   5.880   1.137
 8348SOL    HW225944   3.481   5.764   1.034
 8349SOL     OW25945   4.630   5.588   1.705
 8349SOL    HW125946   4.651   5.509   1.648
 8349SOL    HW225947   4.638   5.563   1.802
 8350SOL     OW25948   1.812   0.430   6.800
 8350SOL    HW125949   1.871   0.407   6.878
 8350SOL    HW225950   1.717   0.437   6.832
 8351SOL     OW25951   0.007   2.969   3.073
 8351SOL    HW125952   7.018   2.974   3.172
 8351SOL    HW225953   0.088   2.914   3.054
 8352SOL     OW25954   2.932   6.536   6.377
 8352SOL    HW125955   2.859   6.494   6.323
 8352SOL    HW225956   2.909   6.530   6.474
 8353SOL     OW25957   0.573   5.678   2.773
 8353SOL    HW125958   0.570   5.589   2.820
 8353SOL    HW225959   0.534   5.668   2.681
 8354SOL     OW25960   4.463   2.230   3.646
 8354SOL    HW125961   4.493   2.272   3.560
 8354SOL    HW225962   4.524   2.153   3.668
 8355SOL     OW25963   2.907   5.300   6.202
 8355SOL    HW125964   2.842   5.254   6.262
 8355SOL    HW225965   3.000   5.274   6.228
 8356SOL     OW25966   2.755   3.901   1.327
 8356SOL    HW125967   2.675   3.877   1.272
 8356SOL    HW225968   2.759   3.840   1.407
 8357SOL     OW25969   2.890   6.892   4.737
 8357SOL    HW125970   2.867   6.804   4.694
 8357SOL    HW225971   2.985   6.891   4.765
 8358SOL     OW25972   0.322   0.022   4.847
 8358SOL    HW125973   0.323   0.121   4.864
 8358SOL    HW225974   0.313   0.004   4.749
 8359SOL     OW25975   4.963   1.780   5.137
 8359SOL    HW125976   5.025   1.832   5.196
 8359SOL    HW225977   5.001   1.777   5.045
 8360SOL     OW25978   3.295   6.900   1.966
 8360SOL    HW125979   3.319   6.831   2.034
 8360SOL    HW225980   3.213   6.872   1.917
 8361SOL     OW25981   5.080   1.135   0.450
 8361SOL    HW125982   4.988   1.147   0.488
 8361SOL    HW225983   5.109   1.040   0.462
 8362SOL     OW25984   0.700   4.202   1.401
 8362SOL    HW125985   0.688   4.112   1.358
 8362SOL    HW225986   0.742   4.265   1.335
 8363SOL     OW25987   1.729   2.063   1.680
 8363SOL    HW125988   1.756   2.012   1.599
 8363SOL    HW225989   1.701   1.999   1.752
 8364SOL     OW25990   0.165   1.768   3.581
 8364SOL    HW125991   0.160   1.671   3.607
 8364SOL    HW225992   0.210   1.776   3.492
 8365SOL     OW25993   1.724   2.414   1.446
 8365SOL    HW125994   1.701   2.368   1.361
 8365SOL    HW225995   1.806   2.372   1.486
 8366SOL     OW25996   5.155   5.749   2.078
 8366SOL    HW125997   5.144   5.660   2.123
 8366SOL    HW225998   5.122   5.821   2.139
 8367SOL     OW25999   1.832   4.090   3.501
 8367SOL    HW126000   1.778   4.174   3.501
 8367SOL    HW226001   1.910   4.100   3.439
 8368SOL     OW26002   6.814   3.939   5.905
 8368SOL    HW126003   6.831   3.880   5.825
 8368SOL    HW226004   6.718   3.966   5.907
 8369SOL     OW26005   1.333   0.311   0.044
 8369SOL    HW126006   1.366   0.405   0.036
 8369SOL    HW226007   1.412   0.249   0.048
 8370SOL     OW26008   3.075   3.205   0.332
 8370SOL    HW126009   3.130   3.182   0.251
 8370SOL    HW226010   3.052   3.121   0.381
 8371SOL     OW26011   2.998   3.988   5.858
 8371SOL    HW126012   2.976   4.082   5.883
 8371SOL    HW226013   3.015   3.935   5.941
 8372SOL     OW26014   1.559   0.306   1.823
 8372SOL    HW126015   1.548   0.220   1.872
 8372SOL    HW226016   1.649   0.307   1.778
 8373SOL     OW26017   5.217   1.129   4.011
 8373SOL    HW126018   5.296   1.181   3.979
 8373SOL    HW226019   5.248   1.041   4.048
 8374SOL     OW26020   0.899   1.883   3.487
 8374SOL    HW126021   0.999   1.879   3.492
 8374SOL    HW226022   0.860   1.802   3.531
 8375SOL     OW26023   1.171   2.378   5.166
 8375SOL    HW126024   1.254   2.387   5.110
 8375SOL    HW226025   1.191   2.324   5.247
 8376SOL     OW26026   0.647   2.088   4.225
 8376SOL    HW126027   0.621   2.077   4.130
 8376SOL    HW226028   0.715   2.161   4.233
 8377SOL     OW26029   3.392   5.326   1.262
 8377SOL    HW126030   3.374   5.232   1.290
 8377SOL    HW226031   3.475   5.329   1.206
 8378SOL     OW26032   3.961   5.261   4.710
 8378SOL    HW126033   3.950   5.300   4.619
 8378SOL    HW226034   3.942   5.332   4.779
 8379SOL     OW26035   6.058   2.539   2.076
 8379SOL    HW126036   6.115   2.618   2.052
 8379SOL    HW226037   6.051   2.531   2.175
 8380SOL     OW26038   1.122   5.882   2.230
 8380SOL    HW126039   1.187   5.957   2.240
 8380SOL    HW226040   1.044   5.897   2.292
 8381SOL     OW26041   1.269   2.400   2.634
 8381SOL    HW126042   1.351   2.344   2.618
 8381SOL    HW226043   1.287   2.464   2.708
 8382SOL     OW26044   0.938   6.344   1.637
 8382SOL    HW126045   0.968   6.291   1.558
 8382SOL    HW226046   0.993   6.320   1.717
 8383SOL     OW26047   2.507   6.890   5.697
 8383SOL    HW126048   2.514   6.978   5.649
 8383SOL    HW226049   2.411   6.873   5.721
 8384SOL     OW26050   0.372   3.351   3.273
 8384SOL    HW126051   0.393   3.264   3.228
 8384SOL    HW226052   0.302   3.400   3.221
 8385SOL     OW26053   4.440   2.245   2.104
 8385SOL    HW126054   4.476   2.317   2.163
 8385SOL    HW226055   4.458   2.268   2.008
 8386SOL     OW26056   0.314   5.471   1.512
 8386SOL    HW126057   0.394   5.422   1.479
 8386SOL    HW226058   0.247   5.406   1.547
 8387SOL     OW26059   0.495   1.881   3.507
 8387SOL    HW126060   0.502   1.892   3.606
 8387SOL    HW226061   0.506   1.784   3.484
 8388SOL     OW26062   3.854   5.231   1.760
 8388SOL    HW126063   3.767   5.208   1.716
 8388SOL    HW226064   3.868   5.173   1.840
 8389SOL     OW26065   0.983   2.672   3.850
 8389SOL    HW126066   1.036   2.652   3.768
 8389SOL    HW226067   1.033   2.641   3.931
 8390SOL     OW26068   2.965   0.564   6.305
 8390SOL    HW126069   3.007   0.504   6.237
 8390SOL    HW226070   2.869   0.538   6.316
 8391SOL     OW26071   4.485   6.030   1.060
 8391SOL    HW126072   4.399   6.011   1.012
 8391SOL    HW226073   4.466   6.075   1.147
 8392SOL     OW26074   4.094   5.387   0.482
 8392SOL    HW126075   4.135   5.478   0.477
 8392SOL    HW226076   4.077   5.353   0.390
 8393SOL     OW26077   0.848   5.609   1.821
 8393SOL    HW126078   0.764   5.560   1.798
 8393SOL    HW226079   0.829   5.707   1.826
 8394SOL     OW26080   1.463   1.149   3.271
 8394SOL    HW126081   1.545   1.111   3.228
 8394SOL    HW226082   1.473   1.248   3.280
 8395SOL     OW26083   1.684   6.016   6.159
 8395SOL    HW126084   1.692   6.041   6.255
 8395SOL    HW226085   1.772   6.029   6.114
 8396SOL     OW26086   4.333   2.524   0.809
 8396SOL    HW126087   4.277   2.605   0.825
 8396SOL    HW226088   4.361   2.485   0.896
 8397SOL     OW26089   1.374   4.337   3.298
 8397SOL    HW126090   1.288   4.307   3.338
 8397SOL    HW226091   1.393   4.431   3.324
 8398SOL     OW26092   5.715   1.600   6.676
 8398SOL    HW126093   5.675   1.509   6.676
 8398SOL    HW226094   5.694   1.647   6.761
 8399SOL     OW26095   5.568   6.148   5.598
 8399SOL    HW126096   5.550   6.242   5.627
 8399SOL    HW226097   5.661   6.123   5.623
 8400SOL     OW26098   6.098   6.636   3.739
 8400SOL    HW126099   6.008   6.667   3.710
 8400SOL    HW226100   6.094   6.539   3.764
 8401SOL     OW26101   2.929   3.677   5.415
 8401SOL    HW126102   3.018   3.667   5.460
 8401SOL    HW226103   2.891   3.767   5.438
 8402SOL     OW26104   5.100   0.510   5.217
 8402SOL    HW126105   5.055   0.598   5.232
 8402SOL    HW226106   5.033   0.436   5.222
 8403SOL     OW26107   0.602   2.768   5.423
 8403SOL    HW126108   0.658   2.685   5.431
 8403SOL    HW226109   0.650   2.845   5.466
 8404SOL     OW26110   4.885   5.460   5.522
 8404SOL    HW126111   4.966   5.423   5.568
 8404SOL    HW226112   4.803   5.419   5.562
 8405SOL     OW26113   1.685   2.629   5.562
 8405SOL    HW126114   1.628   2.625   5.644
 8405SOL    HW226115   1.637   2.584   5.486
 8406SOL     OW26116   5.594   3.451   1.796
 8406SOL    HW126117   5.496   3.429   1.797
 8406SOL    HW226118   5.608   3.541   1.838
 8407SOL     OW26119   4.933   3.734   3.038
 8407SOL    HW126120   4.872   3.694   2.969
 8407SOL    HW226121   4.990   3.804   2.994
 8408SOL     OW26122   4.910   3.574   4.228
 8408SOL    HW126123   4.952   3.513   4.295
 8408SOL    HW226124   4.904   3.666   4.265
 8409SOL     OW26125   1.580   1.524   3.612
 8409SOL    HW126126   1.622   1.524   3.522
 8409SOL    HW226127   1.651   1.520   3.682
 8410SOL     OW26128   2.141   4.840   2.410
 8410SOL    HW126129   2.215   4.820   2.474
 8410SOL    HW226130   2.171   4.819   2.317
 8411SOL     OW26131   1.885   3.364   3.457
 8411SOL    HW126132   1.813   3.430   3.481
 8411SOL    HW226133   1.873   3.334   3.362
 8412SOL     OW26134   6.224   3.009   2.471
 8412SOL    HW126135   6.203   3.076   2.399
 8412SOL    HW226136   6.248   2.922   2.429
 8413SOL     OW26137   2.210   5.042   0.985
 8413SOL    HW126138   2.282   5.035   0.916
 8413SOL    HW226139   2.170   5.133   0.982
 8414SOL     OW26140   5.893   0.811   3.655
 8414SOL    HW126141   5.975   0.794   3.708
 8414SOL    HW226142   5.869   0.729   3.603
 8415SOL     OW26143   6.832   4.685   1.300
 8415SOL    HW126144   6.871   4.654   1.214
 8415SOL    HW226145   6.884   4.764   1.334
 8416SOL     OW26146   4.446   4.751   2.267
 8416SOL    HW126147   4.429   4.799   2.181
 8416SOL    HW226148   4.514   4.679   2.251
 8417SOL     OW26149   1.456   5.586   0.015
 8417SOL    HW126150   1.444   5.487   0.001
 8417SOL    HW226151   1.421   5.611   0.104
 8418SOL     OW26152   5.541   5.814   2.856
 8418SOL    HW126153   5.578   5.892   2.807
 8418SOL    HW226154   5.484   5.760   2.794
 8419SOL     OW26155   4.514   0.733   3.892
 8419SOL    HW126156   4.582   0.806   3.902
 8419SOL    HW226157   4.514   0.676   3.974
 8420SOL     OW26158   4.033   2.208   5.517
 8420SOL    HW126159   4.049   2.284   5.454
 8420SOL    HW226160   3.969   2.144   5.476
 8421SOL     OW26161   0.491   1.444   1.114
 8421SOL    HW126162   0.559   1.377   1.145
 8421SOL    HW226163   0.455   1.493   1.193
 8422SOL     OW26164   3.036   0.118   1.942
 8422SOL    HW126165   3.131   0.143   1.958
 8422SOL    HW226166   2.976   0.187   1.982
 8423SOL     OW26167   2.244   3.602   1.042
 8423SOL    HW126168   2.300   3.641   1.115
 8423SOL    HW226169   2.295   3.604   0.956
 8424SOL     OW26170   2.743   2.421   1.396
 8424SOL    HW126171   2.733   2.462   1.486
 8424SOL    HW226172   2.772   2.490   1.330
 8425SOL     OW26173   0.351   4.467   6.013
 8425SOL    HW126174   0.265   4.511   5.986
 8425SOL    HW226175   0.356   4.463   6.113
 8426SOL     OW26176   3.548   3.121   2.296
 8426SOL    HW126177   3.600   3.039   2.321
 8426SOL    HW226178   3.463   3.092   2.251
 8427SOL     OW26179   1.929   2.307   0.041
 8427SOL    HW126180   1.872   2.322   6.986
 8427SOL    HW226181   1.919   2.385   0.103
 8428SOL     OW26182   6.239   3.693   0.837
 8428SOL    HW126183   6.258   3.731   0.928
 8428SOL    HW226184   6.180   3.613   0.847
 8429SOL     OW26185   1.860   6.691   3.471
 8429SOL    HW126186   1.877   6.741   3.386
 8429SOL    HW226187   1.768   6.712   3.504
 8430SOL     OW26188   4.879   4.986   3.011
 8430SOL    HW126189   4.895   4.995   3.110
 8430SOL    HW226190   4.839   5.071   2.976
 8431SOL     OW26191   3.087   3.375   2.464
 8431SOL    HW126192   3.125   3.468   2.453
 8431SOL    HW226193   2.988   3.379   2.459
 8432SOL     OW26194   4.580   6.070   6.655
 8432SOL    HW126195   4.511   6.009   6.693
 8432SOL    HW226196   4.541   6.123   6.580
 8433SOL     OW26197   0.234   1.296   3.670
 8433SOL    HW126198   0.312   1.238   3.696
 8433SOL    HW226199   0.236   1.312   3.571
 8434SOL     OW26200   5.753   6.928   6.627
 8434SOL    HW126201   5.727   6.993   6.555
 8434SOL    HW226202   5.845   6.949   6.658
 8435SOL     OW26203   4.969   2.445   1.184
 8435SOL    HW126204   4.944   2.353   1.212
 8435SOL    HW226205   5.036   2.482   1.249
 8436SOL     OW26206   3.060   4.337   1.724
 8436SOL    HW126207   2.995   4.387   1.781
 8436SOL    HW226208   3.048   4.363   1.628
 8437SOL     OW26209   0.301   2.092   1.036
 8437SOL    HW126210   0.222   2.153   1.042
 8437SOL    HW226211   0.385   2.146   1.043
 8438SOL     OW26212   2.342   5.557   0.696
 8438SOL    HW126213   2.364   5.589   0.604
 8438SOL    HW226214   2.248   5.582   0.719
 8439SOL     OW26215   5.284   0.698   1.334
 8439SOL    HW126216   5.308   0.646   1.252
 8439SOL    HW226217   5.213   0.650   1.384
 8440SOL     OW26218   1.200   3.219   4.119
 8440SOL    HW126219   1.272   3.244   4.054
 8440SOL    HW226220   1.194   3.289   4.190
 8441SOL     OW26221   4.330   6.017   1.734
 8441SOL    HW126222   4.368   6.071   1.810
 8441SOL    HW226223   4.257   5.957   1.769
 8442SOL     OW26224   2.671   2.684   0.778
 8442SOL    HW126225   2.676   2.665   0.680
 8442SOL    HW226226   2.688   2.781   0.794
 8443SOL     OW26227   6.838   1.725   1.696
 8443SOL    HW126228   6.749   1.681   1.704
 8443SOL    HW226229   6.892   1.679   1.625
 8444SOL     OW26230   4.522   1.611   3.405
 8444SOL    HW126231   4.505   1.637   3.310
 8444SOL    HW226232   4.607   1.652   3.436
 8445SOL     OW26233   5.071   5.527   2.182
 8445SOL    HW126234   5.104   5.433   2.180
 8445SOL    HW226235   5.017   5.542   2.264
 8446SOL     OW26236   6.875   3.394   3.152
 8446SOL    HW126237   6.821   3.317   3.117
 8446SOL    HW226238   6.963   3.397   3.104
 8447SOL     OW26239   4.426   4.074   0.913
 8447SOL    HW126240   4.496   4.110   0.851
 8447SOL    HW226241   4.443   3.977   0.930
 8448SOL     OW26242   1.760   4.460   5.842
 8448SOL    HW126243   1.666   4.473   5.876
 8448SOL    HW226244   1.774   4.363   5.823
 8449SOL     OW26245   1.307   0.707   5.107
 8449SOL    HW126246   1.333   0.747   5.019
 8449SOL    HW226247   1.240   0.766   5.152
 8450SOL     OW26248   2.081   5.636   0.796
 8450SOL    HW126249   2.071   5.735   0.792
 8450SOL    HW226250   2.014   5.598   0.859
 8451SOL     OW26251   3.210   3.568   0.570
 8451SOL    HW126252   3.161   3.603   0.650
 8451SOL    HW226253   3.225   3.470   0.581
 8452SOL     OW26254   0.143   5.997   1.405
 8452SOL    HW126255   0.073   5.930   1.379
 8452SOL    HW226256   0.187   5.968   1.490
 8453SOL     OW26257   6.844   4.916   5.095
 8453SOL    HW126258   6.860   5.012   5.119
 8453SOL    HW226259   6.748   4.904   5.069
 8454SOL     OW26260   2.105   0.170   4.858
 8454SOL    HW126261   2.137   0.077   4.840
 8454SOL    HW226262   2.168   0.236   4.817
 8455SOL     OW26263   5.984   2.618   0.731
 8455SOL    HW126264   6.022   2.702   0.770
 8455SOL    HW226265   5.917   2.579   0.793
 8456SOL     OW26266   5.465   4.817   3.369
 8456SOL    HW126267   5.532   4.746   3.346
 8456SOL    HW226268   5.498   4.906   3.337
 8457SOL     OW26269   6.685   6.661   5.720
 8457SOL    HW126270   6.690   6.633   5.624
 8457SOL    HW226271   6.669   6.759   5.726
 8458SOL     OW26272   1.469   2.012   1.150
 8458SOL    HW126273   1.477   2.059   1.238
 8458SOL    HW226274   1.372   2.001   1.127
 8459SOL     OW26275   2.377   5.126   3.190
 8459SOL    HW126276   2.362   5.036   3.231
 8459SOL    HW226277   2.413   5.114   3.098
 8460SOL     OW26278   3.806   1.403   1.704
 8460SOL    HW126279   3.869   1.463   1.654
 8460SOL    HW226280   3.749   1.353   1.639
 8461SOL     OW26281   5.403   3.965   3.295
 8461SOL    HW126282   5.466   4.016   3.353
 8461SOL    HW226283   5.312   4.005   3.301
 8462SOL     OW26284   1.773   4.146   0.920
 8462SOL    HW126285   1.818   4.229   0.952
 8462SOL    HW226286   1.706   4.169   0.850
 8463SOL     OW26287   0.091   6.936   1.123
 8463SOL    HW126288   0.088   0.004   1.157
 8463SOL    HW226289   0.104   6.873   1.199
 8464SOL     OW26290   6.500   2.915   6.584
 8464SOL    HW126291   6.547   2.908   6.672
 8464SOL    HW226292   6.568   2.921   6.511
 8465SOL     OW26293   4.965   4.015   0.989
 8465SOL    HW126294   4.962   3.940   0.923
 8465SOL    HW226295   4.950   4.102   0.941
 8466SOL     OW26296   0.270   1.269   5.483
 8466SOL    HW126297   0.265   1.169   5.479
 8466SOL    HW226298   0.324   1.296   5.563
 8467SOL     OW26299   3.074   1.026   0.932
 8467SOL    HW126300   3.121   0.949   0.974
 8467SOL    HW226301   3.074   1.016   0.833
 8468SOL     OW26302   5.284   3.994   0.683
 8468SOL    HW126303   5.224   4.072   0.664
 8468SOL    HW226304   5.374   4.027   0.710
 8469SOL     OW26305   3.947   3.084   5.233
 8469SOL    HW126306   3.850   3.076   5.212
 8469SOL    HW226307   3.958   3.118   5.327
 8470SOL     OW26308   1.516   5.888   1.790
 8470SOL    HW126309   1.427   5.922   1.760
 8470SOL    HW226310   1.558   5.835   1.717
 8471SOL     OW26311   4.026   1.442   3.846
 8471SOL    HW126312   3.981   1.381   3.781
 8471SOL    HW226313   3.982   1.532   3.842
 8472SOL     OW26314   5.728   1.502   6.307
 8472SOL    HW126315   5.692   1.596   6.304
 8472SOL    HW226316   5.821   1.503   6.343
 8473SOL     OW26317   5.550   5.487   5.829
 8473SOL    HW126318   5.581   5.571   5.874
 8473SOL    HW226319   5.491   5.510   5.752
 8474SOL     OW26320   3.228   3.982   5.310
 8474SOL    HW126321   3.207   4.079   5.326
 8474SOL    HW226322   3.167   3.947   5.238
 8475SOL     OW26323   0.056   2.059   2.873
 8475SOL    HW126324   0.014   1.989   2.816
 8475SOL    HW226325   7.025   2.075   2.954
 8476SOL     OW26326   6.261   1.138   2.175
 8476SOL    HW126327   6.241   1.228   2.137
 8476SOL    HW226328   6.204   1.122   2.256
 8477SOL     OW26329   5.613   0.660   0.649
 8477SOL    HW126330   5.705   0.654   0.687
 8477SOL    HW226331   5.570   0.745   0.679
 8478SOL     OW26332   1.012   6.688   6.124
 8478SOL    HW126333   1.026   6.783   6.095
 8478SOL    HW226334   1.060   6.672   6.210
 8479SOL     OW26335   0.972   2.697   0.148
 8479SOL    HW126336   0.918   2.748   0.215
 8479SOL    HW226337   0.958   2.735   0.057
 8480SOL     OW26338   3.042   4.245   0.727
 8480SOL    HW126339   3.121   4.223   0.670
 8480SOL    HW226340   2.986   4.314   0.682
 8481SOL     OW26341   4.711   2.875   2.787
 8481SOL    HW126342   4.757   2.806   2.843
 8481SOL    HW226343   4.730   2.966   2.824
 8482SOL     OW26344   4.446   0.247   6.425
 8482SOL    HW126345   4.535   0.205   6.442
 8482SOL    HW226346   4.411   0.215   6.337
 8483SOL     OW26347   4.007   4.787   3.493
 8483SOL    HW126348   3.926   4.838   3.464
 8483SOL    HW226349   4.031   4.721   3.422
 8484SOL     OW26350   6.420   6.363   5.111
 8484SOL    HW126351   6.492   6.371   5.181
 8484SOL    HW226352   6.337   6.408   5.144
 8485SOL     OW26353   4.220   0.822   5.818
 8485SOL    HW126354   4.123   0.846   5.819
 8485SOL    HW226355   4.257   0.830   5.910
 8486SOL     OW26356   5.556   2.324   4.601
 8486SOL    HW126357   5.553   2.225   4.593
 8486SOL    HW226358   5.648   2.353   4.625
 8487SOL     OW26359   6.751   2.052   6.114
 8487SOL    HW126360   6.707   2.096   6.192
 8487SOL    HW226361   6.842   2.021   6.141
 8488SOL     OW26362   3.984   4.825   2.233
 8488SOL    HW126363   3.892   4.841   2.195
 8488SOL    HW226364   4.033   4.761   2.174
 8489SOL     OW26365   6.451   2.385   2.272
 8489SOL    HW126366   6.365   2.334   2.276
 8489SOL    HW226367   6.437   2.479   2.302
 8490SOL     OW26368   3.237   7.025   0.401
 8490SOL    HW126369   3.244   6.963   0.323
 8490SOL    HW226370   3.315   0.062   0.401
 8491SOL     OW26371   3.493   5.347   2.175
 8491SOL    HW126372   3.398   5.328   2.201
 8491SOL    HW226373   3.499   5.357   2.076
 8492SOL     OW26374   6.148   6.379   3.856
 8492SOL    HW126375   6.226   6.325   3.825
 8492SOL    HW226376   6.137   6.368   3.955
 8493SOL     OW26377   5.138   0.434   5.682
 8493SOL    HW126378   5.105   0.340   5.684
 8493SOL    HW226379   5.204   0.445   5.607
 8494SOL     OW26380   0.269   3.398   1.994
 8494SOL    HW126381   0.234   3.339   1.921
 8494SOL    HW226382   0.246   3.359   2.083
 8495SOL     OW26383   5.908   5.586   6.071
 8495SOL    HW126384   5.902   5.520   6.145
 8495SOL    HW226385   5.913   5.678   6.109
 8496SOL     OW26386   4.805   1.794   2.809
 8496SOL    HW126387   4.742   1.729   2.768
 8496SOL    HW226388   4.816   1.774   2.906
 8497SOL     OW26389   6.242   0.775   2.294
 8497SOL    HW126390   6.274   0.686   2.325
 8497SOL    HW226391   6.223   0.833   2.373
 8498SOL     OW26392   4.386   6.148   4.128
 8498SOL    HW126393   4.296   6.152   4.172
 8498SOL    HW226394   4.375   6.114   4.035
 8499SOL     OW26395   6.179   6.942   5.059
 8499SOL    HW126396   6.143   6.998   5.133
 8499SOL    HW226397   6.273   6.968   5.039
 8500SOL     OW26398   1.197   0.519   6.761
 8500SOL    HW126399   1.102   0.543   6.779
 8500SOL    HW226400   1.201   0.450   6.688
 8501SOL     OW26401   3.380   1.088   5.334
 8501SOL    HW126402   3.432   1.015   5.291
 8501SOL    HW226403   3.339   1.146   5.263
 8502SOL     OW26404   6.476   2.833   0.223
 8502SOL    HW126405   6.418   2.765   0.267
 8502SOL    HW226406   6.489   2.911   0.284
 8503SOL     OW26407   4.799   2.562   5.802
 8503SOL    HW126408   4.802   2.478   5.856
 8503SOL    HW226409   4.892   2.599   5.793
 8504SOL     OW26410   1.278   0.038   2.954
 8504SOL    HW126411   1.221   0.034   2.872
 8504SOL    HW226412   1.256   0.121   3.006
 8505SOL     OW26413   5.315   1.612   3.000
 8505SOL    HW126414   5.346   1.671   3.074
 8505SOL    HW226415   5.274   1.667   2.927
 8506SOL     OW26416   1.837   0.453   5.874
 8506SOL    HW126417   1.840   0.511   5.955
 8506SOL    HW226418   1.910   0.386   5.878
 8507SOL     OW26419   4.182   4.914   5.647
 8507SOL    HW126420   4.229   4.975   5.582
 8507SOL    HW226421   4.089   4.946   5.660
 8508SOL     OW26422   3.524   0.747   6.390
 8508SOL    HW126423   3.507   0.656   6.353
 8508SOL    HW226424   3.443   0.778   6.440
 8509SOL     OW26425   4.980   2.360   2.245
 8509SOL    HW126426   5.040   2.390   2.319
 8509SOL    HW226427   4.898   2.316   2.283
 8510SOL     OW26428   0.835   1.927   4.836
 8510SOL    HW126429   0.839   1.958   4.741
 8510SOL    HW226430   0.928   1.911   4.870
 8511SOL     OW26431   5.686   2.498   3.868
 8511SOL    HW126432   5.604   2.534   3.913
 8511SOL    HW226433   5.659   2.447   3.786
 8512SOL     OW26434   2.007   6.986   5.554
 8512SOL    HW126435   1.970   0.053   5.553
 8512SOL    HW226436   1.939   6.923   5.516
 8513SOL     OW26437   4.297   5.510   0.143
 8513SOL    HW126438   4.260   5.420   0.166
 8513SOL    HW226439   4.373   5.532   0.204
 8514SOL     OW26440   3.103   5.874   4.729
 8514SOL    HW126441   3.148   5.941   4.671
 8514SOL    HW226442   3.031   5.827   4.677
 8515SOL     OW26443   5.603   2.406   2.081
 8515SOL    HW126444   5.649   2.490   2.108
 8515SOL    HW226445   5.565   2.361   2.162
 8516SOL     OW26446   6.594   1.637   1.883
 8516SOL    HW126447   6.504   1.640   1.926
 8516SOL    HW226448   6.648   1.716   1.913
 8517SOL     OW26449   1.421   3.635   5.347
 8517SOL    HW126450   1.366   3.552   5.340
 8517SOL    HW226451   1.514   3.618   5.314
 8518SOL     OW26452   3.167   5.751   0.911
 8518SOL    HW126453   3.117   5.665   0.902
 8518SOL    HW226454   3.246   5.738   0.971
 8519SOL     OW26455   2.795   5.408   3.674
 8519SOL    HW126456   2.819   5.450   3.761
 8519SOL    HW226457   2.822   5.468   3.599
 8520SOL     OW26458   3.534   6.310   6.552
 8520SOL    HW126459   3.507   6.406   6.553
 8520SOL    HW226460   3.480   6.259   6.618
 8521SOL     OW26461   1.910   1.101   2.470
 8521SOL    HW126462   1.829   1.042   2.466
 8521SOL    HW226463   1.891   1.188   2.425
 8522SOL     OW26464   2.220   6.970   4.702
 8522SOL    HW126465   2.131   6.933   4.675
 8522SOL    HW226466   2.251   6.925   4.787
 8523SOL     OW26467   2.025   6.663   0.154
 8523SOL    HW126468   2.067   6.717   0.081
 8523SOL    HW226469   2.083   6.583   0.172
 8524SOL     OW26470   1.902   1.768   0.295
 8524SOL    HW126471   1.906   1.867   0.285
 8524SOL    HW226472   1.874   1.745   0.388
 8525SOL     OW26473   5.226   3.409   4.246
 8525SOL    HW126474   5.203   3.389   4.151
 8525SOL    HW226475   5.258   3.504   4.253
 8526SOL     OW26476   1.174   3.484   1.851
 8526SOL    HW126477   1.104   3.555   1.846
 8526SOL    HW226478   1.150   3.419   1.923
 8527SOL     OW26479   4.644   0.071   4.551
 8527SOL    HW126480   4.579   0.100   4.621
 8527SOL    HW226481   4.729   0.040   4.595
 8528SOL     OW26482   5.486   0.824   0.255
 8528SOL    HW126483   5.409   0.883   0.231
 8528SOL    HW226484   5.453   0.738   0.293
 8529SOL     OW26485   0.110   6.838   5.240
 8529SOL    HW126486   0.111   6.754   5.293
 8529SOL    HW226487   0.046   6.828   5.163
 8530SOL     OW26488   1.816   4.924   6.052
 8530SOL    HW126489   1.862   4.936   6.140
 8530SOL    HW226490   1.723   4.958   6.058
 8531SOL     OW26491   4.069   5.320   1.634
 8531SOL    HW126492   4.068   5.417   1.657
 8531SOL    HW226493   3.999   5.273   1.688
 8532SOL     OW26494   1.544   4.238   0.381
 8532SOL    HW126495   1.639   4.246   0.413
 8532SOL    HW226496   1.530   4.301   0.304
 8533SOL     OW26497   3.423   6.386   5.433
 8533SOL    HW126498   3.472   6.389   5.521
 8533SOL    HW226499   3.483   6.422   5.361
 8534SOL     OW26500   2.064   2.334   0.700
 8534SOL    HW126501   2.076   2.342   0.799
 8534SOL    HW226502   2.005   2.408   0.667
 8535SOL     OW26503   0.917   3.130   6.094
 8535SOL    HW126504   0.910   3.036   6.128
 8535SOL    HW226505   0.937   3.191   6.171
 8536SOL     OW26506   6.010   0.442   6.064
 8536SOL    HW126507   6.017   0.364   6.002
 8536SOL    HW226508   5.923   0.490   6.047
 8537SOL     OW26509   4.385   6.197   3.258
 8537SOL    HW126510   4.312   6.130   3.240
 8537SOL    HW226511   4.361   6.250   3.339
 8538SOL     OW26512   4.937   0.207   5.118
 8538SOL    HW126513   4.964   0.275   5.051
 8538SOL    HW226514   4.839   0.189   5.109
 8539SOL     OW26515   0.960   2.961   2.991
 8539SOL    HW126516   0.926   3.044   2.946
 8539SOL    HW226517   1.045   2.982   3.039
 8540SOL     OW26518   4.992   6.752   6.389
 8540SOL    HW126519   5.034   6.668   6.354
 8540SOL    HW226520   4.987   6.820   6.315
 8541SOL     OW26521   2.756   6.490   5.642
 8541SOL    HW126522   2.819   6.417   5.669
 8541SOL    HW226523   2.752   6.559   5.714
 8542SOL     OW26524   1.349   5.194   5.611
 8542SOL    HW126525   1.411   5.178   5.535
 8542SOL    HW226526   1.402   5.200   5.696
 8543SOL     OW26527   3.620   2.233   5.382
 8543SOL    HW126528   3.619   2.266   5.476
 8543SOL    HW226529   3.532   2.190   5.361
 8544SOL     OW26530   5.599   3.816   5.282
 8544SOL    HW126531   5.691   3.791   5.251
 8544SOL    HW226532   5.533   3.750   5.246
 8545SOL     OW26533   2.671   0.490   6.282
 8545SOL    HW126534   2.616   0.559   6.234
 8545SOL    HW226535   2.655   0.497   6.380
 8546SOL     OW26536   3.495   1.130   3.590
 8546SOL    HW126537   3.581   1.180   3.578
 8546SOL    HW226538   3.466   1.093   3.502
 8547SOL     OW26539   5.543   6.424   5.795
 8547SOL    HW126540   5.598   6.484   5.738
 8547SOL    HW226541   5.446   6.443   5.781
 8548SOL     OW26542   1.309   4.389   4.464
 8548SOL    HW126543   1.283   4.293   4.452
 8548SOL    HW226544   1.279   4.442   4.385
 8549SOL     OW26545   2.904   0.426   3.784
 8549SOL    HW126546   2.856   0.341   3.761
 8549SOL    HW226547   2.841   0.503   3.774
 8550SOL     OW26548   0.239   4.378   5.152
 8550SOL    HW126549   0.249   4.279   5.142
 8550SOL    HW226550   0.304   4.424   5.091
 8551SOL     OW26551   4.079   1.500   4.374
 8551SOL    HW126552   4.036   1.462   4.293
 8551SOL    HW226553   4.179   1.495   4.364
 8552SOL     OW26554   3.783   1.817   2.174
 8552SOL    HW126555   3.748   1.855   2.088
 8552SOL    HW226556   3.882   1.807   2.168
 8553SOL     OW26557   4.926   3.567   0.577
 8553SOL    HW126558   5.018   3.563   0.539
 8553SOL    HW226559   4.929   3.601   0.671
 8554SOL     OW26560   1.389   1.184   6.810
 8554SOL    HW126561   1.342   1.110   6.859
 8554SOL    HW226562   1.331   1.266   6.810
 8555SOL     OW26563   3.288   1.898   3.647
 8555SOL    HW126564   3.364   1.898   3.711
 8555SOL    HW226565   3.272   1.991   3.614
 8556SOL     OW26566   0.043   4.899   5.341
 8556SOL    HW126567   0.087   4.818   5.380
 8556SOL    HW226568   6.985   4.872   5.293
 8557SOL     OW26569   6.383   1.019   0.480
 8557SOL    HW126570   6.297   1.027   0.530
 8557SOL    HW226571   6.407   0.922   0.470
 8558SOL     OW26572   2.906   6.595   3.637
 8558SOL    HW126573   2.982   6.638   3.588
 8558SOL    HW226574   2.824   6.597   3.580
 8559SOL     OW26575   1.229   3.183   3.366
 8559SOL    HW126576   1.271   3.268   3.336
 8559SOL    HW226577   1.276   3.150   3.448
 8560SOL     OW26578   3.223   4.088   1.422
 8560SOL    HW126579   3.176   4.032   1.353
 8560SOL    HW226580   3.211   4.047   1.512
 8561SOL     OW26581   4.113   0.470   2.391
 8561SOL    HW126582   4.191   0.443   2.333
 8561SOL    HW226583   4.139   0.463   2.487
 8562SOL     OW26584   5.433   2.530   6.654
 8562SOL    HW126585   5.373   2.610   6.648
 8562SOL    HW226586   5.425   2.489   6.745
 8563SOL     OW26587   1.290   4.771   2.893
 8563SOL    HW126588   1.300   4.869   2.878
 8563SOL    HW226589   1.327   4.747   2.983
 8564SOL     OW26590   3.814   6.566   0.010
 8564SOL    HW126591   3.747   6.638   0.030
 8564SOL    HW226592   3.777   6.477   0.038
 8565SOL     OW26593   0.563   5.365   1.372
 8565SOL    HW126594   0.611   5.317   1.299
 8565SOL    HW226595   0.592   5.461   1.373
 8566SOL     OW26596   3.787   1.173   3.459
 8566SOL    HW126597   3.759   1.077   3.458
 8566SOL    HW226598   3.739   1.222   3.386
 8567SOL     OW26599   1.678   2.682   1.408
 8567SOL    HW126600   1.716   2.590   1.399
 8567SOL    HW226601   1.594   2.689   1.355
 8568SOL     OW26602   5.737   6.981   5.790
 8568SOL    HW126603   5.659   6.918   5.786
 8568SOL    HW226604   5.724   0.028   5.723
 8569SOL     OW26605   5.124   1.292   6.560
 8569SOL    HW126606   5.159   1.365   6.620
 8569SOL    HW226607   5.134   1.319   6.465
 8570SOL     OW26608   1.370   1.859   3.795
 8570SOL    HW126609   1.354   1.774   3.745
 8570SOL    HW226610   1.468   1.877   3.800
 8571SOL     OW26611   0.987   0.461   3.293
 8571SOL    HW126612   0.963   0.509   3.378
 8571SOL    HW226613   1.079   0.423   3.301
 8572SOL     OW26614   3.054   3.928   5.613
 8572SOL    HW126615   3.041   3.942   5.711
 8572SOL    HW226616   3.055   4.016   5.566
 8573SOL     OW26617   1.476   6.198   6.078
 8573SOL    HW126618   1.447   6.222   6.171
 8573SOL    HW226619   1.535   6.118   6.081
 8574SOL     OW26620   6.109   1.324   5.026
 8574SOL    HW126621   6.208   1.329   5.024
 8574SOL    HW226622   6.079   1.235   4.990
 8575SOL     OW26623   2.747   6.219   4.458
 8575SOL    HW126624   2.743   6.184   4.364
 8575SOL    HW226625   2.666   6.188   4.508
 8576SOL     OW26626   1.607   3.520   5.092
 8576SOL    HW126627   1.590   3.452   5.163
 8576SOL    HW226628   1.526   3.529   5.034
 8577SOL     OW26629   1.751   0.655   0.542
 8577SOL    HW126630   1.774   0.630   0.637
 8577SOL    HW226631   1.758   0.754   0.531
 8578SOL     OW26632   1.281   0.578   6.064
 8578SOL    HW126633   1.368   0.563   6.111
 8578SOL    HW226634   1.215   0.508   6.091
 8579SOL     OW26635   3.632   6.682   2.094
 8579SOL    HW126636   3.683   6.762   2.062
 8579SOL    HW226637   3.685   6.636   2.166
 8580SOL     OW26638   2.454   0.461   1.835
 8580SOL    HW126639   2.455   0.376   1.781
 8580SOL    HW226640   2.525   0.456   1.905
 8581SOL     OW26641   3.925   4.007   2.351
 8581SOL    HW126642   4.001   3.971   2.297
 8581SOL    HW226643   3.883   4.084   2.302
 8582SOL     OW26644   4.538   5.625   5.538
 8582SOL    HW126645   4.615   5.571   5.573
 8582SOL    HW226646   4.473   5.564   5.492
 8583SOL     OW26647   3.561   6.742   2.900
 8583SOL    HW126648   3.656   6.739   2.932
 8583SOL    HW226649   3.508   6.674   2.951
 8584SOL     OW26650   6.216   1.907   5.048
 8584SOL    HW126651   6.315   1.915   5.057
 8584SOL    HW226652   6.192   1.811   5.032
 8585SOL     OW26653   4.751   2.262   2.381
 8585SOL    HW126654   4.687   2.308   2.320
 8585SOL    HW226655   4.759   2.166   2.355
 8586SOL     OW26656   6.611   6.384   5.321
 8586SOL    HW126657   6.694   6.370   5.268
 8586SOL    HW226658   6.606   6.316   5.394
 8587SOL     OW26659   6.886   1.228   0.647
 8587SOL    HW126660   6.917   1.150   0.701
 8587SOL    HW226661   6.856   1.301   0.708
 8588SOL     OW26662   1.718   1.198   5.284
 8588SOL    HW126663   1.794   1.235   5.337
 8588SOL    HW226664   1.750   1.122   5.228
 8589SOL     OW26665   5.705   2.522   6.796
 8589SOL    HW126666   5.780   2.515   6.729
 8589SOL    HW226667   5.650   2.603   6.776
 8590SOL     OW26668   1.380   1.349   3.040
 8590SOL    HW126669   1.430   1.423   2.994
 8590SOL    HW226670   1.319   1.304   2.974
 8591SOL     OW26671   1.357   3.840   5.178
 8591SOL    HW126672   1.356   3.755   5.230
 8591SOL    HW226673   1.412   3.828   5.096
 8592SOL     OW26674   0.227   2.048   4.773
 8592SOL    HW126675   0.178   1.961   4.783
 8592SOL    HW226676   0.209   2.086   4.682
 8593SOL     OW26677   6.550   1.302   0.443
 8593SOL    HW126678   6.648   1.306   0.464
 8593SOL    HW226679   6.515   1.211   0.464
 8594SOL     OW26680   6.103   3.922   6.209
 8594SOL    HW126681   6.196   3.887   6.218
 8594SOL    HW226682   6.105   4.022   6.214
 8595SOL     OW26683   5.602   6.310   2.225
 8595SOL    HW126684   5.690   6.340   2.263
 8595SOL    HW226685   5.572   6.375   2.155
 8596SOL     OW26686   0.407   2.178   5.880
 8596SOL    HW126687   0.422   2.188   5.781
 8596SOL    HW226688   0.424   2.266   5.925
 8597SOL     OW26689   6.169   2.338   5.879
 8597SOL    HW126690   6.162   2.239   5.893
 8597SOL    HW226691   6.231   2.357   5.803
 8598SOL     OW26692   6.701   1.069   6.209
 8598SOL    HW126693   6.768   1.091   6.280
 8598SOL    HW226694   6.629   1.138   6.207
 8599SOL     OW26695   5.808   3.786   5.127
 8599SOL    HW126696   5.822   3.713   5.060
 8599SOL    HW226697   5.850   3.870   5.092
 8600SOL     OW26698   4.405   2.661   1.419
 8600SOL    HW126699   4.404   2.663   1.519
 8600SOL    HW226700   4.343   2.731   1.384
 8601SOL     OW26701   4.895   5.533   2.390
 8601SOL    HW126702   4.852   5.473   2.324
 8601SOL    HW226703   4.843   5.618   2.398
 8602SOL     OW26704   1.751   6.888   5.559
 8602SOL    HW126705   1.763   6.817   5.628
 8602SOL    HW226706   1.677   6.950   5.586
 8603SOL     OW26707   0.710   0.989   6.698
 8603SOL    HW126708   0.641   1.019   6.632
 8603SOL    HW226709   0.670   0.989   6.790
 8604SOL     OW26710   1.523   5.402   6.299
 8604SOL    HW126711   1.563   5.368   6.384
 8604SOL    HW226712   1.596   5.434   6.239
 8605SOL     OW26713   6.447   4.249   3.606
 8605SOL    HW126714   6.538   4.290   3.612
 8605SOL    HW226715   6.407   4.270   3.517
 8606SOL     OW26716   1.158   0.387   6.195
 8606SOL    HW126717   1.184   0.418   6.287
 8606SOL    HW226718   1.214   0.309   6.169
 8607SOL     OW26719   2.856   3.426   1.047
 8607SOL    HW126720   2.770   3.472   1.025
 8607SOL    HW226721   2.880   3.444   1.143
 8608SOL     OW26722   1.920   6.344   1.839
 8608SOL    HW126723   1.953   6.362   1.931
 8608SOL    HW226724   1.821   6.327   1.841
 8609SOL     OW26725   5.565   2.343   4.952
 8609SOL    HW126726   5.657   2.325   4.917
 8609SOL    HW226727   5.571   2.402   5.032
 8610SOL     OW26728   6.809   5.082   2.385
 8610SOL    HW126729   6.906   5.073   2.409
 8610SOL    HW226730   6.795   5.050   2.291
 8611SOL     OW26731   1.945   1.793   5.335
 8611SOL    HW126732   1.852   1.794   5.372
 8611SOL    HW226733   2.006   1.744   5.397
 8612SOL     OW26734   3.325   3.214   5.386
 8612SOL    HW126735   3.285   3.151   5.320
 8612SOL    HW226736   3.410   3.175   5.422
 8613SOL     OW26737   3.500   3.157   3.623
 8613SOL    HW126738   3.449   3.093   3.681
 8613SOL    HW226739   3.494   3.249   3.662
 8614SOL     OW26740   0.676   2.720   3.740
 8614SOL    HW126741   0.697   2.752   3.833
 8614SOL    HW226742   0.606   2.778   3.699
 8615SOL     OW26743   3.782   1.197   5.312
 8615SOL    HW126744   3.739   1.133   5.249
 8615SOL    HW226745   3.881   1.191   5.304
 8616SOL     OW26746   5.803   4.289   5.526
 8616SOL    HW126747   5.757   4.342   5.596
 8616SOL    HW226748   5.896   4.323   5.513
 8617SOL     OW26749   1.178   6.768   3.024
 8617SOL    HW126750   1.245   6.843   3.019
 8617SOL    HW226751   1.110   6.789   3.094
 8618SOL     OW26752   5.915   4.282   0.719
 8618SOL    HW126753   5.971   4.223   0.661
 8618SOL    HW226754   5.868   4.350   0.662
 8619SOL     OW26755   5.181   5.357   0.119
 8619SOL    HW126756   5.184   5.371   0.020
 8619SOL    HW226757   5.165   5.260   0.138
 8620SOL     OW26758   1.280   6.201   3.902
 8620SOL    HW126759   1.349   6.147   3.951
 8620SOL    HW226760   1.300   6.298   3.913
 8621SOL     OW26761   6.081   3.406   1.720
 8621SOL    HW126762   5.983   3.421   1.726
 8621SOL    HW226763   6.114   3.361   1.803
 8622SOL     OW26764   1.012   5.750   1.548
 8622SOL    HW126765   1.025   5.811   1.626
 8622SOL    HW226766   0.947   5.791   1.484
 8623SOL     OW26767   2.250   1.917   3.189
 8623SOL    HW126768   2.198   1.896   3.106
 8623SOL    HW226769   2.272   2.014   3.191
 8624SOL     OW26770   3.437   3.756   5.311
 8624SOL    HW126771   3.373   3.830   5.332
 8624SOL    HW226772   3.419   3.678   5.371
 8625SOL     OW26773   4.388   3.478   6.182
 8625SOL    HW126774   4.398   3.489   6.083
 8625SOL    HW226775   4.293   3.460   6.204
 8626SOL     OW26776   4.690   1.957   1.681
 8626SOL    HW126777   4.741   1.961   1.766
 8626SOL    HW226778   4.592   1.952   1.701
 8627SOL     OW26779   0.904   0.188   2.614
 8627SOL    HW126780   0.917   0.285   2.633
 8627SOL    HW226781   0.909   0.173   2.515
 8628SOL     OW26782   1.452   0.004   0.958
 8628SOL    HW126783   1.489   0.072   1.023
 8628SOL    HW226784   1.463   0.038   0.865
 8629SOL     OW26785   0.073   0.246   4.447
 8629SOL    HW126786   0.168   0.256   4.418
 8629SOL    HW226787   0.018   0.211   4.371
 8630SOL     OW26788   5.019   2.533   1.600
 8630SOL    HW126789   4.984   2.441   1.616
 8630SOL    HW226790   5.053   2.540   1.506
 8631SOL     OW26791   1.513   6.504   6.219
 8631SOL    HW126792   1.521   6.422   6.276
 8631SOL    HW226793   1.466   6.575   6.270
 8632SOL     OW26794   6.270   5.964   4.121
 8632SOL    HW126795   6.174   5.938   4.120
 8632SOL    HW226796   6.319   5.907   4.187
 8633SOL     OW26797   6.583   3.358   5.856
 8633SOL    HW126798   6.512   3.428   5.849
 8633SOL    HW226799   6.550   3.273   5.814
 8634SOL     OW26800   5.077   5.057   5.985
 8634SOL    HW126801   5.073   4.960   5.962
 8634SOL    HW226802   5.094   5.067   6.083
 8635SOL     OW26803   4.908   2.198   6.456
 8635SOL    HW126804   4.960   2.177   6.540
 8635SOL    HW226805   4.810   2.186   6.474
 8636SOL     OW26806   4.074   6.305   1.491
 8636SOL    HW126807   4.005   6.265   1.552
 8636SOL    HW226808   4.039   6.307   1.398
 8637SOL     OW26809   2.771   2.347   0.282
 8637SOL    HW126810   2.784   2.252   0.311
 8637SOL    HW226811   2.808   2.409   0.351
 8638SOL     OW26812   5.063   2.697   4.720
 8638SOL    HW126813   4.993   2.687   4.649
 8638SOL    HW226814   5.054   2.787   4.762
 8639SOL     OW26815   3.162   4.439   0.400
 8639SOL    HW126816   3.084   4.454   0.340
 8639SOL    HW226817   3.158   4.501   0.478
 8640SOL     OW26818   3.976   2.525   6.813
 8640SOL    HW126819   3.906   2.589   6.783
 8640SOL    HW226820   3.932   2.444   6.852
 8641SOL     OW26821   3.147   4.958   3.605
 8641SOL    HW126822   3.171   4.996   3.516
 8641SOL    HW226823   3.231   4.944   3.659
 8642SOL     OW26824   2.156   6.004   3.241
 8642SOL    HW126825   2.102   6.088   3.235
 8642SOL    HW226826   2.140   5.961   3.330
 8643SOL     OW26827   4.079   6.670   1.291
 8643SOL    HW126828   4.076   6.594   1.225
 8643SOL    HW226829   4.069   6.634   1.384
 8644SOL     OW26830   6.137   2.391   6.286
 8644SOL    HW126831   6.212   2.431   6.234
 8644SOL    HW226832   6.058   2.453   6.282
 8645SOL     OW26833   4.947   4.761   2.340
 8645SOL    HW126834   4.896   4.778   2.256
 8645SOL    HW226835   4.900   4.691   2.394
 8646SOL     OW26836   0.306   2.058   5.231
 8646SOL    HW126837   0.228   2.035   5.172
 8646SOL    HW226838   0.319   1.986   5.298
 8647SOL     OW26839   1.760   4.945   1.700
 8647SOL    HW126840   1.723   4.854   1.721
 8647SOL    HW226841   1.822   4.938   1.622
 8648SOL     OW26842   5.387   5.340   0.350
 8648SOL    HW126843   5.473   5.351   0.301
 8648SOL    HW226844   5.312   5.376   0.295
 8649SOL     OW26845   5.554   1.911   2.077
 8649SOL    HW126846   5.473   1.862   2.109
 8649SOL    HW226847   5.632   1.891   2.137
 8650SOL     OW26848   2.273   1.044   5.424
 8650SOL    HW126849   2.336   0.984   5.473
 8650SOL    HW226850   2.305   1.139   5.432
 8651SOL     OW26851   4.018   1.956   2.032
 8651SOL    HW126852   3.943   1.976   1.970
 8651SOL    HW226853   4.080   2.035   2.036
 8652SOL     OW26854   6.779   1.931   3.903
 8652SOL    HW126855   6.739   1.872   3.973
 8652SOL    HW226856   6.857   1.980   3.941
 8653SOL     OW26857   5.855   1.034   0.496
 8653SOL    HW126858   5.808   0.947   0.488
 8653SOL    HW226859   5.806   1.104   0.444
 8654SOL     OW26860   0.603   4.951   2.864
 8654SOL    HW126861   0.666   4.912   2.797
 8654SOL    HW226862   0.585   4.884   2.936
 8655SOL     OW26863   1.233   0.005   5.035
 8655SOL    HW126864   1.324   6.991   5.023
 8655SOL    HW226865   1.184   6.981   5.106
 8656SOL     OW26866   4.352   5.662   1.045
 8656SOL    HW126867   4.405   5.699   1.121
 8656SOL    HW226868   4.262   5.706   1.043
 8657SOL     OW26869   3.421   1.707   2.682
 8657SOL    HW126870   3.443   1.789   2.736
 8657SOL    HW226871   3.332   1.720   2.638
 8658SOL     OW26872   6.262   3.770   1.107
 8658SOL    HW126873   6.258   3.869   1.117
 8658SOL    HW226874   6.182   3.728   1.150
 8659SOL     OW26875   3.576   0.514   3.249
 8659SOL    HW126876   3.528   0.429   3.228
 8659SOL    HW226877   3.654   0.495   3.308
 8660SOL     OW26878   0.164   3.772   1.782
 8660SOL    HW126879   0.149   3.856   1.730
 8660SOL    HW226880   0.094   3.705   1.757
 8661SOL     OW26881   6.355   3.753   2.463
 8661SOL    HW126882   6.325   3.797   2.378
 8661SOL    HW226883   6.412   3.817   2.514
 8662SOL     OW26884   1.557   2.318   2.890
 8662SOL    HW126885   1.536   2.281   2.799
 8662SOL    HW226886   1.638   2.376   2.884
 8663SOL     OW26887   3.356   4.971   2.928
 8663SOL    HW126888   3.363   4.926   3.017
 8663SOL    HW226889   3.293   5.049   2.936
 8664SOL     OW26890   3.104   6.042   4.014
 8664SOL    HW126891   3.066   6.121   4.062
 8664SOL    HW226892   3.175   6.000   4.071
 8665SOL     OW26893   6.495   4.058   6.483
 8665SOL    HW126894   6.557   4.044   6.407
 8665SOL    HW226895   6.441   3.976   6.498
 8666SOL     OW26896   4.711   0.588   3.173
 8666SOL    HW126897   4.694   0.629   3.262
 8666SOL    HW226898   4.781   0.516   3.181
 8667SOL     OW26899   5.312   2.319   2.223
 8667SOL    HW126900   5.277   2.351   2.135
 8667SOL    HW226901   5.277   2.377   2.296
 8668SOL     OW26902   4.221   1.997   4.082
 8668SOL    HW126903   4.253   1.978   4.174
 8668SOL    HW226904   4.123   1.976   4.076
 8669SOL     OW26905   0.135   6.360   6.048
 8669SOL    HW126906   0.213   6.364   6.110
 8669SOL    HW226907   0.056   6.403   6.091
 8670SOL     OW26908   0.078   5.423   5.596
 8670SOL    HW126909   0.124   5.353   5.650
 8670SOL    HW226910   0.142   5.461   5.529
 8671SOL     OW26911   0.064   3.400   3.815
 8671SOL    HW126912   0.122   3.373   3.738
 8671SOL    HW226913   7.005   3.441   3.781
 8672SOL     OW26914   6.561   1.298   2.417
 8672SOL    HW126915   6.573   1.394   2.393
 8672SOL    HW226916   6.586   1.240   2.340
 8673SOL     OW26917   0.976   1.203   1.670
 8673SOL    HW126918   0.882   1.236   1.665
 8673SOL    HW226919   1.000   1.158   1.584
 8674SOL     OW26920   0.373   3.741   3.407
 8674SOL    HW126921   0.465   3.729   3.444
 8674SOL    HW226922   0.378   3.791   3.321
 8675SOL     OW26923   4.710   2.802   5.161
 8675SOL    HW126924   4.624   2.798   5.212
 8675SOL    HW226925   4.736   2.897   5.147
 8676SOL     OW26926   4.369   2.094   0.819
 8676SOL    HW126927   4.316   2.119   0.899
 8676SOL    HW226928   4.466   2.086   0.844
 8677SOL     OW26929   2.844   0.950   0.231
 8677SOL    HW126930   2.791   0.990   0.157
 8677SOL    HW226931   2.782   0.916   0.302
 8678SOL     OW26932   3.066   1.951   0.297
 8678SOL    HW126933   3.091   1.987   0.387
 8678SOL    HW226934   3.116   1.866   0.281
 8679SOL     OW26935   1.799   1.926   6.597
 8679SOL    HW126936   1.739   1.986   6.544
 8679SOL    HW226937   1.875   1.896   6.539
 8680SOL     OW26938   0.032   0.607   0.857
 8680SOL    HW126939   0.007   0.600   0.761
 8680SOL    HW226940   0.082   0.692   0.873
 8681SOL     OW26941   5.488   4.725   1.069
 8681SOL    HW126942   5.480   4.760   1.162
 8681SOL    HW226943   5.575   4.679   1.058
 8682SOL     OW26944   2.360   1.199   3.025
 8682SOL    HW126945   2.347   1.270   3.094
 8682SOL    HW226946   2.421   1.128   3.061
 8683SOL     OW26947   2.487   4.518   3.767
 8683SOL    HW126948   2.524   4.473   3.849
 8683SOL    HW226949   2.430   4.596   3.794
 8684SOL     OW26950   2.292   4.274   3.458
 8684SOL    HW126951   2.355   4.330   3.403
 8684SOL    HW226952   2.265   4.325   3.539
 8685SOL     OW26953   5.182   3.592   5.139
 8685SOL    HW126954   5.113   3.524   5.113
 8685SOL    HW226955   5.151   3.641   5.220
 8686SOL     OW26956   1.251   5.097   3.072
 8686SOL    HW126957   1.311   5.138   3.142
 8686SOL    HW226958   1.202   5.019   3.111
 8687SOL     OW26959   5.475   4.310   5.552
 8687SOL    HW126960   5.533   4.309   5.470
 8687SOL    HW226961   5.411   4.387   5.547
 8688SOL     OW26962   0.670   3.960   5.040
 8688SOL    HW126963   0.740   4.026   5.013
 8688SOL    HW226964   0.694   3.921   5.129
 8689SOL     OW26965   4.744   3.567   0.965
 8689SOL    HW126966   4.730   3.484   0.910
 8689SOL    HW226967   4.730   3.545   1.062
 8690SOL     OW26968   1.443   2.285   2.080
 8690SOL    HW126969   1.383   2.206   2.076
 8690SOL    HW226970   1.517   2.275   2.013
 8691SOL     OW26971   3.332   1.517   6.770
 8691SOL    HW126972   3.350   1.424   6.801
 8691SOL    HW226973   3.377   1.531   6.682
 8692SOL     OW26974   5.155   2.362   4.532
 8692SOL    HW126975   5.198   2.388   4.618
 8692SOL    HW226976   5.214   2.387   4.455
 8693SOL     OW26977   0.253   0.488   5.881
 8693SOL    HW126978   0.238   0.390   5.869
 8693SOL    HW226979   0.186   0.525   5.945
 8694SOL     OW26980   4.068   3.897   5.246
 8694SOL    HW126981   4.153   3.850   5.224
 8694SOL    HW226982   4.003   3.887   5.170
 8695SOL     OW26983   3.948   4.744   1.310
 8695SOL    HW126984   3.943   4.738   1.210
 8695SOL    HW226985   4.023   4.805   1.336
 8696SOL     OW26986   3.097   6.288   6.892
 8696SOL    HW126987   3.055   6.198   6.898
 8696SOL    HW226988   3.072   6.330   6.804
 8697SOL     OW26989   1.560   3.282   4.823
 8697SOL    HW126990   1.552   3.253   4.728
 8697SOL    HW226991   1.568   3.202   4.882
 8698SOL     OW26992   5.476   3.886   0.219
 8698SOL    HW126993   5.442   3.864   0.311
 8698SOL    HW226994   5.576   3.881   0.218
 8699SOL     OW26995   2.674   2.185   1.261
 8699SOL    HW126996   2.702   2.271   1.305
 8699SOL    HW226997   2.744   2.116   1.277
 8700SOL     OW26998   0.164   1.976   4.116
 8700SOL    HW126999   0.122   1.885   4.120
 8700SOL    HW227000   0.246   1.977   4.173
 8701SOL     OW27001   1.963   3.438   6.455
 8701SOL    HW127002   1.962   3.370   6.382
 8701SOL    HW227003   1.930   3.396   6.540
 8702SOL     OW27004   5.599   3.956   1.509
 8702SOL    HW127005   5.523   3.892   1.499
 8702SOL    HW227006   5.564   4.050   1.507
 8703SOL     OW27007   2.085   5.701   2.162
 8703SOL    HW127008   2.102   5.774   2.096
 8703SOL    HW227009   2.069   5.741   2.252
 8704SOL     OW27010   6.512   1.231   3.786
 8704SOL    HW127011   6.437   1.210   3.724
 8704SOL    HW227012   6.535   1.150   3.840
 8705SOL     OW27013   3.461   2.276   0.327
 8705SOL    HW127014   3.513   2.269   0.242
 8705SOL    HW227015   3.514   2.234   0.401
 8706SOL     OW27016   4.732   2.927   5.819
 8706SOL    HW127017   4.811   2.961   5.870
 8706SOL    HW227018   4.674   2.874   5.881
 8707SOL     OW27019   0.599   0.914   3.742
 8707SOL    HW127020   0.575   0.968   3.661
 8707SOL    HW227021   0.631   0.824   3.713
 8708SOL     OW27022   5.881   2.258   0.679
 8708SOL    HW127023   5.894   2.195   0.602
 8708SOL    HW227024   5.937   2.228   0.756
 8709SOL     OW27025   6.656   6.168   3.698
 8709SOL    HW127026   6.602   6.139   3.619
 8709SOL    HW227027   6.685   6.087   3.750
 8710SOL     OW27028   2.544   2.588   3.655
 8710SOL    HW127029   2.636   2.602   3.692
 8710SOL    HW227030   2.542   2.505   3.600
 8711SOL     OW27031   1.646   1.384   2.294
 8711SOL    HW127032   1.633   1.369   2.196
 8711SOL    HW227033   1.743   1.378   2.316
 8712SOL     OW27034   1.831   3.550   4.400
 8712SOL    HW127035   1.815   3.472   4.339
 8712SOL    HW227036   1.929   3.569   4.404
 8713SOL     OW27037   0.018   3.816   2.790
 8713SOL    HW127038   6.987   3.798   2.710
 8713SOL    HW227039   6.987   3.810   2.873
 8714SOL     OW27040   6.830   4.073   6.414
 8714SOL    HW127041   6.883   4.141   6.465
 8714SOL    HW227042   6.847   4.085   6.316
 8715SOL     OW27043   2.644   5.161   0.957
 8715SOL    HW127044   2.613   5.244   1.004
 8715SOL    HW227045   2.728   5.180   0.906
 8716SOL     OW27046   5.697   0.431   2.191
 8716SOL    HW127047   5.751   0.512   2.214
 8716SOL    HW227048   5.629   0.415   2.263
 8717SOL     OW27049   3.736   2.217   0.425
 8717SOL    HW127050   3.825   2.174   0.436
 8717SOL    HW227051   3.720   2.280   0.502
 8718SOL     OW27052   2.899   5.587   6.166
 8718SOL    HW127053   2.943   5.602   6.077
 8718SOL    HW227054   2.899   5.489   6.186
 8719SOL     OW27055   3.053   1.887   4.990
 8719SOL    HW127056   3.123   1.934   5.044
 8719SOL    HW227057   3.085   1.879   4.895
 8720SOL     OW27058   0.422   6.174   5.184
 8720SOL    HW127059   0.393   6.266   5.156
 8720SOL    HW227060   0.458   6.178   5.277
 8721SOL     OW27061   1.407   0.975   1.127
 8721SOL    HW127062   1.370   0.987   1.219
 8721SOL    HW227063   1.341   1.007   1.060
 8722SOL     OW27064   3.947   1.418   0.404
 8722SOL    HW127065   4.018   1.486   0.424
 8722SOL    HW227066   3.934   1.360   0.485
 8723SOL     OW27067   4.086   6.207   3.000
 8723SOL    HW127068   4.131   6.267   2.934
 8723SOL    HW227069   3.994   6.184   2.967
 8724SOL     OW27070   3.134   0.939   5.419
 8724SOL    HW127071   3.232   0.951   5.405
 8724SOL    HW227072   3.118   0.866   5.485
 8725SOL     OW27073   6.734   0.746   2.340
 8725SOL    HW127074   6.662   0.795   2.389
 8725SOL    HW227075   6.718   0.753   2.242
 8726SOL     OW27076   6.787   1.069   0.442
 8726SOL    HW127077   6.809   0.972   0.452
 8726SOL    HW227078   6.841   1.122   0.507
 8727SOL     OW27079   4.763   5.483   6.589
 8727SOL    HW127080   4.857   5.458   6.570
 8727SOL    HW227081   4.750   5.581   6.571
 8728SOL     OW27082   6.000   6.751   4.043
 8728SOL    HW127083   6.009   6.663   4.090
 8728SOL    HW227084   5.936   6.741   3.966
 8729SOL     OW27085   5.849   6.077   5.613
 8729SOL    HW127086   5.857   6.117   5.704
 8729SOL    HW227087   5.916   6.120   5.552
 8730SOL     OW27088   3.913   4.701   1.680
 8730SOL    HW127089   3.963   4.616   1.666
 8730SOL    HW227090   3.974   4.770   1.718
 8731SOL     OW27091   6.927   2.062   4.101
 8731SOL    HW127092   6.935   2.160   4.122
 8731SOL    HW227093   7.018   2.022   4.098
 8732SOL     OW27094   5.312   6.208   5.008
 8732SOL    HW127095   5.252   6.178   5.083
 8732SOL    HW227096   5.404   6.174   5.024
 8733SOL     OW27097   6.432   4.421   1.761
 8733SOL    HW127098   6.368   4.441   1.835
 8733SOL    HW227099   6.381   4.397   1.678
 8734SOL     OW27100   1.036   5.305   1.257
 8734SOL    HW127101   1.026   5.384   1.318
 8734SOL    HW227102   1.029   5.334   1.162
 8735SOL     OW27103   1.169   2.904   6.094
 8735SOL    HW127104   1.089   2.874   6.147
 8735SOL    HW227105   1.196   2.831   6.031
 8736SOL     OW27106   1.430   6.149   3.387
 8736SOL    HW127107   1.445   6.207   3.467
 8736SOL    HW227108   1.340   6.170   3.348
 8737SOL     OW27109   0.140   5.708   6.525
 8737SOL    HW127110   0.110   5.613   6.539
 8737SOL    HW227111   0.074   5.770   6.566
 8738SOL     OW27112   2.252   2.973   2.207
 8738SOL    HW127113   2.315   2.922   2.266
 8738SOL    HW227114   2.194   3.032   2.264
 8739SOL     OW27115   4.278   4.618   2.912
 8739SOL    HW127116   4.328   4.532   2.924
 8739SOL    HW227117   4.278   4.669   2.998
 8740SOL     OW27118   2.873   1.650   3.600
 8740SOL    HW127119   2.961   1.693   3.619
 8740SOL    HW227120   2.886   1.551   3.589
 8741SOL     OW27121   1.800   2.305   2.347
 8741SOL    HW127122   1.809   2.222   2.402
 8741SOL    HW227123   1.847   2.292   2.259
 8742SOL     OW27124   1.798   3.173   1.956
 8742SOL    HW127125   1.876   3.219   1.914
 8742SOL    HW227126   1.810   3.171   2.056
 8743SOL     OW27127   1.091   3.347   6.955
 8743SOL    HW127128   1.002   3.393   6.946
 8743SOL    HW227129   1.134   3.374   0.016
 8744SOL     OW27130   3.323   4.009   6.238
 8744SOL    HW127131   3.339   4.106   6.253
 8744SOL    HW227132   3.225   3.991   6.237
 8745SOL     OW27133   5.924   1.602   6.489
 8745SOL    HW127134   5.846   1.607   6.551
 8745SOL    HW227135   5.984   1.681   6.506
 8746SOL     OW27136   4.315   4.924   4.825
 8746SOL    HW127137   4.320   4.840   4.771
 8746SOL    HW227138   4.287   4.903   4.918
 8747SOL     OW27139   0.781   6.935   2.058
 8747SOL    HW127140   0.762   6.961   2.153
 8747SOL    HW227141   0.793   6.836   2.052
 8748SOL     OW27142   5.594   1.778   4.309
 8748SOL    HW127143   5.515   1.753   4.365
 8748SOL    HW227144   5.678   1.743   4.351
 8749SOL     OW27145   2.911   1.752   4.087
 8749SOL    HW127146   3.011   1.756   4.084
 8749SOL    HW227147   2.874   1.844   4.088
 8750SOL     OW27148   3.997   3.577   1.301
 8750SOL    HW127149   4.047   3.535   1.226
 8750SOL    HW227150   4.056   3.585   1.381
 8751SOL     OW27151   2.224   0.123   0.658
 8751SOL    HW127152   2.255   0.209   0.616
 8751SOL    HW227153   2.254   0.046   0.602
 8752SOL     OW27154   0.227   3.243   6.293
 8752SOL    HW127155   0.238   3.259   6.391
 8752SOL    HW227156   0.255   3.325   6.243
 8753SOL     OW27157   2.068   1.717   1.176
 8753SOL    HW127158   2.130   1.752   1.106
 8753SOL    HW227159   1.976   1.709   1.138
 8754SOL     OW27160   1.443   6.042   5.829
 8754SOL    HW127161   1.443   6.075   5.924
 8754SOL    HW227162   1.357   6.067   5.785
 8755SOL     OW27163   0.780   2.131   1.588
 8755SOL    HW127164   0.696   2.078   1.588
 8755SOL    HW227165   0.762   2.223   1.553
 8756SOL     OW27166   1.516   1.624   2.365
 8756SOL    HW127167   1.424   1.638   2.330
 8756SOL    HW227168   1.561   1.550   2.314
 8757SOL     OW27169   5.801   5.945   4.350
 8757SOL    HW127170   5.741   5.875   4.388
 8757SOL    HW227171   5.747   6.026   4.326
 8758SOL     OW27172   3.368   5.313   6.607
 8758SOL    HW127173   3.315   5.394   6.630
 8758SOL    HW227174   3.430   5.290   6.682
 8759SOL     OW27175   6.647   1.324   1.888
 8759SOL    HW127176   6.615   1.266   1.962
 8759SOL    HW227177   6.636   1.420   1.913
 8760SOL     OW27178   1.783   2.158   4.365
 8760SOL    HW127179   1.764   2.235   4.426
 8760SOL    HW227180   1.871   2.118   4.389
 8761SOL     OW27181   4.751   2.626   3.196
 8761SOL    HW127182   4.750   2.717   3.239
 8761SOL    HW227183   4.662   2.582   3.210
 8762SOL     OW27184   4.487   6.065   3.026
 8762SOL    HW127185   4.468   6.069   3.124
 8762SOL    HW227186   4.520   5.974   3.002
 8763SOL     OW27187   6.895   1.346   5.503
 8763SOL    HW127188   6.880   1.367   5.599
 8763SOL    HW227189   6.946   1.259   5.495
 8764SOL     OW27190   3.301   5.130   6.016
 8764SOL    HW127191   3.380   5.191   6.028
 8764SOL    HW227192   3.309   5.081   5.929
 8765SOL     OW27193   4.630   6.708   3.675
 8765SOL    HW127194   4.547   6.672   3.633
 8765SOL    HW227195   4.708   6.651   3.649
 8766SOL     OW27196   6.115   7.013   4.669
 8766SOL    HW127197   6.200   0.024   4.631
 8766SOL    HW227198   6.076   0.053   4.733
 8767SOL     OW27199   2.010   1.211   4.995
 8767SOL    HW127200   2.052   1.121   5.004
 8767SOL    HW227201   2.034   1.267   5.074
 8768SOL     OW27202   6.572   1.390   1.173
 8768SOL    HW127203   6.480   1.416   1.202
 8768SOL    HW227204   6.614   1.464   1.121
 8769SOL     OW27205   6.460   6.853   6.316
 8769SOL    HW127206   6.481   6.763   6.356
 8769SOL    HW227207   6.545   6.902   6.299
 8770SOL     OW27208   4.378   1.440   0.303
 8770SOL    HW127209   4.394   1.345   0.330
 8770SOL    HW227210   4.324   1.486   0.373
 8771SOL     OW27211   0.362   2.559   6.218
 8771SOL    HW127212   0.333   2.537   6.125
 8771SOL    HW227213   0.341   2.482   6.279
 8772SOL     OW27214   0.660   6.441   3.719
 8772SOL    HW127215   0.672   6.522   3.662
 8772SOL    HW227216   0.749   6.406   3.747
 8773SOL     OW27217   0.094   1.289   3.918
 8773SOL    HW127218   0.143   1.356   3.862
 8773SOL    HW227219   0.001   1.278   3.884
 8774SOL     OW27220   1.288   2.082   6.839
 8774SOL    HW127221   1.198   2.074   6.882
 8774SOL    HW227222   1.279   2.060   6.741
 8775SOL     OW27223   5.186   2.102   2.807
 8775SOL    HW127224   5.247   2.110   2.728
 8775SOL    HW227225   5.160   2.007   2.820
 8776SOL     OW27226   5.016   2.840   1.539
 8776SOL    HW127227   5.026   2.914   1.605
 8776SOL    HW227228   5.007   2.753   1.588
 8777SOL     OW27229   6.683   2.046   4.259
 8777SOL    HW127230   6.767   2.057   4.206
 8777SOL    HW227231   6.661   2.132   4.305
 8778SOL     OW27232   2.316   3.750   6.952
 8778SOL    HW127233   2.216   3.749   6.953
 8778SOL    HW227234   2.350   3.711   0.013
 8779SOL     OW27235   4.106   5.799   3.071
 8779SOL    HW127236   4.142   5.714   3.032
 8779SOL    HW227237   4.030   5.831   3.016
 8780SOL     OW27238   1.257   4.132   4.416
 8780SOL    HW127239   1.350   4.109   4.446
 8780SOL    HW227240   1.220   4.056   4.364
 8781SOL     OW27241   3.582   1.800   1.821
 8781SOL    HW127242   3.670   1.832   1.785
 8781SOL    HW227243   3.548   1.866   1.888
 8782SOL     OW27244   6.782   2.775   0.464
 8782SOL    HW127245   6.737   2.804   0.380
 8782SOL    HW227246   6.716   2.725   0.521
 8783SOL     OW27247   3.864   3.600   5.124
 8783SOL    HW127248   3.897   3.512   5.157
 8783SOL    HW227249   3.940   3.663   5.113
 8784SOL     OW27250   4.318   1.087   6.451
 8784SOL    HW127251   4.359   1.167   6.495
 8784SOL    HW227252   4.390   1.024   6.424
 8785SOL     OW27253   6.939   6.249   6.336
 8785SOL    HW127254   6.919   6.340   6.299
 8785SOL    HW227255   0.003   6.252   6.381
 8786SOL     OW27256   5.480   2.031   3.316
 8786SOL    HW127257   5.399   2.089   3.324
 8786SOL    HW227258   5.562   2.089   3.309
 8787SOL     OW27259   3.367   4.874   2.473
 8787SOL    HW127260   3.438   4.853   2.406
 8787SOL    HW227261   3.278   4.877   2.428
 8788SOL     OW27262   0.158   5.972   3.684
 8788SOL    HW127263   0.114   6.060   3.702
 8788SOL    HW227264   0.102   5.898   3.722
 8789SOL     OW27265   1.438   3.428   6.974
 8789SOL    HW127266   1.423   3.352   0.012
 8789SOL    HW227267   1.511   3.486   7.008
 8790SOL     OW27268   5.012   2.999   5.317
 8790SOL    HW127269   5.102   3.008   5.275
 8790SOL    HW227270   5.016   3.031   5.412
 8791SOL     OW27271   4.249   5.953   5.022
 8791SOL    HW127272   4.336   5.966   5.070
 8791SOL    HW227273   4.186   5.905   5.083
 8792SOL     OW27274   5.591   4.899   0.668
 8792SOL    HW127275   5.672   4.841   0.676
 8792SOL    HW227276   5.519   4.850   0.619
 8793SOL     OW27277   6.175   6.997   5.398
 8793SOL    HW127278   6.265   0.014   5.395
 8793SOL    HW227279   6.112   0.031   5.449
 8794SOL     OW27280   0.168   2.297   3.292
 8794SOL    HW127281   0.236   2.336   3.352
 8794SOL    HW227282   0.100   2.366   3.267
 8795SOL     OW27283   1.497   0.205   6.701
 8795SOL    HW127284   1.442   0.158   6.770
 8795SOL    HW227285   1.592   0.174   6.707
 8796SOL     OW27286   5.459   4.673   4.299
 8796SOL    HW127287   5.398   4.725   4.359
 8796SOL    HW227288   5.417   4.663   4.209
 8797SOL     OW27289   5.256   6.024   4.778
 8797SOL    HW127290   5.247   6.094   4.848
 8797SOL    HW227291   5.349   6.027   4.740
 8798SOL     OW27292   1.960   5.843   5.862
 8798SOL    HW127293   1.994   5.809   5.775
 8798SOL    HW227294   2.018   5.811   5.936
 8799SOL     OW27295   1.570   6.725   1.710
 8799SOL    HW127296   1.505   6.650   1.721
 8799SOL    HW227297   1.635   6.702   1.637
 8800SOL     OW27298   6.494   5.797   3.720
 8800SOL    HW127299   6.449   5.854   3.788
 8800SOL    HW227300   6.507   5.705   3.758
 8801SOL     OW27301   4.800   3.243   5.605
 8801SOL    HW127302   4.867   3.303   5.649
 8801SOL    HW227303   4.785   3.273   5.511
 8802SOL     OW27304   1.142   6.673   6.908
 8802SOL    HW127305   1.051   6.633   6.897
 8802SOL    HW227306   1.183   6.689   6.818
 8803SOL     OW27307   5.238   5.445   4.866
 8803SOL    HW127308   5.159   5.504   4.884
 8803SOL    HW227309   5.295   5.439   4.948
 8804SOL     OW27310   1.639   6.914   2.126
 8804SOL    HW127311   1.706   6.987   2.112
 8804SOL    HW227312   1.685   6.831   2.156
 8805SOL     OW27313   5.087   4.748   2.008
 8805SOL    HW127314   5.151   4.773   1.935
 8805SOL    HW227315   5.127   4.677   2.065
 8806SOL     OW27316   1.102   0.965   1.911
 8806SOL    HW127317   1.141   1.053   1.935
 8806SOL    HW227318   1.121   0.899   1.985
 8807SOL     OW27319   6.166   2.419   1.846
 8807SOL    HW127320   6.094   2.416   1.777
 8807SOL    HW227321   6.126   2.445   1.934
 8808SOL     OW27322   1.520   1.700   0.532
 8808SOL    HW127323   1.517   1.631   0.459
 8808SOL    HW227324   1.427   1.718   0.564
 8809SOL     OW27325   0.844   3.508   3.022
 8809SOL    HW127326   0.854   3.510   3.121
 8809SOL    HW227327   0.880   3.593   2.983
 8810SOL     OW27328   6.360   2.480   4.445
 8810SOL    HW127329   6.387   2.402   4.501
 8810SOL    HW227330   6.414   2.482   4.361
 8811SOL     OW27331   3.757   5.238   2.140
 8811SOL    HW127332   3.660   5.245   2.164
 8811SOL    HW227333   3.808   5.200   2.217
 8812SOL     OW27334   5.919   0.415   0.333
 8812SOL    HW127335   5.885   0.461   0.252
 8812SOL    HW227336   5.963   0.482   0.393
 8813SOL     OW27337   1.500   2.904   1.872
 8813SOL    HW127338   1.550   2.817   1.872
 8813SOL    HW227339   1.564   2.978   1.853
 8814SOL     OW27340   5.386   0.077   5.033
 8814SOL    HW127341   5.354   0.164   5.069
 8814SOL    HW227342   5.321   0.044   4.964
 8815SOL     OW27343   5.121   1.082   1.094
 8815SOL    HW127344   5.203   1.023   1.096
 8815SOL    HW227345   5.039   1.025   1.100
 8816SOL     OW27346   6.846   0.344   3.374
 8816SOL    HW127347   6.776   0.304   3.433
 8816SOL    HW227348   6.811   0.353   3.281
 8817SOL     OW27349   1.246   2.339   3.613
 8817SOL    HW127350   1.228   2.245   3.642
 8817SOL    HW227351   1.243   2.345   3.513
 8818SOL     OW27352   1.217   6.411   6.536
 8818SOL    HW127353   1.157   6.369   6.604
 8818SOL    HW227354   1.279   6.475   6.582
 8819SOL     OW27355   5.118   6.192   5.530
 8819SOL    HW127356   5.038   6.223   5.479
 8819SOL    HW227357   5.152   6.107   5.491
 8820SOL     OW27358   3.797   6.494   5.781
 8820SOL    HW127359   3.783   6.544   5.867
 8820SOL    HW227360   3.799   6.558   5.705
 8821SOL     OW27361   0.752   5.615   5.529
 8821SOL    HW127362   0.691   5.672   5.473
 8821SOL    HW227363   0.744   5.520   5.500
 8822SOL     OW27364   6.300   0.074   4.482
 8822SOL    HW127365   6.335   0.022   4.404
 8822SOL    HW227366   6.356   0.054   4.563
 8823SOL     OW27367   4.812   1.951   3.260
 8823SOL    HW127368   4.875   1.907   3.324
 8823SOL    HW227369   4.846   2.043   3.239
 8824SOL     OW27370   1.642   0.252   4.319
 8824SOL    HW127371   1.586   0.335   4.317
 8824SOL    HW227372   1.738   0.277   4.309
 8825SOL     OW27373   1.259   6.953   0.497
 8825SOL    HW127374   1.220   0.003   0.550
 8825SOL    HW227375   1.264   6.871   0.554
 8826SOL     OW27376   0.507   3.915   0.391
 8826SOL    HW127377   0.561   3.831   0.393
 8826SOL    HW227378   0.529   3.971   0.471
 8827SOL     OW27379   4.938   6.078   3.424
 8827SOL    HW127380   4.951   5.999   3.484
 8827SOL    HW227381   5.013   6.143   3.439
 8828SOL     OW27382   5.305   2.618   5.935
 8828SOL    HW127383   5.367   2.661   6.001
 8828SOL    HW227384   5.360   2.571   5.865
 8829SOL     OW27385   6.063   0.999   3.009
 8829SOL    HW127386   6.043   1.038   2.919
 8829SOL    HW227387   5.995   0.929   3.030
 8830SOL     OW27388   3.364   0.718   2.849
 8830SOL    HW127389   3.380   0.799   2.793
 8830SOL    HW227390   3.429   0.719   2.926
 8831SOL     OW27391   0.711   2.634   2.621
 8831SOL    HW127392   0.706   2.708   2.688
 8831SOL    HW227393   0.800   2.635   2.576
 8832SOL     OW27394   5.786   0.332   4.997
 8832SOL    HW127395   5.821   0.421   5.026
 8832SOL    HW227396   5.693   0.319   5.034
 8833SOL     OW27397   4.840   2.996   0.819
 8833SOL    HW127398   4.866   3.038   0.906
 8833SOL    HW227399   4.917   3.002   0.755
 8834SOL     OW27400   5.660   4.712   6.189
 8834SOL    HW127401   5.684   4.683   6.282
 8834SOL    HW227402   5.742   4.714   6.132
 8835SOL     OW27403   6.556   0.908   5.174
 8835SOL    HW127404   6.539   0.908   5.076
 8835SOL    HW227405   6.591   0.997   5.203
 8836SOL     OW27406   4.328   1.399   1.325
 8836SOL    HW127407   4.268   1.423   1.249
 8836SOL    HW227408   4.272   1.385   1.407
 8837SOL     OW27409   4.805   4.867   0.236
 8837SOL    HW127410   4.878   4.803   0.258
 8837SOL    HW227411   4.748   4.880   0.317
 8838SOL     OW27412   1.963   3.998   2.473
 8838SOL    HW127413   1.957   3.989   2.374
 8838SOL    HW227414   2.029   3.932   2.509
 8839SOL     OW27415   4.358   4.653   1.350
 8839SOL    HW127416   4.281   4.706   1.384
 8839SOL    HW227417   4.398   4.600   1.425
 8840SOL     OW27418   0.572   0.601   1.556
 8840SOL    HW127419   0.633   0.538   1.604
 8840SOL    HW227420   0.517   0.550   1.489
 8841SOL     OW27421   3.800   1.250   1.297
 8841SOL    HW127422   3.729   1.276   1.232
 8841SOL    HW227423   3.877   1.209   1.248
 8842SOL     OW27424   3.299   3.497   3.764
 8842SOL    HW127425   3.295   3.596   3.752
 8842SOL    HW227426   3.391   3.464   3.743
 8843SOL     OW27427   2.314   6.003   5.480
 8843SOL    HW127428   2.389   6.053   5.524
 8843SOL    HW227429   2.261   5.955   5.550
 8844SOL     OW27430   3.772   2.788   5.705
 8844SOL    HW127431   3.864   2.810   5.674
 8844SOL    HW227432   3.737   2.862   5.762
 8845SOL     OW27433   0.810   3.551   2.367
 8845SOL    HW127434   0.827   3.457   2.336
 8845SOL    HW227435   0.766   3.603   2.293
 8846SOL     OW27436   5.461   5.553   4.158
 8846SOL    HW127437   5.397   5.530   4.084
 8846SOL    HW227438   5.537   5.489   4.157
 8847SOL     OW27439   0.590   2.286   3.693
 8847SOL    HW127440   0.651   2.207   3.693
 8847SOL    HW227441   0.585   2.325   3.785
 8848SOL     OW27442   6.130   2.427   1.073
 8848SOL    HW127443   6.104   2.340   1.116
 8848SOL    HW227444   6.048   2.472   1.037
 8849SOL     OW27445   2.972   5.522   4.677
 8849SOL    HW127446   2.922   5.452   4.627
 8849SOL    HW227447   3.009   5.482   4.762
 8850SOL     OW27448   3.374   2.614   0.912
 8850SOL    HW127449   3.399   2.565   0.996
 8850SOL    HW227450   3.278   2.598   0.892
 8851SOL     OW27451   6.908   4.931   2.832
 8851SOL    HW127452   6.885   4.862   2.901
 8851SOL    HW227453   6.983   4.898   2.776
 8852SOL     OW27454   5.277   3.521   4.542
 8852SOL    HW127455   5.246   3.550   4.452
 8852SOL    HW227456   5.367   3.479   4.535
 8853SOL     OW27457   5.014   1.778   4.869
 8853SOL    HW127458   4.926   1.730   4.860
 8853SOL    HW227459   5.020   1.848   4.797
 8854SOL     OW27460   2.735   0.999   5.777
 8854SOL    HW127461   2.659   1.049   5.816
 8854SOL    HW227462   2.812   1.061   5.760
 8855SOL     OW27463   6.174   4.832   6.261
 8855SOL    HW127464   6.178   4.734   6.244
 8855SOL    HW227465   6.126   4.878   6.186
 8856SOL     OW27466   5.762   1.392   5.370
 8856SOL    HW127467   5.717   1.391   5.280
 8856SOL    HW227468   5.733   1.312   5.422
 8857SOL     OW27469   2.114   3.290   4.458
 8857SOL    HW127470   2.108   3.384   4.426
 8857SOL    HW227471   2.136   3.289   4.556
 8858SOL     OW27472   0.128   3.645   5.439
 8858SOL    HW127473   0.063   3.574   5.464
 8858SOL    HW227474   0.126   3.718   5.508
 8859SOL     OW27475   2.377   6.368   5.525
 8859SOL    HW127476   2.280   6.381   5.545
 8859SOL    HW227477   2.432   6.434   5.576
 8860SOL     OW27478   2.144   1.499   1.334
 8860SOL    HW127479   2.213   1.432   1.306
 8860SOL    HW227480   2.117   1.554   1.255
 8861SOL     OW27481   1.863   2.489   0.586
 8861SOL    HW127482   1.805   2.545   0.644
 8861SOL    HW227483   1.838   2.502   0.490
 8862SOL     OW27484   6.941   2.215   4.734
 8862SOL    HW127485   6.989   2.264   4.807
 8862SOL    HW227486   6.998   2.215   4.651
 8863SOL     OW27487   1.916   5.687   5.426
 8863SOL    HW127488   1.856   5.608   5.415
 8863SOL    HW227489   2.009   5.662   5.398
 8864SOL     OW27490   2.061   4.462   5.926
 8864SOL    HW127491   1.996   4.479   6.000
 8864SOL    HW227492   2.031   4.385   5.871
 8865SOL     OW27493   3.192   2.142   5.929
 8865SOL    HW127494   3.169   2.132   6.026
 8865SOL    HW227495   3.125   2.092   5.874
 8866SOL     OW27496   4.899   0.424   5.409
 8866SOL    HW127497   4.935   0.333   5.428
 8866SOL    HW227498   4.934   0.489   5.477
 8867SOL     OW27499   6.212   1.083   3.789
 8867SOL    HW127500   6.261   0.996   3.790
 8867SOL    HW227501   6.188   1.108   3.883
 8868SOL     OW27502   5.411   3.449   0.749
 8868SOL    HW127503   5.400   3.511   0.826
 8868SOL    HW227504   5.457   3.496   0.674
 8869SOL     OW27505   3.442   2.086   3.270
 8869SOL    HW127506   3.484   2.097   3.180
 8869SOL    HW227507   3.417   1.990   3.283
 8870SOL     OW27508   4.818   0.789   1.845
 8870SOL    HW127509   4.857   0.881   1.850
 8870SOL    HW227510   4.837   0.740   1.931
 8871SOL     OW27511   1.472   2.027   3.599
 8871SOL    HW127512   1.382   2.068   3.610
 8871SOL    HW227513   1.488   2.006   3.502
 8872SOL     OW27514   1.121   2.147   2.028
 8872SOL    HW127515   1.108   2.118   2.123
 8872SOL    HW227516   1.038   2.191   1.995
 8873SOL     OW27517   6.802   5.707   4.766
 8873SOL    HW127518   6.839   5.758   4.688
 8873SOL    HW227519   6.844   5.740   4.850
 8874SOL     OW27520   1.047   1.489   6.564
 8874SOL    HW127521   1.124   1.543   6.530
 8874SOL    HW227522   0.962   1.521   6.521
 8875SOL     OW27523   1.292   1.039   4.245
 8875SOL    HW127524   1.386   1.038   4.210
 8875SOL    HW227525   1.233   0.984   4.185
 8876SOL     OW27526   2.956   0.904   4.727
 8876SOL    HW127527   2.972   0.807   4.708
 8876SOL    HW227528   2.897   0.913   4.807
 8877SOL     OW27529   3.075   6.845   4.283
 8877SOL    HW127530   3.118   6.812   4.367
 8877SOL    HW227531   3.094   6.942   4.272
 8878SOL     OW27532   5.740   4.725   4.986
 8878SOL    HW127533   5.793   4.762   4.910
 8878SOL    HW227534   5.743   4.625   4.984
 8879SOL     OW27535   4.411   5.514   4.332
 8879SOL    HW127536   4.384   5.603   4.296
 8879SOL    HW227537   4.334   5.450   4.325
 8880SOL     OW27538   0.760   6.498   5.062
 8880SOL    HW127539   0.818   6.577   5.046
 8880SOL    HW227540   0.758   6.440   4.980
 8881SOL     OW27541   6.749   1.639   2.670
 8881SOL    HW127542   6.744   1.736   2.694
 8881SOL    HW227543   6.692   1.585   2.732
 8882SOL     OW27544   5.282   2.701   0.389
 8882SOL    HW127545   5.342   2.746   0.456
 8882SOL    HW227546   5.271   2.605   0.413
 8883SOL     OW27547   5.989   1.034   5.438
 8883SOL    HW127548   6.081   1.072   5.438
 8883SOL    HW227549   5.966   1.001   5.346
 8884SOL     OW27550   0.185   1.572   6.596
 8884SOL    HW127551   0.176   1.521   6.682
 8884SOL    HW227552   0.213   1.509   6.523
 8885SOL     OW27553   5.471   3.685   1.535
 8885SOL    HW127554   5.506   3.642   1.618
 8885SOL    HW227555   5.388   3.638   1.505
 8886SOL     OW27556   2.982   5.694   5.897
 8886SOL    HW127557   2.996   5.652   5.807
 8886SOL    HW227558   3.037   5.778   5.903
 8887SOL     OW27559   1.667   1.477   0.886
 8887SOL    HW127560   1.567   1.486   0.881
 8887SOL    HW227561   1.692   1.446   0.978
 8888SOL     OW27562   2.869   1.818   3.123
 8888SOL    HW127563   2.922   1.866   3.053
 8888SOL    HW227564   2.782   1.787   3.084
 8889SOL     OW27565   3.377   0.729   4.322
 8889SOL    HW127566   3.456   0.757   4.375
 8889SOL    HW227567   3.353   0.635   4.344
 8890SOL     OW27568   0.261   4.466   3.378
 8890SOL    HW127569   0.283   4.560   3.350
 8890SOL    HW227570   0.164   4.449   3.365
 8891SOL     OW27571   3.132   1.295   6.055
 8891SOL    HW127572   3.082   1.347   5.986
 8891SOL    HW227573   3.163   1.356   6.128
 8892SOL     OW27574   1.153   0.079   2.734
 8892SOL    HW127575   1.219   0.147   2.704
 8892SOL    HW227576   1.061   0.108   2.709
 8893SOL     OW27577   0.280   1.104   0.784
 8893SOL    HW127578   0.216   1.181   0.780
 8893SOL    HW227579   0.373   1.139   0.797
 8894SOL     OW27580   4.668   2.460   6.187
 8894SOL    HW127581   4.722   2.418   6.114
 8894SOL    HW227582   4.579   2.414   6.194
 8895SOL     OW27583   2.010   1.161   3.073
 8895SOL    HW127584   2.067   1.225   3.124
 8895SOL    HW227585   2.036   1.067   3.097
 8896SOL     OW27586   2.208   4.281   5.184
 8896SOL    HW127587   2.269   4.276   5.263
 8896SOL    HW227588   2.222   4.200   5.126
 8897SOL     OW27589   0.967   2.549   1.425
 8897SOL    HW127590   0.938   2.641   1.400
 8897SOL    HW227591   1.036   2.517   1.360
 8898SOL     OW27592   0.357   3.127   5.339
 8898SOL    HW127593   0.308   3.086   5.262
 8898SOL    HW227594   0.308   3.106   5.424
 8899SOL     OW27595   3.170   5.421   1.656
 8899SOL    HW127596   3.184   5.420   1.755
 8899SOL    HW227597   3.093   5.362   1.633
 8900SOL     OW27598   6.641   2.118   3.571
 8900SOL    HW127599   6.656   2.023   3.597
 8900SOL    HW227600   6.552   2.127   3.527
 8901SOL     OW27601   2.109   0.248   1.677
 8901SOL    HW127602   2.163   0.322   1.635
 8901SOL    HW227603   2.135   0.161   1.635
 8902SOL     OW27604   3.445   6.262   5.842
 8902SOL    HW127605   3.509   6.309   5.781
 8902SOL    HW227606   3.487   6.252   5.932
 8903SOL     OW27607   6.658   0.354   2.555
 8903SOL    HW127608   6.578   0.372   2.613
 8903SOL    HW227609   6.628   0.329   2.464
 8904SOL     OW27610   1.239   4.606   3.155
 8904SOL    HW127611   1.278   4.574   3.242
 8904SOL    HW227612   1.216   4.527   3.098
 8905SOL     OW27613   2.167   3.965   4.796
 8905SOL    HW127614   2.211   3.988   4.882
 8905SOL    HW227615   2.075   4.005   4.794
 8906SOL     OW27616   2.340   5.108   4.799
 8906SOL    HW127617   2.303   5.017   4.815
 8906SOL    HW227618   2.323   5.134   4.703
 8907SOL     OW27619   3.636   2.351   6.634
 8907SOL    HW127620   3.597   2.400   6.712
 8907SOL    HW227621   3.592   2.381   6.550
 8908SOL     OW27622   0.763   2.909   2.706
 8908SOL    HW127623   0.695   2.884   2.775
 8908SOL    HW227624   0.796   3.001   2.723
 8909SOL     OW27625   3.454   0.210   5.342
 8909SOL    HW127626   3.462   0.120   5.386
 8909SOL    HW227627   3.416   0.199   5.250
 8910SOL     OW27628   4.067   2.962   0.303
 8910SOL    HW127629   4.041   3.048   0.261
 8910SOL    HW227630   4.079   2.975   0.401
 8911SOL     OW27631   5.185   2.524   3.569
 8911SOL    HW127632   5.142   2.494   3.654
 8911SOL    HW227633   5.122   2.582   3.519
 8912SOL     OW27634   4.779   0.712   6.655
 8912SOL    HW127635   4.866   0.739   6.613
 8912SOL    HW227636   4.796   0.639   6.721
 8913SOL     OW27637   4.393   4.013   1.343
 8913SOL    HW127638   4.471   4.076   1.350
 8913SOL    HW227639   4.398   3.964   1.257
 8914SOL     OW27640   5.015   2.370   4.201
 8914SOL    HW127641   5.097   2.421   4.230
 8914SOL    HW227642   5.042   2.294   4.143
 8915SOL     OW27643   0.655   5.193   2.283
 8915SOL    HW127644   0.690   5.271   2.335
 8915SOL    HW227645   0.624   5.223   2.193
 8916SOL     OW27646   5.620   3.421   2.578
 8916SOL    HW127647   5.589   3.479   2.502
 8916SOL    HW227648   5.614   3.325   2.551
 8917SOL     OW27649   5.427   4.692   5.004
 8917SOL    HW127650   5.462   4.676   5.097
 8917SOL    HW227651   5.333   4.726   5.009
 8918SOL     OW27652   5.041   4.026   6.258
 8918SOL    HW127653   5.036   3.965   6.337
 8918SOL    HW227654   4.981   3.991   6.186
 8919SOL     OW27655   2.175   3.342   1.625
 8919SOL    HW127656   2.152   3.337   1.528
 8919SOL    HW227657   2.202   3.252   1.658
 8920SOL     OW27658   6.685   5.558   5.428
 8920SOL    HW127659   6.712   5.563   5.332
 8920SOL    HW227660   6.759   5.517   5.482
 8921SOL     OW27661   0.732   5.355   3.636
 8921SOL    HW127662   0.737   5.296   3.716
 8921SOL    HW227663   0.822   5.394   3.617
 8922SOL     OW27664   0.027   3.815   6.399
 8922SOL    HW127665   0.094   3.889   6.399
 8922SOL    HW227666   7.001   3.817   6.314
 8923SOL     OW27667   2.543   4.520   4.409
 8923SOL    HW127668   2.570   4.564   4.495
 8923SOL    HW227669   2.493   4.436   4.429
 8924SOL     OW27670   2.009   6.426   4.811
 8924SOL    HW127671   2.074   6.351   4.824
 8924SOL    HW227672   2.037   6.480   4.731
 8925SOL     OW27673   4.690   5.400   1.467
 8925SOL    HW127674   4.670   5.329   1.534
 8925SOL    HW227675   4.627   5.392   1.390
 8926SOL     OW27676   5.645   0.290   6.773
 8926SOL    HW127677   5.709   0.232   6.723
 8926SOL    HW227678   5.637   0.378   6.726
 8927SOL     OW27679   2.681   1.716   4.822
 8927SOL    HW127680   2.590   1.753   4.841
 8927SOL    HW227681   2.733   1.781   4.767
 8928SOL     OW27682   0.871   0.246   5.086
 8928SOL    HW127683   0.900   0.324   5.032
 8928SOL    HW227684   0.951   0.205   5.131
 8929SOL     OW27685   5.112   3.948   3.617
 8929SOL    HW127686   5.053   4.027   3.634
 8929SOL    HW227687   5.058   3.874   3.577
 8930SOL     OW27688   0.548   5.709   5.346
 8930SOL    HW127689   0.512   5.651   5.272
 8930SOL    HW227690   0.484   5.785   5.362
 8931SOL     OW27691   4.617   1.103   1.454
 8931SOL    HW127692   4.634   1.201   1.445
 8931SOL    HW227693   4.609   1.062   1.364
 8932SOL     OW27694   5.188   0.704   0.389
 8932SOL    HW127695   5.270   0.647   0.385
 8932SOL    HW227696   5.192   0.773   0.317
 8933SOL     OW27697   1.597   0.433   5.174
 8933SOL    HW127698   1.593   0.530   5.148
 8933SOL    HW227699   1.653   0.384   5.107
 8934SOL     OW27700   3.782   6.671   4.265
 8934SOL    HW127701   3.733   6.614   4.329
 8934SOL    HW227702   3.763   6.641   4.171
 8935SOL     OW27703   5.633   1.760   2.900
 8935SOL    HW127704   5.595   1.836   2.847
 8935SOL    HW227705   5.645   1.680   2.841
 8936SOL     OW27706   1.639   4.102   2.116
 8936SOL    HW127707   1.696   4.168   2.067
 8936SOL    HW227708   1.608   4.142   2.203
 8937SOL     OW27709   3.247   0.080   4.874
 8937SOL    HW127710   3.185   0.157   4.890
 8937SOL    HW227711   3.209   7.023   4.917
 8938SOL     OW27712   5.601   6.423   1.302
 8938SOL    HW127713   5.518   6.453   1.349
 8938SOL    HW227714   5.657   6.502   1.278
 8939SOL     OW27715   6.769   3.040   4.717
 8939SOL    HW127716   6.812   2.964   4.766
 8939SOL    HW227717   6.778   3.124   4.771
 8940SOL     OW27718   6.412   3.356   2.283
 8940SOL    HW127719   6.435   3.376   2.188
 8940SOL    HW227720   6.329   3.406   2.308
 8941SOL     OW27721   5.870   2.162   3.163
 8941SOL    HW127722   5.956   2.165   3.111
 8941SOL    HW227723   5.822   2.076   3.143
 8942SOL     OW27724   4.505   4.851   3.862
 8942SOL    HW127725   4.505   4.769   3.920
 8942SOL    HW227726   4.569   4.918   3.899
 8943SOL     OW27727   3.988   3.439   0.668
 8943SOL    HW127728   3.968   3.489   0.752
 8943SOL    HW227729   4.077   3.393   0.676
 8944SOL     OW27730   4.795   6.350   5.006
 8944SOL    HW127731   4.758   6.408   4.932
 8944SOL    HW227732   4.894   6.346   4.998
 8945SOL     OW27733   6.446   4.874   1.573
 8945SOL    HW127734   6.510   4.917   1.509
 8945SOL    HW227735   6.432   4.779   1.546
 8946SOL     OW27736   3.696   1.466   4.410
 8946SOL    HW127737   3.606   1.428   4.433
 8946SOL    HW227738   3.761   1.444   4.483
 8947SOL     OW27739   2.682   5.280   0.612
 8947SOL    HW127740   2.706   5.198   0.559
 8947SOL    HW227741   2.723   5.274   0.703
 8948SOL     OW27742   5.293   0.330   2.871
 8948SOL    HW127743   5.278   0.344   2.773
 8948SOL    HW227744   5.210   0.357   2.921
 8949SOL     OW27745   3.878   6.398   0.893
 8949SOL    HW127746   3.936   6.445   0.826
 8949SOL    HW227747   3.815   6.463   0.934
 8950SOL     OW27748   3.491   4.120   3.054
 8950SOL    HW127749   3.501   4.024   3.027
 8950SOL    HW227750   3.463   4.125   3.150
 8951SOL     OW27751   0.590   0.510   3.728
 8951SOL    HW127752   0.519   0.483   3.794
 8951SOL    HW227753   0.550   0.519   3.637
 8952SOL     OW27754   1.208   3.873   4.936
 8952SOL    HW127755   1.269   3.845   5.010
 8952SOL    HW227756   1.254   3.943   4.880
 8953SOL     OW27757   0.540   5.310   0.697
 8953SOL    HW127758   0.508   5.236   0.638
 8953SOL    HW227759   0.464   5.371   0.720
 8954SOL     OW27760   2.282   4.494   5.564
 8954SOL    HW127761   2.258   4.535   5.476
 8954SOL    HW227762   2.270   4.395   5.558
 8955SOL     OW27763   6.142   3.174   6.021
 8955SOL    HW127764   6.178   3.081   6.014
 8955SOL    HW227765   6.175   3.216   6.106
 8956SOL     OW27766   0.670   6.217   0.696
 8956SOL    HW127767   0.605   6.169   0.755
 8956SOL    HW227768   0.734   6.269   0.752
 8957SOL     OW27769   1.103   6.965   3.507
 8957SOL    HW127770   1.148   6.882   3.540
 8957SOL    HW227771   1.066   7.015   3.584
 8958SOL     OW27772   6.662   3.524   4.826
 8958SOL    HW127773   6.577   3.496   4.869
 8958SOL    HW227774   6.722   3.568   4.893
 8959SOL     OW27775   5.009   1.583   4.141
 8959SOL    HW127776   5.054   1.495   4.157
 8959SOL    HW227777   4.957   1.609   4.222
 8960SOL     OW27778   5.326   4.830   2.638
 8960SOL    HW127779   5.248   4.770   2.655
 8960SOL    HW227780   5.313   4.878   2.551
 8961SOL     OW27781   2.303   1.940   5.693
 8961SOL    HW127782   2.377   1.958   5.758
 8961SOL    HW227783   2.314   1.999   5.613
 8962SOL     OW27784   6.902   6.265   1.942
 8962SOL    HW127785   6.924   6.254   2.039
 8962SOL    HW227786   6.806   6.241   1.927
 8963SOL     OW27787   2.197   6.194   5.816
 8963SOL    HW127788   2.265   6.124   5.796
 8963SOL    HW227789   2.123   6.188   5.749
 8964SOL     OW27790   1.106   2.580   3.606
 8964SOL    HW127791   1.167   2.657   3.585
 8964SOL    HW227792   1.159   2.495   3.607
 8965SOL     OW27793   3.834   6.113   0.409
 8965SOL    HW127794   3.770   6.175   0.455
 8965SOL    HW227795   3.797   6.020   0.411
 8966SOL     OW27796   5.036   0.204   5.477
 8966SOL    HW127797   5.067   0.178   5.569
 8966SOL    HW227798   5.113   0.201   5.414
 8967SOL     OW27799   2.962   0.471   3.290
 8967SOL    HW127800   2.864   0.489   3.292
 8967SOL    HW227801   3.004   0.500   3.376
 8968SOL     OW27802   3.024   5.220   2.781
 8968SOL    HW127803   3.098   5.195   2.720
 8968SOL    HW227804   2.946   5.253   2.728
 8969SOL     OW27805   7.009   0.976   2.656
 8969SOL    HW127806   7.022   0.918   2.575
 8969SOL    HW227807   6.911   0.985   2.674
 8970SOL     OW27808   2.285   1.619   4.180
 8970SOL    HW127809   2.214   1.549   4.181
 8970SOL    HW227810   2.368   1.582   4.139
 8971SOL     OW27811   3.089   4.661   1.202
 8971SOL    HW127812   3.050   4.742   1.158
 8971SOL    HW227813   3.039   4.640   1.286
 8972SOL     OW27814   6.287   3.879   6.502
 8972SOL    HW127815   6.201   3.925   6.524
 8972SOL    HW227816   6.280   3.783   6.528
 8973SOL     OW27817   2.585   1.751   4.140
 8973SOL    HW127818   2.651   1.817   4.102
 8973SOL    HW227819   2.501   1.799   4.163
 8974SOL     OW27820   1.971   4.345   5.024
 8974SOL    HW127821   1.891   4.376   5.075
 8974SOL    HW227822   2.053   4.361   5.078
 8975SOL     OW27823   0.585   3.333   6.296
 8975SOL    HW127824   0.582   3.234   6.311
 8975SOL    HW227825   0.492   3.366   6.275
 8976SOL     OW27826   5.810   0.274   1.476
 8976SOL    HW127827   5.791   0.351   1.538
 8976SOL    HW227828   5.906   0.276   1.449
 8977SOL     OW27829   6.944   5.114   6.345
 8977SOL    HW127830   7.016   5.053   6.311
 8977SOL    HW227831   6.904   5.074   6.428
 8978SOL     OW27832   6.529   5.530   5.144
 8978SOL    HW127833   6.482   5.497   5.226
 8978SOL    HW227834   6.608   5.586   5.171
 8979SOL     OW27835   1.639   4.612   3.517
 8979SOL    HW127836   1.689   4.623   3.603
 8979SOL    HW227837   1.668   4.683   3.452
 8980SOL     OW27838   4.189   0.550   0.819
 8980SOL    HW127839   4.112   0.486   0.812
 8980SOL    HW227840   4.230   0.543   0.910
 8981SOL     OW27841   4.222   2.263   0.106
 8981SOL    HW127842   4.204   2.346   0.053
 8981SOL    HW227843   4.321   2.255   0.121
 8982SOL     OW27844   0.476   1.188   2.312
 8982SOL    HW127845   0.568   1.199   2.276
 8982SOL    HW227846   0.451   1.091   2.313
 8983SOL     OW27847   1.023   6.615   2.528
 8983SOL    HW127848   1.084   6.662   2.465
 8983SOL    HW227849   0.996   6.678   2.601
 8984SOL     OW27850   6.166   1.161   4.033
 8984SOL    HW127851   6.239   1.147   4.100
 8984SOL    HW227852   6.183   1.246   3.983
 8985SOL     OW27853   4.861   0.291   2.229
 8985SOL    HW127854   4.929   0.326   2.165
 8985SOL    HW227855   4.906   0.230   2.295
 8986SOL     OW27856   0.616   6.470   6.983
 8986SOL    HW127857   0.711   6.458   7.012
 8986SOL    HW227858   0.583   6.559   7.014
 8987SOL     OW27859   2.644   6.501   2.675
 8987SOL    HW127860   2.695   6.486   2.590
 8987SOL    HW227861   2.671   6.587   2.716
 8988SOL     OW27862   2.526   0.233   0.774
 8988SOL    HW127863   2.582   0.315   0.766
 8988SOL    HW227864   2.498   0.203   0.682
 8989SOL     OW27865   5.776   1.047   2.019
 8989SOL    HW127866   5.809   0.955   1.999
 8989SOL    HW227867   5.851   1.112   2.009
 8990SOL     OW27868   3.994   1.209   2.717
 8990SOL    HW127869   3.941   1.294   2.723
 8990SOL    HW227870   3.935   1.131   2.733
 8991SOL     OW27871   1.234   2.043   1.037
 8991SOL    HW127872   1.237   2.117   0.971
 8991SOL    HW227873   1.180   1.967   1.000
 8992SOL     OW27874   0.118   4.887   6.279
 8992SOL    HW127875   0.190   4.949   6.249
 8992SOL    HW227876   0.084   4.835   6.200
 8993SOL     OW27877   5.120   3.816   3.926
 8993SOL    HW127878   5.166   3.903   3.911
 8993SOL    HW227879   5.186   3.749   3.961
 8994SOL     OW27880   1.283   6.089   2.216
 8994SOL    HW127881   1.371   6.045   2.201
 8994SOL    HW227882   1.290   6.186   2.195
 8995SOL     OW27883   2.139   3.623   3.835
 8995SOL    HW127884   2.139   3.531   3.797
 8995SOL    HW227885   2.176   3.620   3.928
 8996SOL     OW27886   2.381   3.948   1.070
 8996SOL    HW127887   2.299   3.899   1.100
 8996SOL    HW227888   2.462   3.892   1.090
 8997SOL     OW27889   4.657   1.328   5.142
 8997SOL    HW127890   4.736   1.331   5.204
 8997SOL    HW227891   4.649   1.414   5.093
 8998SOL     OW27892   1.056   1.567   6.939
 8998SOL    HW127893   1.084   1.649   6.888
 8998SOL    HW227894   0.960   1.577   6.966
 8999SOL     OW27895   5.810   2.902   5.794
 8999SOL    HW127896   5.712   2.920   5.782
 8999SOL    HW227897   5.851   2.975   5.849
 9000SOL     OW27898   4.681   4.427   1.281
 9000SOL    HW127899   4.638   4.343   1.247
 9000SOL    HW227900   4.761   4.403   1.336
 9001SOL     OW27901   0.939   3.821   3.585
 9001SOL    HW127902   1.015   3.886   3.589
 9001SOL    HW227903   0.877   3.836   3.662
 9002SOL     OW27904   5.562   2.974   5.726
 9002SOL    HW127905   5.520   3.064   5.715
 9002SOL    HW227906   5.499   2.904   5.694
 9003SOL     OW27907   6.641   2.865   6.828
 9003SOL    HW127908   6.560   2.893   6.879
 9003SOL    HW227909   6.668   2.774   6.857
 9004SOL     OW27910   4.940   5.652   0.703
 9004SOL    HW127911   4.996   5.647   0.786
 9004SOL    HW227912   4.847   5.620   0.723
 9005SOL     OW27913   4.929   3.183   3.375
 9005SOL    HW127914   4.992   3.107   3.394
 9005SOL    HW227915   4.901   3.180   3.279
 9006SOL     OW27916   2.832   6.604   1.783
 9006SOL    HW127917   2.915   6.653   1.756
 9006SOL    HW227918   2.768   6.599   1.706
 9007SOL     OW27919   1.382   6.496   5.240
 9007SOL    HW127920   1.296   6.484   5.290
 9007SOL    HW227921   1.425   6.581   5.269
 9008SOL     OW27922   0.386   4.086   1.746
 9008SOL    HW127923   0.296   4.066   1.708
 9008SOL    HW227924   0.430   4.158   1.692
 9009SOL     OW27925   4.272   6.226   6.933
 9009SOL    HW127926   4.185   6.272   6.955
 9009SOL    HW227927   4.263   6.176   6.848
 9010SOL     OW27928   6.682   5.857   4.350
 9010SOL    HW127929   6.695   5.947   4.307
 9010SOL    HW227930   6.767   5.804   4.342
 9011SOL     OW27931   4.739   2.597   2.119
 9011SOL    HW127932   4.745   2.538   2.038
 9011SOL    HW227933   4.811   2.666   2.116
 9012SOL     OW27934   4.805   5.084   2.358
 9012SOL    HW127935   4.880   5.047   2.412
 9012SOL    HW227936   4.722   5.032   2.377
 9013SOL     OW27937   4.348   5.973   2.036
 9013SOL    HW127938   4.293   5.980   2.119
 9013SOL    HW227939   4.387   6.063   2.015
 9014SOL     OW27940   2.548   0.801   2.088
 9014SOL    HW127941   2.462   0.836   2.049
 9014SOL    HW227942   2.620   0.869   2.073
 9015SOL     OW27943   6.393   2.143   4.305
 9015SOL    HW127944   6.476   2.091   4.281
 9015SOL    HW227945   6.399   2.173   4.400
 9016SOL     OW27946   0.191   6.309   0.033
 9016SOL    HW127947   0.272   6.312   0.092
 9016SOL    HW227948   0.198   6.382   6.990
 9017SOL     OW27949   6.642   3.414   2.869
 9017SOL    HW127950   6.677   3.326   2.900
 9017SOL    HW227951   6.608   3.466   2.947
 9018SOL     OW27952   4.599   1.757   6.372
 9018SOL    HW127953   4.686   1.797   6.401
 9018SOL    HW227954   4.557   1.709   6.449
 9019SOL     OW27955   2.015   5.685   7.021
 9019SOL    HW127956   2.015   5.607   0.057
 9019SOL    HW227957   1.933   5.683   6.963
 9020SOL     OW27958   0.921   4.780   4.344
 9020SOL    HW127959   0.905   4.682   4.352
 9020SOL    HW227960   0.997   4.806   4.403
 9021SOL     OW27961   6.366   5.292   5.840
 9021SOL    HW127962   6.302   5.291   5.763
 9021SOL    HW227963   6.388   5.198   5.866
 9022SOL     OW27964   2.530   0.184   6.317
 9022SOL    HW127965   2.584   0.145   6.392
 9022SOL    HW227966   2.579   0.261   6.277
 9023SOL     OW27967   3.122   3.881   4.057
 9023SOL    HW127968   3.219   3.878   4.081
 9023SOL    HW227969   3.072   3.934   4.126
 9024SOL     OW27970   1.295   0.100   6.097
 9024SOL    HW127971   1.309   0.048   6.182
 9024SOL    HW227972   1.204   0.082   6.062
 9025SOL     OW27973   0.194   3.305   0.218
 9025SOL    HW127974   0.113   3.357   0.191
 9025SOL    HW227975   0.200   3.304   0.318
 9026SOL     OW27976   2.721   3.224   5.557
 9026SOL    HW127977   2.696   3.273   5.640
 9026SOL    HW227978   2.699   3.280   5.477
 9027SOL     OW27979   1.379   3.136   2.548
 9027SOL    HW127980   1.299   3.133   2.488
 9027SOL    HW227981   1.434   3.216   2.526
 9028SOL     OW27982   2.397   4.463   4.856
 9028SOL    HW127983   2.447   4.512   4.784
 9028SOL    HW227984   2.356   4.380   4.817
 9029SOL     OW27985   5.754   5.266   2.640
 9029SOL    HW127986   5.691   5.222   2.704
 9029SOL    HW227987   5.733   5.364   2.635
 9030SOL     OW27988   4.244   2.337   3.288
 9030SOL    HW127989   4.263   2.393   3.369
 9030SOL    HW227990   4.183   2.262   3.312
 9031SOL     OW27991   2.860   1.292   2.036
 9031SOL    HW127992   2.809   1.212   2.004
 9031SOL    HW227993   2.873   1.286   2.134
 9032SOL     OW27994   0.407   3.087   2.109
 9032SOL    HW127995   0.500   3.050   2.117
 9032SOL    HW227996   0.345   3.037   2.169
 9033SOL     OW27997   1.190   3.804   2.591
 9033SOL    HW127998   1.234   3.754   2.517
 9033SOL    HW227999   1.101   3.838   2.560
 9034SOL     OW28000   1.738   6.918   6.915
 9034SOL    HW128001   1.649   6.931   6.960
 9034SOL    HW228002   1.736   6.835   6.859
 9035SOL     OW28003   6.508   1.152   4.414
 9035SOL    HW128004   6.467   1.224   4.469
 9035SOL    HW228005   6.594   1.123   4.455
 9036SOL     OW28006   0.711   0.974   4.734
 9036SOL    HW128007   0.776   0.901   4.715
 9036SOL    HW228008   0.683   1.018   4.648
 9037SOL     OW28009   2.415   4.391   5.800
 9037SOL    HW128010   2.435   4.469   5.858
 9037SOL    HW228011   2.364   4.421   5.719
 9038SOL     OW28012   5.082   5.348   5.636
 9038SOL    HW128013   5.068   5.276   5.568
 9038SOL    HW228014   5.130   5.310   5.715
 9039SOL     OW28015   2.546   4.763   6.888
 9039SOL    HW128016   2.582   4.777   6.795
 9039SOL    HW228017   2.447   4.748   6.883
 9040SOL     OW28018   3.074   1.598   2.691
 9040SOL    HW128019   2.975   1.608   2.705
 9040SOL    HW228020   3.112   1.540   2.763
 9041SOL     OW28021   1.829   3.010   6.025
 9041SOL    HW128022   1.905   3.015   5.959
 9041SOL    HW228023   1.826   2.918   6.064
 9042SOL     OW28024   1.674   5.496   2.393
 9042SOL    HW128025   1.750   5.443   2.431
 9042SOL    HW228026   1.638   5.449   2.312
 9043SOL     OW28027   0.101   1.985   6.903
 9043SOL    HW128028   0.060   2.075   6.922
 9043SOL    HW228029   0.099   1.968   6.804
 9044SOL     OW28030   0.430   4.307   0.319
 9044SOL    HW128031   0.525   4.306   0.287
 9044SOL    HW228032   0.407   4.217   0.356
 9045SOL     OW28033   2.368   4.831   4.555
 9045SOL    HW128034   2.354   4.930   4.554
 9045SOL    HW228035   2.282   4.786   4.575
 9046SOL     OW28036   3.663   4.382   6.456
 9046SOL    HW128037   3.662   4.286   6.486
 9046SOL    HW228038   3.647   4.386   6.357
 9047SOL     OW28039   0.813   4.138   4.320
 9047SOL    HW128040   0.783   4.092   4.404
 9047SOL    HW228041   0.831   4.069   4.249
 9048SOL     OW28042   1.261   2.569   4.689
 9048SOL    HW128043   1.204   2.549   4.769
 9048SOL    HW228044   1.336   2.630   4.715
 9049SOL     OW28045   5.053   6.614   6.124
 9049SOL    HW128046   5.014   6.542   6.181
 9049SOL    HW228047   5.031   6.595   6.028
 9050SOL     OW28048   6.961   4.768   6.099
 9050SOL    HW128049   6.899   4.711   6.044
 9050SOL    HW228050   7.010   4.831   6.039
 9051SOL     OW28051   5.795   6.755   6.053
 9051SOL    HW128052   5.766   6.737   6.147
 9051SOL    HW228053   5.894   6.742   6.045
 9052SOL     OW28054   2.618   5.128   4.884
 9052SOL    HW128055   2.525   5.098   4.863
 9052SOL    HW228056   2.640   5.208   4.828
 9053SOL     OW28057   2.673   1.427   3.078
 9053SOL    HW128058   2.700   1.379   2.995
 9053SOL    HW228059   2.588   1.389   3.114
 9054SOL     OW28060   1.912   0.166   1.198
 9054SOL    HW128061   1.990   0.124   1.151
 9054SOL    HW228062   1.856   0.094   1.239
 9055SOL     OW28063   1.251   2.455   4.433
 9055SOL    HW128064   1.248   2.482   4.529
 9055SOL    HW228065   1.342   2.418   4.411
 9056SOL     OW28066   4.710   2.415   1.889
 9056SOL    HW128067   4.634   2.351   1.881
 9056SOL    HW228068   4.767   2.410   1.807
 9057SOL     OW28069   3.680   6.603   6.753
 9057SOL    HW128070   3.702   6.522   6.807
 9057SOL    HW228071   3.586   6.594   6.718
 9058SOL     OW28072   2.427   1.852   4.388
 9058SOL    HW128073   2.360   1.926   4.388
 9058SOL    HW228074   2.518   1.890   4.373
 9059SOL     OW28075   6.895   0.901   2.051
 9059SOL    HW128076   6.951   0.850   1.986
 9059SOL    HW228077   6.824   0.841   2.089
 9060SOL     OW28078   6.469   4.883   0.807
 9060SOL    HW128079   6.405   4.912   0.878
 9060SOL    HW228080   6.514   4.799   0.835
 9061SOL     OW28081   4.646   4.314   2.163
 9061SOL    HW128082   4.577   4.303   2.091
 9061SOL    HW228083   4.725   4.257   2.141
 9062SOL     OW28084   0.343   5.553   3.048
 9062SOL    HW128085   0.243   5.549   3.054
 9062SOL    HW228086   0.377   5.623   3.111
 9063SOL     OW28087   4.764   0.437   0.855
 9063SOL    HW128088   4.768   0.375   0.934
 9063SOL    HW228089   4.857   0.459   0.826
 9064SOL     OW28090   1.042   5.572   2.874
 9064SOL    HW128091   1.051   5.671   2.890
 9064SOL    HW228092   1.088   5.523   2.948
 9065SOL     OW28093   3.529   4.220   6.755
 9065SOL    HW128094   3.486   4.228   6.845
 9065SOL    HW228095   3.551   4.312   6.721
 9066SOL     OW28096   5.082   4.667   3.677
 9066SOL    HW128097   5.065   4.766   3.672
 9066SOL    HW228098   5.082   4.638   3.772
 9067SOL     OW28099   2.094   6.928   4.239
 9067SOL    HW128100   2.058   6.835   4.240
 9067SOL    HW228101   2.026   6.989   4.199
 9068SOL     OW28102   4.526   0.413   6.127
 9068SOL    HW128103   4.601   0.455   6.178
 9068SOL    HW228104   4.443   0.415   6.183
 9069SOL     OW28105   4.927   2.261   1.998
 9069SOL    HW128106   4.933   2.289   2.094
 9069SOL    HW228107   4.838   2.288   1.962
 9070SOL     OW28108   1.596   0.789   6.327
 9070SOL    HW128109   1.531   0.835   6.266
 9070SOL    HW228110   1.685   0.784   6.283
 9071SOL     OW28111   4.790   2.438   6.698
 9071SOL    HW128112   4.779   2.424   6.600
 9071SOL    HW228113   4.751   2.361   6.748
 9072SOL     OW28114   6.247   0.456   1.941
 9072SOL    HW128115   6.164   0.421   1.896
 9072SOL    HW228116   6.263   0.550   1.914
 9073SOL     OW28117   4.355   2.963   5.967
 9073SOL    HW128118   4.434   3.008   6.009
 9073SOL    HW228119   4.375   2.866   5.953
 9074SOL     OW28120   2.356   1.066   3.881
 9074SOL    HW128121   2.418   1.097   3.809
 9074SOL    HW228122   2.333   1.143   3.941
 9075SOL     OW28123   5.372   5.357   0.648
 9075SOL    HW128124   5.352   5.260   0.658
 9075SOL    HW228125   5.416   5.373   0.560
 9076SOL     OW28126   1.503   5.956   2.540
 9076SOL    HW128127   1.425   5.919   2.490
 9076SOL    HW228128   1.577   5.889   2.541
 9077SOL     OW28129   6.522   1.739   6.291
 9077SOL    HW128130   6.585   1.752   6.214
 9077SOL    HW228131   6.502   1.641   6.301
 9078SOL     OW28132   4.912   6.631   0.352
 9078SOL    HW128133   5.002   6.613   0.312
 9078SOL    HW228134   4.846   6.648   0.278
 9079SOL     OW28135   1.278   1.203   6.214
 9079SOL    HW128136   1.260   1.195   6.116
 9079SOL    HW228137   1.198   1.243   6.260
 9080SOL     OW28138   6.638   4.282   1.813
 9080SOL    HW128139   6.595   4.202   1.856
 9080SOL    HW228140   6.569   4.350   1.791
 9081SOL     OW28141   4.883   1.476   0.616
 9081SOL    HW128142   4.958   1.415   0.642
 9081SOL    HW228143   4.917   1.547   0.554
 9082SOL     OW28144   3.371   4.677   6.688
 9082SOL    HW128145   3.344   4.581   6.695
 9082SOL    HW228146   3.317   4.731   6.753
 9083SOL     OW28147   3.716   0.647   0.752
 9083SOL    HW128148   3.784   0.672   0.821
 9083SOL    HW228149   3.682   0.729   0.706
 9084SOL     OW28150   6.431   4.457   4.652
 9084SOL    HW128151   6.458   4.415   4.565
 9084SOL    HW228152   6.332   4.471   4.653
 9085SOL     OW28153   2.626   4.514   0.944
 9085SOL    HW128154   2.650   4.495   1.040
 9085SOL    HW228155   2.537   4.473   0.923
 9086SOL     OW28156   6.749   2.605   0.808
 9086SOL    HW128157   6.797   2.527   0.849
 9086SOL    HW228158   6.705   2.575   0.723
 9087SOL     OW28159   4.988   1.268   1.469
 9087SOL    HW128160   5.073   1.269   1.521
 9087SOL    HW228161   5.005   1.300   1.376
 9088SOL     OW28162   5.536   5.853   6.855
 9088SOL    HW128163   5.518   5.908   6.937
 9088SOL    HW228164   5.527   5.910   6.773
 9089SOL     OW28165   5.549   5.005   3.192
 9089SOL    HW128166   5.624   4.956   3.149
 9089SOL    HW228167   5.466   4.994   3.138
 9090SOL     OW28168   6.242   5.675   5.927
 9090SOL    HW128169   6.240   5.674   6.027
 9090SOL    HW228170   6.195   5.594   5.891
 9091SOL     OW28171   2.806   2.054   1.673
 9091SOL    HW128172   2.753   2.133   1.701
 9091SOL    HW228173   2.785   2.031   1.578
 9092SOL     OW28174   2.353   1.856   5.210
 9092SOL    HW128175   2.321   1.783   5.149
 9092SOL    HW228176   2.425   1.821   5.269
 9093SOL     OW28177   2.281   3.690   0.230
 9093SOL    HW128178   2.195   3.648   0.201
 9093SOL    HW228179   2.283   3.698   0.330
 9094SOL     OW28180   6.468   2.854   0.596
 9094SOL    HW128181   6.511   2.943   0.580
 9094SOL    HW228182   6.522   2.782   0.553
 9095SOL     OW28183   1.948   2.557   0.217
 9095SOL    HW128184   2.032   2.525   0.174
 9095SOL    HW228185   1.960   2.651   0.249
 9096SOL     OW28186   6.398   4.478   3.094
 9096SOL    HW128187   6.465   4.529   3.040
 9096SOL    HW228188   6.403   4.381   3.070
 9097SOL     OW28189   6.602   6.188   5.529
 9097SOL    HW128190   6.582   6.141   5.443
 9097SOL    HW228191   6.633   6.121   5.597
 9098SOL     OW28192   3.818   3.623   4.829
 9098SOL    HW128193   3.899   3.573   4.858
 9098SOL    HW228194   3.844   3.717   4.804
 9099SOL     OW28195   1.506   2.298   6.907
 9099SOL    HW128196   1.490   2.203   6.931
 9099SOL    HW228197   1.508   2.354   6.990
 9100SOL     OW28198   1.560   3.099   0.320
 9100SOL    HW128199   1.645   3.141   0.286
 9100SOL    HW228200   1.482   3.151   0.286
 9101SOL     OW28201   1.976   2.151   6.629
 9101SOL    HW128202   1.919   2.161   6.547
 9101SOL    HW228203   1.948   2.069   6.679
 9102SOL     OW28204   5.144   6.486   2.394
 9102SOL    HW128205   5.181   6.396   2.418
 9102SOL    HW228206   5.102   6.481   2.304
 9103SOL     OW28207   0.753   4.564   6.447
 9103SOL    HW128208   0.813   4.534   6.522
 9103SOL    HW228209   0.795   4.643   6.401
 9104SOL     OW28210   5.283   0.166   3.111
 9104SOL    HW128211   5.382   0.156   3.115
 9104SOL    HW228212   5.256   0.193   3.019
 9105SOL     OW28213   2.562   2.067   6.316
 9105SOL    HW128214   2.578   2.153   6.269
 9105SOL    HW228215   2.589   2.076   6.412
 9106SOL     OW28216   6.295   5.330   2.115
 9106SOL    HW128217   6.358   5.290   2.182
 9106SOL    HW228218   6.301   5.430   2.119
 9107SOL     OW28219   5.062   6.544   6.677
 9107SOL    HW128220   5.068   6.524   6.774
 9107SOL    HW228221   4.973   6.584   6.656
 9108SOL     OW28222   3.373   5.634   0.152
 9108SOL    HW128223   3.363   5.562   0.083
 9108SOL    HW228224   3.468   5.665   0.155
 9109SOL     OW28225   2.982   1.542   4.318
 9109SOL    HW128226   3.031   1.629   4.327
 9109SOL    HW228227   2.896   1.546   4.368
 9110SOL     OW28228   1.453   3.392   3.330
 9110SOL    HW128229   1.405   3.474   3.360
 9110SOL    HW228230   1.551   3.411   3.323
 9111SOL     OW28231   4.293   3.948   1.731
 9111SOL    HW128232   4.204   3.988   1.710
 9111SOL    HW228233   4.353   4.018   1.769
 9112SOL     OW28234   0.863   5.479   2.125
 9112SOL    HW128235   0.917   5.409   2.172
 9112SOL    HW228236   0.914   5.513   2.046
 9113SOL     OW28237   2.882   5.185   6.957
 9113SOL    HW128238   2.957   5.250   6.966
 9113SOL    HW228239   2.883   5.147   6.864
 9114SOL     OW28240   2.562   3.649   1.717
 9114SOL    HW128241   2.495   3.710   1.675
 9114SOL    HW228242   2.516   3.590   1.784
 9115SOL     OW28243   1.718   3.998   4.753
 9115SOL    HW128244   1.739   4.039   4.665
 9115SOL    HW228245   1.774   3.916   4.766
 9116SOL     OW28246   2.201   1.779   6.290
 9116SOL    HW128247   2.275   1.787   6.223
 9116SOL    HW228248   2.239   1.756   6.380
 9117SOL     OW28249   7.015   3.498   0.199
 9117SOL    HW128250   6.957   3.486   0.280
 9117SOL    HW228251   0.021   3.593   0.195
 9118SOL     OW28252   0.628   5.812   0.995
 9118SOL    HW128253   0.705   5.765   0.953
 9118SOL    HW228254   0.628   5.794   1.093
 9119SOL     OW28255   6.070   0.341   0.942
 9119SOL    HW128256   6.025   0.290   0.869
 9119SOL    HW228257   6.164   0.310   0.952
 9120SOL     OW28258   6.174   0.850   6.747
 9120SOL    HW128259   6.158   0.779   6.678
 9120SOL    HW228260   6.149   0.816   6.837
 9121SOL     OW28261   1.817   1.631   6.566
 9121SOL    HW128262   1.738   1.571   6.575
 9121SOL    HW228263   1.786   1.726   6.560
 9122SOL     OW28264   1.110   2.550   1.160
 9122SOL    HW128265   1.168   2.551   1.078
 9122SOL    HW228266   1.028   2.605   1.143
 9123SOL     OW28267   2.802   6.429   6.871
 9123SOL    HW128268   2.702   6.435   6.876
 9123SOL    HW228269   2.842   6.477   6.949
 9124SOL     OW28270   6.575   4.802   5.889
 9124SOL    HW128271   6.586   4.733   5.960
 9124SOL    HW228272   6.665   4.824   5.850
 9125SOL     OW28273   4.554   5.721   1.244
 9125SOL    HW128274   4.611   5.697   1.165
 9125SOL    HW228275   4.613   5.740   1.323
 9126SOL     OW28276   5.880   6.717   2.460
 9126SOL    HW128277   5.977   6.741   2.449
 9126SOL    HW228278   5.870   6.654   2.537
 9127SOL     OW28279   5.471   6.030   5.845
 9127SOL    HW128280   5.380   6.059   5.813
 9127SOL    HW228281   5.541   6.081   5.796
 9128SOL     OW28282   5.115   2.654   5.362
 9128SOL    HW128283   5.051   2.678   5.289
 9128SOL    HW228284   5.090   2.703   5.445
 9129SOL     OW28285   2.135   2.156   6.971
 9129SOL    HW128286   2.175   2.215   6.901
 9129SOL    HW228287   2.062   2.205   7.019
 9130SOL     OW28288   6.210   5.983   0.864
 9130SOL    HW128289   6.289   5.982   0.802
 9130SOL    HW228290   6.219   6.058   0.929
 9131SOL     OW28291   0.829   4.728   4.003
 9131SOL    HW128292   0.735   4.706   3.979
 9131SOL    HW228293   0.878   4.645   4.031
 9132SOL     OW28294   1.949   2.828   4.349
 9132SOL    HW128295   1.929   2.822   4.251
 9132SOL    HW228296   2.029   2.886   4.364
 9133SOL     OW28297   1.211   5.182   1.462
 9133SOL    HW128298   1.167   5.161   1.375
 9133SOL    HW228299   1.259   5.270   1.455
 9134SOL     OW28300   2.784   4.850   6.078
 9134SOL    HW128301   2.858   4.916   6.088
 9134SOL    HW228302   2.698   4.892   6.106
 9135SOL     OW28303   1.015   6.234   4.109
 9135SOL    HW128304   1.077   6.201   4.037
 9135SOL    HW228305   1.044   6.325   4.139
 9136SOL     OW28306   3.685   5.472   5.508
 9136SOL    HW128307   3.609   5.507   5.453
 9136SOL    HW228308   3.680   5.511   5.600
 9137SOL     OW28309   4.056   0.328   1.830
 9137SOL    HW128310   4.074   0.243   1.879
 9137SOL    HW228311   3.958   0.338   1.816
 9138SOL     OW28312   3.210   4.198   0.944
 9138SOL    HW128313   3.242   4.285   0.981
 9138SOL    HW228314   3.132   4.214   0.884
 9139SOL     OW28315   3.168   1.111   5.857
 9139SOL    HW128316   3.080   1.110   5.809
 9139SOL    HW228317   3.168   1.183   5.926
 9140SOL     OW28318   6.859   2.248   3.823
 9140SOL    HW128319   6.825   2.295   3.742
 9140SOL    HW228320   6.785   2.195   3.865
 9141SOL     OW28321   5.559   0.534   5.778
 9141SOL    HW128322   5.503   0.606   5.817
 9141SOL    HW228323   5.584   0.558   5.684
 9142SOL     OW28324   1.260   4.085   6.355
 9142SOL    HW128325   1.350   4.122   6.375
 9142SOL    HW228326   1.270   4.001   6.302
 9143SOL     OW28327   5.619   4.050   1.020
 9143SOL    HW128328   5.590   4.089   0.932
 9143SOL    HW228329   5.561   4.086   1.093
 9144SOL     OW28330   1.447   4.994   4.674
 9144SOL    HW128331   1.388   4.917   4.697
 9144SOL    HW228332   1.542   4.963   4.671
 9145SOL     OW28333   0.136   3.559   6.407
 9145SOL    HW128334   0.104   3.652   6.387
 9145SOL    HW228335   0.148   3.548   6.506
 9146SOL     OW28336   0.272   1.932   1.459
 9146SOL    HW128337   0.281   1.842   1.503
 9146SOL    HW228338   0.205   1.986   1.510
 9147SOL     OW28339   4.907   6.335   6.200
 9147SOL    HW128340   4.904   6.263   6.131
 9147SOL    HW228341   4.815   6.353   6.233
 9148SOL     OW28342   3.415   5.218   3.123
 9148SOL    HW128343   3.498   5.199   3.071
 9148SOL    HW228344   3.336   5.220   3.060
 9149SOL     OW28345   6.154   3.043   4.785
 9149SOL    HW128346   6.122   3.111   4.719
 9149SOL    HW228347   6.225   2.986   4.743
 9150SOL     OW28348   4.478   1.414   3.052
 9150SOL    HW128349   4.542   1.369   3.115
 9150SOL    HW228350   4.403   1.454   3.105
 9151SOL     OW28351   1.153   3.365   2.091
 9151SOL    HW128352   1.103   3.278   2.086
 9151SOL    HW228353   1.234   3.353   2.148
 9152SOL     OW28354   2.010   5.377   3.480
 9152SOL    HW128355   2.057   5.327   3.408
 9152SOL    HW228356   2.047   5.470   3.486
 9153SOL     OW28357   1.113   3.100   6.648
 9153SOL    HW128358   1.084   3.007   6.668
 9153SOL    HW228359   1.118   3.153   6.733
 9154SOL     OW28360   1.713   5.621   0.094
 9154SOL    HW128361   1.771   5.561   0.149
 9154SOL    HW228362   1.633   5.570   0.064
 9155SOL     OW28363   1.403   3.988   0.340
 9155SOL    HW128364   1.315   4.017   0.303
 9155SOL    HW228365   1.461   4.068   0.356
 9156SOL     OW28366   5.083   2.530   1.977
 9156SOL    HW128367   5.015   2.471   2.019
 9156SOL    HW228368   5.136   2.478   1.910
 9157SOL     OW28369   5.198   4.102   5.897
 9157SOL    HW128370   5.285   4.091   5.849
 9157SOL    HW228371   5.215   4.120   5.994
 9158SOL     OW28372   0.433   3.880   3.185
 9158SOL    HW128373   0.521   3.833   3.177
 9158SOL    HW228374   0.378   3.862   3.104
 9159SOL     OW28375   6.609   4.751   2.532
 9159SOL    HW128376   6.577   4.819   2.598
 9159SOL    HW228377   6.705   4.769   2.509
 9160SOL     OW28378   6.880   6.959   0.340
 9160SOL    HW128379   6.883   6.861   0.320
 9160SOL    HW228380   6.970   6.999   0.325
 9161SOL     OW28381   5.407   3.918   2.867
 9161SOL    HW128382   5.362   4.007   2.877
 9161SOL    HW228383   5.396   3.867   2.952
 9162SOL     OW28384   5.120   2.074   2.490
 9162SOL    HW128385   5.109   1.975   2.496
 9162SOL    HW228386   5.046   2.118   2.541
 9163SOL     OW28387   3.143   1.127   4.740
 9163SOL    HW128388   3.209   1.092   4.674
 9163SOL    HW228389   3.080   1.053   4.767
 9164SOL     OW28390   2.739   0.224   0.355
 9164SOL    HW128391   2.684   0.190   0.432
 9164SOL    HW228392   2.680   0.274   0.292
 9165SOL     OW28393   4.857   5.985   0.478
 9165SOL    HW128394   4.889   5.971   0.572
 9165SOL    HW228395   4.921   5.944   0.414
 9166SOL     OW28396   2.636   5.688   1.710
 9166SOL    HW128397   2.584   5.663   1.628
 9166SOL    HW228398   2.584   5.662   1.791
 9167SOL     OW28399   0.442   4.208   4.902
 9167SOL    HW128400   0.452   4.280   4.833
 9167SOL    HW228401   0.507   4.135   4.882
 9168SOL     OW28402   2.858   0.724   0.027
 9168SOL    HW128403   2.841   0.806   0.082
 9168SOL    HW228404   2.771   0.680   0.004
 9169SOL     OW28405   0.445   0.157   2.851
 9169SOL    HW128406   0.400   0.096   2.916
 9169SOL    HW228407   0.379   0.223   2.817
 9170SOL     OW28408   6.247   6.269   6.972
 9170SOL    HW128409   6.188   6.325   0.005
 9170SOL    HW228410   6.330   6.321   6.949
 9171SOL     OW28411   2.654   5.540   5.707
 9171SOL    HW128412   2.639   5.576   5.799
 9171SOL    HW228413   2.636   5.442   5.706
 9172SOL     OW28414   2.592   2.487   4.071
 9172SOL    HW128415   2.516   2.531   4.022
 9172SOL    HW228416   2.584   2.506   4.169
 9173SOL     OW28417   0.570   5.200   5.225
 9173SOL    HW128418   0.495   5.217   5.160
 9173SOL    HW228419   0.657   5.208   5.177
 9174SOL     OW28420   0.044   5.470   0.169
 9174SOL    HW128421   0.066   5.380   0.132
 9174SOL    HW228422   0.016   5.462   0.264
 9175SOL     OW28423   1.555   6.580   5.581
 9175SOL    HW128424   1.501   6.497   5.593
 9175SOL    HW228425   1.623   6.565   5.508
 9176SOL     OW28426   1.437   1.854   5.398
 9176SOL    HW128427   1.536   1.861   5.388
 9176SOL    HW228428   1.393   1.865   5.309
 9177SOL     OW28429   1.382   4.598   3.381
 9177SOL    HW128430   1.352   4.689   3.409
 9177SOL    HW228431   1.479   4.587   3.402
 9178SOL     OW28432   2.113   4.417   0.491
 9178SOL    HW128433   2.127   4.376   0.401
 9178SOL    HW228434   2.120   4.517   0.484
 9179SOL     OW28435   2.403   4.730   4.958
 9179SOL    HW128436   2.385   4.641   5.002
 9179SOL    HW228437   2.472   4.718   4.887
 9180SOL     OW28438   5.475   1.955   2.806
 9180SOL    HW128439   5.422   2.010   2.740
 9180SOL    HW228440   5.417   1.932   2.884
 9181SOL     OW28441   3.893   1.436   2.155
 9181SOL    HW128442   3.971   1.448   2.094
 9181SOL    HW228443   3.811   1.477   2.115
 9182SOL     OW28444   1.883   0.026   2.087
 9182SOL    HW128445   1.982   0.024   2.074
 9182SOL    HW228446   1.853   0.121   2.099
 9183SOL     OW28447   5.128   5.802   5.852
 9183SOL    HW128448   5.188   5.753   5.916
 9183SOL    HW228449   5.138   5.900   5.866
 9184SOL     OW28450   4.741   6.925   6.987
 9184SOL    HW128451   4.669   6.941   6.919
 9184SOL    HW228452   4.829   6.955   6.950
 9185SOL     OW28453   4.707   1.005   5.131
 9185SOL    HW128454   4.651   1.046   5.203
 9185SOL    HW228455   4.748   1.077   5.076
 9186SOL     OW28456   5.022   6.933   6.792
 9186SOL    HW128457   5.033   6.946   6.694
 9186SOL    HW228458   4.988   7.018   6.833
 9187SOL     OW28459   2.674   6.880   2.438
 9187SOL    HW128460   2.622   6.796   2.454
 9187SOL    HW228461   2.740   6.864   2.365
 9188SOL     OW28462   2.460   6.142   1.016
 9188SOL    HW128463   2.551   6.181   1.003
 9188SOL    HW228464   2.407   6.200   1.079
 9189SOL     OW28465   5.509   4.840   2.006
 9189SOL    HW128466   5.590   4.782   1.996
 9189SOL    HW228467   5.427   4.782   2.005
 9190SOL     OW28468   1.266   5.503   0.658
 9190SOL    HW128469   1.287   5.483   0.754
 9190SOL    HW228470   1.213   5.428   0.619
 9191SOL     OW28471   6.848   0.727   6.165
 9191SOL    HW128472   6.814   0.780   6.087
 9191SOL    HW228473   6.849   0.784   6.247
 9192SOL     OW28474   1.040   4.106   4.766
 9192SOL    HW128475   1.135   4.104   4.734
 9192SOL    HW228476   0.983   4.049   4.706
 9193SOL     OW28477   2.421   3.419   0.105
 9193SOL    HW128478   2.409   3.334   0.053
 9193SOL    HW228479   2.485   3.479   0.057
 9194SOL     OW28480   2.989   0.374   4.398
 9194SOL    HW128481   3.007   0.473   4.396
 9194SOL    HW228482   3.031   0.331   4.317
 9195SOL     OW28483   1.817   0.766   3.608
 9195SOL    HW128484   1.897   0.749   3.551
 9195SOL    HW228485   1.738   0.784   3.550
 9196SOL     OW28486   5.034   1.733   5.997
 9196SOL    HW128487   5.080   1.753   5.911
 9196SOL    HW228488   4.977   1.811   6.023
 9197SOL     OW28489   2.407   3.864   0.659
 9197SOL    HW128490   2.478   3.887   0.594
 9197SOL    HW228491   2.380   3.947   0.710
 9198SOL     OW28492   0.535   4.745   3.975
 9198SOL    HW128493   0.542   4.677   4.048
 9198SOL    HW228494   0.449   4.733   3.926
 9199SOL     OW28495   5.931   4.197   5.122
 9199SOL    HW128496   5.980   4.111   5.104
 9199SOL    HW228497   5.855   4.205   5.058
 9200SOL     OW28498   3.032   0.762   0.324
 9200SOL    HW128499   2.978   0.835   0.280
 9200SOL    HW228500   3.048   0.689   0.258
 9201SOL     OW28501   1.985   4.247   0.666
 9201SOL    HW128502   2.038   4.299   0.599
 9201SOL    HW228503   1.911   4.199   0.619
 9202SOL     OW28504   2.619   0.843   3.896
 9202SOL    HW128505   2.644   0.899   3.817
 9202SOL    HW228506   2.536   0.791   3.876
 9203SOL     OW28507   6.718   6.670   0.492
 9203SOL    HW128508   6.723   6.631   0.584
 9203SOL    HW228509   6.769   6.612   0.428
 9204SOL     OW28510   5.561   0.307   5.146
 9204SOL    HW128511   5.474   0.304   5.097
 9204SOL    HW228512   5.571   0.224   5.201
 9205SOL     OW28513   6.921   5.065   1.718
 9205SOL    HW128514   6.925   5.125   1.798
 9205SOL    HW228515   6.843   5.091   1.660
 9206SOL     OW28516   3.508   6.776   0.686
 9206SOL    HW128517   3.412   6.755   0.666
 9206SOL    HW228518   3.532   6.739   0.775
 9207SOL     OW28519   5.551   5.582   6.504
 9207SOL    HW128520   5.567   5.632   6.419
 9207SOL    HW228521   5.613   5.616   6.575
 9208SOL     OW28522   1.373   3.576   2.706
 9208SOL    HW128523   1.305   3.534   2.645
 9208SOL    HW228524   1.427   3.642   2.654
 9209SOL     OW28525   2.638   0.136   6.583
 9209SOL    HW128526   2.651   0.038   6.598
 9209SOL    HW228527   2.543   0.161   6.603
 9210SOL     OW28528   6.568   0.492   3.579
 9210SOL    HW128529   6.635   0.562   3.552
 9210SOL    HW228530   6.611   0.402   3.578
 9211SOL     OW28531   0.264   1.692   2.355
 9211SOL    HW128532   0.272   1.592   2.352
 9211SOL    HW228533   0.168   1.718   2.359
 9212SOL     OW28534   3.217   5.153   4.743
 9212SOL    HW128535   3.211   5.071   4.800
 9212SOL    HW228536   3.282   5.217   4.784
 9213SOL     OW28537   6.058   4.489   6.608
 9213SOL    HW128538   6.028   4.430   6.682
 9213SOL    HW228539   6.133   4.547   6.639
 9214SOL     OW28540   0.307   5.067   0.113
 9214SOL    HW128541   0.250   4.985   0.120
 9214SOL    HW228542   0.387   5.057   0.173
 9215SOL     OW28543   1.391   1.425   0.778
 9215SOL    HW128544   1.389   1.326   0.790
 9215SOL    HW228545   1.348   1.449   0.691
 9216SOL     OW28546   1.920   0.068   3.384
 9216SOL    HW128547   1.823   0.079   3.407
 9216SOL    HW228548   1.938   6.998   3.362
 9217SOL     OW28549   0.399   2.827   0.195
 9217SOL    HW128550   0.373   2.765   0.269
 9217SOL    HW228551   0.403   2.921   0.230
 9218SOL     OW28552   1.980   1.076   0.417
 9218SOL    HW128553   1.977   1.140   0.495
 9218SOL    HW228554   1.891   1.074   0.373
 9219SOL     OW28555   0.119   1.476   0.481
 9219SOL    HW128556   0.041   1.507   0.535
 9219SOL    HW228557   0.130   1.377   0.492
 9220SOL     OW28558   3.452   6.061   1.192
 9220SOL    HW128559   3.523   6.040   1.259
 9220SOL    HW228560   3.435   6.160   1.191
 9221SOL     OW28561   2.664   4.844   4.864
 9221SOL    HW128562   2.664   4.942   4.883
 9221SOL    HW228563   2.733   4.799   4.921
 9222SOL     OW28564   2.632   2.314   6.485
 9222SOL    HW128565   2.639   2.338   6.388
 9222SOL    HW228566   2.536   2.303   6.510
 9223SOL     OW28567   2.721   2.990   5.397
 9223SOL    HW128568   2.645   3.007   5.334
 9223SOL    HW228569   2.713   3.052   5.475
 9224SOL     OW28570   1.961   4.736   5.193
 9224SOL    HW128571   1.947   4.832   5.166
 9224SOL    HW228572   1.884   4.707   5.250
 9225SOL     OW28573   2.316   6.868   0.160
 9225SOL    HW128574   2.343   6.784   0.112
 9225SOL    HW228575   2.326   6.854   0.258
 9226SOL     OW28576   4.028   6.595   0.753
 9226SOL    HW128577   3.941   6.643   0.743
 9226SOL    HW228578   4.097   6.638   0.695
 9227SOL     OW28579   1.766   6.960   1.376
 9227SOL    HW128580   1.727   6.983   1.464
 9227SOL    HW228581   1.854   6.914   1.389
 9228SOL     OW28582   0.800   0.036   7.025
 9228SOL    HW128583   0.821   0.070   6.933
 9228SOL    HW228584   0.831   6.967   0.008
 9229SOL     OW28585   0.611   5.798   5.899
 9229SOL    HW128586   0.533   5.845   5.940
 9229SOL    HW228587   0.579   5.719   5.847
 9230SOL     OW28588   5.038   0.832   3.732
 9230SOL    HW128589   5.043   0.787   3.822
 9230SOL    HW228590   4.945   0.864   3.716
 9231SOL     OW28591   2.160   3.325   3.470
 9231SOL    HW128592   2.062   3.336   3.453
 9231SOL    HW228593   2.194   3.243   3.423
 9232SOL     OW28594   4.711   5.019   1.165
 9232SOL    HW128595   4.739   4.956   1.092
 9232SOL    HW228596   4.616   5.002   1.189
 9233SOL     OW28597   4.844   4.606   0.833
 9233SOL    HW128598   4.790   4.531   0.873
 9233SOL    HW228599   4.828   4.690   0.886
 9234SOL     OW28600   1.890   5.934   3.846
 9234SOL    HW128601   1.864   5.962   3.938
 9234SOL    HW228602   1.864   5.838   3.833
 9235SOL     OW28603   0.575   2.520   3.559
 9235SOL    HW128604   0.619   2.589   3.616
 9235SOL    HW228605   0.585   2.430   3.601
 9236SOL     OW28606   4.130   2.843   5.901
 9236SOL    HW128607   4.075   2.809   5.977
 9236SOL    HW228608   4.210   2.891   5.937
 9237SOL     OW28609   1.862   3.591   4.095
 9237SOL    HW128610   1.803   3.671   4.091
 9237SOL    HW228611   1.810   3.514   4.132
 9238SOL     OW28612   4.316   3.398   6.454
 9238SOL    HW128613   4.241   3.463   6.453
 9238SOL    HW228614   4.386   3.428   6.519
 9239SOL     OW28615   1.332   3.608   6.356
 9239SOL    HW128616   1.389   3.690   6.348
 9239SOL    HW228617   1.389   3.527   6.340
 9240SOL     OW28618   5.162   0.954   1.944
 9240SOL    HW128619   5.074   0.983   1.906
 9240SOL    HW228620   5.226   0.937   1.869
 9241SOL     OW28621   0.702   5.432   6.771
 9241SOL    HW128622   0.695   5.364   6.698
 9241SOL    HW228623   0.612   5.445   6.813
 9242SOL     OW28624   6.241   5.808   1.492
 9242SOL    HW128625   6.174   5.850   1.553
 9242SOL    HW228626   6.220   5.831   1.397
 9243SOL     OW28627   5.887   6.210   4.728
 9243SOL    HW128628   5.923   6.152   4.801
 9243SOL    HW228629   5.816   6.270   4.764
 9244SOL     OW28630   3.453   5.321   0.353
 9244SOL    HW128631   3.518   5.251   0.322
 9244SOL    HW228632   3.501   5.407   0.369
 9245SOL     OW28633   0.760   6.582   1.306
 9245SOL    HW128634   0.703   6.663   1.298
 9245SOL    HW228635   0.730   6.512   1.241
 9246SOL     OW28636   6.647   4.840   4.252
 9246SOL    HW128637   6.669   4.928   4.296
 9246SOL    HW228638   6.645   4.853   4.152
 9247SOL     OW28639   1.895   6.823   3.229
 9247SOL    HW128640   1.926   6.859   3.141
 9247SOL    HW228641   1.810   6.772   3.215
 9248SOL     OW28642   3.811   1.963   6.187
 9248SOL    HW128643   3.726   2.008   6.213
 9248SOL    HW228644   3.840   1.902   6.261
 9249SOL     OW28645   4.063   6.312   3.327
 9249SOL    HW128646   4.078   6.283   3.233
 9249SOL    HW228647   4.028   6.406   3.328
 9250SOL     OW28648   5.646   3.478   3.343
 9250SOL    HW128649   5.691   3.450   3.259
 9250SOL    HW228650   5.591   3.560   3.326
 9251SOL     OW28651   4.106   2.011   3.071
 9251SOL    HW128652   4.146   1.921   3.089
 9251SOL    HW228653   4.025   2.022   3.128
 9252SOL     OW28654   1.491   6.685   4.140
 9252SOL    HW128655   1.444   6.730   4.216
 9252SOL    HW228656   1.518   6.753   4.072
 9253SOL     OW28657   1.381   6.821   5.661
 9253SOL    HW128658   1.427   6.741   5.622
 9253SOL    HW228659   1.439   6.901   5.652
 9254SOL     OW28660   5.774   2.709   1.663
 9254SOL    HW128661   5.718   2.671   1.589
 9254SOL    HW228662   5.715   2.755   1.729
 9255SOL     OW28663   6.989   4.883   0.547
 9255SOL    HW128664   6.987   4.790   0.509
 9255SOL    HW228665   6.897   4.923   0.541
 9256SOL     OW28666   4.066   4.973   1.693
 9256SOL    HW128667   4.151   4.926   1.721
 9256SOL    HW228668   4.037   5.034   1.767
 9257SOL     OW28669   0.722   3.493   0.619
 9257SOL    HW128670   0.810   3.507   0.664
 9257SOL    HW228671   0.721   3.404   0.574
 9258SOL     OW28672   3.724   3.178   4.015
 9258SOL    HW128673   3.813   3.207   4.050
 9258SOL    HW228674   3.688   3.105   4.073
 9259SOL     OW28675   1.168   2.415   0.554
 9259SOL    HW128676   1.125   2.450   0.471
 9259SOL    HW228677   1.223   2.334   0.532
 9260SOL     OW28678   6.591   3.837   0.023
 9260SOL    HW128679   6.619   3.925   7.010
 9260SOL    HW228680   6.491   3.828   0.016
 9261SOL     OW28681   3.651   6.891   6.577
 9261SOL    HW128682   3.677   6.799   6.549
 9261SOL    HW228683   3.552   6.894   6.595
 9262SOL     OW28684   4.850   0.741   5.814
 9262SOL    HW128685   4.767   0.797   5.804
 9262SOL    HW228686   4.859   0.712   5.909
 9263SOL     OW28687   5.966   3.741   1.919
 9263SOL    HW128688   5.938   3.646   1.928
 9263SOL    HW228689   5.886   3.798   1.900
 9264SOL     OW28690   6.304   2.235   0.178
 9264SOL    HW128691   6.295   2.136   0.171
 9264SOL    HW228692   6.235   2.271   0.240
 9265SOL     OW28693   1.708   1.835   5.062
 9265SOL    HW128694   1.792   1.830   5.008
 9265SOL    HW228695   1.652   1.911   5.030
 9266SOL     OW28696   2.324   6.176   2.339
 9266SOL    HW128697   2.282   6.259   2.301
 9266SOL    HW228698   2.292   6.096   2.289
 9267SOL     OW28699   2.831   5.126   5.593
 9267SOL    HW128700   2.860   5.210   5.639
 9267SOL    HW228701   2.864   5.047   5.646
 9268SOL     OW28702   0.812   1.234   2.367
 9268SOL    HW128703   0.859   1.148   2.350
 9268SOL    HW228704   0.825   1.296   2.289
 9269SOL     OW28705   4.503   1.809   5.735
 9269SOL    HW128706   4.468   1.864   5.660
 9269SOL    HW228707   4.535   1.869   5.808
 9270SOL     OW28708   1.304   0.292   5.675
 9270SOL    HW128709   1.265   0.382   5.693
 9270SOL    HW228710   1.328   0.249   5.762
 9271SOL     OW28711   0.912   4.980   6.282
 9271SOL    HW128712   0.829   5.035   6.295
 9271SOL    HW228713   0.941   4.942   6.369
 9272SOL     OW28714   2.629   5.157   6.710
 9272SOL    HW128715   2.657   5.185   6.801
 9272SOL    HW228716   2.649   5.060   6.697
 9273SOL     OW28717   4.388   6.311   5.490
 9273SOL    HW128718   4.483   6.279   5.486
 9273SOL    HW228719   4.387   6.409   5.509
 9274SOL     OW28720   5.928   2.448   1.704
 9274SOL    HW128721   5.855   2.516   1.705
 9274SOL    HW228722   5.906   2.375   1.639
 9275SOL     OW28723   0.227   0.886   6.388
 9275SOL    HW128724   0.270   0.835   6.463
 9275SOL    HW228725   0.290   0.955   6.354
 9276SOL     OW28726   4.903   6.477   4.588
 9276SOL    HW128727   4.951   6.532   4.519
 9276SOL    HW228728   4.964   6.405   4.622
 9277SOL     OW28729   3.189   2.552   0.482
 9277SOL    HW128730   3.098   2.567   0.521
 9277SOL    HW228731   3.182   2.490   0.404
 9278SOL     OW28732   1.591   2.886   1.563
 9278SOL    HW128733   1.639   2.925   1.642
 9278SOL    HW228734   1.634   2.799   1.538
 9279SOL     OW28735   2.767   6.635   0.966
 9279SOL    HW128736   2.777   6.599   1.059
 9279SOL    HW228737   2.759   6.735   0.970
 9280SOL     OW28738   2.121   0.923   3.113
 9280SOL    HW128739   2.041   0.869   3.140
 9280SOL    HW228740   2.204   0.869   3.129
 9281SOL     OW28741   1.761   2.847   0.587
 9281SOL    HW128742   1.787   2.937   0.620
 9281SOL    HW228743   1.671   2.823   0.623
 9282SOL     OW28744   4.191   1.702   6.584
 9282SOL    HW128745   4.185   1.781   6.524
 9282SOL    HW228746   4.241   1.727   6.667
 9283SOL     OW28747   5.596   2.409   2.914
 9283SOL    HW128748   5.555   2.498   2.933
 9283SOL    HW228749   5.688   2.422   2.877
 9284SOL     OW28750   3.255   3.561   2.063
 9284SOL    HW128751   3.317   3.487   2.036
 9284SOL    HW228752   3.307   3.633   2.109
 9285SOL     OW28753   6.260   2.417   6.513
 9285SOL    HW128754   6.327   2.357   6.557
 9285SOL    HW228755   6.219   2.368   6.435
 9286SOL     OW28756   5.649   5.727   5.036
 9286SOL    HW128757   5.648   5.785   5.117
 9286SOL    HW228758   5.680   5.635   5.061
 9287SOL     OW28759   2.842   6.829   2.265
 9287SOL    HW128760   2.936   6.862   2.263
 9287SOL    HW228761   2.810   6.812   2.172
 9288SOL     OW28762   4.791   2.325   5.956
 9288SOL    HW128763   4.836   2.254   5.903
 9288SOL    HW228764   4.692   2.323   5.937
 9289SOL     OW28765   5.234   3.498   2.476
 9289SOL    HW128766   5.159   3.454   2.426
 9289SOL    HW228767   5.208   3.506   2.573
 9290SOL     OW28768   4.547   2.206   4.274
 9290SOL    HW128769   4.521   2.124   4.324
 9290SOL    HW228770   4.466   2.259   4.252
 9291SOL     OW28771   0.851   1.634   4.724
 9291SOL    HW128772   0.838   1.633   4.625
 9291SOL    HW228773   0.805   1.713   4.764
 9292SOL     OW28774   6.541   3.529   0.190
 9292SOL    HW128775   6.567   3.531   0.093
 9292SOL    HW228776   6.471   3.459   0.204
 9293SOL     OW28777   6.367   3.812   6.259
 9293SOL    HW128778   6.348   3.831   6.355
 9293SOL    HW228779   6.403   3.894   6.216
 9294SOL     OW28780   5.393   5.631   6.236
 9294SOL    HW128781   5.350   5.683   6.161
 9294SOL    HW228782   5.359   5.537   6.234
 9295SOL     OW28783   4.720   2.125   4.061
 9295SOL    HW128784   4.689   2.170   3.977
 9295SOL    HW228785   4.680   2.172   4.140
 9296SOL     OW28786   6.734   6.657   5.439
 9296SOL    HW128787   6.772   6.749   5.445
 9296SOL    HW228788   6.689   6.645   5.350
 9297SOL     OW28789   0.277   0.783   1.126
 9297SOL    HW128790   0.252   0.743   1.214
 9297SOL    HW228791   0.356   0.734   1.089
 9298SOL     OW28792   0.648   6.425   4.719
 9298SOL    HW128793   0.557   6.426   4.678
 9298SOL    HW228794   0.717   6.432   4.647
 9299SOL     OW28795   1.899   2.583   3.928
 9299SOL    HW128796   1.926   2.666   3.977
 9299SOL    HW228797   1.811   2.597   3.883
 9300SOL     OW28798   5.655   4.124   3.758
 9300SOL    HW128799   5.657   4.191   3.833
 9300SOL    HW228800   5.574   4.141   3.701
 9301SOL     OW28801   6.009   4.102   2.061
 9301SOL    HW128802   6.027   4.050   2.145
 9301SOL    HW228803   5.941   4.053   2.006
 9302SOL     OW28804   2.185   2.408   2.455
 9302SOL    HW128805   2.113   2.471   2.425
 9302SOL    HW228806   2.264   2.461   2.488
 9303SOL     OW28807   4.085   4.414   0.974
 9303SOL    HW128808   4.057   4.390   0.881
 9303SOL    HW228809   4.114   4.332   1.023
 9304SOL     OW28810   4.047   3.263   0.324
 9304SOL    HW128811   4.138   3.288   0.355
 9304SOL    HW228812   3.999   3.344   0.290
 9305SOL     OW28813   5.068   3.325   2.302
 9305SOL    HW128814   4.997   3.257   2.321
 9305SOL    HW228815   5.025   3.409   2.270
 9306SOL     OW28816   6.274   4.582   3.622
 9306SOL    HW128817   6.194   4.528   3.595
 9306SOL    HW228818   6.313   4.544   3.706
 9307SOL     OW28819   2.336   0.768   6.228
 9307SOL    HW128820   2.395   0.722   6.162
 9307SOL    HW228821   2.364   0.743   6.321
 9308SOL     OW28822   6.540   1.984   0.749
 9308SOL    HW128823   6.512   2.066   0.799
 9308SOL    HW228824   6.600   1.928   0.806
 9309SOL     OW28825   4.760   3.129   6.370
 9309SOL    HW128826   4.710   3.104   6.453
 9309SOL    HW228827   4.711   3.203   6.323
 9310SOL     OW28828   3.990   6.094   0.955
 9310SOL    HW128829   3.967   6.191   0.952
 9310SOL    HW228830   4.023   6.065   0.865
 9311SOL     OW28831   6.550   3.342   1.640
 9311SOL    HW128832   6.460   3.380   1.616
 9311SOL    HW228833   6.598   3.314   1.558
 9312SOL     OW28834   1.558   4.513   5.297
 9312SOL    HW128835   1.463   4.499   5.267
 9312SOL    HW228836   1.571   4.609   5.324
 9313SOL     OW28837   6.418   6.592   2.325
 9313SOL    HW128838   6.392   6.642   2.243
 9313SOL    HW228839   6.346   6.602   2.395
 9314SOL     OW28840   5.312   4.795   6.960
 9314SOL    HW128841   5.391   4.789   6.899
 9314SOL    HW228842   5.280   4.890   6.964
 9315SOL     OW28843   0.501   6.768   6.758
 9315SOL    HW128844   0.504   6.682   6.706
 9315SOL    HW228845   0.532   6.751   6.852
 9316SOL     OW28846   3.545   5.872   4.497
 9316SOL    HW128847   3.564   5.928   4.416
 9316SOL    HW228848   3.601   5.905   4.573
 9317SOL     OW28849   5.263   4.512   5.326
 9317SOL    HW128850   5.177   4.513   5.274
 9317SOL    HW228851   5.313   4.597   5.308
 9318SOL     OW28852   6.265   6.759   6.024
 9318SOL    HW128853   6.258   6.701   5.943
 9318SOL    HW228854   6.342   6.823   6.013
 9319SOL     OW28855   6.809   2.819   4.892
 9319SOL    HW128856   6.833   2.730   4.854
 9319SOL    HW228857   6.882   2.850   4.954
 9320SOL     OW28858   3.928   2.984   6.378
 9320SOL    HW128859   4.009   2.961   6.323
 9320SOL    HW228860   3.854   2.921   6.356
 9321SOL     OW28861   6.342   6.188   3.770
 9321SOL    HW128862   6.435   6.171   3.740
 9321SOL    HW228863   6.330   6.152   3.863
 9322SOL     OW28864   0.963   6.616   0.237
 9322SOL    HW128865   1.059   6.627   0.212
 9322SOL    HW228866   0.956   6.597   0.335
 9323SOL     OW28867   0.250   1.396   6.412
 9323SOL    HW128868   0.331   1.340   6.426
 9323SOL    HW228869   0.194   1.358   6.338
 9324SOL     OW28870   1.951   5.404   6.773
 9324SOL    HW128871   2.049   5.411   6.755
 9324SOL    HW228872   1.912   5.496   6.783
 9325SOL     OW28873   0.372   3.082   0.288
 9325SOL    HW128874   0.327   3.132   0.214
 9325SOL    HW228875   0.325   3.101   0.375
 9326SOL     OW28876   1.955   5.508   0.983
 9326SOL    HW128877   2.051   5.495   1.007
 9326SOL    HW228878   1.923   5.429   0.931
 9327SOL     OW28879   4.007   0.816   3.628
 9327SOL    HW128880   3.917   0.782   3.603
 9327SOL    HW228881   4.011   0.915   3.613
 9328SOL     OW28882   3.700   0.769   2.271
 9328SOL    HW128883   3.706   0.850   2.212
 9328SOL    HW228884   3.693   0.687   2.214
 9329SOL     OW28885   1.050   4.192   1.920
 9329SOL    HW128886   1.104   4.143   1.989
 9329SOL    HW228887   0.960   4.214   1.957
 9330SOL     OW28888   5.524   6.746   6.500
 9330SOL    HW128889   5.586   6.803   6.553
 9330SOL    HW228890   5.485   6.800   6.425
 9331SOL     OW28891   0.708   1.475   0.325
 9331SOL    HW128892   0.799   1.512   0.341
 9331SOL    HW228893   0.640   1.545   0.343
 9332SOL     OW28894   3.828   4.156   4.860
 9332SOL    HW128895   3.883   4.234   4.892
 9332SOL    HW228896   3.734   4.167   4.893
 9333SOL     OW28897   5.656   5.758   1.291
 9333SOL    HW128898   5.668   5.662   1.264
 9333SOL    HW228899   5.561   5.784   1.279
 9334SOL     OW28900   2.609   6.980   4.688
 9334SOL    HW128901   2.594   6.892   4.733
 9334SOL    HW228902   2.707   6.999   4.684
 9335SOL     OW28903   0.684   1.188   1.626
 9335SOL    HW128904   0.626   1.219   1.701
 9335SOL    HW228905   0.649   1.101   1.591
 9336SOL     OW28906   3.355   0.234   5.063
 9336SOL    HW128907   3.300   0.317   5.074
 9336SOL    HW228908   3.355   0.207   4.967
 9337SOL     OW28909   4.668   6.693   3.092
 9337SOL    HW128910   4.711   6.713   3.005
 9337SOL    HW228911   4.581   6.646   3.077
 9338SOL     OW28912   3.698   6.925   1.749
 9338SOL    HW128913   3.599   6.941   1.752
 9338SOL    HW228914   3.743   7.001   1.701
 9339SOL     OW28915   4.093   5.632   1.345
 9339SOL    HW128916   4.191   5.644   1.361
 9339SOL    HW228917   4.073   5.536   1.326
 9340SOL     OW28918   6.064   3.191   1.038
 9340SOL    HW128919   6.040   3.100   1.072
 9340SOL    HW228920   5.982   3.235   1.001
 9341SOL     OW28921   6.818   4.864   5.776
 9341SOL    HW128922   6.814   4.831   5.682
 9341SOL    HW228923   6.898   4.923   5.788
 9342SOL     OW28924   1.003   0.092   6.095
 9342SOL    HW128925   0.940   0.074   6.020
 9342SOL    HW228926   0.989   0.185   6.129
 9343SOL     OW28927   6.137   6.217   4.100
 9343SOL    HW128928   6.047   6.173   4.102
 9343SOL    HW228929   6.204   6.157   4.144
 9344SOL     OW28930   4.384   6.471   0.998
 9344SOL    HW128931   4.400   6.549   1.059
 9344SOL    HW228932   4.461   6.408   1.004
 9345SOL     OW28933   0.189   3.026   0.848
 9345SOL    HW128934   0.130   3.067   0.917
 9345SOL    HW228935   0.284   3.026   0.881
 9346SOL     OW28936   5.967   0.226   0.716
 9346SOL    HW128937   5.912   0.309   0.707
 9346SOL    HW228938   5.908   0.146   0.706
 9347SOL     OW28939   1.765   6.843   1.854
 9347SOL    HW128940   1.742   6.849   1.951
 9347SOL    HW228941   1.690   6.800   1.804
 9348SOL     OW28942   2.602   4.860   0.461
 9348SOL    HW128943   2.508   4.830   0.446
 9348SOL    HW228944   2.631   4.920   0.387
 9349SOL     OW28945   1.811   5.825   2.274
 9349SOL    HW128946   1.764   5.820   2.362
 9349SOL    HW228947   1.906   5.854   2.289
 9350SOL     OW28948   0.223   2.985   5.516
 9350SOL    HW128949   0.141   2.940   5.551
 9350SOL    HW228950   0.276   2.920   5.463
 9351SOL     OW28951   2.961   1.112   6.436
 9351SOL    HW128952   2.894   1.172   6.480
 9351SOL    HW228953   3.051   1.156   6.437
 9352SOL     OW28954   2.444   5.015   5.743
 9352SOL    HW128955   2.418   5.045   5.651
 9352SOL    HW228956   2.507   4.938   5.736
 9353SOL     OW28957   5.843   1.063   0.778
 9353SOL    HW128958   5.926   1.089   0.827
 9353SOL    HW228959   5.863   1.056   0.680
 9354SOL     OW28960   1.247   1.664   6.479
 9354SOL    HW128961   1.238   1.756   6.516
 9354SOL    HW228962   1.279   1.669   6.384
 9355SOL     OW28963   0.872   1.357   4.805
 9355SOL    HW128964   0.783   1.324   4.838
 9355SOL    HW228965   0.861   1.447   4.764
 9356SOL     OW28966   5.093   0.244   3.632
 9356SOL    HW128967   5.064   0.156   3.595
 9356SOL    HW228968   5.027   0.275   3.700
 9357SOL     OW28969   0.922   2.104   0.507
 9357SOL    HW128970   0.958   2.161   0.582
 9357SOL    HW228971   0.915   2.159   0.424
 9358SOL     OW28972   1.316   2.741   1.512
 9358SOL    HW128973   1.401   2.777   1.550
 9358SOL    HW228974   1.265   2.693   1.584
 9359SOL     OW28975   1.088   0.157   5.238
 9359SOL    HW128976   1.154   0.112   5.178
 9359SOL    HW228977   1.136   0.223   5.296
 9360SOL     OW28978   0.739   0.486   5.976
 9360SOL    HW128979   0.712   0.398   6.014
 9360SOL    HW228980   0.658   0.536   5.946
 9361SOL     OW28981   2.154   5.743   4.494
 9361SOL    HW128982   2.078   5.794   4.452
 9361SOL    HW228983   2.174   5.662   4.438
 9362SOL     OW28984   2.295   0.723   2.441
 9362SOL    HW128985   2.326   0.814   2.415
 9362SOL    HW228986   2.196   0.717   2.430
 9363SOL     OW28987   1.804   4.410   2.671
 9363SOL    HW128988   1.822   4.364   2.584
 9363SOL    HW228989   1.813   4.509   2.659
 9364SOL     OW28990   0.384   2.691   0.483
 9364SOL    HW128991   0.349   2.616   0.539
 9364SOL    HW228992   0.310   2.756   0.465
 9365SOL     OW28993   2.710   0.904   4.888
 9365SOL    HW128994   2.712   0.842   4.809
 9365SOL    HW228995   2.620   0.899   4.932
 9366SOL     OW28996   4.060   6.263   2.660
 9366SOL    HW128997   4.091   6.174   2.693
 9366SOL    HW228998   4.031   6.255   2.565
 9367SOL     OW28999   6.480   0.680   1.230
 9367SOL    HW129000   6.406   0.647   1.171
 9367SOL    HW229001   6.539   0.741   1.178
 9368SOL     OW29002   2.714   0.558   3.010
 9368SOL    HW129003   2.672   0.472   2.979
 9368SOL    HW229004   2.720   0.558   3.110
 9369SOL     OW29005   3.915   5.346   0.930
 9369SOL    HW129006   3.903   5.418   0.999
 9369SOL    HW229007   3.826   5.303   0.912
 9370SOL     OW29008   4.268   1.679   4.816
 9370SOL    HW129009   4.228   1.770   4.823
 9370SOL    HW229010   4.366   1.687   4.799
 9371SOL     OW29011   3.969   4.803   0.597
 9371SOL    HW129012   3.893   4.818   0.535
 9371SOL    HW229013   4.008   4.891   0.625
 9372SOL     OW29014   4.358   5.723   1.435
 9372SOL    HW129015   4.322   5.814   1.457
 9372SOL    HW229016   4.440   5.732   1.378
 9373SOL     OW29017   6.619   2.751   1.167
 9373SOL    HW129018   6.574   2.837   1.191
 9373SOL    HW229019   6.672   2.764   1.083
 9374SOL     OW29020   0.013   5.372   6.388
 9374SOL    HW129021   6.990   5.286   6.376
 9374SOL    HW229022   6.978   5.448   6.365
 9375SOL     OW29023   1.495   1.030   0.128
 9375SOL    HW129024   1.561   1.105   0.131
 9375SOL    HW229025   1.540   0.945   0.151
 9376SOL     OW29026   2.528   3.447   0.568
 9376SOL    HW129027   2.538   3.501   0.484
 9376SOL    HW229028   2.618   3.431   0.607
 9377SOL     OW29029   2.172   0.676   3.646
 9377SOL    HW129030   2.119   0.727   3.578
 9377SOL    HW229031   2.181   0.731   3.729
 9378SOL     OW29032   3.672   0.927   4.897
 9378SOL    HW129033   3.693   1.014   4.853
 9378SOL    HW229034   3.641   0.861   4.829
 9379SOL     OW29035   4.190   0.077   4.681
 9379SOL    HW129036   4.157   0.044   4.593
 9379SOL    HW229037   4.287   0.101   4.674
 9380SOL     OW29038   4.948   5.520   0.454
 9380SOL    HW129039   4.950   5.579   0.535
 9380SOL    HW229040   4.951   5.424   0.482
 9381SOL     OW29041   5.490   1.050   5.463
 9381SOL    HW129042   5.563   1.109   5.430
 9381SOL    HW229043   5.501   1.035   5.562
 9382SOL     OW29044   3.307   5.458   6.379
 9382SOL    HW129045   3.320   5.403   6.462
 9382SOL    HW229046   3.251   5.538   6.401
 9383SOL     OW29047   5.393   3.713   2.069
 9383SOL    HW129048   5.342   3.633   2.102
 9383SOL    HW229049   5.333   3.793   2.073
 9384SOL     OW29050   3.490   6.976   1.330
 9384SOL    HW129051   3.538   0.013   1.392
 9384SOL    HW229052   3.447   0.002   1.256
 9385SOL     OW29053   4.138   2.206   4.411
 9385SOL    HW129054   4.052   2.194   4.461
 9385SOL    HW229055   4.212   2.226   4.476
 9386SOL     OW29056   5.339   0.041   1.948
 9386SOL    HW129057   5.401   0.104   1.902
 9386SOL    HW229058   5.262   0.019   1.888
 9387SOL     OW29059   1.969   1.900   6.401
 9387SOL    HW129060   1.946   1.952   6.319
 9387SOL    HW229061   2.057   1.854   6.388
 9388SOL     OW29062   2.518   0.185   4.840
 9388SOL    HW129063   2.437   0.227   4.798
 9388SOL    HW229064   2.533   0.095   4.801
 9389SOL     OW29065   2.129   3.933   1.808
 9389SOL    HW129066   2.077   3.857   1.849
 9389SOL    HW229067   2.187   3.898   1.735
 9390SOL     OW29068   5.203   4.950   3.985
 9390SOL    HW129069   5.223   5.048   3.997
 9390SOL    HW229070   5.286   4.902   3.959
 9391SOL     OW29071   1.771   3.811   4.386
 9391SOL    HW129072   1.865   3.845   4.390
 9391SOL    HW229073   1.772   3.711   4.385
 9392SOL     OW29074   4.807   4.522   2.432
 9392SOL    HW129075   4.857   4.435   2.427
 9392SOL    HW229076   4.709   4.503   2.432
 9393SOL     OW29077   1.666   5.758   6.296
 9393SOL    HW129078   1.691   5.833   6.234
 9393SOL    HW229079   1.582   5.783   6.345
 9394SOL     OW29080   3.967   0.400   0.802
 9394SOL    HW129081   3.955   0.380   0.705
 9394SOL    HW229082   3.889   0.362   0.853
 9395SOL     OW29083   1.455   1.389   1.265
 9395SOL    HW129084   1.398   1.389   1.347
 9395SOL    HW229085   1.504   1.302   1.259
 9396SOL     OW29086   0.848   1.001   6.350
 9396SOL    HW129087   0.870   1.067   6.421
 9396SOL    HW229088   0.924   0.997   6.284
 9397SOL     OW29089   3.426   0.857   4.653
 9397SOL    HW129090   3.340   0.900   4.627
 9397SOL    HW229091   3.491   0.864   4.577
 9398SOL     OW29092   0.310   2.127   0.563
 9398SOL    HW129093   0.402   2.116   0.599
 9398SOL    HW229094   0.267   2.037   0.555
 9399SOL     OW29095   1.059   2.276   4.438
 9399SOL    HW129096   1.136   2.340   4.433
 9399SOL    HW229097   1.092   2.183   4.424
 9400SOL     OW29098   5.717   1.856   1.190
 9400SOL    HW129099   5.671   1.892   1.271
 9400SOL    HW229100   5.649   1.818   1.128
 9401SOL     OW29101   0.355   2.619   3.693
 9401SOL    HW129102   0.417   2.553   3.652
 9401SOL    HW229103   0.376   2.711   3.659
 9402SOL     OW29104   2.872   6.219   5.008
 9402SOL    HW129105   2.890   6.163   4.928
 9402SOL    HW229106   2.868   6.161   5.089
 9403SOL     OW29107   5.691   2.166   1.056
 9403SOL    HW129108   5.702   2.070   1.031
 9403SOL    HW229109   5.674   2.220   0.974
 9404SOL     OW29110   1.924   2.451   1.119
 9404SOL    HW129111   1.936   2.373   1.058
 9404SOL    HW229112   1.826   2.469   1.132
 9405SOL     OW29113   6.438   6.064   5.277
 9405SOL    HW129114   6.386   6.149   5.285
 9405SOL    HW229115   6.381   5.993   5.238
 9406SOL     OW29116   1.317   2.185   0.600
 9406SOL    HW129117   1.372   2.187   0.684
 9406SOL    HW229118   1.323   2.093   0.559
 9407SOL     OW29119   1.367   4.470   4.742
 9407SOL    HW129120   1.462   4.440   4.737
 9407SOL    HW229121   1.315   4.432   4.665
 9408SOL     OW29122   5.695   4.301   3.980
 9408SOL    HW129123   5.623   4.271   4.042
 9408SOL    HW229124   5.733   4.387   4.013
 9409SOL     OW29125   5.877   5.369   1.414
 9409SOL    HW129126   5.888   5.414   1.502
 9409SOL    HW229127   5.839   5.278   1.427
 9410SOL     OW29128   4.248   0.530   1.078
 9410SOL    HW129129   4.239   0.560   1.173
 9410SOL    HW229130   4.287   0.438   1.076
 9411SOL     OW29131   3.198   4.067   2.947
 9411SOL    HW129132   3.242   4.008   3.015
 9411SOL    HW229133   3.189   4.160   2.983
 9412SOL     OW29134   4.527   6.880   1.358
 9412SOL    HW129135   4.437   6.859   1.395
 9412SOL    HW229136   4.596   6.823   1.403
 9413SOL     OW29137   4.249   4.781   3.130
 9413SOL    HW129138   4.176   4.850   3.132
 9413SOL    HW229139   4.255   4.736   3.219
 9414SOL     OW29140   2.610   2.009   2.281
 9414SOL    HW129141   2.576   1.972   2.194
 9414SOL    HW229142   2.541   2.068   2.322
 9415SOL     OW29143   5.547   0.444   1.329
 9415SOL    HW129144   5.472   0.473   1.270
 9415SOL    HW229145   5.631   0.439   1.276
 9416SOL     OW29146   6.185   5.286   5.627
 9416SOL    HW129147   6.171   5.206   5.568
 9416SOL    HW229148   6.163   5.369   5.575
 9417SOL     OW29149   3.682   5.457   2.355
 9417SOL    HW129150   3.617   5.463   2.431
 9417SOL    HW229151   3.634   5.428   2.273
 9418SOL     OW29152   3.310   2.087   4.958
 9418SOL    HW129153   3.398   2.052   4.991
 9418SOL    HW229154   3.284   2.167   5.012
 9419SOL     OW29155   2.149   2.574   6.577
 9419SOL    HW129156   2.151   2.650   6.642
 9419SOL    HW229157   2.157   2.610   6.484
 9420SOL     OW29158   5.455   3.566   5.767
 9420SOL    HW129159   5.456   3.664   5.743
 9420SOL    HW229160   5.534   3.546   5.826
 9421SOL     OW29161   4.203   6.083   6.687
 9421SOL    HW129162   4.110   6.052   6.707
 9421SOL    HW229163   4.200   6.157   6.620
 9422SOL     OW29164   2.528   6.452   5.274
 9422SOL    HW129165   2.511   6.476   5.369
 9422SOL    HW229166   2.524   6.353   5.263
 9423SOL     OW29167   4.439   5.428   1.873
 9423SOL    HW129168   4.440   5.338   1.829
 9423SOL    HW229169   4.389   5.493   1.815
 9424SOL     OW29170   6.996   0.351   3.966
 9424SOL    HW129171   6.917   0.314   3.917
 9424SOL    HW229172   6.965   0.396   4.050
 9425SOL     OW29173   6.774   4.545   0.613
 9425SOL    HW129174   6.754   4.450   0.588
 9425SOL    HW229175   6.851   4.578   0.559
 9426SOL     OW29176   4.360   2.772   6.178
 9426SOL    HW129177   4.300   2.695   6.199
 9426SOL    HW229178   4.416   2.793   6.259
 9427SOL     OW29179   3.896   5.074   1.978
 9427SOL    HW129180   3.991   5.047   1.990
 9427SOL    HW229181   3.853   5.090   2.067
 9428SOL     OW29182   0.831   6.253   5.600
 9428SOL    HW129183   0.864   6.182   5.537
 9428SOL    HW229184   0.907   6.311   5.629
 9429SOL     OW29185   3.139   2.105   4.229
 9429SOL    HW129186   3.154   2.155   4.314
 9429SOL    HW229187   3.211   2.036   4.218
 9430SOL     OW29188   1.611   0.723   4.399
 9430SOL    HW129189   1.616   0.737   4.498
 9430SOL    HW229190   1.581   0.808   4.356
 9431SOL     OW29191   1.258   4.448   4.985
 9431SOL    HW129192   1.287   4.467   4.891
 9431SOL    HW229193   1.200   4.367   4.987
 9432SOL     OW29194   7.003   1.469   3.548
 9432SOL    HW129195   6.923   1.461   3.489
 9432SOL    HW229196   6.974   1.476   3.643
 9433SOL     OW29197   4.473   5.694   2.013
 9433SOL    HW129198   4.410   5.772   2.015
 9433SOL    HW229199   4.427   5.613   2.048
 9434SOL     OW29200   4.065   5.750   4.451
 9434SOL    HW129201   4.153   5.746   4.404
 9434SOL    HW229202   4.075   5.718   4.545
 9435SOL     OW29203   5.760   4.169   0.475
 9435SOL    HW129204   5.705   4.086   0.462
 9435SOL    HW229205   5.820   4.156   0.554
 9436SOL     OW29206   3.328   1.187   3.157
 9436SOL    HW129207   3.239   1.185   3.113
 9436SOL    HW229208   3.350   1.280   3.186
 9437SOL     OW29209   5.179   0.954   4.418
 9437SOL    HW129210   5.253   0.959   4.351
 9437SOL    HW229211   5.201   1.012   4.496
 9438SOL     OW29212   4.830   0.360   2.940
 9438SOL    HW129213   4.746   0.413   2.931
 9438SOL    HW229214   4.821   0.295   3.016
 9439SOL     OW29215   2.190   3.845   1.269
 9439SOL    HW129216   2.188   3.913   1.342
 9439SOL    HW229217   2.194   3.753   1.308
 9440SOL     OW29218   1.445   5.904   4.824
 9440SOL    HW129219   1.506   5.977   4.793
 9440SOL    HW229220   1.352   5.940   4.834
 9441SOL     OW29221   0.422   6.143   4.369
 9441SOL    HW129222   0.335   6.184   4.396
 9441SOL    HW229223   0.490   6.215   4.353
 9442SOL     OW29224   5.804   3.051   1.196
 9442SOL    HW129225   5.807   3.033   1.295
 9442SOL    HW229226   5.777   2.967   1.148
 9443SOL     OW29227   2.743   4.224   1.398
 9443SOL    HW129228   2.722   4.149   1.336
 9443SOL    HW229229   2.841   4.244   1.395
 9444SOL     OW29230   1.927   5.672   6.408
 9444SOL    HW129231   1.836   5.696   6.375
 9444SOL    HW229232   1.923   5.583   6.454
 9445SOL     OW29233   0.287   0.682   3.995
 9445SOL    HW129234   0.354   0.671   4.068
 9445SOL    HW229235   0.269   0.593   3.953
 9446SOL     OW29236   6.339   4.634   4.348
 9446SOL    HW129237   6.406   4.569   4.311
 9446SOL    HW229238   6.268   4.651   4.279
 9447SOL     OW29239   5.276   4.918   2.362
 9447SOL    HW129240   5.275   4.948   2.267
 9447SOL    HW229241   5.202   4.964   2.412
 9448SOL     OW29242   5.439   1.974   6.704
 9448SOL    HW129243   5.481   2.050   6.655
 9448SOL    HW229244   5.404   1.907   6.638
 9449SOL     OW29245   4.810   6.734   2.585
 9449SOL    HW129246   4.799   6.640   2.553
 9449SOL    HW229247   4.892   6.773   2.544
 9450SOL     OW29248   1.134   0.243   3.099
 9450SOL    HW129249   1.169   0.332   3.129
 9450SOL    HW229250   1.034   0.245   3.099
 9451SOL     OW29251   4.142   5.318   0.757
 9451SOL    HW129252   4.060   5.323   0.815
 9451SOL    HW229253   4.121   5.356   0.667
 9452SOL     OW29254   6.109   4.191   6.186
 9452SOL    HW129255   6.180   4.237   6.239
 9452SOL    HW229256   6.034   4.255   6.169
 9453SOL     OW29257   6.504   4.922   2.341
 9453SOL    HW129258   6.579   4.962   2.288
 9453SOL    HW229259   6.516   4.823   2.347
 9454SOL     OW29260   5.721   5.151   0.710
 9454SOL    HW129261   5.658   5.081   0.678
 9454SOL    HW229262   5.731   5.145   0.810
 9455SOL     OW29263   4.632   0.398   1.493
 9455SOL    HW129264   4.627   0.305   1.458
 9455SOL    HW229265   4.716   0.441   1.463
 9456SOL     OW29266   6.821   2.275   2.957
 9456SOL    HW129267   6.848   2.207   3.024
 9456SOL    HW229268   6.890   2.346   2.950
 9457SOL     OW29269   6.482   5.975   3.961
 9457SOL    HW129270   6.414   5.979   4.034
 9457SOL    HW229271   6.532   6.062   3.956
 9458SOL     OW29272   6.061   3.842   0.358
 9458SOL    HW129273   5.992   3.773   0.334
 9458SOL    HW229274   6.119   3.806   0.431
 9459SOL     OW29275   5.091   4.845   4.778
 9459SOL    HW129276   5.173   4.825   4.724
 9459SOL    HW229277   5.046   4.926   4.740
 9460SOL     OW29278   1.803   2.733   2.450
 9460SOL    HW129279   1.723   2.771   2.405
 9460SOL    HW229280   1.776   2.656   2.508
 9461SOL     OW29281   2.361   1.939   2.068
 9461SOL    HW129282   2.277   1.886   2.059
 9461SOL    HW229283   2.439   1.884   2.040
 9462SOL     OW29284   6.994   1.374   5.804
 9462SOL    HW129285   7.021   1.470   5.805
 9462SOL    HW229286   0.042   1.318   5.840
 9463SOL     OW29287   6.359   4.802   0.563
 9463SOL    HW129288   6.329   4.708   0.576
 9463SOL    HW229289   6.423   4.828   0.636
 9464SOL     OW29290   1.092   0.012   1.581
 9464SOL    HW129291   1.000   0.045   1.560
 9464SOL    HW229292   1.087   6.941   1.607
 9465SOL     OW29293   6.420   5.929   0.184
 9465SOL    HW129294   6.480   5.864   0.231
 9465SOL    HW229295   6.466   5.963   0.102
 9466SOL     OW29296   4.366   3.919   5.317
 9466SOL    HW129297   4.390   3.823   5.303
 9466SOL    HW229298   4.409   3.953   5.400
 9467SOL     OW29299   1.126   4.097   0.692
 9467SOL    HW129300   1.147   4.190   0.723
 9467SOL    HW229301   1.179   4.031   0.745
 9468SOL     OW29302   6.057   1.059   0.984
 9468SOL    HW129303   6.156   1.063   0.966
 9468SOL    HW229304   6.041   1.026   1.077
 9469SOL     OW29305   6.925   6.981   1.438
 9469SOL    HW129306   6.897   0.020   1.368
 9469SOL    HW229307   6.945   0.004   1.523
 9470SOL     OW29308   3.280   3.013   0.751
 9470SOL    HW129309   3.356   3.010   0.686
 9470SOL    HW229310   3.306   2.962   0.833
 9471SOL     OW29311   6.511   3.130   4.839
 9471SOL    HW129312   6.598   3.179   4.840
 9471SOL    HW229313   6.465   3.145   4.752
 9472SOL     OW29314   1.902   3.505   5.909
 9472SOL    HW129315   1.945   3.562   5.979
 9472SOL    HW229316   1.883   3.415   5.947
 9473SOL     OW29317   3.190   3.896   1.166
 9473SOL    HW129318   3.220   3.904   1.071
 9473SOL    HW229319   3.255   3.839   1.217
 9474SOL     OW29320   5.667   4.536   0.954
 9474SOL    HW129321   5.649   4.559   0.859
 9474SOL    HW229322   5.713   4.448   0.960
 9475SOL     OW29323   5.513   3.366   6.776
 9475SOL    HW129324   5.471   3.454   6.755
 9475SOL    HW229325   5.519   3.354   6.875
 9476SOL     OW29326   4.124   4.102   1.366
 9476SOL    HW129327   4.219   4.072   1.366
 9476SOL    HW229328   4.109   4.167   1.292
 9477SOL     OW29329   1.381   4.801   0.945
 9477SOL    HW129330   1.467   4.800   0.895
 9477SOL    HW229331   1.395   4.764   1.037
 9478SOL     OW29332   6.635   4.243   6.092
 9478SOL    HW129333   6.654   4.279   6.001
 9478SOL    HW229334   6.580   4.309   6.144
 9479SOL     OW29335   4.430   0.969   2.070
 9479SOL    HW129336   4.445   0.870   2.075
 9479SOL    HW229337   4.504   1.017   2.117
 9480SOL     OW29338   5.783   0.410   0.617
 9480SOL    HW129339   5.704   0.419   0.556
 9480SOL    HW229340   5.823   0.501   0.632
 9481SOL     OW29341   4.758   6.851   3.303
 9481SOL    HW129342   4.811   6.930   3.273
 9481SOL    HW229343   4.758   6.782   3.232
 9482SOL     OW29344   6.057   4.899   5.180
 9482SOL    HW129345   6.078   4.837   5.105
 9482SOL    HW229346   6.136   4.908   5.239
 9483SOL     OW29347   6.286   5.005   6.714
 9483SOL    HW129348   6.201   4.960   6.742
 9483SOL    HW229349   6.293   5.094   6.759
 9484SOL     OW29350   2.052   6.476   4.550
 9484SOL    HW129351   2.086   6.480   4.456
 9484SOL    HW229352   2.029   6.382   4.573
 9485SOL     OW29353   0.656   1.194   4.931
 9485SOL    HW129354   0.678   1.112   4.878
 9485SOL    HW229355   0.726   1.208   5.002
 9486SOL     OW29356   6.892   5.822   6.335
 9486SOL    HW129357   6.851   5.913   6.340
 9486SOL    HW229358   6.857   5.765   6.409
 9487SOL     OW29359   3.024   3.848   3.049
 9487SOL    HW129360   3.013   3.910   2.971
 9487SOL    HW229361   3.019   3.900   3.134
 9488SOL     OW29362   2.063   0.842   1.497
 9488SOL    HW129363   2.158   0.835   1.468
 9488SOL    HW229364   2.054   0.914   1.566
 9489SOL     OW29365   6.304   4.407   0.141
 9489SOL    HW129366   6.368   4.451   0.204
 9489SOL    HW229367   6.256   4.333   0.189
 9490SOL     OW29368   5.607   3.559   4.905
 9490SOL    HW129369   5.707   3.553   4.917
 9490SOL    HW229370   5.587   3.591   4.813
 9491SOL     OW29371   5.507   0.123   2.915
 9491SOL    HW129372   5.582   0.105   2.852
 9491SOL    HW229373   5.447   0.194   2.877
 9492SOL     OW29374   4.629   2.716   4.181
 9492SOL    HW129375   4.721   2.699   4.216
 9492SOL    HW229376   4.562   2.664   4.235
 9493SOL     OW29377   2.754   6.273   2.459
 9493SOL    HW129378   2.842   6.252   2.502
 9493SOL    HW229379   2.682   6.221   2.505
 9494SOL     OW29380   4.935   2.579   2.489
 9494SOL    HW129381   5.014   2.641   2.480
 9494SOL    HW229382   4.856   2.619   2.442
 9495SOL     OW29383   5.086   2.802   1.223
 9495SOL    HW129384   5.109   2.808   1.126
 9495SOL    HW229385   5.012   2.866   1.244
 9496SOL     OW29386   5.986   2.832   1.518
 9496SOL    HW129387   6.068   2.782   1.546
 9496SOL    HW229388   5.905   2.785   1.554
 9497SOL     OW29389   5.424   5.028   5.077
 9497SOL    HW129390   5.475   5.006   5.160
 9497SOL    HW229391   5.330   5.053   5.101
 9498SOL     OW29392   0.834   5.516   5.945
 9498SOL    HW129393   0.894   5.564   5.881
 9498SOL    HW229394   0.873   5.427   5.966
 9499SOL     OW29395   5.509   6.188   4.399
 9499SOL    HW129396   5.507   6.096   4.437
 9499SOL    HW229397   5.590   6.237   4.433
 9500SOL     OW29398   3.032   1.534   0.917
 9500SOL    HW129399   2.948   1.584   0.937
 9500SOL    HW229400   3.028   1.444   0.961
 9501SOL     OW29401   1.891   3.990   5.376
 9501SOL    HW129402   1.957   3.929   5.420
 9501SOL    HW229403   1.881   3.966   5.280
 9502SOL     OW29404   5.589   4.049   3.487
 9502SOL    HW129405   5.654   3.973   3.478
 9502SOL    HW229406   5.639   4.135   3.491
 9503SOL     OW29407   5.712   1.290   0.444
 9503SOL    HW129408   5.722   1.386   0.419
 9503SOL    HW229409   5.669   1.283   0.534
 9504SOL     OW29410   6.656   5.848   2.265
 9504SOL    HW129411   6.561   5.867   2.239
 9504SOL    HW229412   6.716   5.866   2.187
 9505SOL     OW29413   4.679   3.564   6.340
 9505SOL    HW129414   4.632   3.627   6.278
 9505SOL    HW229415   4.670   3.471   6.305
 9506SOL     OW29416   3.404   1.091   1.731
 9506SOL    HW129417   3.361   1.146   1.802
 9506SOL    HW229418   3.334   1.044   1.677
 9507SOL     OW29419   6.313   6.390   1.667
 9507SOL    HW129420   6.231   6.447   1.669
 9507SOL    HW229421   6.289   6.299   1.632
 9508SOL     OW29422   5.365   0.964   1.766
 9508SOL    HW129423   5.438   0.928   1.708
 9508SOL    HW229424   5.378   1.063   1.779
 9509SOL     OW29425   5.737   1.646   3.752
 9509SOL    HW129426   5.755   1.731   3.703
 9509SOL    HW229427   5.717   1.666   3.848
 9510SOL     OW29428   1.394   3.024   2.777
 9510SOL    HW129429   1.338   3.063   2.851
 9510SOL    HW229430   1.380   3.077   2.694
 9511SOL     OW29431   0.934   1.856   1.159
 9511SOL    HW129432   0.936   1.855   1.259
 9511SOL    HW229433   0.903   1.945   1.127
 9512SOL     OW29434   6.650   2.198   2.264
 9512SOL    HW129435   6.574   2.255   2.295
 9512SOL    HW229436   6.680   2.229   2.174
 9513SOL     OW29437   4.832   3.958   5.206
 9513SOL    HW129438   4.756   4.015   5.237
 9513SOL    HW229439   4.867   3.993   5.119
 9514SOL     OW29440   3.809   3.094   0.970
 9514SOL    HW129441   3.747   3.039   1.026
 9514SOL    HW229442   3.756   3.151   0.907
 9515SOL     OW29443   0.154   5.811   3.071
 9515SOL    HW129444   0.217   5.809   2.994
 9515SOL    HW229445   0.111   5.902   3.076
 9516SOL     OW29446   0.577   4.243   6.432
 9516SOL    HW129447   0.538   4.335   6.439
 9516SOL    HW229448   0.578   4.215   6.336
 9517SOL     OW29449   0.529   6.412   1.784
 9517SOL    HW129450   0.543   6.434   1.687
 9517SOL    HW229451   0.451   6.350   1.793
 9518SOL     OW29452   0.967   0.780   0.938
 9518SOL    HW129453   1.029   0.730   0.878
 9518SOL    HW229454   0.945   0.723   1.018
 9519SOL     OW29455   1.548   2.477   5.387
 9519SOL    HW129456   1.593   2.502   5.301
 9519SOL    HW229457   1.538   2.378   5.391
 9520SOL     OW29458   4.396   6.559   1.459
 9520SOL    HW129459   4.457   6.564   1.538
 9520SOL    HW229460   4.345   6.473   1.462
 9521SOL     OW29461   5.381   4.377   3.451
 9521SOL    HW129462   5.334   4.463   3.431
 9521SOL    HW229463   5.480   4.391   3.441
 9522SOL     OW29464   3.065   4.894   6.016
 9522SOL    HW129465   3.132   4.897   6.090
 9522SOL    HW229466   3.063   4.983   5.970
 9523SOL     OW29467   2.318   0.450   5.192
 9523SOL    HW129468   2.359   0.450   5.284
 9523SOL    HW229469   2.225   0.414   5.197
 9524SOL     OW29470   5.202   3.313   0.331
 9524SOL    HW129471   5.171   3.406   0.310
 9524SOL    HW229472   5.196   3.299   0.430
 9525SOL     OW29473   3.771   6.882   4.755
 9525SOL    HW129474   3.830   6.803   4.739
 9525SOL    HW229475   3.809   6.962   4.708
 9526SOL     OW29476   4.721   5.517   0.738
 9526SOL    HW129477   4.725   5.418   0.723
 9526SOL    HW229478   4.632   5.542   0.774
 9527SOL     OW29479   0.297   2.466   0.655
 9527SOL    HW129480   0.235   2.437   0.583
 9527SOL    HW229481   0.328   2.387   0.707
 9528SOL     OW29482   6.539   0.889   1.797
 9528SOL    HW129483   6.624   0.936   1.822
 9528SOL    HW229484   6.499   0.933   1.717
 9529SOL     OW29485   1.708   2.786   5.060
 9529SOL    HW129486   1.649   2.859   5.094
 9529SOL    HW229487   1.804   2.812   5.073
 9530SOL     OW29488   2.695   1.256   3.950
 9530SOL    HW129489   2.664   1.248   3.855
 9530SOL    HW229490   2.737   1.170   3.979
 9531SOL     OW29491   2.841   6.955   3.898
 9531SOL    HW129492   2.924   6.997   3.936
 9531SOL    HW229493   2.777   6.936   3.973
 9532SOL     OW29494   3.251   1.502   2.129
 9532SOL    HW129495   3.295   1.571   2.073
 9532SOL    HW229496   3.153   1.500   2.111
 9533SOL     OW29497   0.824   1.611   4.436
 9533SOL    HW129498   0.739   1.559   4.433
 9533SOL    HW229499   0.811   1.700   4.391
 9534SOL     OW29500   5.826   1.759   4.484
 9534SOL    HW129501   5.788   1.781   4.574
 9534SOL    HW229502   5.904   1.818   4.465
 9535SOL     OW29503   3.151   1.807   4.733
 9535SOL    HW129504   3.167   1.837   4.639
 9535SOL    HW229505   3.195   1.718   4.747
 9536SOL     OW29506   2.196   6.913   6.259
 9536SOL    HW129507   2.219   6.957   6.346
 9536SOL    HW229508   2.114   6.956   6.221
 9537SOL     OW29509   2.358   0.318   0.496
 9537SOL    HW129510   2.352   0.393   0.563
 9537SOL    HW229511   2.355   0.356   0.404
 9538SOL     OW29512   6.125   3.779   2.799
 9538SOL    HW129513   6.088   3.687   2.809
 9538SOL    HW229514   6.137   3.800   2.702
 9539SOL     OW29515   6.923   3.751   6.640
 9539SOL    HW129516   6.966   3.785   6.557
 9539SOL    HW229517   6.984   3.767   6.718
 9540SOL     OW29518   5.720   3.612   5.929
 9540SOL    HW129519   5.817   3.606   5.953
 9540SOL    HW229520   5.693   3.530   5.880
 9541SOL     OW29521   6.744   2.427   3.639
 9541SOL    HW129522   6.705   2.350   3.587
 9541SOL    HW229523   6.685   2.507   3.628
 9542SOL     OW29524   4.735   4.150   4.764
 9542SOL    HW129525   4.714   4.169   4.860
 9542SOL    HW229526   4.650   4.141   4.713
 9543SOL     OW29527   3.798   2.663   0.702
 9543SOL    HW129528   3.700   2.671   0.687
 9543SOL    HW229529   3.829   2.735   0.765
 9544SOL     OW29530   4.448   0.301   0.946
 9544SOL    HW129531   4.539   0.265   0.968
 9544SOL    HW229532   4.384   0.225   0.935
 9545SOL     OW29533   1.386   6.844   4.358
 9545SOL    HW129534   1.479   6.867   4.330
 9545SOL    HW229535   1.328   6.925   4.350
 9546SOL     OW29536   2.573   4.651   1.950
 9546SOL    HW129537   2.548   4.726   1.889
 9546SOL    HW229538   2.672   4.643   1.955
 9547SOL     OW29539   5.250   6.125   3.694
 9547SOL    HW129540   5.335   6.083   3.662
 9547SOL    HW229541   5.266   6.173   3.780
 9548SOL     OW29542   5.685   6.937   2.512
 9548SOL    HW129543   5.748   6.861   2.496
 9548SOL    HW229544   5.599   6.920   2.464
 9549SOL     OW29545   2.237   6.029   6.946
 9549SOL    HW129546   2.140   6.020   6.966
 9549SOL    HW229547   2.249   6.058   6.851
 9550SOL     OW29548   1.843   0.956   7.020
 9550SOL    HW129549   1.942   0.965   0.009
 9550SOL    HW229550   1.794   0.995   0.071
 9551SOL     OW29551   1.409   5.752   5.071
 9551SOL    HW129552   1.462   5.821   5.022
 9551SOL    HW229553   1.438   5.750   5.167
 9552SOL     OW29554   0.199   5.222   2.597
 9552SOL    HW129555   0.220   5.298   2.658
 9552SOL    HW229556   0.220   5.247   2.502
 9553SOL     OW29557   5.482   4.888   6.411
 9553SOL    HW129558   5.451   4.793   6.411
 9553SOL    HW229559   5.560   4.897   6.473
 9554SOL     OW29560   2.406   1.751   2.475
 9554SOL    HW129561   2.443   1.778   2.564
 9554SOL    HW229562   2.315   1.790   2.463
 9555SOL     OW29563   6.804   2.423   6.258
 9555SOL    HW129564   6.795   2.506   6.312
 9555SOL    HW229565   6.728   2.361   6.278
 9556SOL     OW29566   6.681   0.905   0.779
 9556SOL    HW129567   6.623   0.984   0.757
 9556SOL    HW229568   6.739   0.927   0.857
 9557SOL     OW29569   4.965   1.525   1.602
 9557SOL    HW129570   5.003   1.536   1.694
 9557SOL    HW229571   4.988   1.433   1.568
 9558SOL     OW29572   6.937   3.735   1.239
 9558SOL    HW129573   6.927   3.828   1.204
 9558SOL    HW229574   0.008   3.710   1.241
 9559SOL     OW29575   0.713   4.184   2.787
 9559SOL    HW129576   0.811   4.164   2.788
 9559SOL    HW229577   0.697   4.276   2.821
 9560SOL     OW29578   3.603   2.067   5.719
 9560SOL    HW129579   3.611   2.157   5.677
 9560SOL    HW229580   3.690   2.042   5.761
 9561SOL     OW29581   3.535   5.315   0.059
 9561SOL    HW129582   3.490   5.342   0.145
 9561SOL    HW229583   3.626   5.279   0.079
 9562SOL     OW29584   6.461   5.210   4.100
 9562SOL    HW129585   6.394   5.135   4.098
 9562SOL    HW229586   6.475   5.239   4.194
 9563SOL     OW29587   0.735   6.812   6.488
 9563SOL    HW129588   0.803   6.881   6.515
 9563SOL    HW229589   0.651   6.826   6.541
 9564SOL     OW29590   1.003   1.028   6.084
 9564SOL    HW129591   1.032   0.934   6.065
 9564SOL    HW229592   1.044   1.090   6.017
 9565SOL     OW29593   2.913   6.288   5.742
 9565SOL    HW129594   2.923   6.240   5.654
 9565SOL    HW229595   2.842   6.243   5.796
 9566SOL     OW29596   2.899   5.124   5.344
 9566SOL    HW129597   2.815   5.114   5.290
 9566SOL    HW229598   2.877   5.118   5.441
 9567SOL     OW29599   5.874   4.472   4.526
 9567SOL    HW129600   5.811   4.526   4.582
 9567SOL    HW229601   5.915   4.532   4.456
 9568SOL     OW29602   5.670   3.369   5.780
 9568SOL    HW129603   5.753   3.314   5.776
 9568SOL    HW229604   5.594   3.319   5.740
 9569SOL     OW29605   5.774   0.158   1.232
 9569SOL    HW129606   5.796   0.191   1.324
 9569SOL    HW229607   5.859   0.133   1.185
 9570SOL     OW29608   0.845   2.136   6.780
 9570SOL    HW129609   0.908   2.159   6.855
 9570SOL    HW229610   0.860   2.198   6.704
 9571SOL     OW29611   3.547   2.040   0.769
 9571SOL    HW129612   3.583   1.955   0.807
 9571SOL    HW229613   3.586   2.055   0.678
 9572SOL     OW29614   0.389   3.980   0.646
 9572SOL    HW129615   0.327   4.023   0.579
 9572SOL    HW229616   0.463   4.044   0.668
 9573SOL     OW29617   4.860   1.737   2.303
 9573SOL    HW129618   4.944   1.710   2.350
 9573SOL    HW229619   4.847   1.680   2.222
 9574SOL     OW29620   3.223   2.176   3.637
 9574SOL    HW129621   3.236   2.206   3.732
 9574SOL    HW229622   3.128   2.190   3.611
 9575SOL     OW29623   3.873   1.441   3.091
 9575SOL    HW129624   3.893   1.350   3.127
 9575SOL    HW229625   3.929   1.458   3.010
 9576SOL     OW29626   3.425   3.249   5.880
 9576SOL    HW129627   3.405   3.170   5.821
 9576SOL    HW229628   3.521   3.244   5.910
 9577SOL     OW29629   0.354   5.195   4.041
 9577SOL    HW129630   0.434   5.135   4.038
 9577SOL    HW229631   0.346   5.243   3.954
 9578SOL     OW29632   0.235   4.151   1.190
 9578SOL    HW129633   0.279   4.239   1.174
 9578SOL    HW229634   0.179   4.127   1.111
 9579SOL     OW29635   1.472   4.814   3.177
 9579SOL    HW129636   1.437   4.904   3.149
 9579SOL    HW229637   1.402   4.766   3.230
 9580SOL     OW29638   4.186   3.640   5.050
 9580SOL    HW129639   4.239   3.643   4.966
 9580SOL    HW229640   4.140   3.552   5.057
 9581SOL     OW29641   1.063   6.039   5.971
 9581SOL    HW129642   1.002   5.962   5.954
 9581SOL    HW229643   1.099   6.033   6.064
 9582SOL     OW29644   3.834   5.860   2.993
 9582SOL    HW129645   3.848   5.761   2.995
 9582SOL    HW229646   3.747   5.882   3.038
 9583SOL     OW29647   1.395   5.013   1.794
 9583SOL    HW129648   1.319   5.049   1.741
 9583SOL    HW229649   1.479   5.060   1.768
 9584SOL     OW29650   5.325   4.061   6.946
 9584SOL    HW129651   5.332   4.108   6.858
 9584SOL    HW229652   5.390   4.102   7.010
 9585SOL     OW29653   6.226   1.213   3.197
 9585SOL    HW129654   6.163   1.188   3.123
 9585SOL    HW229655   6.180   1.205   3.285
 9586SOL     OW29656   4.881   3.947   2.304
 9586SOL    HW129657   4.892   3.868   2.245
 9586SOL    HW229658   4.894   3.920   2.400
 9587SOL     OW29659   4.624   5.981   1.676
 9587SOL    HW129660   4.532   5.945   1.689
 9587SOL    HW229661   4.623   6.080   1.690
 9588SOL     OW29662   6.138   1.130   3.525
 9588SOL    HW129663   6.099   1.222   3.526
 9588SOL    HW229664   6.140   1.093   3.618
 9589SOL     OW29665   4.092   1.699   5.537
 9589SOL    HW129666   4.186   1.698   5.504
 9589SOL    HW229667   4.042   1.621   5.497
 9590SOL     OW29668   0.085   4.793   4.605
 9590SOL    HW129669   0.088   4.845   4.520
 9590SOL    HW229670   0.135   4.708   4.595
 9591SOL     OW29671   0.244   4.423   2.169
 9591SOL    HW129672   0.295   4.361   2.229
 9591SOL    HW229673   0.221   4.376   2.084
 9592SOL     OW29674   4.091   5.908   0.346
 9592SOL    HW129675   4.178   5.913   0.299
 9592SOL    HW229676   4.081   5.987   0.407
 9593SOL     OW29677   2.231   1.823   3.447
 9593SOL    HW129678   2.227   1.908   3.500
 9593SOL    HW229679   2.238   1.844   3.350
 9594SOL     OW29680   5.696   0.141   0.953
 9594SOL    HW129681   5.766   0.158   1.022
 9594SOL    HW229682   5.605   0.157   0.992
 9595SOL     OW29683   2.246   5.535   5.824
 9595SOL    HW129684   2.170   5.489   5.870
 9595SOL    HW229685   2.309   5.466   5.788
 9596SOL     OW29686   5.405   5.467   2.520
 9596SOL    HW129687   5.318   5.418   2.510
 9596SOL    HW229688   5.387   5.560   2.552
 9597SOL     OW29689   2.304   5.303   1.336
 9597SOL    HW129690   2.227   5.242   1.317
 9597SOL    HW229691   2.360   5.311   1.254
 9598SOL     OW29692   0.667   6.146   5.949
 9598SOL    HW129693   0.651   6.139   6.047
 9598SOL    HW229694   0.707   6.235   5.928
 9599SOL     OW29695   3.821   2.048   5.395
 9599SOL    HW129696   3.826   1.966   5.338
 9599SOL    HW229697   3.746   2.105   5.364
 9600SOL     OW29698   1.530   6.400   6.499
 9600SOL    HW129699   1.566   6.343   6.573
 9600SOL    HW229700   1.459   6.461   6.534
 9601SOL     OW29701   1.164   6.821   4.806
 9601SOL    HW129702   1.205   6.878   4.734
 9601SOL    HW229703   1.223   6.822   4.887
 9602SOL     OW29704   1.201   5.617   6.105
 9602SOL    HW129705   1.187   5.645   6.010
 9602SOL    HW229706   1.178   5.694   6.166
 9603SOL     OW29707   1.124   5.519   1.477
 9603SOL    HW129708   1.071   5.597   1.511
 9603SOL    HW229709   1.096   5.436   1.524
 9604SOL     OW29710   6.965   0.925   6.390
 9604SOL    HW129711   6.945   1.022   6.404
 9604SOL    HW229712   0.038   0.913   6.380
 9605SOL     OW29713   3.349   4.758   1.352
 9605SOL    HW129714   3.302   4.834   1.307
 9605SOL    HW229715   3.394   4.702   1.283
 9606SOL     OW29716   0.298   1.007   5.457
 9606SOL    HW129717   0.379   0.965   5.417
 9606SOL    HW229718   0.295   0.988   5.555
 9607SOL     OW29719   0.250   2.974   3.793
 9607SOL    HW129720   0.227   3.067   3.819
 9607SOL    HW229721   0.198   2.909   3.849
 9608SOL     OW29722   6.058   1.025   1.258
 9608SOL    HW129723   6.047   0.930   1.285
 9608SOL    HW229724   6.057   1.084   1.339
 9609SOL     OW29725   1.369   1.832   4.139
 9609SOL    HW129726   1.390   1.745   4.093
 9609SOL    HW229727   1.454   1.884   4.151
 9610SOL     OW29728   4.715   1.142   5.546
 9610SOL    HW129729   4.678   1.050   5.530
 9610SOL    HW229730   4.811   1.134   5.576
 9611SOL     OW29731   4.659   5.206   0.789
 9611SOL    HW129732   4.707   5.241   0.869
 9611SOL    HW229733   4.560   5.220   0.801
 9612SOL     OW29734   5.740   3.492   3.786
 9612SOL    HW129735   5.666   3.559   3.784
 9612SOL    HW229736   5.820   3.533   3.830
 9613SOL     OW29737   5.724   0.554   4.763
 9613SOL    HW129738   5.700   0.650   4.773
 9613SOL    HW229739   5.646   0.497   4.790
 9614SOL     OW29740   2.732   2.979   0.334
 9614SOL    HW129741   2.714   3.076   0.346
 9614SOL    HW229742   2.662   2.940   0.273
 9615SOL     OW29743   6.926   5.351   4.017
 9615SOL    HW129744   6.924   5.403   4.102
 9615SOL    HW229745   6.905   5.255   4.037
 9616SOL     OW29746   1.073   2.203   1.248
 9616SOL    HW129747   1.070   2.301   1.227
 9616SOL    HW229748   1.157   2.164   1.211
 9617SOL     OW29749   0.659   3.173   3.651
 9617SOL    HW129750   0.685   3.198   3.557
 9617SOL    HW229751   0.702   3.087   3.676
 9618SOL     OW29752   4.954   3.563   1.916
 9618SOL    HW129753   4.995   3.584   1.827
 9618SOL    HW229754   4.939   3.464   1.923
 9619SOL     OW29755   1.185   0.212   0.556
 9619SOL    HW129756   1.101   0.213   0.610
 9619SOL    HW229757   1.258   0.258   0.608
 9620SOL     OW29758   4.131   1.096   6.005
 9620SOL    HW129759   4.139   1.118   5.908
 9620SOL    HW229760   4.065   1.157   6.047
 9621SOL     OW29761   0.088   0.913   1.451
 9621SOL    HW129762   0.099   0.973   1.371
 9621SOL    HW229763   0.178   0.877   1.477
 9622SOL     OW29764   6.509   6.886   4.714
 9622SOL    HW129765   6.506   6.816   4.642
 9622SOL    HW229766   6.544   6.845   4.798
 9623SOL     OW29767   2.412   6.378   5.893
 9623SOL    HW129768   2.461   6.322   5.960
 9623SOL    HW229769   2.340   6.323   5.851
 9624SOL     OW29770   4.656   5.248   6.563
 9624SOL    HW129771   4.570   5.224   6.609
 9624SOL    HW229772   4.677   5.345   6.581
 9625SOL     OW29773   4.997   4.727   5.961
 9625SOL    HW129774   5.002   4.692   5.867
 9625SOL    HW229775   5.005   4.651   6.025
 9626SOL     OW29776   2.467   3.204   6.550
 9626SOL    HW129777   2.459   3.108   6.577
 9626SOL    HW229778   2.496   3.209   6.454
 9627SOL     OW29779   6.782   6.214   0.580
 9627SOL    HW129780   6.827   6.292   0.536
 9627SOL    HW229781   6.762   6.144   0.511
 9628SOL     OW29782   5.740   1.158   5.505
 9628SOL    HW129783   5.741   1.154   5.605
 9628SOL    HW229784   5.829   1.129   5.469
 9629SOL     OW29785   0.333   5.345   3.808
 9629SOL    HW129786   0.341   5.364   3.710
 9629SOL    HW229787   0.399   5.400   3.858
 9630SOL     OW29788   5.908   0.131   6.762
 9630SOL    HW129789   5.948   0.221   6.747
 9630SOL    HW229790   5.980   0.063   6.769
 9631SOL     OW29791   4.656   5.877   0.895
 9631SOL    HW129792   4.631   5.871   0.798
 9631SOL    HW229793   4.585   5.927   0.944
 9632SOL     OW29794   2.648   4.906   2.947
 9632SOL    HW129795   2.592   4.879   2.868
 9632SOL    HW229796   2.635   5.004   2.964
 9633SOL     OW29797   3.172   2.984   5.246
 9633SOL    HW129798   3.094   3.038   5.278
 9633SOL    HW229799   3.160   2.889   5.275
 9634SOL     OW29800   5.715   4.468   2.797
 9634SOL    HW129801   5.711   4.395   2.729
 9634SOL    HW229802   5.784   4.534   2.771
 9635SOL     OW29803   0.558   5.476   4.711
 9635SOL    HW129804   0.573   5.410   4.784
 9635SOL    HW229805   0.496   5.438   4.643
 9636SOL     OW29806   5.186   3.426   3.981
 9636SOL    HW129807   5.098   3.473   3.968
 9636SOL    HW229808   5.240   3.432   3.896
 9637SOL     OW29809   2.204   3.056   6.784
 9637SOL    HW129810   2.189   3.096   6.694
 9637SOL    HW229811   2.299   3.026   6.792
 9638SOL     OW29812   0.044   4.388   5.355
 9638SOL    HW129813   0.090   4.357   5.272
 9638SOL    HW229814   0.049   4.317   5.425
 9639SOL     OW29815   4.735   2.611   1.534
 9639SOL    HW129816   4.819   2.588   1.584
 9639SOL    HW229817   4.682   2.677   1.586
 9640SOL     OW29818   3.442   6.949   3.025
 9640SOL    HW129819   3.506   7.005   3.078
 9640SOL    HW229820   3.493   6.885   2.968
 9641SOL     OW29821   0.252   3.513   4.497
 9641SOL    HW129822   0.232   3.577   4.571
 9641SOL    HW229823   0.179   3.445   4.491
 9642SOL     OW29824   0.486   3.426   4.654
 9642SOL    HW129825   0.565   3.395   4.601
 9642SOL    HW229826   0.406   3.432   4.594
 9643SOL     OW29827   5.277   5.214   4.050
 9643SOL    HW129828   5.283   5.240   4.146
 9643SOL    HW229829   5.356   5.248   4.000
 9644SOL     OW29830   1.045   4.916   3.530
 9644SOL    HW129831   1.006   4.847   3.590
 9644SOL    HW229832   1.003   4.911   3.440
 9645SOL     OW29833   1.376   4.565   6.917
 9645SOL    HW129834   1.371   4.495   6.988
 9645SOL    HW229835   1.468   4.603   6.914
 9646SOL     OW29836   2.866   5.143   1.244
 9646SOL    HW129837   2.840   5.211   1.176
 9646SOL    HW229838   2.896   5.188   1.328
 9647SOL     OW29839   6.010   6.921   3.196
 9647SOL    HW129840   5.969   6.968   3.275
 9647SOL    HW229841   5.978   6.826   3.194
 9648SOL     OW29842   3.455   1.748   1.335
 9648SOL    HW129843   3.494   1.689   1.406
 9648SOL    HW229844   3.388   1.810   1.377
 9649SOL     OW29845   6.870   6.413   1.281
 9649SOL    HW129846   6.961   6.440   1.250
 9649SOL    HW229847   6.848   6.461   1.366
 9650SOL     OW29848   0.782   5.198   4.734
 9650SOL    HW129849   0.759   5.194   4.637
 9650SOL    HW229850   0.874   5.162   4.748
 9651SOL     OW29851   4.037   1.551   6.798
 9651SOL    HW129852   4.016   1.615   6.724
 9651SOL    HW229853   4.090   1.474   6.762
 9652SOL     OW29854   0.068   3.755   0.675
 9652SOL    HW129855   0.137   3.704   0.624
 9652SOL    HW229856   0.058   3.715   0.766
 9653SOL     OW29857   5.245   4.191   5.365
 9653SOL    HW129858   5.264   4.259   5.294
 9653SOL    HW229859   5.330   4.151   5.397
 9654SOL     OW29860   4.067   3.841   3.906
 9654SOL    HW129861   4.107   3.756   3.872
 9654SOL    HW229862   4.086   3.915   3.841
 9655SOL     OW29863   4.769   0.715   0.630
 9655SOL    HW129864   4.821   0.800   0.620
 9655SOL    HW229865   4.795   0.652   0.556
 9656SOL     OW29866   5.304   4.653   6.278
 9656SOL    HW129867   5.352   4.648   6.190
 9656SOL    HW229868   5.234   4.724   6.274
 9657SOL     OW29869   4.971   4.905   2.766
 9657SOL    HW129870   4.995   4.808   2.761
 9657SOL    HW229871   4.944   4.927   2.860
 9658SOL     OW29872   5.533   0.828   2.142
 9658SOL    HW129873   5.478   0.852   2.222
 9658SOL    HW229874   5.581   0.909   2.109
 9659SOL     OW29875   2.759   2.686   0.060
 9659SOL    HW129876   2.771   2.783   0.037
 9659SOL    HW229877   2.835   2.655   0.117
 9660SOL     OW29878   2.425   7.024   1.559
 9660SOL    HW129879   2.373   0.037   1.482
 9660SOL    HW229880   2.518   7.004   1.530
 9661SOL     OW29881   4.026   3.406   2.066
 9661SOL    HW129882   4.052   3.341   2.137
 9661SOL    HW229883   4.102   3.419   2.003
 9662SOL     OW29884   4.621   0.036   5.646
 9662SOL    HW129885   4.540   0.094   5.638
 9662SOL    HW229886   4.667   0.054   5.733
 9663SOL     OW29887   1.038   5.930   2.504
 9663SOL    HW129888   0.998   5.844   2.535
 9663SOL    HW229889   0.974   6.005   2.520
 9664SOL     OW29890   1.978   4.990   3.184
 9664SOL    HW129891   2.063   4.968   3.135
 9664SOL    HW229892   1.991   5.074   3.236
 9665SOL     OW29893   6.676   4.502   6.441
 9665SOL    HW129894   6.676   4.429   6.509
 9665SOL    HW229895   6.769   4.537   6.430
 9666SOL     OW29896   5.250   3.500   1.045
 9666SOL    HW129897   5.252   3.585   0.992
 9666SOL    HW229898   5.339   3.456   1.041
 9667SOL     OW29899   5.688   6.103   6.479
 9667SOL    HW129900   5.669   6.156   6.396
 9667SOL    HW229901   5.750   6.156   6.538
 9668SOL     OW29902   2.364   0.494   0.285
 9668SOL    HW129903   2.276   0.500   0.237
 9668SOL    HW229904   2.400   0.586   0.300
 9669SOL     OW29905   3.720   0.312   6.862
 9669SOL    HW129906   3.735   0.232   6.805
 9669SOL    HW229907   3.808   0.347   6.895
 9670SOL     OW29908   0.990   1.027   1.455
 9670SOL    HW129909   1.085   1.008   1.429
 9670SOL    HW229910   0.929   1.002   1.380
 9671SOL     OW29911   0.789   5.997   6.704
 9671SOL    HW129912   0.764   6.010   6.608
 9671SOL    HW229913   0.725   5.933   6.746
 9672SOL     OW29914   0.826   3.604   4.629
 9672SOL    HW129915   0.798   3.519   4.585
 9672SOL    HW229916   0.746   3.651   4.667
 9673SOL     OW29917   2.517   3.157   6.261
 9673SOL    HW129918   2.579   3.089   6.300
 9673SOL    HW229919   2.564   3.208   6.190
 9674SOL     OW29920   2.360   6.928   4.233
 9674SOL    HW129921   2.263   6.916   4.256
 9674SOL    HW229922   2.417   6.897   4.310
 9675SOL     OW29923   6.050   4.091   5.932
 9675SOL    HW129924   6.123   4.148   5.895
 9675SOL    HW229925   6.047   4.101   6.032
 9676SOL     OW29926   1.101   3.460   5.903
 9676SOL    HW129927   1.081   3.549   5.863
 9676SOL    HW229928   1.191   3.428   5.872
 9677SOL     OW29929   0.434   4.719   2.399
 9677SOL    HW129930   0.358   4.738   2.336
 9677SOL    HW229931   0.448   4.621   2.406
 9678SOL     OW29932   4.259   2.999   5.688
 9678SOL    HW129933   4.233   2.949   5.771
 9678SOL    HW229934   4.359   3.009   5.686
 9679SOL     OW29935   1.303   1.078   3.715
 9679SOL    HW129936   1.251   1.112   3.794
 9679SOL    HW229937   1.279   1.132   3.634
 9680SOL     OW29938   4.944   0.649   2.387
 9680SOL    HW129939   4.998   0.732   2.399
 9680SOL    HW229940   4.869   0.666   2.324
 9681SOL     OW29941   0.975   3.785   0.945
 9681SOL    HW129942   0.932   3.871   0.973
 9681SOL    HW229943   1.052   3.765   1.005
 9682SOL     OW29944   4.316   6.686   5.526
 9682SOL    HW129945   4.261   6.716   5.448
 9682SOL    HW229946   4.411   6.714   5.512
 9683SOL     OW29947   3.270   5.929   4.226
 9683SOL    HW129948   3.368   5.911   4.216
 9683SOL    HW229949   3.226   5.847   4.263
 9684SOL     OW29950   0.362   2.989   6.242
 9684SOL    HW129951   0.313   2.903   6.231
 9684SOL    HW229952   0.299   3.060   6.274
 9685SOL     OW29953   3.662   4.433   1.686
 9685SOL    HW129954   3.644   4.518   1.736
 9685SOL    HW229955   3.639   4.354   1.742
 9686SOL     OW29956   0.465   1.811   5.703
 9686SOL    HW129957   0.549   1.835   5.751
 9686SOL    HW229958   0.387   1.857   5.746
 9687SOL     OW29959   5.413   1.693   3.811
 9687SOL    HW129960   5.367   1.777   3.842
 9687SOL    HW229961   5.452   1.708   3.721
 9688SOL     OW29962   7.009   5.293   1.852
 9688SOL    HW129963   7.013   5.250   1.942
 9688SOL    HW229964   6.961   5.381   1.859
 9689SOL     OW29965   1.671   5.255   1.422
 9689SOL    HW129966   1.750   5.302   1.461
 9689SOL    HW229967   1.627   5.314   1.355
 9690SOL     OW29968   6.076   4.575   4.751
 9690SOL    HW129969   6.107   4.480   4.743
 9690SOL    HW229970   6.114   4.628   4.675
 9691SOL     OW29971   3.730   3.296   2.110
 9691SOL    HW129972   3.748   3.203   2.141
 9691SOL    HW229973   3.808   3.329   2.056
 9692SOL     OW29974   5.153   4.244   0.665
 9692SOL    HW129975   5.118   4.241   0.572
 9692SOL    HW229976   5.080   4.267   0.728
 9693SOL     OW29977   4.465   2.925   6.380
 9693SOL    HW129978   4.530   2.924   6.456
 9693SOL    HW229979   4.400   2.999   6.391
 9694SOL     OW29980   2.342   6.535   1.247
 9694SOL    HW129981   2.258   6.581   1.218
 9694SOL    HW229982   2.338   6.517   1.345
 9695SOL     OW29983   1.786   2.224   3.644
 9695SOL    HW129984   1.719   2.241   3.572
 9695SOL    HW229985   1.838   2.307   3.663
 9696SOL     OW29986   5.081   2.837   3.184
 9696SOL    HW129987   4.983   2.851   3.198
 9696SOL    HW229988   5.116   2.774   3.253
 9697SOL     OW29989   0.113   6.814   1.397
 9697SOL    HW129990   0.042   6.884   1.408
 9697SOL    HW229991   0.192   6.837   1.454
 9698SOL     OW29992   6.807   3.379   1.800
 9698SOL    HW129993   6.826   3.365   1.897
 9698SOL    HW229994   6.712   3.353   1.780
 9699SOL     OW29995   1.068   6.385   2.115
 9699SOL    HW129996   1.094   6.482   2.112
 9699SOL    HW229997   1.074   6.353   2.209
 9700SOL     OW29998   6.355   0.485   6.379
 9700SOL    HW129999   6.297   0.527   6.309
 9700SOL    HW230000   6.302   0.417   6.430
 9701SOL     OW30001   5.319   3.807   6.830
 9701SOL    HW130002   5.287   3.897   6.861
 9701SOL    HW230003   5.246   3.740   6.840
 9702SOL     OW30004   3.249   3.971   1.675
 9702SOL    HW130005   3.198   3.988   1.759
 9702SOL    HW230006   3.306   3.889   1.686
 9703SOL     OW30007   6.461   5.409   2.848
 9703SOL    HW130008   6.505   5.456   2.772
 9703SOL    HW230009   6.385   5.353   2.814
 9704SOL     OW30010   0.738   4.543   1.978
 9704SOL    HW130011   0.792   4.575   2.056
 9704SOL    HW230012   0.716   4.620   1.919
 9705SOL     OW30013   0.338   3.493   6.247
 9705SOL    HW130014   0.253   3.525   6.287
 9705SOL    HW230015   0.365   3.553   6.172
 9706SOL     OW30016   1.373   6.874   2.172
 9706SOL    HW130017   1.470   6.864   2.152
 9706SOL    HW230018   1.336   6.952   2.120
 9707SOL     OW30019   1.147   4.999   2.126
 9707SOL    HW130020   1.238   4.979   2.161
 9707SOL    HW230021   1.152   5.074   2.060
 9708SOL     OW30022   2.923   1.303   2.304
 9708SOL    HW130023   2.882   1.389   2.336
 9708SOL    HW230024   3.012   1.291   2.348
 9709SOL     OW30025   4.458   1.541   1.821
 9709SOL    HW130026   4.406   1.599   1.884
 9709SOL    HW230027   4.412   1.452   1.813
 9710SOL     OW30028   4.734   4.550   4.385
 9710SOL    HW130029   4.679   4.499   4.319
 9710SOL    HW230030   4.687   4.549   4.474
 9711SOL     OW30031   3.093   1.101   6.720
 9711SOL    HW130032   3.082   1.009   6.681
 9711SOL    HW230033   3.145   1.158   6.656
 9712SOL     OW30034   5.306   6.769   4.975
 9712SOL    HW130035   5.315   6.711   4.893
 9712SOL    HW230036   5.301   6.865   4.947
 9713SOL     OW30037   1.792   0.775   2.893
 9713SOL    HW130038   1.734   0.849   2.856
 9713SOL    HW230039   1.872   0.764   2.835
 9714SOL     OW30040   2.390   2.630   3.941
 9714SOL    HW130041   2.386   2.583   3.854
 9714SOL    HW230042   2.329   2.709   3.940
 9715SOL     OW30043   0.065   2.166   5.935
 9715SOL    HW130044   0.147   2.191   5.986
 9715SOL    HW230045   0.029   2.247   5.888
 9716SOL     OW30046   2.096   6.750   1.144
 9716SOL    HW130047   2.149   6.792   1.070
 9716SOL    HW230048   2.011   6.713   1.107
 9717SOL     OW30049   3.555   2.650   5.841
 9717SOL    HW130050   3.546   2.551   5.827
 9717SOL    HW230051   3.605   2.690   5.764
 9718SOL     OW30052   3.153   2.264   7.013
 9718SOL    HW130053   3.214   2.186   7.001
 9718SOL    HW230054   3.060   2.230   0.003
 9719SOL     OW30055   4.396   0.213   5.640
 9719SOL    HW130056   4.319   0.223   5.577
 9719SOL    HW230057   4.367   0.235   5.733
 9720SOL     OW30058   2.012   2.692   2.679
 9720SOL    HW130059   1.931   2.657   2.633
 9720SOL    HW230060   1.993   2.784   2.714
 9721SOL     OW30061   1.402   2.068   1.420
 9721SOL    HW130062   1.440   2.041   1.509
 9721SOL    HW230063   1.343   2.149   1.433
 9722SOL     OW30064   3.930   2.772   5.321
 9722SOL    HW130065   3.910   2.861   5.279
 9722SOL    HW230066   3.995   2.785   5.396
 9723SOL     OW30067   5.959   0.445   4.642
 9723SOL    HW130068   6.047   0.481   4.670
 9723SOL    HW230069   5.889   0.469   4.710
 9724SOL     OW30070   2.117   5.114   1.272
 9724SOL    HW130071   2.055   5.037   1.292
 9724SOL    HW230072   2.150   5.107   1.178
 9725SOL     OW30073   5.295   5.781   3.760
 9725SOL    HW130074   5.315   5.864   3.707
 9725SOL    HW230075   5.228   5.725   3.711
 9726SOL     OW30076   6.835   0.029   3.339
 9726SOL    HW130077   6.814   6.999   3.419
 9726SOL    HW230078   6.750   0.054   3.292
 9727SOL     OW30079   6.198   2.691   1.591
 9727SOL    HW130080   6.142   2.609   1.598
 9727SOL    HW230081   6.239   2.710   1.680
 9728SOL     OW30082   5.720   1.901   4.769
 9728SOL    HW130083   5.667   1.865   4.845
 9728SOL    HW230084   5.817   1.903   4.794
 9729SOL     OW30085   0.440   3.474   2.543
 9729SOL    HW130086   0.505   3.550   2.545
 9729SOL    HW230087   0.354   3.505   2.503
 9730SOL     OW30088   1.061   5.300   3.296
 9730SOL    HW130089   1.092   5.257   3.381
 9730SOL    HW230090   1.025   5.391   3.317
 9731SOL     OW30091   0.052   2.437   1.793
 9731SOL    HW130092   6.980   2.452   1.805
 9731SOL    HW230093   0.101   2.470   1.873
 9732SOL     OW30094   1.075   3.042   3.210
 9732SOL    HW130095   0.987   3.004   3.238
 9732SOL    HW230096   1.130   3.061   3.291
 9733SOL     OW30097   6.101   5.081   1.280
 9733SOL    HW130098   6.116   5.152   1.349
 9733SOL    HW230099   6.003   5.058   1.278
 9734SOL     OW30100   4.145   4.459   6.796
 9734SOL    HW130101   4.078   4.455   6.871
 9734SOL    HW230102   4.108   4.412   6.716
 9735SOL     OW30103   1.240   1.558   0.301
 9735SOL    HW130104   1.229   1.492   0.226
 9735SOL    HW230105   1.316   1.620   0.281
 9736SOL     OW30106   5.163   1.996   5.362
 9736SOL    HW130107   5.153   2.051   5.279
 9736SOL    HW230108   5.259   1.993   5.389
 9737SOL     OW30109   5.288   3.000   5.168
 9737SOL    HW130110   5.373   2.953   5.146
 9737SOL    HW230111   5.288   3.091   5.125
 9738SOL     OW30112   2.215   6.670   1.822
 9738SOL    HW130113   2.245   6.686   1.728
 9738SOL    HW230114   2.248   6.580   1.853
 9739SOL     OW30115   5.663   6.782   0.183
 9739SOL    HW130116   5.714   6.857   0.140
 9739SOL    HW230117   5.724   6.706   0.201
 9740SOL     OW30118   6.636   0.889   1.146
 9740SOL    HW130119   6.698   0.891   1.068
 9740SOL    HW230120   6.685   0.920   1.228
 9741SOL     OW30121   2.496   2.353   3.535
 9741SOL    HW130122   2.591   2.329   3.553
 9741SOL    HW230123   2.487   2.386   3.441
 9742SOL     OW30124   4.176   1.341   6.721
 9742SOL    HW130125   4.193   1.372   6.627
 9742SOL    HW230126   4.243   1.272   6.746
 9743SOL     OW30127   6.813   3.334   4.589
 9743SOL    HW130128   6.783   3.347   4.684
 9743SOL    HW230129   6.878   3.258   4.585
 9744SOL     OW30130   1.724   2.588   2.655
 9744SOL    HW130131   1.625   2.583   2.638
 9744SOL    HW230132   1.743   2.564   2.750
 9745SOL     OW30133   1.155   6.610   6.337
 9745SOL    HW130134   1.239   6.648   6.298
 9745SOL    HW230135   1.178   6.530   6.392
 9746SOL     OW30136   3.038   6.514   5.980
 9746SOL    HW130137   3.133   6.494   6.002
 9746SOL    HW230138   3.027   6.612   5.961
 9747SOL     OW30139   3.853   1.668   3.285
 9747SOL    HW130140   3.870   1.596   3.217
 9747SOL    HW230141   3.759   1.662   3.316
 9748SOL     OW30142   0.776   2.117   3.096
 9748SOL    HW130143   0.740   2.210   3.110
 9748SOL    HW230144   0.766   2.065   3.181
 9749SOL     OW30145   6.764   0.084   1.251
 9749SOL    HW130146   6.681   0.029   1.257
 9749SOL    HW230147   6.823   0.048   1.178
 9750SOL     OW30148   5.504   2.483   5.272
 9750SOL    HW130149   5.475   2.560   5.330
 9750SOL    HW230150   5.460   2.399   5.304
 9751SOL     OW30151   3.266   6.148   0.794
 9751SOL    HW130152   3.352   6.176   0.839
 9751SOL    HW230153   3.284   6.129   0.697
 9752SOL     OW30154   3.594   3.572   0.560
 9752SOL    HW130155   3.649   3.488   0.563
 9752SOL    HW230156   3.578   3.604   0.653
 9753SOL     OW30157   6.511   5.823   3.280
 9753SOL    HW130158   6.582   5.880   3.321
 9753SOL    HW230159   6.463   5.772   3.351
 9754SOL     OW30160   3.735   1.078   2.474
 9754SOL    HW130161   3.650   1.046   2.516
 9754SOL    HW230162   3.729   1.067   2.374
 9755SOL     OW30163   3.297   3.942   0.910
 9755SOL    HW130164   3.258   4.030   0.938
 9755SOL    HW230165   3.259   3.915   0.822
 9756SOL     OW30166   5.343   0.006   6.719
 9756SOL    HW130167   5.286   6.978   6.781
 9756SOL    HW230168   5.297   0.013   6.630
 9757SOL     OW30169   5.695   3.622   4.418
 9757SOL    HW130170   5.705   3.698   4.353
 9757SOL    HW230171   5.649   3.546   4.373
 9758SOL     OW30172   2.949   0.958   2.523
 9758SOL    HW130173   2.898   0.895   2.463
 9758SOL    HW230174   3.031   0.989   2.476
 9759SOL     OW30175   6.979   2.084   1.096
 9759SOL    HW130176   6.930   2.037   1.022
 9759SOL    HW230177   6.944   2.051   1.184
 9760SOL     OW30178   4.804   0.262   6.194
 9760SOL    HW130179   4.748   0.187   6.228
 9760SOL    HW230180   4.842   0.313   6.272
 9761SOL     OW30181   1.034   1.886   1.470
 9761SOL    HW130182   1.021   1.984   1.483
 9761SOL    HW230183   1.109   1.870   1.406
 9762SOL     OW30184   3.785   0.848   6.397
 9762SOL    HW130185   3.825   0.766   6.357
 9762SOL    HW230186   3.686   0.837   6.404
 9763SOL     OW30187   6.341   2.113   1.134
 9763SOL    HW130188   6.325   2.149   1.042
 9763SOL    HW230189   6.324   2.185   1.201
 9764SOL     OW30190   0.431   2.574   2.714
 9764SOL    HW130191   0.332   2.567   2.706
 9764SOL    HW230192   0.472   2.576   2.623
 9765SOL     OW30193   0.060   2.318   1.526
 9765SOL    HW130194   7.020   2.345   1.456
 9765SOL    HW230195   0.046   2.373   1.609
 9766SOL     OW30196   0.280   2.975   2.981
 9766SOL    HW130197   0.363   3.000   2.932
 9766SOL    HW230198   0.207   3.040   2.958
 9767SOL     OW30199   3.532   1.527   4.976
 9767SOL    HW130200   3.621   1.531   4.931
 9767SOL    HW230201   3.538   1.571   5.065
 9768SOL     OW30202   4.805   2.178   7.019
 9768SOL    HW130203   4.822   2.274   0.016
 9768SOL    HW230204   4.779   2.171   6.922
 9769SOL     OW30205   3.572   1.424   5.261
 9769SOL    HW130206   3.642   1.358   5.287
 9769SOL    HW230207   3.482   1.381   5.266
 9770SOL     OW30208   1.880   3.492   5.028
 9770SOL    HW130209   1.953   3.561   5.029
 9770SOL    HW230210   1.792   3.536   5.046
 9771SOL     OW30211   3.327   0.817   2.278
 9771SOL    HW130212   3.313   0.902   2.328
 9771SOL    HW230213   3.314   0.739   2.339
 9772SOL     OW30214   0.593   0.530   1.976
 9772SOL    HW130215   0.532   0.450   1.980
 9772SOL    HW230216   0.540   0.613   1.992
 9773SOL     OW30217   5.914   6.315   2.029
 9773SOL    HW130218   5.928   6.353   2.120
 9773SOL    HW230219   5.817   6.292   2.017
 9774SOL     OW30220   2.089   5.395   4.295
 9774SOL    HW130221   2.042   5.439   4.219
 9774SOL    HW230222   2.022   5.350   4.354
 9775SOL     OW30223   1.066   1.542   2.851
 9775SOL    HW130224   0.987   1.482   2.835
 9775SOL    HW230225   1.101   1.575   2.763
 9776SOL     OW30226   1.870   5.499   1.291
 9776SOL    HW130227   1.776   5.526   1.270
 9776SOL    HW230228   1.915   5.467   1.207
 9777SOL     OW30229   4.260   1.990   5.405
 9777SOL    HW130230   4.213   1.902   5.414
 9777SOL    HW230231   4.242   2.046   5.486
 9778SOL     OW30232   1.676   3.340   2.954
 9778SOL    HW130233   1.637   3.430   2.934
 9778SOL    HW230234   1.770   3.336   2.921
 9779SOL     OW30235   3.049   0.527   3.536
 9779SOL    HW130236   3.028   0.432   3.555
 9779SOL    HW230237   3.102   0.565   3.612
 9780SOL     OW30238   0.843   1.217   0.608
 9780SOL    HW130239   0.859   1.308   0.570
 9780SOL    HW230240   0.753   1.214   0.651
 9781SOL     OW30241   1.387   1.392   1.840
 9781SOL    HW130242   1.463   1.398   1.904
 9781SOL    HW230243   1.417   1.423   1.749
 9782SOL     OW30244   0.149   2.819   0.410
 9782SOL    HW130245   0.083   2.877   0.361
 9782SOL    HW230246   0.119   2.808   0.505
 9783SOL     OW30247   5.112   1.797   2.519
 9783SOL    HW130248   5.211   1.797   2.507
 9783SOL    HW230249   5.086   1.722   2.580
 9784SOL     OW30250   1.817   1.459   0.411
 9784SOL    HW130251   1.741   1.489   0.354
 9784SOL    HW230252   1.830   1.524   0.486
 9785SOL     OW30253   1.426   3.533   4.888
 9785SOL    HW130254   1.348   3.554   4.829
 9785SOL    HW230255   1.475   3.453   4.852
 9786SOL     OW30256   2.562   4.856   6.599
 9786SOL    HW130257   2.526   4.791   6.533
 9786SOL    HW230258   2.662   4.856   6.595
 9787SOL     OW30259   2.780   3.566   1.317
 9787SOL    HW130260   2.836   3.600   1.241
 9787SOL    HW230261   2.789   3.628   1.395
 9788SOL     OW30262   2.777   0.006   3.045
 9788SOL    HW130263   2.754   0.030   3.140
 9788SOL    HW230264   2.846   6.960   3.044
 9789SOL     OW30265   4.460   1.585   0.823
 9789SOL    HW130266   4.542   1.550   0.869
 9789SOL    HW230267   4.382   1.527   0.845
 9790SOL     OW30268   4.618   5.698   4.924
 9790SOL    HW130269   4.677   5.777   4.906
 9790SOL    HW230270   4.669   5.629   4.976
 9791SOL     OW30271   0.280   0.647   1.378
 9791SOL    HW130272   0.302   0.556   1.413
 9791SOL    HW230273   0.320   0.716   1.438
 9792SOL     OW30274   3.671   4.271   0.840
 9792SOL    HW130275   3.752   4.224   0.806
 9792SOL    HW230276   3.607   4.285   0.764
 9793SOL     OW30277   6.017   1.056   2.426
 9793SOL    HW130278   6.028   1.146   2.467
 9793SOL    HW230279   6.081   0.992   2.469
 9794SOL     OW30280   3.570   5.534   4.722
 9794SOL    HW130281   3.572   5.435   4.705
 9794SOL    HW230282   3.530   5.581   4.643
 9795SOL     OW30283   1.661   3.564   3.210
 9795SOL    HW130284   1.610   3.551   3.125
 9795SOL    HW230285   1.732   3.633   3.196
 9796SOL     OW30286   3.092   4.003   4.289
 9796SOL    HW130287   3.077   3.994   4.387
 9796SOL    HW230288   3.186   4.031   4.271
 9797SOL     OW30289   3.085   5.592   0.266
 9797SOL    HW130290   3.042   5.502   0.262
 9797SOL    HW230291   3.167   5.592   0.208
 9798SOL     OW30292   6.942   4.277   6.564
 9798SOL    HW130293   6.953   4.376   6.568
 9798SOL    HW230294   7.023   4.233   6.602
 9799SOL     OW30295   4.107   6.485   6.674
 9799SOL    HW130296   4.060   6.429   6.742
 9799SOL    HW230297   4.051   6.565   6.651
 9800SOL     OW30298   6.114   4.685   5.017
 9800SOL    HW130299   6.094   4.684   4.919
 9800SOL    HW230300   6.065   4.610   5.062
 9801SOL     OW30301   4.362   6.797   0.949
 9801SOL    HW130302   4.268   6.797   0.914
 9801SOL    HW230303   4.368   6.734   1.026
 9802SOL     OW30304   3.857   3.430   0.185
 9802SOL    HW130305   3.769   3.398   0.152
 9802SOL    HW230306   3.919   3.442   0.108
 9803SOL     OW30307   1.951   3.722   6.411
 9803SOL    HW130308   1.936   3.628   6.443
 9803SOL    HW230309   1.903   3.786   6.471
 9804SOL     OW30310   1.152   4.627   2.711
 9804SOL    HW130311   1.060   4.592   2.730
 9804SOL    HW230312   1.188   4.673   2.792
 9805SOL     OW30313   0.156   5.730   4.786
 9805SOL    HW130314   0.136   5.654   4.724
 9805SOL    HW230315   0.084   5.799   4.779
 9806SOL     OW30316   3.629   1.506   0.104
 9806SOL    HW130317   3.642   1.411   0.133
 9806SOL    HW230318   3.642   1.513   0.006
 9807SOL     OW30319   4.033   3.234   3.569
 9807SOL    HW130320   4.009   3.189   3.483
 9807SOL    HW230321   3.976   3.197   3.643
 9808SOL     OW30322   3.159   5.561   2.134
 9808SOL    HW130323   3.204   5.559   2.223
 9808SOL    HW230324   3.065   5.592   2.144
 9809SOL     OW30325   5.797   2.493   0.906
 9809SOL    HW130326   5.788   2.482   1.005
 9809SOL    HW230327   5.756   2.414   0.860
 9810SOL     OW30328   2.442   3.291   1.175
 9810SOL    HW130329   2.401   3.201   1.160
 9810SOL    HW230330   2.485   3.322   1.090
 9811SOL     OW30331   5.492   3.400   4.392
 9811SOL    HW130332   5.403   3.397   4.346
 9811SOL    HW230333   5.559   3.348   4.338
 9812SOL     OW30334   3.459   5.723   6.568
 9812SOL    HW130335   3.529   5.669   6.615
 9812SOL    HW230336   3.497   5.759   6.483
 9813SOL     OW30337   3.949   0.519   2.166
 9813SOL    HW130338   3.999   0.488   2.247
 9813SOL    HW230339   4.011   0.569   2.106
 9814SOL     OW30340   6.715   1.755   6.065
 9814SOL    HW130341   6.717   1.846   6.022
 9814SOL    HW230342   6.735   1.685   5.997
 9815SOL     OW30343   4.637   2.557   4.659
 9815SOL    HW130344   4.610   2.566   4.755
 9815SOL    HW230345   4.695   2.635   4.633
 9816SOL     OW30346   3.196   0.976   0.008
 9816SOL    HW130347   3.213   1.057   6.979
 9816SOL    HW230348   3.101   0.977   0.041
 9817SOL     OW30349   6.796   0.605   1.298
 9817SOL    HW130350   6.722   0.573   1.357
 9817SOL    HW230351   6.797   0.551   1.214
 9818SOL     OW30352   3.672   2.681   5.289
 9818SOL    HW130353   3.623   2.766   5.269
 9818SOL    HW230354   3.771   2.697   5.283
 9819SOL     OW30355   3.023   0.563   1.998
 9819SOL    HW130356   3.067   0.512   1.924
 9819SOL    HW230357   2.962   0.631   1.960
 9820SOL     OW30358   3.574   2.611   0.119
 9820SOL    HW130359   3.651   2.576   0.173
 9820SOL    HW230360   3.549   2.702   0.152
 9821SOL     OW30361   6.809   5.289   7.024
 9821SOL    HW130362   6.840   5.207   6.974
 9821SOL    HW230363   6.726   5.324   6.981
 9822SOL     OW30364   0.119   0.591   2.585
 9822SOL    HW130365   0.117   0.607   2.684
 9822SOL    HW230366   0.213   0.600   2.552
 9823SOL     OW30367   3.121   6.387   1.950
 9823SOL    HW130368   3.100   6.312   2.013
 9823SOL    HW230369   3.051   6.392   1.880
 9824SOL     OW30370   1.501   4.449   5.974
 9824SOL    HW130371   1.442   4.467   5.895
 9824SOL    HW230372   1.445   4.424   6.053
 9825SOL     OW30373   4.599   5.218   5.186
 9825SOL    HW130374   4.525   5.155   5.163
 9825SOL    HW230375   4.596   5.238   5.284
 9826SOL     OW30376   5.658   6.644   5.115
 9826SOL    HW130377   5.624   6.558   5.076
 9826SOL    HW230378   5.757   6.649   5.103
 9827SOL     OW30379   0.671   4.924   4.804
 9827SOL    HW130380   0.710   5.017   4.804
 9827SOL    HW230381   0.699   4.877   4.720
 9828SOL     OW30382   2.303   2.343   6.852
 9828SOL    HW130383   2.319   2.403   6.773
 9828SOL    HW230384   2.388   2.295   6.874
 9829SOL     OW30385   2.663   4.428   1.193
 9829SOL    HW130386   2.596   4.359   1.221
 9829SOL    HW230387   2.732   4.439   1.264
 9830SOL     OW30388   6.830   1.411   0.852
 9830SOL    HW130389   6.744   1.449   0.886
 9830SOL    HW230390   6.878   1.479   0.797
 9831SOL     OW30391   6.038   6.738   1.291
 9831SOL    HW130392   6.078   6.821   1.330
 9831SOL    HW230393   5.960   6.709   1.347
 9832SOL     OW30394   3.937   4.676   1.043
 9832SOL    HW130395   3.985   4.589   1.038
 9832SOL    HW230396   3.851   4.670   0.991
 9833SOL     OW30397   4.277   4.442   6.096
 9833SOL    HW130398   4.355   4.385   6.124
 9833SOL    HW230399   4.265   4.516   6.162
 9834SOL     OW30400   2.187   2.241   3.867
 9834SOL    HW130401   2.136   2.262   3.784
 9834SOL    HW230402   2.127   2.252   3.946
 9835SOL     OW30403   5.669   1.196   4.842
 9835SOL    HW130404   5.586   1.157   4.802
 9835SOL    HW230405   5.716   1.252   4.774
 9836SOL     OW30406   4.915   5.105   1.861
 9836SOL    HW130407   4.948   5.198   1.881
 9836SOL    HW230408   4.815   5.105   1.858
 9837SOL     OW30409   2.024   6.362   5.520
 9837SOL    HW130410   1.951   6.301   5.552
 9837SOL    HW230411   2.032   6.355   5.421
 9838SOL     OW30412   6.591   5.897   4.942
 9838SOL    HW130413   6.553   5.953   4.868
 9838SOL    HW230414   6.662   5.837   4.905
 9839SOL     OW30415   6.138   2.935   2.776
 9839SOL    HW130416   6.164   2.924   2.680
 9839SOL    HW230417   6.182   3.017   2.813
 9840SOL     OW30418   5.908   0.157   0.366
 9840SOL    HW130419   5.916   0.114   0.276
 9840SOL    HW230420   5.905   0.256   0.355
 9841SOL     OW30421   2.153   3.080   4.100
 9841SOL    HW130422   2.166   3.177   4.079
 9841SOL    HW230423   2.173   3.063   4.196
 9842SOL     OW30424   3.050   3.406   3.709
 9842SOL    HW130425   3.022   3.333   3.771
 9842SOL    HW230426   3.143   3.435   3.731
 9843SOL     OW30427   6.202   4.249   3.425
 9843SOL    HW130428   6.154   4.332   3.453
 9843SOL    HW230429   6.175   4.173   3.485
 9844SOL     OW30430   5.136   0.374   2.638
 9844SOL    HW130431   5.072   0.450   2.642
 9844SOL    HW230432   5.178   0.370   2.547
 9845SOL     OW30433   1.420   1.683   3.170
 9845SOL    HW130434   1.326   1.709   3.146
 9845SOL    HW230435   1.459   1.629   3.096
 9846SOL     OW30436   3.129   3.196   3.549
 9846SOL    HW130437   3.116   3.270   3.614
 9846SOL    HW230438   3.139   3.234   3.457
 9847SOL     OW30439   1.848   4.511   4.733
 9847SOL    HW130440   1.838   4.611   4.739
 9847SOL    HW230441   1.908   4.480   4.807
 9848SOL     OW30442   5.572   3.537   0.282
 9848SOL    HW130443   5.556   3.440   0.261
 9848SOL    HW230444   5.523   3.594   0.216
 9849SOL     OW30445   0.134   6.652   5.475
 9849SOL    HW130446   0.052   6.597   5.487
 9849SOL    HW230447   0.208   6.616   5.532
 9850SOL     OW30448   4.473   0.007   2.877
 9850SOL    HW130449   4.477   0.090   2.822
 9850SOL    HW230450   4.522   0.022   2.963
 9851SOL     OW30451   5.593   3.407   5.328
 9851SOL    HW130452   5.637   3.453   5.405
 9851SOL    HW230453   5.548   3.475   5.270
 9852SOL     OW30454   5.476   1.950   4.155
 9852SOL    HW130455   5.546   1.923   4.221
 9852SOL    HW230456   5.394   1.894   4.169
 9853SOL     OW30457   0.480   4.550   0.805
 9853SOL    HW130458   0.494   4.647   0.825
 9853SOL    HW230459   0.478   4.535   0.707
 9854SOL     OW30460   4.106   5.967   4.000
 9854SOL    HW130461   4.053   5.883   4.009
 9854SOL    HW230462   4.199   5.945   3.970
 9855SOL     OW30463   1.994   3.684   0.851
 9855SOL    HW130464   2.023   3.720   0.940
 9855SOL    HW230465   2.036   3.595   0.836
 9856SOL     OW30466   3.549   2.659   0.702
 9856SOL    HW130467   3.533   2.629   0.608
 9856SOL    HW230468   3.476   2.624   0.761
 9857SOL     OW30469   6.038   4.276   2.984
 9857SOL    HW130470   6.003   4.268   2.891
 9857SOL    HW230471   5.979   4.337   3.037
 9858SOL     OW30472   4.013   1.431   1.502
 9858SOL    HW130473   3.980   1.474   1.418
 9858SOL    HW230474   4.063   1.348   1.481
 9859SOL     OW30475   0.056   0.179   1.126
 9859SOL    HW130476   0.077   0.213   1.034
 9859SOL    HW230477   0.051   0.256   1.190
 9860SOL     OW30478   0.517   0.815   2.199
 9860SOL    HW130479   0.517   0.869   2.115
 9860SOL    HW230480   0.428   0.770   2.210
 9861SOL     OW30481   2.915   6.617   4.657
 9861SOL    HW130482   2.888   6.584   4.748
 9861SOL    HW230483   2.975   6.549   4.614
 9862SOL     OW30484   0.280   2.450   1.080
 9862SOL    HW130485   0.262   2.443   1.178
 9862SOL    HW230486   0.200   2.419   1.029
 9863SOL     OW30487   3.098   0.186   0.556
 9863SOL    HW130488   3.112   0.155   0.651
 9863SOL    HW230489   3.139   0.120   0.493
 9864SOL     OW30490   4.756   6.133   2.969
 9864SOL    HW130491   4.787   6.218   2.927
 9864SOL    HW230492   4.659   6.120   2.949
 9865SOL     OW30493   1.742   2.266   4.114
 9865SOL    HW130494   1.745   2.217   4.201
 9865SOL    HW230495   1.691   2.352   4.126
 9866SOL     OW30496   3.552   5.029   3.525
 9866SOL    HW130497   3.514   5.010   3.616
 9866SOL    HW230498   3.478   5.060   3.465
 9867SOL     OW30499   3.933   0.466   6.664
 9867SOL    HW130500   3.961   0.449   6.569
 9867SOL    HW230501   4.012   0.458   6.724
 9868SOL     OW30502   0.260   5.069   6.175
 9868SOL    HW130503   0.264   5.144   6.240
 9868SOL    HW230504   0.254   5.105   6.082
 9869SOL     OW30505   1.600   3.847   2.902
 9869SOL    HW130506   1.575   3.920   2.838
 9869SOL    HW230507   1.521   3.822   2.957
 9870SOL     OW30508   4.760   4.553   2.135
 9870SOL    HW130509   4.845   4.545   2.188
 9870SOL    HW230510   4.702   4.473   2.152
 9871SOL     OW30511   1.351   1.996   5.658
 9871SOL    HW130512   1.434   1.999   5.714
 9871SOL    HW230513   1.371   1.951   5.571
 9872SOL     OW30514   1.281   4.248   3.675
 9872SOL    HW130515   1.209   4.309   3.708
 9872SOL    HW230516   1.355   4.302   3.637
 9873SOL     OW30517   1.449   2.120   0.193
 9873SOL    HW130518   1.476   2.060   0.118
 9873SOL    HW230519   1.530   2.169   0.226
 9874SOL     OW30520   1.064   3.637   4.143
 9874SOL    HW130521   1.152   3.592   4.156
 9874SOL    HW230522   1.023   3.658   4.231
 9875SOL     OW30523   1.137   0.800   2.655
 9875SOL    HW130524   1.156   0.829   2.561
 9875SOL    HW230525   1.141   0.879   2.716
 9876SOL     OW30526   6.730   5.329   2.254
 9876SOL    HW130527   6.717   5.252   2.317
 9876SOL    HW230528   6.818   5.373   2.274
 9877SOL     OW30529   3.616   6.676   1.672
 9877SOL    HW130530   3.566   6.695   1.588
 9877SOL    HW230531   3.663   6.759   1.703
 9878SOL     OW30532   0.756   0.344   5.316
 9878SOL    HW130533   0.785   0.290   5.237
 9878SOL    HW230534   0.730   0.436   5.286
 9879SOL     OW30535   5.628   5.854   5.581
 9879SOL    HW130536   5.711   5.865   5.636
 9879SOL    HW230537   5.568   5.933   5.595
 9880SOL     OW30538   1.720   1.438   4.004
 9880SOL    HW130539   1.780   1.439   3.923
 9880SOL    HW230540   1.769   1.476   4.082
 9881SOL     OW30541   7.007   1.556   6.136
 9881SOL    HW130542   6.967   1.621   6.201
 9881SOL    HW230543   7.018   1.600   6.047
 9882SOL     OW30544   1.591   1.968   2.763
 9882SOL    HW130545   1.572   2.003   2.855
 9882SOL    HW230546   1.617   2.045   2.703
 9883SOL     OW30547   2.676   1.231   2.375
 9883SOL    HW130548   2.694   1.188   2.463
 9883SOL    HW230549   2.763   1.245   2.327
 9884SOL     OW30550   3.349   0.463   4.059
 9884SOL    HW130551   3.424   0.500   4.005
 9884SOL    HW230552   3.264   0.466   4.006
 9885SOL     OW30553   6.379   4.421   3.813
 9885SOL    HW130554   6.310   4.386   3.877
 9885SOL    HW230555   6.396   4.352   3.742
 9886SOL     OW30556   1.067   3.349   1.602
 9886SOL    HW130557   1.119   3.404   1.667
 9886SOL    HW230558   1.086   3.379   1.509
 9887SOL     OW30559   4.214   6.766   6.233
 9887SOL    HW130560   4.227   6.691   6.298
 9887SOL    HW230561   4.165   6.731   6.153
 9888SOL     OW30562   6.414   5.373   0.102
 9888SOL    HW130563   6.379   5.280   0.115
 9888SOL    HW230564   6.505   5.369   0.061
 9889SOL     OW30565   0.459   5.132   0.496
 9889SOL    HW130566   0.371   5.085   0.505
 9889SOL    HW230567   0.531   5.064   0.483
 9890SOL     OW30568   1.153   3.266   0.529
 9890SOL    HW130569   1.115   3.250   0.620
 9890SOL    HW230570   1.197   3.356   0.525
 9891SOL     OW30571   4.775   1.904   1.947
 9891SOL    HW130572   4.801   1.808   1.957
 9891SOL    HW230573   4.853   1.962   1.972
 9892SOL     OW30574   0.868   6.416   0.071
 9892SOL    HW130575   0.918   6.476   0.134
 9892SOL    HW230576   0.810   6.354   0.124
 9893SOL     OW30577   2.497   1.786   0.812
 9893SOL    HW130578   2.437   1.710   0.788
 9893SOL    HW230579   2.455   1.840   0.885
 9894SOL     OW30580   2.102   1.219   1.539
 9894SOL    HW130581   2.109   1.238   1.441
 9894SOL    HW230582   2.015   1.254   1.574
 9895SOL     OW30583   4.479   3.298   5.501
 9895SOL    HW130584   4.391   3.251   5.499
 9895SOL    HW230585   4.506   3.314   5.596
 9896SOL     OW30586   6.774   6.651   6.316
 9896SOL    HW130587   6.704   6.624   6.250
 9896SOL    HW230588   6.737   6.641   6.409
 9897SOL     OW30589   5.774   4.836   4.223
 9897SOL    HW130590   5.732   4.863   4.310
 9897SOL    HW230591   5.777   4.915   4.162
 9898SOL     OW30592   2.945   6.758   5.648
 9898SOL    HW130593   2.864   6.759   5.706
 9898SOL    HW230594   2.918   6.739   5.554
 9899SOL     OW30595   0.116   5.224   0.013
 9899SOL    HW130596   0.058   5.171   6.976
 9899SOL    HW230597   0.176   5.162   0.063
 9900SOL     OW30598   2.209   3.901   3.784
 9900SOL    HW130599   2.178   3.807   3.799
 9900SOL    HW230600   2.132   3.956   3.751
 9901SOL     OW30601   2.368   2.829   5.451
 9901SOL    HW130602   2.432   2.812   5.376
 9901SOL    HW230603   2.346   2.927   5.454
 9902SOL     OW30604   2.530   4.445   0.006
 9902SOL    HW130605   2.494   4.479   0.093
 9902SOL    HW230606   2.455   4.437   6.965
 9903SOL     OW30607   5.545   0.768   4.088
 9903SOL    HW130608   5.631   0.806   4.053
 9903SOL    HW230609   5.487   0.741   4.012
 9904SOL     OW30610   6.374   2.499   0.635
 9904SOL    HW130611   6.332   2.410   0.618
 9904SOL    HW230612   6.368   2.521   0.733
 9905SOL     OW30613   5.266   0.360   0.260
 9905SOL    HW130614   5.269   0.338   0.357
 9905SOL    HW230615   5.258   0.276   0.206
 9906SOL     OW30616   3.363   2.968   4.968
 9906SOL    HW130617   3.415   2.915   5.034
 9906SOL    HW230618   3.274   2.993   5.007
 9907SOL     OW30619   1.165   0.022   2.069
 9907SOL    HW130620   1.203   0.092   2.129
 9907SOL    HW230621   1.090   0.061   2.015
 9908SOL     OW30622   4.886   3.653   2.498
 9908SOL    HW130623   4.869   3.589   2.573
 9908SOL    HW230624   4.881   3.747   2.533
 9909SOL     OW30625   2.373   0.589   4.961
 9909SOL    HW130626   2.464   0.573   4.922
 9909SOL    HW230627   2.372   0.558   5.056
 9910SOL     OW30628   0.053   5.058   3.633
 9910SOL    HW130629   0.033   5.096   3.543
 9910SOL    HW230630   0.050   5.130   3.702
 9911SOL     OW30631   2.543   5.629   2.617
 9911SOL    HW130632   2.622   5.617   2.676
 9911SOL    HW230633   2.489   5.545   2.617
 9912SOL     OW30634   5.158   0.570   6.432
 9912SOL    HW130635   5.231   0.520   6.479
 9912SOL    HW230636   5.185   0.665   6.419
 9913SOL     OW30637   4.347   3.037   6.683
 9913SOL    HW130638   4.367   2.939   6.682
 9913SOL    HW230639   4.252   3.053   6.655
 9914SOL     OW30640   6.897   4.005   4.310
 9914SOL    HW130641   6.935   3.925   4.263
 9914SOL    HW230642   6.801   4.016   4.284
 9915SOL     OW30643   5.281   1.506   3.611
 9915SOL    HW130644   5.376   1.483   3.633
 9915SOL    HW230645   5.224   1.498   3.693
 9916SOL     OW30646   1.842   2.823   2.120
 9916SOL    HW130647   1.781   2.751   2.088
 9916SOL    HW230648   1.928   2.819   2.068
 9917SOL     OW30649   6.151   4.319   4.707
 9917SOL    HW130650   6.171   4.233   4.660
 9917SOL    HW230651   6.144   4.302   4.805
 9918SOL     OW30652   4.689   2.746   2.374
 9918SOL    HW130653   4.617   2.691   2.417
 9918SOL    HW230654   4.676   2.746   2.275
 9919SOL     OW30655   6.111   6.289   0.818
 9919SOL    HW130656   6.148   6.379   0.843
 9919SOL    HW230657   6.126   6.225   0.893
 9920SOL     OW30658   4.776   1.463   3.027
 9920SOL    HW130659   4.790   1.561   3.018
 9920SOL    HW230660   4.728   1.444   3.113
 9921SOL     OW30661   3.766   4.755   6.242
 9921SOL    HW130662   3.726   4.847   6.241
 9921SOL    HW230663   3.760   4.716   6.334
 9922SOL     OW30664   0.270   5.297   0.694
 9922SOL    HW130665   0.199   5.229   0.675
 9922SOL    HW230666   0.237   5.362   0.762
 9923SOL     OW30667   5.530   4.819   1.324
 9923SOL    HW130668   5.609   4.759   1.313
 9923SOL    HW230669   5.527   4.852   1.419
 9924SOL     OW30670   0.929   3.790   4.897
 9924SOL    HW130671   0.952   3.701   4.937
 9924SOL    HW230672   1.002   3.855   4.916
 9925SOL     OW30673   5.362   1.906   3.058
 9925SOL    HW130674   5.262   1.915   3.059
 9925SOL    HW230675   5.397   1.923   3.150
 9926SOL     OW30676   2.869   4.969   0.106
 9926SOL    HW130677   2.910   5.052   0.068
 9926SOL    HW230678   2.774   4.962   0.076
 9927SOL     OW30679   5.666   0.218   3.510
 9927SOL    HW130680   5.657   0.121   3.534
 9927SOL    HW230681   5.576   0.262   3.514
 9928SOL     OW30682   4.596   5.029   2.114
 9928SOL    HW130683   4.675   4.979   2.149
 9928SOL    HW230684   4.579   5.109   2.171
 9929SOL     OW30685   1.153   4.713   2.343
 9929SOL    HW130686   1.180   4.630   2.391
 9929SOL    HW230687   1.233   4.771   2.330
 9930SOL     OW30688   6.275   0.761   3.365
 9930SOL    HW130689   6.323   0.847   3.382
 9930SOL    HW230690   6.324   0.708   3.297
 9931SOL     OW30691   0.646   4.981   6.027
 9931SOL    HW130692   0.587   4.901   6.039
 9931SOL    HW230693   0.656   5.029   6.114
 9932SOL     OW30694   0.624   6.710   5.260
 9932SOL    HW130695   0.708   6.715   5.206
 9932SOL    HW230696   0.551   6.759   5.214
 9933SOL     OW30697   0.268   6.046   1.964
 9933SOL    HW130698   0.174   6.066   1.936
 9933SOL    HW230699   0.275   5.950   1.990
 9934SOL     OW30700   6.808   1.793   5.643
 9934SOL    HW130701   6.730   1.845   5.678
 9934SOL    HW230702   6.891   1.823   5.689
 9935SOL     OW30703   3.322   0.281   6.251
 9935SOL    HW130704   3.237   0.244   6.212
 9935SOL    HW230705   3.299   0.350   6.320
 9936SOL     OW30706   1.084   3.957   4.252
 9936SOL    HW130707   1.164   3.921   4.203
 9936SOL    HW230708   1.033   3.882   4.293
 9937SOL     OW30709   6.513   2.691   6.012
 9937SOL    HW130710   6.602   2.675   5.970
 9937SOL    HW230711   6.465   2.764   5.963
 9938SOL     OW30712   6.852   6.262   2.574
 9938SOL    HW130713   6.903   6.237   2.657
 9938SOL    HW230714   6.839   6.181   2.517
 9939SOL     OW30715   3.480   3.208   2.615
 9939SOL    HW130716   3.532   3.270   2.557
 9939SOL    HW230717   3.384   3.210   2.588
 9940SOL     OW30718   7.017   0.871   0.432
 9940SOL    HW130719   0.058   0.895   0.362
 9940SOL    HW230720   0.007   0.926   0.514
 9941SOL     OW30721   3.248   5.488   5.249
 9941SOL    HW130722   3.235   5.546   5.169
 9941SOL    HW230723   3.173   5.422   5.255
 9942SOL     OW30724   2.761   5.723   3.848
 9942SOL    HW130725   2.720   5.715   3.757
 9942SOL    HW230726   2.765   5.820   3.874
 9943SOL     OW30727   1.126   0.162   4.837
 9943SOL    HW130728   1.171   0.119   4.915
 9943SOL    HW230729   1.033   0.127   4.829
 9944SOL     OW30730   1.479   4.429   0.200
 9944SOL    HW130731   1.539   4.435   0.120
 9944SOL    HW230732   1.386   4.408   0.169
 9945SOL     OW30733   6.675   5.824   6.829
 9945SOL    HW130734   6.675   5.758   6.755
 9945SOL    HW230735   6.669   5.777   6.917
 9946SOL     OW30736   5.549   1.737   4.939
 9946SOL    HW130737   5.468   1.683   4.962
 9946SOL    HW230738   5.631   1.682   4.954
 9947SOL     OW30739   6.045   4.440   3.546
 9947SOL    HW130740   5.983   4.496   3.491
 9947SOL    HW230741   5.993   4.386   3.611
 9948SOL     OW30742   5.426   3.901   4.143
 9948SOL    HW130743   5.402   3.957   4.064
 9948SOL    HW230744   5.449   3.808   4.112
 9949SOL     OW30745   5.960   4.626   2.027
 9949SOL    HW130746   5.878   4.569   2.027
 9949SOL    HW230747   5.949   4.700   1.961
 9950SOL     OW30748   3.278   5.929   6.676
 9950SOL    HW130749   3.326   5.872   6.609
 9950SOL    HW230750   3.208   5.984   6.630
 9951SOL     OW30751   6.221   2.526   2.905
 9951SOL    HW130752   6.279   2.487   2.834
 9951SOL    HW230753   6.231   2.473   2.989
 9952SOL     OW30754   0.102   5.097   6.640
 9952SOL    HW130755   0.167   5.152   6.693
 9952SOL    HW230756   0.011   5.139   6.646
 9953SOL     OW30757   5.893   2.708   4.102
 9953SOL    HW130758   5.820   2.706   4.171
 9953SOL    HW230759   5.860   2.757   4.022
 9954SOL     OW30760   3.955   0.388   5.002
 9954SOL    HW130761   4.042   0.386   4.953
 9954SOL    HW230762   3.952   0.311   5.066
 9955SOL     OW30763   0.510   4.771   4.315
 9955SOL    HW130764   0.417   4.807   4.320
 9955SOL    HW230765   0.514   4.698   4.247
 9956SOL     OW30766   0.943   6.118   0.419
 9956SOL    HW130767   0.925   6.187   0.349
 9956SOL    HW230768   0.960   6.163   0.507
 9957SOL     OW30769   5.552   5.500   2.287
 9957SOL    HW130770   5.504   5.471   2.205
 9957SOL    HW230771   5.497   5.479   2.368
 9958SOL     OW30772   2.576   4.480   0.662
 9958SOL    HW130773   2.494   4.521   0.701
 9958SOL    HW230774   2.591   4.390   0.703
 9959SOL     OW30775   3.370   3.749   1.309
 9959SOL    HW130776   3.414   3.771   1.395
 9959SOL    HW230777   3.296   3.683   1.324
 9960SOL     OW30778   0.365   1.445   2.299
 9960SOL    HW130779   0.371   1.351   2.334
 9960SOL    HW230780   0.426   1.454   2.220
 9961SOL     OW30781   2.120   3.760   4.517
 9961SOL    HW130782   2.121   3.791   4.612
 9961SOL    HW230783   2.184   3.815   4.463
 9962SOL     OW30784   4.980   6.655   4.390
 9962SOL    HW130785   4.916   6.731   4.404
 9962SOL    HW230786   4.947   6.597   4.316
 9963SOL     OW30787   3.490   0.838   1.031
 9963SOL    HW130788   3.473   0.891   1.114
 9963SOL    HW230789   3.553   0.888   0.972
 9964SOL     OW30790   4.941   6.186   4.655
 9964SOL    HW130791   4.873   6.188   4.581
 9964SOL    HW230792   5.012   6.119   4.633
 9965SOL     OW30793   4.277   6.673   0.641
 9965SOL    HW130794   4.306   6.766   0.664
 9965SOL    HW230795   4.314   6.647   0.552
 9966SOL     OW30796   6.827   0.854   3.334
 9966SOL    HW130797   6.739   0.874   3.377
 9966SOL    HW230798   6.823   0.766   3.288
 9967SOL     OW30799   1.389   5.148   0.677
 9967SOL    HW130800   1.339   5.062   0.689
 9967SOL    HW230801   1.326   5.220   0.650
 9968SOL     OW30802   2.951   3.565   2.942
 9968SOL    HW130803   2.917   3.597   2.853
 9968SOL    HW230804   2.976   3.644   2.998
 9969SOL     OW30805   1.489   3.641   1.097
 9969SOL    HW130806   1.513   3.737   1.085
 9969SOL    HW230807   1.563   3.584   1.063
 9970SOL     OW30808   5.982   4.309   1.670
 9970SOL    HW130809   5.933   4.384   1.713
 9970SOL    HW230810   6.077   4.336   1.653
 9971SOL     OW30811   2.522   6.781   6.857
 9971SOL    HW130812   2.442   6.742   6.903
 9971SOL    HW230813   2.584   6.820   6.925
 9972SOL     OW30814   6.524   5.020   1.289
 9972SOL    HW130815   6.425   5.023   1.275
 9972SOL    HW230816   6.560   4.934   1.253
 9973SOL     OW30817   5.945   0.273   3.500
 9973SOL    HW130818   5.846   0.284   3.491
 9973SOL    HW230819   5.983   0.351   3.549
 9974SOL     OW30820   2.384   0.075   4.534
 9974SOL    HW130821   2.321   0.024   4.593
 9974SOL    HW230822   2.466   0.021   4.518
 9975SOL     OW30823   6.502   4.322   0.564
 9975SOL    HW130824   6.580   4.263   0.542
 9975SOL    HW230825   6.508   4.351   0.659
 9976SOL     OW30826   2.698   6.678   5.157
 9976SOL    HW130827   2.683   6.774   5.182
 9976SOL    HW230828   2.630   6.621   5.202
 9977SOL     OW30829   6.792   4.690   3.971
 9977SOL    HW130830   6.804   4.628   3.893
 9977SOL    HW230831   6.854   4.664   4.044
 9978SOL     OW30832   0.508   2.296   5.159
 9978SOL    HW130833   0.503   2.241   5.075
 9978SOL    HW230834   0.428   2.357   5.162
 9979SOL     OW30835   0.541   3.936   4.788
 9979SOL    HW130836   0.572   3.848   4.752
 9979SOL    HW230837   0.568   3.945   4.884
 9980SOL     OW30838   2.965   6.425   5.188
 9980SOL    HW130839   2.909   6.392   5.264
 9980SOL    HW230840   2.960   6.359   5.113
 9981SOL     OW30841   4.295   2.259   4.188
 9981SOL    HW130842   4.258   2.190   4.126
 9981SOL    HW230843   4.238   2.265   4.270
 9982SOL     OW30844   6.583   6.145   2.948
 9982SOL    HW130845   6.675   6.108   2.932
 9982SOL    HW230846   6.588   6.244   2.954
 9983SOL     OW30847   6.321   1.017   0.912
 9983SOL    HW130848   6.375   1.065   0.981
 9983SOL    HW230849   6.288   0.931   0.950
 9984SOL     OW30850   2.500   1.567   6.500
 9984SOL    HW130851   2.507   1.611   6.410
 9984SOL    HW230852   2.404   1.551   6.522
 9985SOL     OW30853   2.286   1.605   1.590
 9985SOL    HW130854   2.381   1.583   1.571
 9985SOL    HW230855   2.230   1.581   1.511
 9986SOL     OW30856   4.958   4.029   4.951
 9986SOL    HW130857   5.031   4.097   4.960
 9986SOL    HW230858   4.891   4.061   4.884
 9987SOL     OW30859   0.798   4.281   5.674
 9987SOL    HW130860   0.790   4.380   5.686
 9987SOL    HW230861   0.728   4.249   5.611
 9988SOL     OW30862   6.749   0.155   4.235
 9988SOL    HW130863   6.692   0.237   4.234
 9988SOL    HW230864   6.692   0.075   4.253
 9989SOL     OW30865   1.264   3.013   4.301
 9989SOL    HW130866   1.181   3.004   4.355
 9989SOL    HW230867   1.247   3.073   4.223
 9990SOL     OW30868   1.509   5.410   1.657
 9990SOL    HW130869   1.548   5.468   1.729
 9990SOL    HW230870   1.535   5.315   1.673
 9991SOL     OW30871   4.484   1.789   3.173
 9991SOL    HW130872   4.444   1.786   3.081
 9991SOL    HW230873   4.470   1.879   3.212
 9992SOL     OW30874   6.844   5.440   5.956
 9992SOL    HW130875   6.747   5.444   5.933
 9992SOL    HW230876   6.857   5.384   6.038
 9993SOL     OW30877   1.282   0.847   2.144
 9993SOL    HW130878   1.354   0.884   2.086
 9993SOL    HW230879   1.250   0.919   2.207
 9994SOL     OW30880   6.279   5.077   3.462
 9994SOL    HW130881   6.344   5.131   3.517
 9994SOL    HW230882   6.206   5.137   3.429
 9995SOL     OW30883   4.935   1.195   4.996
 9995SOL    HW130884   4.939   1.124   4.926
 9995SOL    HW230885   5.014   1.186   5.058
 9996SOL     OW30886   2.499   3.356   6.792
 9996SOL    HW130887   2.525   3.282   6.730
 9996SOL    HW230888   2.402   3.376   6.782
 9997SOL     OW30889   1.918   0.360   4.318
 9997SOL    HW130890   2.001   0.387   4.268
 9997SOL    HW230891   1.884   0.437   4.371
 9998SOL     OW30892   5.740   6.335   5.146
 9998SOL    HW130893   5.821   6.384   5.114
 9998SOL    HW230894   5.706   6.379   5.230
 9999SOL     OW30895   0.140   1.173   4.756
 9999SOL    HW130896   0.185   1.204   4.840
 9999SOL    HW230897   0.187   1.093   4.720
10000SOL     OW30898   6.779   4.740   0.100
10000SOL    HW130899   6.757   4.835   0.123
10000SOL    HW230900   6.695   4.689   0.083
10001SOL     OW30901   3.818   6.834   3.588
10001SOL    HW130902   3.816   6.759   3.655
10001SOL    HW230903   3.830   6.795   3.497
10002SOL     OW30904   1.749   1.760   1.809
10002SOL    HW130905   1.688   1.708   1.749
10002SOL    HW230906   1.837   1.774   1.763
10003SOL     OW30907   4.957   3.508   3.225
10003SOL    HW130908   4.950   3.595   3.175
10003SOL    HW230909   5.047   3.501   3.266
10004SOL     OW30910   0.035   2.794   3.591
10004SOL    HW130911   0.048   2.854   3.670
10004SOL    HW230912   7.013   2.711   3.619
10005SOL     OW30913   4.824   0.353   4.553
10005SOL    HW130914   4.737   0.328   4.509
10005SOL    HW230915   4.807   0.424   4.621
10006SOL     OW30916   4.786   1.819   4.580
10006SOL    HW130917   4.770   1.803   4.678
10006SOL    HW230918   4.876   1.859   4.567
10007SOL     OW30919   5.909   3.850   4.092
10007SOL    HW130920   5.879   3.779   4.156
10007SOL    HW230921   6.006   3.870   4.106
10008SOL     OW30922   3.259   0.232   3.737
10008SOL    HW130923   3.218   0.179   3.663
10008SOL    HW230924   3.355   0.206   3.749
10009SOL     OW30925   2.236   4.373   1.143
10009SOL    HW130926   2.201   4.448   1.086
10009SOL    HW230927   2.235   4.402   1.239
10010SOL     OW30928   5.796   0.973   6.323
10010SOL    HW130929   5.856   0.975   6.403
10010SOL    HW230930   5.781   0.878   6.295
10011SOL     OW30931   6.983   6.461   3.746
10011SOL    HW130932   6.995   6.363   3.731
10011SOL    HW230933   6.912   6.496   3.685
10012SOL     OW30934   5.638   0.464   4.107
10012SOL    HW130935   5.540   0.465   4.091
10012SOL    HW230936   5.656   0.449   4.204
10013SOL     OW30937   1.513   0.931   2.051
10013SOL    HW130938   1.603   0.914   2.091
10013SOL    HW230939   1.522   0.997   1.976
10014SOL     OW30940   1.313   4.919   5.264
10014SOL    HW130941   1.226   4.908   5.311
10014SOL    HW230942   1.388   4.910   5.329
10015SOL     OW30943   2.460   6.106   6.502
10015SOL    HW130944   2.481   6.159   6.420
10015SOL    HW230945   2.480   6.009   6.484
10016SOL     OW30946   2.505   1.268   5.173
10016SOL    HW130947   2.567   1.216   5.113
10016SOL    HW230948   2.506   1.364   5.147
10017SOL     OW30949   0.051   1.803   3.835
10017SOL    HW130950   0.099   1.883   3.871
10017SOL    HW230951   0.051   1.807   3.735
10018SOL     OW30952   4.978   6.575   5.857
10018SOL    HW130953   5.045   6.502   5.844
10018SOL    HW230954   4.945   6.607   5.768
10019SOL     OW30955   1.450   1.137   2.730
10019SOL    HW130956   1.362   1.168   2.767
10019SOL    HW230957   1.493   1.210   2.678
10020SOL     OW30958   6.976   3.063   0.266
10020SOL    HW130959   7.015   3.125   0.198
10020SOL    HW230960   6.882   3.041   0.241
10021SOL     OW30961   4.878   2.963   1.317
10021SOL    HW130962   4.918   2.913   1.394
10021SOL    HW230963   4.781   2.980   1.335
10022SOL     OW30964   2.069   0.923   6.265
10022SOL    HW130965   2.040   0.930   6.360
10022SOL    HW230966   2.168   0.913   6.261
10023SOL     OW30967   0.466   3.263   0.851
10023SOL    HW130968   0.452   3.190   0.917
10023SOL    HW230969   0.467   3.351   0.899
10024SOL     OW30970   1.226   3.557   3.188
10024SOL    HW130971   1.167   3.638   3.189
10024SOL    HW230972   1.187   3.487   3.128
10025SOL     OW30973   0.837   1.140   0.954
10025SOL    HW130974   0.798   1.094   0.874
10025SOL    HW230975   0.897   1.214   0.923
10026SOL     OW30976   6.749   0.558   4.422
10026SOL    HW130977   6.840   0.579   4.457
10026SOL    HW230978   6.696   0.510   4.492
10027SOL     OW30979   6.139   2.694   5.801
10027SOL    HW130980   6.077   2.617   5.782
10027SOL    HW230981   6.156   2.745   5.717
10028SOL     OW30982   2.005   0.767   1.843
10028SOL    HW130983   2.090   0.720   1.865
10028SOL    HW230984   1.929   0.702   1.850
10029SOL     OW30985   3.862   1.156   4.081
10029SOL    HW130986   3.767   1.127   4.067
10029SOL    HW230987   3.921   1.110   4.014
10030SOL     OW30988   1.203   1.248   2.822
10030SOL    HW130989   1.131   1.182   2.845
10030SOL    HW230990   1.162   1.330   2.782
10031SOL     OW30991   6.206   4.895   3.686
10031SOL    HW130992   6.204   4.796   3.677
10031SOL    HW230993   6.218   4.937   3.596
10032SOL     OW30994   3.942   1.656   5.083
10032SOL    HW130995   4.040   1.638   5.086
10032SOL    HW230996   3.901   1.611   5.004
10033SOL     OW30997   5.121   3.138   3.894
10033SOL    HW130998   5.174   3.222   3.884
10033SOL    HW230999   5.048   3.151   3.960
10034SOL     OW31000   4.070   6.686   6.033
10034SOL    HW131001   4.083   6.696   5.934
10034SOL    HW231002   3.982   6.643   6.050
10035SOL     OW31003   0.558   6.844   3.656
10035SOL    HW131004   0.492   6.788   3.707
10035SOL    HW231005   0.509   6.915   3.606
10036SOL     OW31006   6.456   0.615   0.144
10036SOL    HW131007   6.482   0.690   0.083
10036SOL    HW231008   6.535   0.589   0.200
10037SOL     OW31009   6.779   6.773   1.306
10037SOL    HW131010   6.813   6.861   1.339
10037SOL    HW231011   6.782   6.706   1.380
10038SOL     OW31012   6.287   0.201   1.077
10038SOL    HW131013   6.332   0.133   1.019
10038SOL    HW231014   6.329   0.202   1.167
10039SOL     OW31015   4.250   0.262   3.185
10039SOL    HW131016   4.160   0.257   3.141
10039SOL    HW231017   4.321   0.246   3.116
10040SOL     OW31018   0.492   2.507   0.899
10040SOL    HW131019   0.424   2.476   0.965
10040SOL    HW231020   0.458   2.588   0.852
10041SOL     OW31021   1.383   6.754   0.726
10041SOL    HW131022   1.290   6.731   0.697
10041SOL    HW231023   1.390   6.750   0.826
10042SOL     OW31024   5.777   2.106   3.409
10042SOL    HW131025   5.835   2.037   3.453
10042SOL    HW231026   5.824   2.143   3.329
10043SOL     OW31027   1.401   2.814   5.115
10043SOL    HW131028   1.405   2.847   5.210
10043SOL    HW231029   1.345   2.732   5.111
10044SOL     OW31030   4.760   1.255   6.494
10044SOL    HW131031   4.664   1.255   6.524
10044SOL    HW231032   4.817   1.216   6.567
10045SOL     OW31033   2.539   1.029   0.884
10045SOL    HW131034   2.531   1.105   0.820
10045SOL    HW231035   2.635   1.007   0.898
10046SOL     OW31036   0.388   5.433   1.119
10046SOL    HW131037   0.475   5.393   1.147
10046SOL    HW231038   0.394   5.464   1.024
10047SOL     OW31039   1.810   3.351   0.610
10047SOL    HW131040   1.728   3.299   0.635
10047SOL    HW231041   1.868   3.363   0.691
10048SOL     OW31042   5.744   3.960   1.978
10048SOL    HW131043   5.779   4.001   1.894
10048SOL    HW231044   5.682   4.024   2.023
10049SOL     OW31045   6.413   1.362   4.979
10049SOL    HW131046   6.426   1.302   5.057
10049SOL    HW231047   6.453   1.320   4.897
10050SOL     OW31048   6.762   2.630   5.938
10050SOL    HW131049   6.756   2.530   5.949
10050SOL    HW231050   6.835   2.665   5.996
10051SOL     OW31051   2.301   1.307   4.007
10051SOL    HW131052   2.220   1.313   4.065
10051SOL    HW231053   2.370   1.373   4.038
10052SOL     OW31054   0.762   0.544   4.047
10052SOL    HW131055   0.802   0.567   4.135
10052SOL    HW231056   0.784   0.616   3.981
10053SOL     OW31057   6.011   5.263   2.904
10053SOL    HW131058   5.954   5.218   2.972
10053SOL    HW231059   5.970   5.250   2.813
10054SOL     OW31060   6.190   3.839   4.233
10054SOL    HW131061   6.130   3.874   4.304
10054SOL    HW231062   6.206   3.741   4.249
10055SOL     OW31063   1.717   1.830   6.844
10055SOL    HW131064   1.737   1.880   6.760
10055SOL    HW231065   1.803   1.810   6.892
10056SOL     OW31066   5.479   2.382   4.193
10056SOL    HW131067   5.442   2.298   4.153
10056SOL    HW231068   5.576   2.391   4.168
10057SOL     OW31069   6.025   4.449   5.227
10057SOL    HW131070   6.124   4.435   5.229
10057SOL    HW231071   5.979   4.360   5.227
10058SOL     OW31072   6.635   4.144   4.086
10058SOL    HW131073   6.544   4.177   4.112
10058SOL    HW231074   6.645   4.148   3.987
10059SOL     OW31075   5.031   6.083   6.421
10059SOL    HW131076   5.080   5.996   6.410
10059SOL    HW231077   4.959   6.072   6.489
10060SOL     OW31078   2.862   1.952   2.160
10060SOL    HW131079   2.941   2.013   2.159
10060SOL    HW231080   2.799   1.981   2.232
10061SOL     OW31081   3.801   6.275   2.947
10061SOL    HW131082   3.843   6.357   2.910
10061SOL    HW231083   3.737   6.237   2.881
10062SOL     OW31084   6.900   0.098   4.670
10062SOL    HW131085   6.958   0.043   4.730
10062SOL    HW231086   6.887   0.049   4.584
10063SOL     OW31087   3.333   2.055   4.697
10063SOL    HW131088   3.311   2.086   4.789
10063SOL    HW231089   3.321   1.955   4.691
10064SOL     OW31090   3.008   6.626   2.470
10064SOL    HW131091   2.933   6.574   2.429
10064SOL    HW231092   3.013   6.717   2.428
10065SOL     OW31093   0.180   1.761   1.829
10065SOL    HW131094   0.086   1.748   1.860
10065SOL    HW231095   0.207   1.856   1.843
10066SOL     OW31096   6.241   3.693   3.655
10066SOL    HW131097   6.320   3.711   3.596
10066SOL    HW231098   6.201   3.605   3.630
10067SOL     OW31099   6.175   3.593   5.452
10067SOL    HW131100   6.106   3.573   5.520
10067SOL    HW231101   6.215   3.684   5.469
10068SOL     OW31102   1.874   3.322   2.347
10068SOL    HW131103   1.941   3.355   2.281
10068SOL    HW231104   1.865   3.223   2.339
10069SOL     OW31105   3.077   4.948   1.828
10069SOL    HW131106   2.986   4.908   1.839
10069SOL    HW231107   3.090   5.019   1.897
10070SOL     OW31108   4.612   6.923   0.522
10070SOL    HW131109   4.582   6.907   0.428
10070SOL    HW231110   4.534   6.953   0.577
10071SOL     OW31111   5.606   0.638   5.504
10071SOL    HW131112   5.630   0.590   5.419
10071SOL    HW231113   5.558   0.723   5.482
10072SOL     OW31114   5.907   2.540   2.363
10072SOL    HW131115   5.868   2.449   2.375
10072SOL    HW231116   5.865   2.584   2.283
10073SOL     OW31117   5.596   6.149   5.030
10073SOL    HW131118   5.623   6.133   4.935
10073SOL    HW231119   5.656   6.218   5.070
10074SOL     OW31120   1.925   4.758   0.941
10074SOL    HW131121   1.936   4.830   0.872
10074SOL    HW231122   1.828   4.736   0.951
10075SOL     OW31123   1.408   3.269   2.217
10075SOL    HW131124   1.442   3.311   2.301
10075SOL    HW231125   1.465   3.298   2.139
10076SOL     OW31126   5.565   3.731   3.824
10076SOL    HW131127   5.654   3.778   3.821
10076SOL    HW231128   5.497   3.785   3.774
10077SOL     OW31129   4.146   3.607   6.477
10077SOL    HW131130   4.109   3.626   6.386
10077SOL    HW231131   4.082   3.641   6.546
10078SOL     OW31132   5.737   5.251   4.244
10078SOL    HW131133   5.722   5.309   4.325
10078SOL    HW231134   5.692   5.163   4.257
10079SOL     OW31135   5.088   4.635   2.700
10079SOL    HW131136   5.110   4.593   2.787
10079SOL    HW231137   4.992   4.619   2.679
10080SOL     OW31138   5.094   2.163   5.852
10080SOL    HW131139   5.001   2.170   5.816
10080SOL    HW231140   5.160   2.174   5.778
10081SOL     OW31141   1.907   4.944   6.980
10081SOL    HW131142   1.904   4.942   0.055
10081SOL    HW231143   1.943   4.857   6.947
10082SOL     OW31144   1.167   5.110   0.966
10082SOL    HW131145   1.213   5.066   0.889
10082SOL    HW231146   1.230   5.114   1.044
10083SOL     OW31147   2.612   6.254   2.793
10083SOL    HW131148   2.595   6.182   2.726
10083SOL    HW231149   2.627   6.341   2.746
10084SOL     OW31150   1.523   3.055   4.934
10084SOL    HW131151   1.598   3.020   4.878
10084SOL    HW231152   1.489   2.982   4.994
10085SOL     OW31153   4.122   6.706   1.597
10085SOL    HW131154   4.064   6.748   1.667
10085SOL    HW231155   4.181   6.775   1.555
10086SOL     OW31156   3.233   0.224   2.514
10086SOL    HW131157   3.248   0.155   2.443
10086SOL    HW231158   3.202   0.309   2.471
10087SOL     OW31159   1.956   5.360   5.704
10087SOL    HW131160   1.989   5.443   5.658
10087SOL    HW231161   2.014   5.283   5.680
10088SOL     OW31162   6.638   2.003   1.143
10088SOL    HW131163   6.672   2.045   1.226
10088SOL    HW231164   6.538   2.013   1.139
10089SOL     OW31165   3.965   6.582   1.957
10089SOL    HW131166   4.027   6.653   1.990
10089SOL    HW231167   3.908   6.619   1.884
10090SOL     OW31168   2.288   5.505   2.350
10090SOL    HW131169   2.356   5.446   2.392
10090SOL    HW231170   2.204   5.453   2.332
10091SOL     OW31171   5.447   5.024   3.676
10091SOL    HW131172   5.532   4.989   3.638
10091SOL    HW231173   5.439   4.995   3.772
10092SOL     OW31174   0.471   1.123   2.590
10092SOL    HW131175   0.468   1.163   2.498
10092SOL    HW231176   0.538   1.171   2.645
10093SOL     OW31177   4.753   4.080   6.419
10093SOL    HW131178   4.670   4.043   6.461
10093SOL    HW231179   4.827   4.013   6.426
10094SOL     OW31180   3.475   2.605   0.427
10094SOL    HW131181   3.411   2.529   0.419
10094SOL    HW231182   3.434   2.687   0.387
10095SOL     OW31183   4.608   2.554   5.605
10095SOL    HW131184   4.621   2.627   5.538
10095SOL    HW231185   4.684   2.554   5.670
10096SOL     OW31186   6.434   4.277   2.092
10096SOL    HW131187   6.516   4.228   2.063
10096SOL    HW231188   6.360   4.261   2.026
10097SOL     OW31189   1.210   1.373   1.145
10097SOL    HW131190   1.298   1.357   1.189
10097SOL    HW231191   1.219   1.444   1.076
10098SOL     OW31192   3.760   5.397   6.905
10098SOL    HW131193   3.832   5.445   6.854
10098SOL    HW231194   3.676   5.397   6.851
10099SOL     OW31195   0.235   6.042   3.422
10099SOL    HW131196   0.308   5.974   3.414
10099SOL    HW231197   0.192   6.034   3.512
10100SOL     OW31198   4.665   5.052   3.923
10100SOL    HW131199   4.608   5.122   3.965
10100SOL    HW231200   4.760   5.063   3.955
10101SOL     OW31201   0.193   2.381   0.193
10101SOL    HW131202   0.192   2.374   0.293
10101SOL    HW231203   0.159   2.472   0.166
10102SOL     OW31204   0.072   4.812   2.671
10102SOL    HW131205   0.006   4.757   2.620
10102SOL    HW231206   0.160   4.764   2.673
10103SOL     OW31207   0.020   0.184   6.572
10103SOL    HW131208   0.090   0.198   6.642
10103SOL    HW231209   7.004   0.272   6.548
10104SOL     OW31210   2.861   1.283   5.006
10104SOL    HW131211   2.829   1.365   5.053
10104SOL    HW231212   2.900   1.308   4.918
10105SOL     OW31213   3.201   1.539   4.496
10105SOL    HW131214   3.102   1.542   4.510
10105SOL    HW231215   3.222   1.492   4.410
10106SOL     OW31216   5.831   3.967   1.160
10106SOL    HW131217   5.756   4.008   1.107
10106SOL    HW231218   5.914   4.020   1.146
10107SOL     OW31219   5.470   5.977   6.604
10107SOL    HW131220   5.389   5.934   6.564
10107SOL    HW231221   5.531   6.007   6.530
10108SOL     OW31222   2.396   2.239   5.190
10108SOL    HW131223   2.364   2.332   5.208
10108SOL    HW231224   2.334   2.174   5.233
10109SOL     OW31225   1.204   3.331   0.860
10109SOL    HW131226   1.106   3.329   0.842
10109SOL    HW231227   1.234   3.241   0.890
10110SOL     OW31228   6.191   6.182   2.169
10110SOL    HW131229   6.187   6.223   2.078
10110SOL    HW231230   6.239   6.095   2.165
10111SOL     OW31231   6.713   2.776   1.766
10111SOL    HW131232   6.755   2.761   1.676
10111SOL    HW231233   6.723   2.694   1.821
10112SOL     OW31234   0.074   2.926   4.039
10112SOL    HW131235   0.131   3.005   4.060
10112SOL    HW231236   0.103   2.848   4.094
10113SOL     OW31237   0.079   5.957   6.056
10113SOL    HW131238   0.087   5.986   5.960
10113SOL    HW231239   0.053   5.861   6.059
10114SOL     OW31240   5.251   3.806   1.649
10114SOL    HW131241   5.333   3.755   1.624
10114SOL    HW231242   5.257   3.898   1.612
10115SOL     OW31243   3.401   1.969   6.401
10115SOL    HW131244   3.373   1.882   6.442
10115SOL    HW231245   3.320   2.025   6.383
10116SOL     OW31246   0.348   6.989   6.686
10116SOL    HW131247   0.407   6.910   6.705
10116SOL    HW231248   0.284   6.965   6.613
10117SOL     OW31249   0.167   4.419   1.320
10117SOL    HW131250   0.116   4.357   1.379
10117SOL    HW231251   0.265   4.398   1.326
10118SOL     OW31252   4.119   5.028   3.477
10118SOL    HW131253   4.050   5.083   3.525
10118SOL    HW231254   4.093   4.931   3.479
10119SOL     OW31255   6.017   6.135   6.803
10119SOL    HW131256   6.077   6.196   6.855
10119SOL    HW231257   6.036   6.040   6.828
10120SOL     OW31258   2.537   2.258   3.147
10120SOL    HW131259   2.516   2.202   3.228
10120SOL    HW231260   2.632   2.245   3.121
10121SOL     OW31261   6.232   5.585   1.655
10121SOL    HW131262   6.243   5.660   1.589
10121SOL    HW231263   6.317   5.532   1.659
10122SOL     OW31264   1.947   0.447   3.495
10122SOL    HW131265   1.989   0.464   3.584
10122SOL    HW231266   1.863   0.394   3.508
10123SOL     OW31267   6.206   6.140   6.582
10123SOL    HW131268   6.295   6.129   6.626
10123SOL    HW231269   6.133   6.126   6.649
10124SOL     OW31270   1.579   4.567   3.035
10124SOL    HW131271   1.609   4.661   3.046
10124SOL    HW231272   1.619   4.511   3.108
10125SOL     OW31273   2.101   1.550   4.624
10125SOL    HW131274   2.052   1.633   4.595
10125SOL    HW231275   2.065   1.519   4.712
10126SOL     OW31276   6.637   6.191   4.297
10126SOL    HW131277   6.625   6.285   4.265
10126SOL    HW231278   6.731   6.161   4.277
10127SOL     OW31279   2.428   0.863   4.939
10127SOL    HW131280   2.363   0.930   4.903
10127SOL    HW231281   2.385   0.773   4.942
10128SOL     OW31282   2.939   1.818   0.669
10128SOL    HW131283   2.925   1.750   0.598
10128SOL    HW231284   2.853   1.863   0.691
10129SOL     OW31285   6.484   1.933   5.093
10129SOL    HW131286   6.516   2.027   5.100
10129SOL    HW231287   6.545   1.881   5.032
10130SOL     OW31288   1.657   2.247   3.347
10130SOL    HW131289   1.671   2.344   3.329
10130SOL    HW231290   1.738   2.196   3.316
10131SOL     OW31291   1.988   0.648   5.249
10131SOL    HW131292   2.076   0.694   5.264
10131SOL    HW231293   1.914   0.714   5.262
10132SOL     OW31294   6.157   0.579   2.626
10132SOL    HW131295   6.163   0.628   2.714
10132SOL    HW231296   6.063   0.583   2.593
10133SOL     OW31297   4.728   5.271   1.050
10133SOL    HW131298   4.728   5.177   1.083
10133SOL    HW231299   4.660   5.324   1.100
10134SOL     OW31300   6.890   6.572   3.292
10134SOL    HW131301   6.837   6.543   3.212
10134SOL    HW231302   6.829   6.583   3.371
10135SOL     OW31303   6.183   6.944   3.566
10135SOL    HW131304   6.109   6.996   3.523
10135SOL    HW231305   6.155   6.914   3.657
10136SOL     OW31306   4.912   0.887   3.207
10136SOL    HW131307   5.012   0.882   3.203
10136SOL    HW231308   4.876   0.905   3.116
10137SOL     OW31309   6.701   5.755   3.025
10137SOL    HW131310   6.613   5.779   3.067
10137SOL    HW231311   6.688   5.739   2.927
10138SOL     OW31312   0.286   1.642   2.073
10138SOL    HW131313   0.245   1.668   2.160
10138SOL    HW231314   0.226   1.671   1.998
10139SOL     OW31315   3.268   2.819   0.501
10139SOL    HW131316   3.232   2.726   0.505
10139SOL    HW231317   3.342   2.829   0.567
10140SOL     OW31318   6.125   6.490   4.203
10140SOL    HW131319   6.144   6.392   4.206
10140SOL    HW231320   6.080   6.518   4.288
10141SOL     OW31321   0.927   1.946   4.553
10141SOL    HW131322   1.026   1.953   4.564
10141SOL    HW231323   0.906   1.917   4.460
10142SOL     OW31324   4.040   5.881   1.817
10142SOL    HW131325   3.966   5.858   1.880
10142SOL    HW231326   4.034   5.822   1.736
10143SOL     OW31327   6.233   3.455   6.707
10143SOL    HW131328   6.163   3.387   6.684
10143SOL    HW231329   6.314   3.408   6.742
10144SOL     OW31330   4.086   0.852   1.214
10144SOL    HW131331   4.180   0.826   1.235
10144SOL    HW231332   4.026   0.774   1.232
10145SOL     OW31333   6.566   0.294   4.995
10145SOL    HW131334   6.474   0.292   4.957
10145SOL    HW231335   6.623   0.356   4.941
10146SOL     OW31336   1.521   2.199   5.428
10146SOL    HW131337   1.595   2.135   5.408
10146SOL    HW231338   1.514   2.212   5.527
10147SOL     OW31339   3.684   5.066   0.584
10147SOL    HW131340   3.718   5.043   0.675
10147SOL    HW231341   3.715   5.158   0.559
10148SOL     OW31342   0.408   5.302   6.493
10148SOL    HW131343   0.458   5.388   6.495
10148SOL    HW231344   0.354   5.296   6.409
10149SOL     OW31345   3.136   3.028   3.774
10149SOL    HW131346   3.047   3.040   3.819
10149SOL    HW231347   3.137   3.082   3.690
10150SOL     OW31348   5.419   4.222   0.837
10150SOL    HW131349   5.347   4.246   0.772
10150SOL    HW231350   5.416   4.285   0.915
10151SOL     OW31351   0.400   0.863   0.315
10151SOL    HW131352   0.473   0.814   0.269
10151SOL    HW231353   0.327   0.884   0.249
10152SOL     OW31354   3.500   6.150   3.761
10152SOL    HW131355   3.555   6.128   3.680
10152SOL    HW231356   3.430   6.217   3.737
10153SOL     OW31357   4.839   3.756   1.573
10153SOL    HW131358   4.821   3.845   1.529
10153SOL    HW231359   4.936   3.734   1.565
10154SOL     OW31360   4.526   5.210   5.460
10154SOL    HW131361   4.570   5.259   5.536
10154SOL    HW231362   4.428   5.233   5.458
10155SOL     OW31363   4.408   2.433   4.536
10155SOL    HW131364   4.362   2.387   4.611
10155SOL    HW231365   4.490   2.480   4.571
10156SOL     OW31366   3.282   1.775   6.557
10156SOL    HW131367   3.273   1.768   6.657
10156SOL    HW231368   3.191   1.765   6.516
10157SOL     OW31369   0.944   4.880   0.935
10157SOL    HW131370   0.969   4.878   0.838
10157SOL    HW231371   1.002   4.946   0.983
10158SOL     OW31372   5.915   4.738   6.626
10158SOL    HW131373   6.001   4.785   6.647
10158SOL    HW231374   5.930   4.640   6.625
10159SOL     OW31375   3.733   2.743   1.463
10159SOL    HW131376   3.674   2.808   1.415
10159SOL    HW231377   3.680   2.665   1.494
10160SOL     OW31378   6.872   4.089   2.337
10160SOL    HW131379   6.845   3.997   2.365
10160SOL    HW231380   6.972   4.095   2.337
10161SOL     OW31381   6.133   2.646   0.124
10161SOL    HW131382   6.168   2.657   0.031
10161SOL    HW231383   6.206   2.614   0.184
10162SOL     OW31384   2.344   2.777   2.405
10162SOL    HW131385   2.376   2.683   2.391
10162SOL    HW231386   2.331   2.793   2.503
10163SOL     OW31387   3.513   5.301   5.266
10163SOL    HW131388   3.430   5.277   5.317
10163SOL    HW231389   3.577   5.224   5.270
10164SOL     OW31390   6.929   0.427   4.228
10164SOL    HW131391   6.948   0.479   4.311
10164SOL    HW231392   6.845   0.374   4.241
10165SOL     OW31393   2.147   3.357   3.736
10165SOL    HW131394   2.174   3.361   3.639
10165SOL    HW231395   2.068   3.297   3.745
10166SOL     OW31396   3.120   6.282   2.873
10166SOL    HW131397   3.027   6.259   2.902
10166SOL    HW231398   3.116   6.346   2.796
10167SOL     OW31399   3.737   1.639   6.892
10167SOL    HW131400   3.716   1.574   6.819
10167SOL    HW231401   3.825   1.616   6.933
10168SOL     OW31402   0.946   1.203   6.509
10168SOL    HW131403   0.882   1.259   6.561
10168SOL    HW231404   1.029   1.188   6.563
10169SOL     OW31405   4.577   4.950   2.427
10169SOL    HW131406   4.527   4.879   2.378
10169SOL    HW231407   4.583   4.926   2.524
10170SOL     OW31408   4.763   6.246   0.515
10170SOL    HW131409   4.801   6.158   0.489
10170SOL    HW231410   4.720   6.289   0.436
10171SOL     OW31411   1.392   3.880   3.420
10171SOL    HW131412   1.441   3.907   3.503
10171SOL    HW231413   1.417   3.940   3.345
10172SOL     OW31414   0.759   1.348   3.110
10172SOL    HW131415   0.756   1.436   3.158
10172SOL    HW231416   0.843   1.300   3.136
10173SOL     OW31417   4.508   2.921   5.288
10173SOL    HW131418   4.500   2.915   5.387
10173SOL    HW231419   4.510   3.017   5.260
10174SOL     OW31420   5.012   4.887   1.421
10174SOL    HW131421   5.040   4.906   1.327
10174SOL    HW231422   4.933   4.825   1.420
10175SOL     OW31423   6.733   6.923   3.567
10175SOL    HW131424   6.784   6.902   3.651
10175SOL    HW231425   6.639   6.893   3.576
10176SOL     OW31426   0.107   1.192   5.131
10176SOL    HW131427   0.045   1.117   5.108
10176SOL    HW231428   0.133   1.186   5.227
10177SOL     OW31429   3.268   1.022   4.506
10177SOL    HW131430   3.317   1.099   4.464
10177SOL    HW231431   3.235   0.961   4.434
10178SOL     OW31432   6.567   1.624   2.321
10178SOL    HW131433   6.507   1.679   2.379
10178SOL    HW231434   6.662   1.638   2.349
10179SOL     OW31435   0.303   5.979   0.757
10179SOL    HW131436   0.263   6.005   0.845
10179SOL    HW231437   0.276   5.885   0.734
10180SOL     OW31438   2.803   0.259   6.246
10180SOL    HW131439   2.784   0.357   6.255
10180SOL    HW231440   2.860   0.243   6.165
10181SOL     OW31441   6.577   3.994   2.198
10181SOL    HW131442   6.594   4.040   2.285
10181SOL    HW231443   6.658   3.940   2.173
10182SOL     OW31444   3.703   6.973   6.843
10182SOL    HW131445   3.669   6.918   6.767
10182SOL    HW231446   3.783   6.928   6.883
10183SOL     OW31447   3.911   6.257   6.133
10183SOL    HW131448   3.950   6.252   6.041
10183SOL    HW231449   3.942   6.178   6.186
10184SOL     OW31450   5.259   2.392   4.810
10184SOL    HW131451   5.354   2.364   4.799
10184SOL    HW231452   5.255   2.486   4.841
10185SOL     OW31453   2.992   4.801   2.089
10185SOL    HW131454   2.918   4.743   2.056
10185SOL    HW231455   3.075   4.781   2.036
10186SOL     OW31456   3.603   3.001   1.123
10186SOL    HW131457   3.552   2.948   1.055
10186SOL    HW231458   3.572   2.975   1.215
10187SOL     OW31459   1.887   3.881   5.704
10187SOL    HW131460   1.933   3.916   5.622
10187SOL    HW231461   1.793   3.856   5.681
10188SOL     OW31462   2.162   0.363   6.773
10188SOL    HW131463   2.098   0.376   6.697
10188SOL    HW231464   2.136   0.282   6.826
10189SOL     OW31465   2.044   2.205   5.444
10189SOL    HW131466   2.083   2.229   5.533
10189SOL    HW231467   1.975   2.273   5.419
10190SOL     OW31468   3.621   4.121   0.357
10190SOL    HW131469   3.580   4.065   0.429
10190SOL    HW231470   3.666   4.061   0.291
10191SOL     OW31471   5.903   0.651   0.176
10191SOL    HW131472   5.972   0.616   0.239
10191SOL    HW231473   5.892   0.749   0.190
10192SOL     OW31474   2.598   0.176   4.151
10192SOL    HW131475   2.562   0.192   4.242
10192SOL    HW231476   2.528   0.133   4.094
10193SOL     OW31477   3.907   3.903   3.671
10193SOL    HW131478   3.947   3.879   3.582
10193SOL    HW231479   3.907   3.822   3.730
10194SOL     OW31480   2.940   5.773   3.561
10194SOL    HW131481   2.903   5.685   3.533
10194SOL    HW231482   2.878   5.846   3.533
10195SOL     OW31483   5.093   0.425   3.016
10195SOL    HW131484   5.093   0.483   3.098
10195SOL    HW231485   5.000   0.418   2.981
10196SOL     OW31486   4.743   4.457   3.955
10196SOL    HW131487   4.754   4.367   3.997
10196SOL    HW231488   4.802   4.523   4.001
10197SOL     OW31489   4.954   2.156   3.104
10197SOL    HW131490   5.037   2.210   3.088
10197SOL    HW231491   4.914   2.130   3.016
10198SOL     OW31492   2.946   1.786   1.940
10198SOL    HW131493   2.967   1.860   2.005
10198SOL    HW231494   2.990   1.702   1.971
10199SOL     OW31495   1.028   2.104   7.021
10199SOL    HW131496   1.053   2.191   0.038
10199SOL    HW231497   0.957   2.059   0.050
10200SOL     OW31498   5.939   0.010   3.432
10200SOL    HW131499   5.942   0.106   3.461
10200SOL    HW231500   5.865   6.988   3.480
10201SOL     OW31501   1.379   4.930   2.263
10201SOL    HW131502   1.475   4.926   2.237
10201SOL    HW231503   1.372   4.951   2.361
10202SOL     OW31504   1.189   2.418   3.352
10202SOL    HW131505   1.091   2.402   3.340
10202SOL    HW231506   1.211   2.512   3.325
10203SOL     OW31507   0.062   2.320   1.005
10203SOL    HW131508   0.022   2.346   0.918
10203SOL    HW231509   0.024   2.232   1.035
10204SOL     OW31510   2.143   6.021   4.175
10204SOL    HW131511   2.151   6.111   4.132
10204SOL    HW231512   2.140   5.951   4.105
10205SOL     OW31513   3.414   0.099   1.121
10205SOL    HW131514   3.440   0.190   1.155
10205SOL    HW231515   3.314   0.093   1.119
10206SOL     OW31516   5.791   6.379   0.053
10206SOL    HW131517   5.703   6.421   0.034
10206SOL    HW231518   5.782   6.280   0.054
10207SOL     OW31519   3.666   1.367   2.306
10207SOL    HW131520   3.614   1.451   2.320
10207SOL    HW231521   3.741   1.384   2.242
10208SOL     OW31522   6.884   2.752   6.146
10208SOL    HW131523   6.890   2.851   6.141
10208SOL    HW231524   6.825   2.725   6.222
10209SOL     OW31525   3.683   6.334   6.867
10209SOL    HW131526   3.688   6.238   6.842
10209SOL    HW231527   3.669   6.343   6.966
10210SOL     OW31528   4.882   5.877   6.212
10210SOL    HW131529   4.937   5.960   6.229
10210SOL    HW231530   4.900   5.810   6.284
10211SOL     OW31531   3.239   5.247   5.615
10211SOL    HW131532   3.271   5.342   5.617
10211SOL    HW231533   3.142   5.244   5.593
10212SOL     OW31534   6.539   6.276   5.832
10212SOL    HW131535   6.561   6.179   5.837
10212SOL    HW231536   6.566   6.312   5.742
10213SOL     OW31537   3.978   6.715   4.705
10213SOL    HW131538   4.067   6.758   4.688
10213SOL    HW231539   3.987   6.649   4.780
10214SOL     OW31540   0.424   0.647   7.020
10214SOL    HW131541   0.497   0.689   0.047
10214SOL    HW231542   0.361   0.600   0.056
10215SOL     OW31543   4.482   2.387   0.422
10215SOL    HW131544   4.388   2.418   0.405
10215SOL    HW231545   4.483   2.328   0.503
10216SOL     OW31546   4.886   0.529   2.701
10216SOL    HW131547   4.850   0.460   2.764
10216SOL    HW231548   4.864   0.503   2.607
10217SOL     OW31549   3.597   2.327   5.629
10217SOL    HW131550   3.609   2.425   5.608
10217SOL    HW231551   3.513   2.315   5.682
10218SOL     OW31552   4.033   0.817   6.598
10218SOL    HW131553   3.990   0.891   6.650
10218SOL    HW231554   4.021   0.730   6.647
10219SOL     OW31555   0.586   5.042   0.157
10219SOL    HW131556   0.627   5.007   0.073
10219SOL    HW231557   0.659   5.079   0.216
10220SOL     OW31558   4.137   2.299   6.857
10220SOL    HW131559   4.089   2.386   6.849
10220SOL    HW231560   4.074   2.228   6.889
10221SOL     OW31561   2.088   0.716   4.286
10221SOL    HW131562   2.055   0.753   4.199
10221SOL    HW231563   2.009   0.694   4.345
10222SOL     OW31564   2.190   4.556   5.288
10222SOL    HW131565   2.122   4.627   5.270
10222SOL    HW231566   2.153   4.467   5.262
10223SOL     OW31567   0.968   4.795   6.087
10223SOL    HW131568   0.898   4.787   6.015
10223SOL    HW231569   0.940   4.866   6.152
10224SOL     OW31570   2.587   6.178   5.287
10224SOL    HW131571   2.626   6.099   5.334
10224SOL    HW231572   2.543   6.149   5.202
10225SOL     OW31573   5.183   0.023   4.396
10225SOL    HW131574   5.248   6.974   4.407
10225SOL    HW231575   5.100   0.003   4.448
10226SOL     OW31576   0.007   2.504   6.088
10226SOL    HW131577   6.948   2.536   6.130
10226SOL    HW231578   0.032   2.415   6.126
10227SOL     OW31579   4.908   4.403   5.385
10227SOL    HW131580   4.919   4.370   5.479
10227SOL    HW231581   4.902   4.503   5.385
10228SOL     OW31582   0.707   3.312   1.865
10228SOL    HW131583   0.758   3.240   1.817
10228SOL    HW231584   0.661   3.272   1.945
10229SOL     OW31585   2.810   0.695   1.902
10229SOL    HW131586   2.785   0.598   1.908
10229SOL    HW231587   2.727   0.751   1.906
10230SOL     OW31588   5.475   6.508   3.720
10230SOL    HW131589   5.410   6.557   3.662
10230SOL    HW231590   5.547   6.468   3.663
10231SOL     OW31591   4.508   6.259   4.374
10231SOL    HW131592   4.453   6.251   4.291
10231SOL    HW231593   4.537   6.354   4.386
10232SOL     OW31594   4.054   2.181   3.399
10232SOL    HW131595   4.025   2.170   3.494
10232SOL    HW231596   3.973   2.185   3.340
10233SOL     OW31597   4.624   6.170   5.477
10233SOL    HW131598   4.657   6.232   5.548
10233SOL    HW231599   4.698   6.154   5.411
10234SOL     OW31600   4.141   4.943   1.235
10234SOL    HW131601   4.218   4.897   1.190
10234SOL    HW231602   4.107   5.016   1.177
10235SOL     OW31603   4.963   0.265   0.127
10235SOL    HW131604   4.940   0.342   0.068
10235SOL    HW231605   5.061   0.247   0.122
10236SOL     OW31606   1.769   5.915   1.162
10236SOL    HW131607   1.867   5.935   1.162
10236SOL    HW231608   1.753   5.825   1.121
10237SOL     OW31609   5.776   2.568   2.623
10237SOL    HW131610   5.781   2.544   2.720
10237SOL    HW231611   5.867   2.561   2.582
10238SOL     OW31612   4.909   5.455   5.971
10238SOL    HW131613   4.843   5.529   5.959
10238SOL    HW231614   4.951   5.434   5.883
10239SOL     OW31615   5.436   3.198   4.647
10239SOL    HW131616   5.490   3.277   4.617
10239SOL    HW231617   5.410   3.143   4.568
10240SOL     OW31618   4.972   3.867   3.294
10240SOL    HW131619   4.961   3.813   3.211
10240SOL    HW231620   5.049   3.931   3.282
10241SOL     OW31621   1.243   2.694   2.308
10241SOL    HW131622   1.341   2.680   2.319
10241SOL    HW231623   1.195   2.609   2.329
10242SOL     OW31624   1.360   5.366   6.539
10242SOL    HW131625   1.419   5.379   6.460
10242SOL    HW231626   1.272   5.329   6.509
10243SOL     OW31627   0.414   5.838   3.409
10243SOL    HW131628   0.399   5.798   3.499
10243SOL    HW231629   0.466   5.774   3.352
10244SOL     OW31630   2.213   6.092   6.665
10244SOL    HW131631   2.139   6.151   6.632
10244SOL    HW231632   2.294   6.106   6.608
10245SOL     OW31633   2.625   2.972   0.843
10245SOL    HW131634   2.532   2.998   0.817
10245SOL    HW231635   2.687   2.990   0.766
10246SOL     OW31636   3.048   3.961   4.552
10246SOL    HW131637   3.094   3.897   4.614
10246SOL    HW231638   2.966   3.997   4.596
10247SOL     OW31639   1.136   5.866   6.226
10247SOL    HW131640   1.115   5.945   6.283
10247SOL    HW231641   1.227   5.879   6.185
10248SOL     OW31642   6.042   0.913   3.374
10248SOL    HW131643   6.066   0.996   3.424
10248SOL    HW231644   6.123   0.855   3.364
10249SOL     OW31645   4.577   0.915   6.110
10249SOL    HW131646   4.609   0.820   6.113
10249SOL    HW231647   4.631   0.970   6.174
10250SOL     OW31648   4.441   5.566   0.807
10250SOL    HW131649   4.439   5.653   0.759
10250SOL    HW231650   4.420   5.580   0.903
10251SOL     OW31651   3.989   4.362   1.599
10251SOL    HW131652   4.006   4.387   1.503
10251SOL    HW231653   3.891   4.372   1.618
10252SOL     OW31654   0.095   3.789   0.967
10252SOL    HW131655   0.071   3.739   1.051
10252SOL    HW231656   0.191   3.772   0.945
10253SOL     OW31657   4.016   4.318   0.404
10253SOL    HW131658   4.080   4.244   0.387
10253SOL    HW231659   4.067   4.404   0.416
10254SOL     OW31660   2.566   2.022   4.793
10254SOL    HW131661   2.494   2.021   4.862
10254SOL    HW231662   2.653   2.048   4.835
10255SOL     OW31663   3.087   5.021   3.863
10255SOL    HW131664   3.117   5.010   3.768
10255SOL    HW231665   3.151   5.081   3.911
10256SOL     OW31666   5.004   6.278   0.729
10256SOL    HW131667   4.942   6.356   0.722
10256SOL    HW231668   4.963   6.207   0.786
10257SOL     OW31669   1.885   4.998   5.747
10257SOL    HW131670   1.856   4.903   5.737
10257SOL    HW231671   1.877   5.025   5.843
10258SOL     OW31672   4.477   0.824   2.834
10258SOL    HW131673   4.513   0.900   2.888
10258SOL    HW231674   4.377   0.830   2.830
10259SOL     OW31675   6.824   3.237   4.174
10259SOL    HW131676   6.915   3.278   4.175
10259SOL    HW231677   6.767   3.281   4.105
10260SOL     OW31678   0.134   5.555   1.984
10260SOL    HW131679   0.048   5.553   1.933
10260SOL    HW231680   0.117   5.524   2.078
10261SOL     OW31681   2.195   0.522   1.853
10261SOL    HW131682   2.143   0.450   1.898
10261SOL    HW231683   2.293   0.499   1.855
10262SOL     OW31684   0.634   6.143   3.906
10262SOL    HW131685   0.567   6.130   3.979
10262SOL    HW231686   0.603   6.093   3.824
10263SOL     OW31687   6.774   3.261   4.893
10263SOL    HW131688   6.700   3.296   4.950
10263SOL    HW231689   6.860   3.304   4.919
10264SOL     OW31690   0.642   0.106   0.569
10264SOL    HW131691   0.652   0.022   0.516
10264SOL    HW231692   0.545   0.129   0.577
10265SOL     OW31693   5.245   2.496   4.182
10265SOL    HW131694   5.242   2.595   4.196
10265SOL    HW231695   5.339   2.464   4.196
10266SOL     OW31696   3.565   3.513   6.821
10266SOL    HW131697   3.497   3.569   6.773
10266SOL    HW231698   3.527   3.422   6.838
10267SOL     OW31699   6.478   1.028   6.458
10267SOL    HW131700   6.471   0.931   6.438
10267SOL    HW231701   6.450   1.081   6.378
10268SOL     OW31702   6.710   3.709   0.495
10268SOL    HW131703   6.779   3.710   0.422
10268SOL    HW231704   6.628   3.756   0.464
10269SOL     OW31705   4.077   1.321   6.169
10269SOL    HW131706   4.068   1.268   6.254
10269SOL    HW231707   4.173   1.343   6.155
10270SOL     OW31708   3.531   5.624   2.551
10270SOL    HW131709   3.475   5.684   2.607
10270SOL    HW231710   3.624   5.620   2.588
10271SOL     OW31711   2.013   4.592   1.502
10271SOL    HW131712   2.024   4.684   1.466
10271SOL    HW231713   1.916   4.568   1.505
10272SOL     OW31714   1.608   1.991   4.118
10272SOL    HW131715   1.619   1.952   4.210
10272SOL    HW231716   1.673   2.065   4.106
10273SOL     OW31717   4.236   6.272   3.739
10273SOL    HW131718   4.158   6.270   3.675
10273SOL    HW231719   4.315   6.313   3.693
10274SOL     OW31720   2.535   4.399   6.456
10274SOL    HW131721   2.459   4.383   6.520
10274SOL    HW231722   2.597   4.320   6.457
10275SOL     OW31723   0.798   5.961   1.809
10275SOL    HW131724   0.776   5.919   1.897
10275SOL    HW231725   0.715   5.969   1.754
10276SOL     OW31726   1.121   6.749   0.611
10276SOL    HW131727   1.067   6.813   0.665
10276SOL    HW231728   1.061   6.679   0.572
10277SOL     OW31729   0.060   6.012   2.263
10277SOL    HW131730   0.018   6.004   2.354
10277SOL    HW231731   0.046   6.105   2.228
10278SOL     OW31732   6.391   0.950   5.575
10278SOL    HW131733   6.341   0.899   5.645
10278SOL    HW231734   6.412   0.889   5.498
10279SOL     OW31735   3.391   6.314   4.508
10279SOL    HW131736   3.375   6.273   4.418
10279SOL    HW231737   3.480   6.359   4.509
10280SOL     OW31738   2.316   2.668   7.010
10280SOL    HW131739   2.264   2.687   0.067
10280SOL    HW231740   2.399   2.618   0.008
10281SOL     OW31741   4.567   0.628   4.586
10281SOL    HW131742   4.521   0.716   4.595
10281SOL    HW231743   4.584   0.609   4.489
10282SOL     OW31744   1.341   2.897   4.012
10282SOL    HW131745   1.368   2.983   4.055
10282SOL    HW231746   1.344   2.823   4.079
10283SOL     OW31747   1.232   5.057   6.206
10283SOL    HW131748   1.157   4.999   6.174
10283SOL    HW231749   1.221   5.149   6.169
10284SOL     OW31750   5.127   3.019   6.809
10284SOL    HW131751   5.219   3.057   6.809
10284SOL    HW231752   5.060   3.093   6.801
10285SOL     OW31753   5.137   1.674   1.403
10285SOL    HW131754   5.090   1.615   1.469
10285SOL    HW231755   5.075   1.746   1.372
10286SOL     OW31756   3.889   0.121   4.227
10286SOL    HW131757   3.925   0.156   4.141
10286SOL    HW231758   3.944   0.156   4.303
10287SOL     OW31759   1.876   4.376   1.758
10287SOL    HW131760   1.945   4.326   1.707
10287SOL    HW231761   1.787   4.366   1.712
10288SOL     OW31762   3.843   5.828   4.289
10288SOL    HW131763   3.810   5.919   4.317
10288SOL    HW231764   3.928   5.807   4.336
10289SOL     OW31765   3.096   1.763   1.657
10289SOL    HW131766   3.093   1.862   1.647
10289SOL    HW231767   3.042   1.736   1.737
10290SOL     OW31768   3.253   2.994   3.338
10290SOL    HW131769   3.335   3.051   3.347
10290SOL    HW231770   3.197   3.003   3.420
10291SOL     OW31771   3.555   0.234   4.377
10291SOL    HW131772   3.529   0.214   4.472
10291SOL    HW231773   3.541   0.152   4.321
10292SOL     OW31774   6.736   2.527   4.397
10292SOL    HW131775   6.817   2.543   4.454
10292SOL    HW231776   6.715   2.610   4.345
10293SOL     OW31777   2.227   4.936   3.052
10293SOL    HW131778   2.268   4.847   3.030
10293SOL    HW231779   2.267   5.007   2.994
10294SOL     OW31780   5.899   0.830   3.148
10294SOL    HW131781   5.963   0.836   3.225
10294SOL    HW231782   5.825   0.767   3.171
10295SOL     OW31783   1.636   4.235   4.186
10295SOL    HW131784   1.577   4.227   4.266
10295SOL    HW231785   1.731   4.245   4.215
10296SOL     OW31786   6.228   3.170   1.644
10296SOL    HW131787   6.238   3.268   1.631
10296SOL    HW231788   6.141   3.150   1.688
10297SOL     OW31789   3.614   5.071   5.503
10297SOL    HW131790   3.609   5.149   5.565
10297SOL    HW231791   3.695   5.080   5.445
10298SOL     OW31792   6.258   3.139   2.885
10298SOL    HW131793   6.314   3.199   2.828
10298SOL    HW231794   6.282   3.151   2.981
10299SOL     OW31795   4.164   4.716   2.060
10299SOL    HW131796   4.217   4.631   2.069
10299SOL    HW231797   4.226   4.794   2.067
10300SOL     OW31798   0.660   5.799   2.032
10300SOL    HW131799   0.695   5.788   2.125
10300SOL    HW231800   0.561   5.811   2.035
10301SOL     OW31801   4.400   0.092   1.975
10301SOL    HW131802   4.426   0.057   2.065
10301SOL    HW231803   4.481   0.127   1.927
10302SOL     OW31804   1.432   4.016   3.706
10302SOL    HW131805   1.384   4.104   3.716
10302SOL    HW231806   1.370   3.942   3.733
10303SOL     OW31807   4.637   3.111   1.410
10303SOL    HW131808   4.612   3.019   1.383
10303SOL    HW231809   4.573   3.177   1.371
10304SOL     OW31810   5.717   6.020   3.416
10304SOL    HW131811   5.722   5.965   3.332
10304SOL    HW231812   5.730   5.960   3.495
10305SOL     OW31813   2.196   5.471   1.126
10305SOL    HW131814   2.270   5.430   1.074
10305SOL    HW231815   2.195   5.434   1.218
10306SOL     OW31816   4.261   4.349   0.120
10306SOL    HW131817   4.221   4.441   0.132
10306SOL    HW231818   4.251   4.297   0.205
10307SOL     OW31819   2.402   1.905   6.111
10307SOL    HW131820   2.435   1.981   6.167
10307SOL    HW231821   2.432   1.918   6.016
10308SOL     OW31822   2.719   5.044   4.359
10308SOL    HW131823   2.726   5.071   4.455
10308SOL    HW231824   2.737   4.946   4.351
10309SOL     OW31825   0.332   6.909   3.504
10309SOL    HW131826   0.335   6.827   3.447
10309SOL    HW231827   0.246   6.957   3.489
10310SOL     OW31828   3.286   4.135   4.545
10310SOL    HW131829   3.318   4.168   4.456
10310SOL    HW231830   3.211   4.070   4.532
10311SOL     OW31831   0.839   0.337   1.050
10311SOL    HW131832   0.798   0.313   1.137
10311SOL    HW231833   0.923   0.285   1.037
10312SOL     OW31834   2.714   4.848   0.728
10312SOL    HW131835   2.645   4.915   0.699
10312SOL    HW231836   2.753   4.805   0.647
10313SOL     OW31837   6.590   5.727   4.024
10313SOL    HW131838   6.562   5.822   4.015
10313SOL    HW231839   6.514   5.673   4.061
10314SOL     OW31840   0.056   6.011   5.335
10314SOL    HW131841   0.007   6.016   5.423
10314SOL    HW231842   0.016   6.077   5.271
10315SOL     OW31843   4.707   6.360   5.730
10315SOL    HW131844   4.800   6.396   5.726
10315SOL    HW231845   4.646   6.429   5.770
10316SOL     OW31846   0.757   4.104   3.560
10316SOL    HW131847   0.765   4.203   3.554
10316SOL    HW231848   0.734   4.078   3.654
10317SOL     OW31849   5.441   4.022   6.685
10317SOL    HW131850   5.393   4.017   6.597
10317SOL    HW231851   5.418   3.941   6.740
10318SOL     OW31852   5.421   4.898   2.980
10318SOL    HW131853   5.324   4.874   2.991
10318SOL    HW231854   5.461   4.843   2.907
10319SOL     OW31855   4.963   6.743   3.596
10319SOL    HW131856   4.996   6.749   3.501
10319SOL    HW231857   4.930   6.651   3.614
10320SOL     OW31858   4.168   6.398   1.927
10320SOL    HW131859   4.097   6.462   1.958
10320SOL    HW231860   4.185   6.411   1.830
10321SOL     OW31861   4.741   6.134   4.436
10321SOL    HW131862   4.718   6.062   4.502
10321SOL    HW231863   4.658   6.184   4.411
10322SOL     OW31864   7.019   1.631   0.244
10322SOL    HW131865   0.069   1.566   0.249
10322SOL    HW231866   0.010   1.697   0.170
10323SOL     OW31867   0.908   2.086   5.160
10323SOL    HW131868   0.871   2.179   5.146
10323SOL    HW231869   0.849   2.020   5.113
10324SOL     OW31870   3.361   2.939   4.325
10324SOL    HW131871   3.294   2.961   4.396
10324SOL    HW231872   3.331   2.976   4.237
10325SOL     OW31873   0.916   3.357   3.686
10325SOL    HW131874   0.937   3.260   3.690
10325SOL    HW231875   0.914   3.395   3.778
10326SOL     OW31876   5.784   1.904   1.628
10326SOL    HW131877   5.820   1.815   1.603
10326SOL    HW231878   5.856   1.973   1.619
10327SOL     OW31879   5.985   1.931   3.446
10327SOL    HW131880   5.991   1.937   3.546
10327SOL    HW231881   5.995   1.836   3.418
10328SOL     OW31882   6.520   3.926   2.604
10328SOL    HW131883   6.588   3.888   2.667
10328SOL    HW231884   6.562   3.998   2.550
10329SOL     OW31885   3.320   5.491   3.147
10329SOL    HW131886   3.366   5.403   3.163
10329SOL    HW231887   3.351   5.557   3.215
10330SOL     OW31888   2.843   4.105   0.883
10330SOL    HW131889   2.917   4.159   0.842
10330SOL    HW231890   2.859   4.097   0.981
10331SOL     OW31891   5.122   1.381   4.392
10331SOL    HW131892   5.078   1.342   4.311
10331SOL    HW231893   5.060   1.373   4.470
10332SOL     OW31894   1.340   2.383   6.699
10332SOL    HW131895   1.389   2.333   6.769
10332SOL    HW231896   1.294   2.319   6.638
10333SOL     OW31897   6.774   4.747   5.533
10333SOL    HW131898   6.786   4.662   5.481
10333SOL    HW231899   6.694   4.795   5.498
10334SOL     OW31900   0.456   5.114   5.457
10334SOL    HW131901   0.487   5.163   5.376
10334SOL    HW231902   0.378   5.056   5.434
10335SOL     OW31903   3.082   5.209   3.428
10335SOL    HW131904   2.989   5.196   3.463
10335SOL    HW231905   3.083   5.286   3.364
10336SOL     OW31906   4.803   6.802   2.854
10336SOL    HW131907   4.798   6.762   2.762
10336SOL    HW231908   4.755   6.890   2.853
10337SOL     OW31909   1.440   3.854   6.313
10337SOL    HW131910   1.480   3.914   6.382
10337SOL    HW231911   1.507   3.837   6.240
10338SOL     OW31912   2.696   4.677   2.742
10338SOL    HW131913   2.747   4.636   2.666
10338SOL    HW231914   2.755   4.740   2.792
10339SOL     OW31915   2.980   5.851   0.148
10339SOL    HW131916   2.994   5.778   0.214
10339SOL    HW231917   3.068   5.883   0.113
10340SOL     OW31918   1.594   6.420   0.914
10340SOL    HW131919   1.562   6.388   1.003
10340SOL    HW231920   1.562   6.357   0.843
10341SOL     OW31921   0.567   2.945   1.724
10341SOL    HW131922   0.644   2.960   1.787
10341SOL    HW231923   0.494   3.010   1.744
10342SOL     OW31924   2.903   5.446   4.213
10342SOL    HW131925   2.848   5.362   4.218
10342SOL    HW231926   2.843   5.525   4.226
10343SOL     OW31927   2.431   2.534   4.612
10343SOL    HW131928   2.495   2.494   4.678
10343SOL    HW231929   2.343   2.550   4.656
10344SOL     OW31930   4.500   3.574   1.431
10344SOL    HW131931   4.504   3.662   1.479
10344SOL    HW231932   4.550   3.505   1.482
10345SOL     OW31933   3.714   1.471   6.643
10345SOL    HW131934   3.676   1.541   6.583
10345SOL    HW231935   3.783   1.419   6.593
10346SOL     OW31936   6.216   5.496   0.613
10346SOL    HW131937   6.209   5.591   0.581
10346SOL    HW231938   6.136   5.445   0.582
10347SOL     OW31939   4.473   6.815   1.991
10347SOL    HW131940   4.491   6.859   2.078
10347SOL    HW231941   4.503   6.874   1.916
10348SOL     OW31942   6.773   4.277   5.820
10348SOL    HW131943   6.867   4.245   5.809
10348SOL    HW231944   6.711   4.198   5.813
10349SOL     OW31945   6.243   1.959   0.153
10349SOL    HW131946   6.248   1.902   0.235
10349SOL    HW231947   6.240   1.900   0.072
10350SOL     OW31948   1.879   4.767   4.138
10350SOL    HW131949   1.790   4.749   4.096
10350SOL    HW231950   1.936   4.819   4.075
10351SOL     OW31951   3.690   5.193   4.970
10351SOL    HW131952   3.606   5.199   4.917
10351SOL    HW231953   3.733   5.105   4.955
10352SOL     OW31954   0.104   0.992   1.184
10352SOL    HW131955   0.136   1.076   1.140
10352SOL    HW231956   0.160   0.915   1.154
10353SOL     OW31957   6.028   3.175   3.648
10353SOL    HW131958   6.001   3.079   3.645
10353SOL    HW231959   5.948   3.233   3.637
10354SOL     OW31960   6.991   3.130   1.393
10354SOL    HW131961   6.999   3.030   1.386
10354SOL    HW231962   0.035   3.173   1.335
10355SOL     OW31963   0.527   2.099   0.740
10355SOL    HW131964   0.579   2.184   0.745
10355SOL    HW231965   0.589   2.021   0.743
10356SOL     OW31966   5.996   2.222   6.827
10356SOL    HW131967   6.093   2.214   6.853
10356SOL    HW231968   5.941   2.167   6.890
10357SOL     OW31969   0.586   0.540   6.395
10357SOL    HW131970   0.531   0.474   6.344
10357SOL    HW231971   0.621   0.496   6.478
10358SOL     OW31972   0.773   2.821   3.953
10358SOL    HW131973   0.807   2.873   4.031
10358SOL    HW231974   0.851   2.787   3.899
10359SOL     OW31975   0.490   2.647   2.445
10359SOL    HW131976   0.589   2.657   2.459
10359SOL    HW231977   0.472   2.638   2.347
10360SOL     OW31978   5.797   4.304   0.977
10360SOL    HW131979   5.748   4.219   0.995
10360SOL    HW231980   5.864   4.290   0.904
10361SOL     OW31981   5.634   1.860   2.588
10361SOL    HW131982   5.595   1.892   2.674
10361SOL    HW231983   5.664   1.765   2.598
10362SOL     OW31984   0.547   6.167   1.496
10362SOL    HW131985   0.586   6.258   1.483
10362SOL    HW231986   0.576   6.107   1.422
10363SOL     OW31987   5.831   4.810   5.996
10363SOL    HW131988   5.862   4.718   5.974
10363SOL    HW231989   5.799   4.855   5.913
10364SOL     OW31990   5.914   4.850   1.858
10364SOL    HW131991   5.857   4.879   1.781
10364SOL    HW231992   5.961   4.930   1.896
10365SOL     OW31993   6.305   5.776   6.808
10365SOL    HW131994   6.316   5.690   6.857
10365SOL    HW231995   6.293   5.851   6.873
10366SOL     OW31996   3.057   0.188   3.535
10366SOL    HW131997   3.018   0.148   3.452
10366SOL    HW231998   2.993   0.175   3.611
10367SOL     OW31999   5.668   6.253   1.934
10367SOL    HW132000   5.667   6.248   1.834
10367SOL    HW232001   5.589   6.205   1.971
10368SOL     OW32002   1.066   6.011   1.697
10368SOL    HW132003   0.967   6.018   1.708
10368SOL    HW232004   1.106   5.969   1.779
10369SOL     OW32005   2.405   0.853   5.596
10369SOL    HW132006   2.352   0.872   5.679
10369SOL    HW232007   2.478   0.789   5.617
10370SOL     OW32008   1.528   2.214   5.934
10370SOL    HW132009   1.561   2.130   5.977
10370SOL    HW232010   1.432   2.229   5.958
10371SOL     OW32011   3.608   5.516   3.271
10371SOL    HW132012   3.654   5.429   3.253
10371SOL    HW232013   3.558   5.510   3.357
10372SOL     OW32014   1.800   6.280   0.527
10372SOL    HW132015   1.880   6.245   0.574
10372SOL    HW232016   1.796   6.379   0.534
10373SOL     OW32017   6.520   0.662   6.753
10373SOL    HW132018   6.617   0.657   6.729
10373SOL    HW232019   6.493   0.758   6.760
10374SOL     OW32020   2.781   4.779   3.377
10374SOL    HW132021   2.724   4.861   3.381
10374SOL    HW232022   2.735   4.705   3.426
10375SOL     OW32023   2.500   5.837   6.770
10375SOL    HW132024   2.526   5.755   6.821
10375SOL    HW232025   2.478   5.812   6.675
10376SOL     OW32026   2.301   4.770   4.105
10376SOL    HW132027   2.267   4.698   4.166
10376SOL    HW232028   2.237   4.847   4.106
10377SOL     OW32029   2.476   0.742   3.629
10377SOL    HW132030   2.486   0.661   3.571
10377SOL    HW232031   2.428   0.718   3.713
10378SOL     OW32032   0.677   6.745   5.535
10378SOL    HW132033   0.678   6.762   5.436
10378SOL    HW232034   0.683   6.831   5.584
10379SOL     OW32035   1.042   6.075   3.760
10379SOL    HW132036   1.140   6.075   3.782
10379SOL    HW232037   1.011   6.169   3.747
10380SOL     OW32038   2.998   1.195   3.920
10380SOL    HW132039   2.941   1.276   3.909
10380SOL    HW232040   3.009   1.149   3.832
10381SOL     OW32041   3.605   0.346   2.480
10381SOL    HW132042   3.571   0.382   2.393
10381SOL    HW232043   3.533   0.354   2.549
10382SOL     OW32044   4.018   5.639   2.096
10382SOL    HW132045   4.007   5.544   2.065
10382SOL    HW232046   3.928   5.681   2.104
10383SOL     OW32047   0.562   6.748   0.001
10383SOL    HW132048   0.659   6.755   0.025
10383SOL    HW232049   0.506   6.772   0.080
10384SOL     OW32050   5.059   5.212   0.813
10384SOL    HW132051   5.018   5.125   0.837
10384SOL    HW232052   5.072   5.267   0.895
10385SOL     OW32053   4.106   4.568   0.154
10385SOL    HW132054   4.126   4.623   0.073
10385SOL    HW232055   4.024   4.513   0.137
10386SOL     OW32056   0.258   0.526   2.087
10386SOL    HW132057   0.231   0.531   1.991
10386SOL    HW232058   0.339   0.470   2.097
10387SOL     OW32059   5.298   2.369   1.912
10387SOL    HW132060   5.356   2.451   1.920
10387SOL    HW232061   5.348   2.298   1.862
10388SOL     OW32062   1.631   0.559   4.812
10388SOL    HW132063   1.701   0.519   4.871
10388SOL    HW232064   1.600   0.491   4.746
10389SOL     OW32065   0.121   3.763   0.131
10389SOL    HW132066   0.177   3.843   0.153
10389SOL    HW232067   0.026   3.791   0.120
10390SOL     OW32068   2.181   1.886   1.849
10390SOL    HW132069   2.141   1.795   1.852
10390SOL    HW232070   2.266   1.885   1.797
10391SOL     OW32071   6.432   0.087   3.402
10391SOL    HW132072   6.397   0.003   3.362
10391SOL    HW232073   6.365   0.124   3.467
10392SOL     OW32074   6.733   3.558   4.185
10392SOL    HW132075   6.714   3.468   4.223
10392SOL    HW232076   6.647   3.606   4.169
10393SOL     OW32077   2.095   2.669   2.110
10393SOL    HW132078   2.060   2.598   2.172
10393SOL    HW232079   2.123   2.749   2.163
10394SOL     OW32080   3.264   6.245   3.620
10394SOL    HW132081   3.186   6.188   3.647
10394SOL    HW232082   3.307   6.205   3.538
10395SOL     OW32083   0.928   0.768   1.226
10395SOL    HW132084   1.024   0.763   1.252
10395SOL    HW232085   0.903   0.862   1.206
10396SOL     OW32086   3.342   2.161   5.286
10396SOL    HW132087   3.279   2.232   5.257
10396SOL    HW232088   3.389   2.123   5.207
10397SOL     OW32089   5.073   1.551   3.811
10397SOL    HW132090   5.066   1.465   3.862
10397SOL    HW232091   5.002   1.554   3.741
10398SOL     OW32092   5.506   2.212   2.398
10398SOL    HW132093   5.501   2.308   2.425
10398SOL    HW232094   5.462   2.201   2.308
10399SOL     OW32095   0.432   3.810   2.231
10399SOL    HW132096   0.378   3.729   2.255
10399SOL    HW232097   0.396   3.850   2.146
10400SOL     OW32098   1.870   6.397   0.854
10400SOL    HW132099   1.917   6.471   0.807
10400SOL    HW232100   1.780   6.428   0.884
10401SOL     OW32101   6.975   0.277   5.889
10401SOL    HW132102   6.978   0.321   5.799
10401SOL    HW232103   6.918   0.330   5.950
10402SOL     OW32104   6.716   4.352   4.768
10402SOL    HW132105   6.750   4.371   4.676
10402SOL    HW232106   6.691   4.438   4.812
10403SOL     OW32107   3.117   0.051   1.123
10403SOL    HW132108   3.089   0.105   1.202
10403SOL    HW232109   3.074   0.089   1.040
10404SOL     OW32110   0.175   6.224   5.662
10404SOL    HW132111   0.180   6.316   5.701
10404SOL    HW232112   0.267   6.185   5.658
10405SOL     OW32113   0.167   2.281   6.692
10405SOL    HW132114   0.149   2.260   6.788
10405SOL    HW232115   0.086   2.260   6.637
10406SOL     OW32116   1.733   5.671   1.003
10406SOL    HW132117   1.660   5.610   0.972
10406SOL    HW232118   1.821   5.627   0.988
10407SOL     OW32119   2.024   6.541   6.068
10407SOL    HW132120   1.924   6.549   6.068
10407SOL    HW232121   2.062   6.594   5.992
10408SOL     OW32122   4.916   0.683   0.227
10408SOL    HW132123   4.861   0.628   0.165
10408SOL    HW232124   4.909   0.646   0.320
10409SOL     OW32125   5.927   3.979   0.795
10409SOL    HW132126   5.930   3.968   0.894
10409SOL    HW232127   6.020   3.975   0.758
10410SOL     OW32128   4.294   6.961   0.604
10410SOL    HW132129   4.339   7.009   0.679
10410SOL    HW232130   4.286   7.022   0.525
10411SOL     OW32131   2.048   5.047   4.522
10411SOL    HW132132   1.966   5.095   4.494
10411SOL    HW232133   2.044   4.952   4.490
10412SOL     OW32134   5.144   6.827   1.619
10412SOL    HW132135   5.099   6.742   1.646
10412SOL    HW232136   5.135   6.895   1.692
10413SOL     OW32137   6.055   3.266   2.764
10413SOL    HW132138   5.969   3.231   2.802
10413SOL    HW232139   6.132   3.217   2.806
10414SOL     OW32140   5.240   3.020   4.759
10414SOL    HW132141   5.192   2.989   4.841
10414SOL    HW232142   5.278   3.111   4.775
10415SOL     OW32143   0.940   0.813   6.604
10415SOL    HW132144   0.931   0.726   6.652
10415SOL    HW232145   0.884   0.882   6.649
10416SOL     OW32146   5.228   2.956   3.727
10416SOL    HW132147   5.325   2.967   3.749
10416SOL    HW232148   5.174   3.024   3.779
10417SOL     OW32149   1.700   3.998   3.119
10417SOL    HW132150   1.775   4.061   3.099
10417SOL    HW232151   1.670   3.953   3.035
10418SOL     OW32152   1.611   5.651   5.824
10418SOL    HW132153   1.659   5.567   5.798
10418SOL    HW232154   1.669   5.704   5.886
10419SOL     OW32155   1.092   0.861   0.161
10419SOL    HW132156   1.086   0.833   0.257
10419SOL    HW232157   1.138   0.949   0.155
10420SOL     OW32158   0.158   2.554   2.666
10420SOL    HW132159   0.118   2.565   2.575
10420SOL    HW232160   0.132   2.464   2.703
10421SOL     OW32161   0.338   1.907   2.973
10421SOL    HW132162   0.317   1.977   2.905
10421SOL    HW232163   0.344   1.818   2.929
10422SOL     OW32164   5.320   3.557   6.211
10422SOL    HW132165   5.341   3.480   6.151
10422SOL    HW232166   5.357   3.641   6.171
10423SOL     OW32167   4.795   4.636   2.714
10423SOL    HW132168   4.799   4.594   2.623
10423SOL    HW232169   4.705   4.676   2.729
10424SOL     OW32170   4.914   1.518   6.537
10424SOL    HW132171   4.967   1.537   6.455
10424SOL    HW232172   4.867   1.430   6.526
10425SOL     OW32173   1.871   0.070   1.795
10425SOL    HW132174   1.913   0.007   1.731
10425SOL    HW232175   1.852   0.023   1.881
10426SOL     OW32176   6.048   4.090   0.524
10426SOL    HW132177   6.100   4.024   0.578
10426SOL    HW232178   6.008   4.044   0.444
10427SOL     OW32179   4.774   0.725   0.952
10427SOL    HW132180   4.676   0.739   0.939
10427SOL    HW232181   4.807   0.657   0.887
10428SOL     OW32182   4.529   1.068   3.608
10428SOL    HW132183   4.485   1.006   3.672
10428SOL    HW232184   4.595   1.125   3.657
10429SOL     OW32185   5.873   5.417   1.899
10429SOL    HW132186   5.848   5.462   1.985
10429SOL    HW232187   5.791   5.395   1.847
10430SOL     OW32188   4.163   6.041   3.196
10430SOL    HW132189   4.190   5.945   3.184
10430SOL    HW232190   4.149   6.083   3.107
10431SOL     OW32191   2.521   1.549   5.165
10431SOL    HW132192   2.431   1.550   5.122
10431SOL    HW232193   2.516   1.596   5.253
10432SOL     OW32194   4.500   0.906   4.980
10432SOL    HW132195   4.427   0.890   5.045
10432SOL    HW232196   4.578   0.949   5.026
10433SOL     OW32197   3.012   6.867   0.727
10433SOL    HW132198   3.110   6.885   0.724
10433SOL    HW232199   2.992   6.803   0.801
10434SOL     OW32200   2.789   2.127   4.865
10434SOL    HW132201   2.839   2.056   4.817
10434SOL    HW232202   2.848   2.169   4.934
10435SOL     OW32203   5.495   5.303   6.580
10435SOL    HW132204   5.482   5.249   6.497
10435SOL    HW232205   5.536   5.391   6.555
10436SOL     OW32206   0.963   0.634   2.231
10436SOL    HW132207   0.914   0.549   2.252
10436SOL    HW232208   0.957   0.653   2.133
10437SOL     OW32209   0.289   3.993   6.066
10437SOL    HW132210   0.371   4.012   6.120
10437SOL    HW232211   0.266   4.074   6.011
10438SOL     OW32212   3.581   6.953   5.616
10438SOL    HW132213   3.546   6.927   5.526
10438SOL    HW232214   3.624   6.874   5.660
10439SOL     OW32215   3.703   0.971   5.170
10439SOL    HW132216   3.697   0.946   5.074
10439SOL    HW232217   3.691   0.890   5.227
10440SOL     OW32218   1.482   5.834   0.617
10440SOL    HW132219   1.519   5.854   0.708
10440SOL    HW232220   1.556   5.808   0.555
10441SOL     OW32221   4.024   6.928   0.635
10441SOL    HW132222   4.116   6.932   0.595
10441SOL    HW232223   4.027   6.876   0.721
10442SOL     OW32224   4.506   5.948   5.117
10442SOL    HW132225   4.582   5.960   5.055
10442SOL    HW232226   4.528   5.876   5.183
10443SOL     OW32227   6.098   2.506   4.549
10443SOL    HW132228   6.193   2.535   4.552
10443SOL    HW232229   6.071   2.487   4.454
10444SOL     OW32230   3.423   4.907   4.877
10444SOL    HW132231   3.327   4.878   4.883
10444SOL    HW232232   3.468   4.890   4.964
10445SOL     OW32233   6.286   5.995   2.511
10445SOL    HW132234   6.211   6.055   2.538
10445SOL    HW232235   6.271   5.904   2.549
10446SOL     OW32236   0.809   6.302   6.761
10446SOL    HW132237   0.816   6.208   6.729
10446SOL    HW232238   0.714   6.322   6.786
10447SOL     OW32239   5.686   1.559   0.380
10447SOL    HW132240   5.594   1.569   0.420
10447SOL    HW232241   5.734   1.646   0.387
10448SOL     OW32242   3.416   3.716   2.236
10448SOL    HW132243   3.511   3.687   2.248
10448SOL    HW232244   3.409   3.815   2.249
10449SOL     OW32245   1.586   5.372   4.931
10449SOL    HW132246   1.554   5.392   4.839
10449SOL    HW232247   1.660   5.435   4.955
10450SOL     OW32248   6.977   3.399   0.964
10450SOL    HW132249   6.918   3.461   1.016
10450SOL    HW232250   6.961   3.305   0.995
10451SOL     OW32251   2.448   4.430   2.281
10451SOL    HW132252   2.472   4.383   2.196
10451SOL    HW232253   2.477   4.525   2.276
10452SOL     OW32254   1.451   2.895   5.399
10452SOL    HW132255   1.443   2.916   5.496
10452SOL    HW232256   1.523   2.952   5.359
10453SOL     OW32257   5.033   0.608   1.436
10453SOL    HW132258   5.024   0.601   1.536
10453SOL    HW232259   4.958   0.558   1.392
10454SOL     OW32260   5.188   3.282   1.860
10454SOL    HW132261   5.250   3.318   1.929
10454SOL    HW232262   5.094   3.295   1.889
10455SOL     OW32263   0.860   4.616   2.729
10455SOL    HW132264   0.862   4.662   2.818
10455SOL    HW232265   0.772   4.571   2.717
10456SOL     OW32266   3.471   6.264   1.519
10456SOL    HW132267   3.524   6.198   1.465
10456SOL    HW232268   3.435   6.220   1.601
10457SOL     OW32269   3.833   3.478   3.658
10457SOL    HW132270   3.933   3.475   3.656
10457SOL    HW232271   3.796   3.424   3.583
10458SOL     OW32272   6.957   6.409   1.683
10458SOL    HW132273   0.022   6.451   1.676
10458SOL    HW232274   6.964   6.322   1.733
10459SOL     OW32275   0.008   4.795   2.122
10459SOL    HW132276   6.957   4.734   2.141
10459SOL    HW232277   0.016   4.810   2.024
10460SOL     OW32278   1.521   4.435   1.656
10460SOL    HW132279   1.553   4.452   1.563
10460SOL    HW232280   1.542   4.341   1.682
10461SOL     OW32281   3.299   0.867   6.515
10461SOL    HW132282   3.225   0.807   6.547
10461SOL    HW232283   3.265   0.924   6.441
10462SOL     OW32284   5.368   6.726   1.218
10462SOL    HW132285   5.332   6.819   1.217
10462SOL    HW232286   5.434   6.715   1.144
10463SOL     OW32287   3.041   3.616   1.165
10463SOL    HW132288   3.069   3.657   1.252
10463SOL    HW232289   3.122   3.582   1.117
10464SOL     OW32290   5.580   6.595   1.611
10464SOL    HW132291   5.603   6.678   1.662
10464SOL    HW232292   5.544   6.621   1.521
10465SOL     OW32293   0.139   5.268   4.856
10465SOL    HW132294   0.078   5.189   4.853
10465SOL    HW232295   0.231   5.240   4.827
10466SOL     OW32296   5.320   6.481   5.330
10466SOL    HW132297   5.363   6.406   5.279
10466SOL    HW232298   5.247   6.521   5.275
10467SOL     OW32299   4.787   1.246   4.031
10467SOL    HW132300   4.844   1.247   3.949
10467SOL    HW232301   4.691   1.235   4.004
10468SOL     OW32302   2.820   5.182   3.515
10468SOL    HW132303   2.748   5.137   3.462
10468SOL    HW232304   2.779   5.248   3.578
10469SOL     OW32305   1.020   4.920   6.870
10469SOL    HW132306   1.000   4.987   6.797
10469SOL    HW232307   1.043   4.832   6.829
10470SOL     OW32308   2.865   1.944   4.705
10470SOL    HW132309   2.853   1.944   4.606
10470SOL    HW232310   2.953   1.903   4.728
10471SOL     OW32311   4.190   4.137   0.316
10471SOL    HW132312   4.178   4.067   0.386
10471SOL    HW232313   4.254   4.103   0.246
10472SOL     OW32314   4.188   1.433   3.599
10472SOL    HW132315   4.096   1.471   3.590
10472SOL    HW232316   4.195   1.348   3.548
10473SOL     OW32317   4.563   5.196   0.012
10473SOL    HW132318   4.553   5.116   0.071
10473SOL    HW232319   4.591   5.275   0.067
10474SOL     OW32320   5.061   1.209   3.289
10474SOL    HW132321   5.145   1.167   3.326
10474SOL    HW232322   5.047   1.298   3.331
10475SOL     OW32323   4.698   6.264   1.714
10475SOL    HW132324   4.629   6.337   1.710
10475SOL    HW232325   4.760   6.273   1.636
10476SOL     OW32326   0.463   5.049   6.626
10476SOL    HW132327   0.424   5.132   6.587
10476SOL    HW232328   0.412   5.024   6.708
10477SOL     OW32329   4.578   4.618   5.035
10477SOL    HW132330   4.587   4.638   4.938
10477SOL    HW232331   4.482   4.599   5.056
10478SOL     OW32332   0.227   6.407   3.018
10478SOL    HW132333   0.291   6.466   2.969
10478SOL    HW232334   0.272   6.366   3.097
10479SOL     OW32335   0.773   4.263   2.004
10479SOL    HW132336   0.686   4.232   1.966
10479SOL    HW232337   0.779   4.362   1.997
10480SOL     OW32338   5.382   0.963   1.026
10480SOL    HW132339   5.473   0.998   1.003
10480SOL    HW232340   5.343   0.918   0.947
10481SOL     OW32341   2.652   1.216   4.554
10481SOL    HW132342   2.730   1.163   4.520
10481SOL    HW232343   2.684   1.303   4.590
10482SOL     OW32344   0.686   6.014   6.459
10482SOL    HW132345   0.732   6.011   6.370
10482SOL    HW232346   0.652   5.923   6.482
10483SOL     OW32347   6.678   5.681   0.693
10483SOL    HW132348   6.676   5.767   0.745
10483SOL    HW232349   6.645   5.606   0.751
10484SOL     OW32350   6.704   1.871   2.012
10484SOL    HW132351   6.649   1.836   2.088
10484SOL    HW232352   6.799   1.881   2.042
10485SOL     OW32353   3.365   4.073   4.262
10485SOL    HW132354   3.438   4.048   4.325
10485SOL    HW232355   3.385   4.036   4.171
10486SOL     OW32356   6.563   5.481   5.900
10486SOL    HW132357   6.479   5.429   5.891
10486SOL    HW232358   6.577   5.537   5.818
10487SOL     OW32359   5.541   3.175   2.822
10487SOL    HW132360   5.623   3.203   2.872
10487SOL    HW232361   5.469   3.243   2.835
10488SOL     OW32362   0.419   2.120   4.970
10488SOL    HW132363   0.360   2.108   5.051
10488SOL    HW232364   0.365   2.105   4.887
10489SOL     OW32365   5.855   4.550   3.374
10489SOL    HW132366   5.810   4.636   3.399
10489SOL    HW232367   5.864   4.546   3.275
10490SOL     OW32368   5.436   6.346   6.433
10490SOL    HW132369   5.336   6.345   6.446
10490SOL    HW232370   5.480   6.370   6.520
10491SOL     OW32371   1.838   2.607   5.873
10491SOL    HW132372   1.850   2.521   5.823
10491SOL    HW232373   1.901   2.675   5.837
10492SOL     OW32374   2.847   6.221   0.694
10492SOL    HW132375   2.763   6.188   0.651
10492SOL    HW232376   2.922   6.218   0.629
10493SOL     OW32377   3.843   5.795   0.877
10493SOL    HW132378   3.939   5.816   0.859
10493SOL    HW232379   3.827   5.792   0.976
10494SOL     OW32380   0.248   4.856   4.295
10494SOL    HW132381   0.166   4.912   4.283
10494SOL    HW232382   0.249   4.785   4.224
10495SOL     OW32383   6.772   6.896   0.630
10495SOL    HW132384   6.770   6.828   0.558
10495SOL    HW232385   6.737   6.856   0.715
10496SOL     OW32386   0.580   4.775   6.269
10496SOL    HW132387   0.491   4.782   6.313
10496SOL    HW232388   0.579   4.701   6.202
10497SOL     OW32389   3.425   6.333   1.155
10497SOL    HW132390   3.440   6.325   1.057
10497SOL    HW232391   3.334   6.371   1.172
10498SOL     OW32392   3.852   3.372   6.883
10498SOL    HW132393   3.774   3.401   6.828
10498SOL    HW232394   3.894   3.452   6.926
10499SOL     OW32395   4.334   4.610   2.635
10499SOL    HW132396   4.278   4.638   2.557
10499SOL    HW232397   4.288   4.636   2.720
10500SOL     OW32398   1.624   2.703   4.582
10500SOL    HW132399   1.561   2.735   4.511
10500SOL    HW232400   1.626   2.603   4.584
10501SOL     OW32401   3.760   4.861   3.429
10501SOL    HW132402   3.739   4.868   3.332
10501SOL    HW232403   3.677   4.879   3.483
10502SOL     OW32404   2.870   3.551   2.628
10502SOL    HW132405   2.879   3.471   2.687
10502SOL    HW232406   2.844   3.522   2.536
10503SOL     OW32407   6.657   0.621   0.349
10503SOL    HW132408   6.705   0.542   0.387
10503SOL    HW232409   6.611   0.671   0.423
10504SOL     OW32410   1.321   3.628   5.619
10504SOL    HW132411   1.356   3.643   5.527
10504SOL    HW232412   1.266   3.707   5.648
10505SOL     OW32413   6.278   6.544   0.788
10505SOL    HW132414   6.232   6.590   0.864
10505SOL    HW232415   6.342   6.607   0.745
10506SOL     OW32416   1.371   4.717   5.489
10506SOL    HW132417   1.346   4.682   5.399
10506SOL    HW232418   1.454   4.669   5.521
10507SOL     OW32419   1.612   6.262   5.692
10507SOL    HW132420   1.545   6.336   5.690
10507SOL    HW232421   1.574   6.184   5.742
10508SOL     OW32422   1.778   6.092   0.843
10508SOL    HW132423   1.733   6.181   0.842
10508SOL    HW232424   1.710   6.021   0.824
10509SOL     OW32425   4.983   3.324   3.009
10509SOL    HW132426   5.019   3.245   3.060
10509SOL    HW232427   4.968   3.400   3.073
10510SOL     OW32428   5.440   5.754   3.112
10510SOL    HW132429   5.461   5.760   3.014
10510SOL    HW232430   5.457   5.661   3.144
10511SOL     OW32431   3.938   1.677   1.038
10511SOL    HW132432   4.001   1.726   1.099
10511SOL    HW232433   3.909   1.737   0.964
10512SOL     OW32434   4.106   1.321   5.301
10512SOL    HW132435   4.125   1.310   5.398
10512SOL    HW232436   4.191   1.336   5.251
10513SOL     OW32437   3.566   3.968   0.593
10513SOL    HW132438   3.627   3.911   0.648
10513SOL    HW232439   3.471   3.949   0.620
10514SOL     OW32440   1.368   5.450   1.418
10514SOL    HW132441   1.408   5.432   1.507
10514SOL    HW232442   1.276   5.487   1.430
10515SOL     OW32443   2.100   3.600   4.766
10515SOL    HW132444   2.087   3.501   4.770
10515SOL    HW232445   2.175   3.622   4.705
10516SOL     OW32446   5.595   1.634   2.215
10516SOL    HW132447   5.513   1.657   2.164
10516SOL    HW232448   5.582   1.547   2.262
10517SOL     OW32449   0.809   1.884   1.793
10517SOL    HW132450   0.866   1.961   1.821
10517SOL    HW232451   0.788   1.827   1.872
10518SOL     OW32452   0.728   6.268   2.257
10518SOL    HW132453   0.736   6.259   2.157
10518SOL    HW232454   0.819   6.281   2.296
10519SOL     OW32455   2.810   6.521   0.728
10519SOL    HW132456   2.825   6.423   0.741
10519SOL    HW232457   2.787   6.563   0.816
10520SOL     OW32458   1.951   2.720   6.389
10520SOL    HW132459   2.008   2.755   6.464
10520SOL    HW232460   1.860   2.701   6.424
10521SOL     OW32461   6.156   2.182   3.035
10521SOL    HW132462   6.138   2.201   2.938
10521SOL    HW232463   6.206   2.096   3.043
10522SOL     OW32464   5.192   1.961   3.737
10522SOL    HW132465   5.165   1.911   3.819
10522SOL    HW232466   5.229   1.897   3.670
10523SOL     OW32467   0.728   3.995   1.786
10523SOL    HW132468   0.648   3.990   1.845
10523SOL    HW232469   0.705   3.962   1.695
10524SOL     OW32470   6.296   6.202   4.909
10524SOL    HW132471   6.352   6.225   4.988
10524SOL    HW232472   6.233   6.278   4.889
10525SOL     OW32473   4.517   1.220   3.881
10525SOL    HW132474   4.526   1.295   3.815
10525SOL    HW232475   4.445   1.241   3.946
10526SOL     OW32476   1.188   6.129   5.759
10526SOL    HW132477   1.159   6.046   5.711
10526SOL    HW232478   1.159   6.123   5.854
10527SOL     OW32479   6.923   6.487   5.550
10527SOL    HW132480   6.913   6.476   5.649
10527SOL    HW232481   6.839   6.525   5.512
10528SOL     OW32482   2.023   5.227   5.380
10528SOL    HW132483   2.042   5.201   5.475
10528SOL    HW232484   2.098   5.283   5.346
10529SOL     OW32485   0.012   5.146   0.674
10529SOL    HW132486   6.951   5.112   0.711
10529SOL    HW232487   0.083   5.077   0.686
10530SOL     OW32488   6.777   0.499   0.971
10530SOL    HW132489   6.866   0.478   0.931
10530SOL    HW232490   6.736   0.415   1.007
10531SOL     OW32491   3.215   2.186   6.436
10531SOL    HW132492   3.221   2.148   6.528
10531SOL    HW232493   3.229   2.285   6.439
10532SOL     OW32494   4.524   5.884   5.647
10532SOL    HW132495   4.594   5.932   5.594
10532SOL    HW232496   4.523   5.787   5.620
10533SOL     OW32497   3.994   6.751   3.374
10533SOL    HW132498   4.065   6.777   3.308
10533SOL    HW232499   4.032   6.688   3.441
10534SOL     OW32500   1.153   6.476   3.719
10534SOL    HW132501   1.248   6.448   3.731
10534SOL    HW232502   1.138   6.565   3.762
10535SOL     OW32503   4.274   1.872   2.536
10535SOL    HW132504   4.264   1.808   2.612
10535SOL    HW232505   4.184   1.900   2.504
10536SOL     OW32506   6.417   3.724   4.770
10536SOL    HW132507   6.499   3.727   4.712
10536SOL    HW232508   6.392   3.817   4.797
10537SOL     OW32509   3.867   0.776   3.336
10537SOL    HW132510   3.915   0.690   3.354
10537SOL    HW232511   3.851   0.786   3.238
10538SOL     OW32512   6.265   2.703   3.745
10538SOL    HW132513   6.200   2.700   3.821
10538SOL    HW232514   6.338   2.636   3.762
10539SOL     OW32515   6.667   6.439   2.936
10539SOL    HW132516   6.642   6.487   2.852
10539SOL    HW232517   6.766   6.450   2.952
10540SOL     OW32518   1.606   3.672   6.749
10540SOL    HW132519   1.584   3.675   6.652
10540SOL    HW232520   1.522   3.663   6.802
10541SOL     OW32521   3.343   2.360   5.848
10541SOL    HW132522   3.270   2.299   5.878
10541SOL    HW232523   3.327   2.387   5.753
10542SOL     OW32524   4.441   6.314   2.328
10542SOL    HW132525   4.437   6.328   2.229
10542SOL    HW232526   4.356   6.348   2.370
10543SOL     OW32527   2.031   2.535   4.281
10543SOL    HW132528   2.020   2.469   4.207
10543SOL    HW232529   2.125   2.568   4.282
10544SOL     OW32530   2.951   1.858   2.472
10544SOL    HW132531   2.856   1.830   2.475
10544SOL    HW232532   2.994   1.822   2.390
10545SOL     OW32533   1.578   3.362   1.986
10545SOL    HW132534   1.659   3.307   1.965
10545SOL    HW232535   1.516   3.363   1.907
10546SOL     OW32536   2.468   0.164   5.620
10546SOL    HW132537   2.513   0.166   5.709
10546SOL    HW232538   2.382   0.113   5.627
10547SOL     OW32539   3.623   6.222   6.046
10547SOL    HW132540   3.701   6.278   6.074
10547SOL    HW232541   3.548   6.234   6.111
10548SOL     OW32542   0.733   5.689   3.108
10548SOL    HW132543   0.770   5.759   3.168
10548SOL    HW232544   0.755   5.712   3.013
10549SOL     OW32545   6.593   1.099   2.641
10549SOL    HW132546   6.562   1.128   2.731
10549SOL    HW232547   6.606   1.179   2.582
10550SOL     OW32548   5.379   6.031   3.200
10550SOL    HW132549   5.384   5.937   3.167
10550SOL    HW232550   5.429   6.092   3.138
10551SOL     OW32551   4.410   0.414   4.796
10551SOL    HW132552   4.398   0.479   4.720
10551SOL    HW232553   4.502   0.426   4.835
10552SOL     OW32554   2.589   6.420   3.670
10552SOL    HW132555   2.586   6.321   3.676
10552SOL    HW232556   2.645   6.447   3.592
10553SOL     OW32557   5.366   5.455   1.520
10553SOL    HW132558   5.323   5.530   1.570
10553SOL    HW232559   5.348   5.466   1.422
10554SOL     OW32560   6.127   5.744   1.849
10554SOL    HW132561   6.159   5.683   1.776
10554SOL    HW232562   6.027   5.748   1.848
10555SOL     OW32563   3.596   3.095   1.569
10555SOL    HW132564   3.558   3.023   1.510
10555SOL    HW232565   3.645   3.052   1.645
10556SOL     OW32566   2.705   2.189   1.946
10556SOL    HW132567   2.723   2.101   1.989
10556SOL    HW232568   2.779   2.253   1.968
10557SOL     OW32569   1.023   3.745   2.971
10557SOL    HW132570   1.033   3.751   3.070
10557SOL    HW232571   1.080   3.816   2.928
10558SOL     OW32572   4.407   4.543   4.263
10558SOL    HW132573   4.456   4.562   4.348
10558SOL    HW232574   4.325   4.599   4.259
10559SOL     OW32575   3.588   6.027   1.431
10559SOL    HW132576   3.666   6.029   1.493
10559SOL    HW232577   3.571   5.933   1.401
10560SOL     OW32578   5.719   6.906   3.560
10560SOL    HW132579   5.660   6.904   3.479
10560SOL    HW232580   5.662   6.905   3.642
10561SOL     OW32581   0.931   5.317   6.291
10561SOL    HW132582   1.020   5.285   6.325
10561SOL    HW232583   0.931   5.313   6.191
10562SOL     OW32584   3.730   6.310   2.259
10562SOL    HW132585   3.792   6.320   2.181
10562SOL    HW232586   3.635   6.306   2.227
10563SOL     OW32587   1.758   6.124   2.266
10563SOL    HW132588   1.725   6.079   2.183
10563SOL    HW232589   1.682   6.138   2.329
10564SOL     OW32590   5.274   4.426   3.711
10564SOL    HW132591   5.320   4.413   3.624
10564SOL    HW232592   5.234   4.517   3.714
10565SOL     OW32593   0.545   1.408   4.813
10565SOL    HW132594   0.561   1.490   4.867
10565SOL    HW232595   0.582   1.328   4.860
10566SOL     OW32596   3.811   2.096   1.177
10566SOL    HW132597   3.832   2.055   1.266
10566SOL    HW232598   3.721   2.066   1.147
10567SOL     OW32599   2.432   2.908   6.573
10567SOL    HW132600   2.490   2.847   6.518
10567SOL    HW232601   2.442   2.885   6.670
10568SOL     OW32602   5.490   2.277   6.116
10568SOL    HW132603   5.545   2.334   6.057
10568SOL    HW232604   5.414   2.330   6.153
10569SOL     OW32605   5.482   0.315   1.043
10569SOL    HW132606   5.389   0.315   1.005
10569SOL    HW232607   5.504   0.407   1.075
10570SOL     OW32608   1.396   3.770   3.095
10570SOL    HW132609   1.327   3.698   3.098
10570SOL    HW232610   1.431   3.787   3.187
10571SOL     OW32611   0.203   3.736   5.719
10571SOL    HW132612   0.233   3.643   5.698
10571SOL    HW232613   0.205   3.751   5.818
10572SOL     OW32614   6.199   4.408   0.735
10572SOL    HW132615   6.103   4.382   0.732
10572SOL    HW232616   6.220   4.466   0.656
10573SOL     OW32617   6.828   2.594   3.409
10573SOL    HW132618   6.768   2.601   3.329
10573SOL    HW232619   6.786   2.640   3.487
10574SOL     OW32620   5.684   2.233   2.714
10574SOL    HW132621   5.655   2.329   2.722
10574SOL    HW232622   5.611   2.180   2.671
10575SOL     OW32623   5.440   6.573   3.038
10575SOL    HW132624   5.469   6.584   2.943
10575SOL    HW232625   5.433   6.475   3.059
10576SOL     OW32626   1.690   2.928   4.749
10576SOL    HW132627   1.784   2.959   4.759
10576SOL    HW232628   1.687   2.850   4.686
10577SOL     OW32629   3.750   4.634   0.010
10577SOL    HW132630   3.821   4.606   0.074
10577SOL    HW232631   3.661   4.605   0.044
10578SOL     OW32632   1.212   3.503   2.468
10578SOL    HW132633   1.170   3.422   2.510
10578SOL    HW232634   1.157   3.532   2.389
10579SOL     OW32635   6.991   3.190   7.015
10579SOL    HW132636   0.004   3.139   6.939
10579SOL    HW232637   6.893   3.172   7.021
10580SOL     OW32638   5.484   6.106   6.985
10580SOL    HW132639   5.490   6.168   6.907
10580SOL    HW232640   5.572   6.102   0.007
10581SOL     OW32641   4.223   0.864   2.927
10581SOL    HW132642   4.263   0.823   3.008
10581SOL    HW232643   4.175   0.948   2.952
10582SOL     OW32644   6.742   3.205   6.891
10582SOL    HW132645   6.774   3.219   6.797
10582SOL    HW232646   6.732   3.294   6.935
10583SOL     OW32647   4.555   2.284   5.619
10583SOL    HW132648   4.586   2.221   5.548
10583SOL    HW232649   4.578   2.378   5.593
10584SOL     OW32650   0.069   0.950   3.766
10584SOL    HW132651   0.046   1.022   3.701
10584SOL    HW232652   0.155   0.907   3.739
10585SOL     OW32653   1.341   1.370   5.405
10585SOL    HW132654   1.252   1.346   5.367
10585SOL    HW232655   1.410   1.371   5.332
10586SOL     OW32656   4.482   3.964   5.873
10586SOL    HW132657   4.442   3.873   5.883
10586SOL    HW232658   4.502   4.002   5.963
10587SOL     OW32659   1.923   5.026   5.179
10587SOL    HW132660   1.943   5.097   5.247
10587SOL    HW232661   1.959   5.055   5.090
10588SOL     OW32662   1.436   3.731   4.005
10588SOL    HW132663   1.380   3.814   4.006
10588SOL    HW232664   1.496   3.731   3.925
10589SOL     OW32665   6.239   0.220   3.522
10589SOL    HW132666   6.154   0.273   3.521
10589SOL    HW232667   6.242   0.164   3.605
10590SOL     OW32668   0.720   5.785   2.303
10590SOL    HW132669   0.678   5.822   2.386
10590SOL    HW232670   0.814   5.758   2.322
10591SOL     OW32671   6.628   4.118   2.451
10591SOL    HW132672   6.714   4.128   2.402
10591SOL    HW232673   6.639   4.150   2.545
10592SOL     OW32674   6.922   2.991   4.454
10592SOL    HW132675   6.973   2.908   4.475
10592SOL    HW232676   6.907   3.043   4.539
10593SOL     OW32677   3.354   5.800   3.571
10593SOL    HW132678   3.303   5.790   3.485
10593SOL    HW232679   3.405   5.886   3.569
10594SOL     OW32680   3.350   5.661   3.825
10594SOL    HW132681   3.299   5.730   3.876
10594SOL    HW232682   3.343   5.680   3.727
10595SOL     OW32683   4.912   6.728   0.926
10595SOL    HW132684   4.864   6.642   0.905
10595SOL    HW232685   4.999   6.708   0.972
10596SOL     OW32686   5.424   3.635   0.038
10596SOL    HW132687   5.364   3.586   7.000
10596SOL    HW232688   5.489   3.690   7.012
10597SOL     OW32689   1.694   6.810   5.074
10597SOL    HW132690   1.727   6.715   5.074
10597SOL    HW232691   1.668   6.837   4.982
10598SOL     OW32692   3.636   1.071   0.860
10598SOL    HW132693   3.629   1.089   0.761
10598SOL    HW232694   3.571   1.130   0.909
10599SOL     OW32695   0.729   2.483   0.752
10599SOL    HW132696   0.726   2.533   0.665
10599SOL    HW232697   0.636   2.472   0.787
10600SOL     OW32698   4.254   1.348   1.872
10600SOL    HW132699   4.157   1.357   1.894
10600SOL    HW232700   4.304   1.317   1.952
10601SOL     OW32701   1.975   1.472   4.858
10601SOL    HW132702   1.986   1.494   4.955
10601SOL    HW232703   1.900   1.407   4.848
10602SOL     OW32704   6.567   6.468   1.625
10602SOL    HW132705   6.615   6.500   1.706
10602SOL    HW232706   6.472   6.447   1.648
10603SOL     OW32707   5.883   0.608   2.907
10603SOL    HW132708   5.868   0.514   2.875
10603SOL    HW232709   5.811   0.632   2.972
10604SOL     OW32710   5.432   2.045   5.345
10604SOL    HW132711   5.471   1.962   5.386
10604SOL    HW232712   5.477   2.063   5.258
10605SOL     OW32713   4.138   2.115   1.464
10605SOL    HW132714   4.111   2.191   1.405
10605SOL    HW232715   4.156   2.150   1.556
10606SOL     OW32716   6.212   1.626   0.570
10606SOL    HW132717   6.302   1.593   0.544
10606SOL    HW232718   6.183   1.583   0.655
10607SOL     OW32719   2.769   4.751   0.965
10607SOL    HW132720   2.752   4.772   0.869
10607SOL    HW232721   2.725   4.664   0.989
10608SOL     OW32722   5.578   4.112   3.116
10608SOL    HW132723   5.506   4.045   3.132
10608SOL    HW232724   5.658   4.067   3.078
10609SOL     OW32725   5.890   6.750   6.394
10609SOL    HW132726   5.956   6.707   6.333
10609SOL    HW232727   5.874   6.844   6.364
10610SOL     OW32728   0.552   1.319   2.913
10610SOL    HW132729   0.575   1.321   2.815
10610SOL    HW232730   0.627   1.361   2.965
10611SOL     OW32731   4.381   5.085   5.108
10611SOL    HW132732   4.330   5.123   5.185
10611SOL    HW232733   4.335   5.003   5.074
10612SOL     OW32734   5.766   2.762   3.862
10612SOL    HW132735   5.698   2.821   3.817
10612SOL    HW232736   5.745   2.666   3.842
10613SOL     OW32737   5.018   5.623   4.908
10613SOL    HW132738   5.001   5.616   4.810
10613SOL    HW232739   4.967   5.552   4.956
10614SOL     OW32740   4.033   2.383   6.570
10614SOL    HW132741   4.001   2.409   6.661
10614SOL    HW232742   4.125   2.343   6.577
10615SOL     OW32743   2.673   2.418   5.051
10615SOL    HW132744   2.605   2.346   5.064
10615SOL    HW232745   2.691   2.429   4.953
10616SOL     OW32746   1.397   5.931   0.229
10616SOL    HW132747   1.391   5.832   0.231
10616SOL    HW232748   1.463   5.962   0.298
10617SOL     OW32749   1.499   2.841   0.710
10617SOL    HW132750   1.481   2.927   0.662
10617SOL    HW232751   1.430   2.773   0.684
10618SOL     OW32752   0.367   5.047   4.555
10618SOL    HW132753   0.271   5.062   4.533
10618SOL    HW232754   0.411   4.998   4.480
10619SOL     OW32755   1.275   3.083   0.821
10619SOL    HW132756   1.230   2.996   0.837
10619SOL    HW232757   1.297   3.093   0.724
10620SOL     OW32758   3.483   0.874   5.565
10620SOL    HW132759   3.431   0.891   5.481
10620SOL    HW232760   3.459   0.941   5.634
10621SOL     OW32761   0.715   3.888   4.216
10621SOL    HW132762   0.653   3.945   4.161
10621SOL    HW232763   0.670   3.801   4.236
10622SOL     OW32764   3.933   2.244   6.238
10622SOL    HW132765   3.992   2.163   6.238
10622SOL    HW232766   3.923   2.278   6.144
10623SOL     OW32767   5.528   5.154   5.534
10623SOL    HW132768   5.533   5.250   5.508
10623SOL    HW232769   5.618   5.122   5.562
10624SOL     OW32770   0.351   1.838   6.543
10624SOL    HW132771   0.281   1.891   6.590
10624SOL    HW232772   0.337   1.741   6.562
10625SOL     OW32773   5.693   5.385   7.008
10625SOL    HW132774   5.674   5.344   0.072
10625SOL    HW232775   5.647   5.474   7.002
10626SOL     OW32776   5.621   3.305   2.256
10626SOL    HW132777   5.570   3.391   2.257
10626SOL    HW232778   5.575   3.239   2.316
10627SOL     OW32779   5.942   4.849   5.535
10627SOL    HW132780   5.894   4.791   5.469
10627SOL    HW232781   5.948   4.801   5.623
10628SOL     OW32782   2.610   5.634   1.063
10628SOL    HW132783   2.632   5.629   1.160
10628SOL    HW232784   2.575   5.725   1.041
10629SOL     OW32785   4.462   4.913   4.183
10629SOL    HW132786   4.490   4.912   4.279
10629SOL    HW232787   4.522   4.853   4.130
10630SOL     OW32788   3.896   0.713   1.453
10630SOL    HW132789   3.838   0.786   1.417
10630SOL    HW232790   3.987   0.749   1.475
10631SOL     OW32791   3.523   5.847   1.756
10631SOL    HW132792   3.528   5.783   1.833
10631SOL    HW232793   3.616   5.872   1.728
10632SOL     OW32794   5.517   0.025   4.246
10632SOL    HW132795   5.578   7.013   4.176
10632SOL    HW232796   5.422   0.003   4.222
10633SOL     OW32797   2.551   2.890   0.171
10633SOL    HW132798   2.478   2.949   0.138
10633SOL    HW232799   2.544   2.801   0.127
10634SOL     OW32800   1.175   4.626   0.113
10634SOL    HW132801   1.256   4.656   0.063
10634SOL    HW232802   1.175   4.668   0.204
10635SOL     OW32803   2.996   4.988   6.461
10635SOL    HW132804   3.048   5.065   6.497
10635SOL    HW232805   3.058   4.928   6.410
10636SOL     OW32806   6.200   3.237   0.747
10636SOL    HW132807   6.250   3.221   0.662
10636SOL    HW232808   6.161   3.150   0.780
10637SOL     OW32809   2.813   0.998   6.222
10637SOL    HW132810   2.859   1.050   6.294
10637SOL    HW232811   2.734   1.050   6.188
10638SOL     OW32812   5.191   5.072   0.166
10638SOL    HW132813   5.233   5.054   0.255
10638SOL    HW232814   5.092   5.065   0.173
10639SOL     OW32815   6.339   5.076   0.178
10639SOL    HW132816   6.244   5.043   0.178
10639SOL    HW232817   6.398   5.009   0.223
10640SOL     OW32818   3.697   6.104   4.021
10640SOL    HW132819   3.778   6.135   3.971
10640SOL    HW232820   3.695   6.004   4.022
10641SOL     OW32821   1.051   1.396   3.342
10641SOL    HW132822   1.030   1.302   3.312
10641SOL    HW232823   1.069   1.452   3.261
10642SOL     OW32824   0.320   2.316   6.353
10642SOL    HW132825   0.382   2.314   6.431
10642SOL    HW232826   0.226   2.324   6.385
10643SOL     OW32827   2.966   5.307   5.756
10643SOL    HW132828   2.897   5.329   5.825
10643SOL    HW232829   3.031   5.383   5.749
10644SOL     OW32830   0.167   3.565   3.156
10644SOL    HW132831   0.090   3.539   3.097
10644SOL    HW232832   0.184   3.663   3.149
10645SOL     OW32833   2.347   2.805   3.220
10645SOL    HW132834   2.390   2.795   3.310
10645SOL    HW232835   2.315   2.899   3.208
10646SOL     OW32836   4.857   0.520   3.569
10646SOL    HW132837   4.817   0.570   3.493
10646SOL    HW232838   4.956   0.511   3.555
10647SOL     OW32839   3.814   5.445   4.856
10647SOL    HW132840   3.741   5.499   4.813
10647SOL    HW232841   3.773   5.368   4.905
10648SOL     OW32842   4.631   4.134   5.286
10648SOL    HW132843   4.649   4.140   5.385
10648SOL    HW232844   4.533   4.145   5.270
10649SOL     OW32845   6.281   3.397   3.473
10649SOL    HW132846   6.376   3.410   3.447
10649SOL    HW232847   6.265   3.300   3.493
10650SOL     OW32848   0.562   6.808   2.755
10650SOL    HW132849   0.636   6.875   2.746
10650SOL    HW232850   0.475   6.856   2.768
10651SOL     OW32851   2.188   6.311   6.081
10651SOL    HW132852   2.111   6.374   6.097
10651SOL    HW232853   2.188   6.282   5.985
10652SOL     OW32854   2.373   0.775   6.901
10652SOL    HW132855   2.356   0.795   6.997
10652SOL    HW232856   2.285   0.764   6.853
10653SOL     OW32857   5.467   6.356   4.831
10653SOL    HW132858   5.406   6.313   4.898
10653SOL    HW232859   5.425   6.350   4.740
10654SOL     OW32860   6.582   1.456   3.898
10654SOL    HW132861   6.559   1.381   3.835
10654SOL    HW232862   6.564   1.427   3.992
10655SOL     OW32863   6.782   5.032   0.824
10655SOL    HW132864   6.710   4.996   0.765
10655SOL    HW232865   6.742   5.095   0.891
10656SOL     OW32866   6.190   1.505   5.771
10656SOL    HW132867   6.113   1.462   5.725
10656SOL    HW232868   6.163   1.533   5.863
10657SOL     OW32869   4.943   6.768   5.434
10657SOL    HW132870   4.917   6.858   5.469
10657SOL    HW232871   5.025   6.776   5.378
10658SOL     OW32872   0.567   1.544   5.902
10658SOL    HW132873   0.634   1.594   5.848
10658SOL    HW232874   0.491   1.605   5.926
10659SOL     OW32875   6.904   5.679   0.094
10659SOL    HW132876   6.970   5.605   0.102
10659SOL    HW232877   6.937   5.760   0.143
10660SOL     OW32878   5.827   2.922   6.697
10660SOL    HW132879   5.903   2.858   6.713
10660SOL    HW232880   5.740   2.872   6.703
10661SOL     OW32881   3.669   5.644   5.719
10661SOL    HW132882   3.585   5.674   5.674
10661SOL    HW232883   3.677   5.688   5.809
10662SOL     OW32884   3.096   1.300   1.016
10662SOL    HW132885   3.084   1.317   1.113
10662SOL    HW232886   3.077   1.203   0.996
10663SOL     OW32887   0.413   3.533   3.857
10663SOL    HW132888   0.359   3.534   3.774
10663SOL    HW232889   0.498   3.482   3.841
10664SOL     OW32890   1.012   6.300   4.616
10664SOL    HW132891   1.063   6.329   4.697
10664SOL    HW232892   0.988   6.203   4.625
10665SOL     OW32893   3.365   3.713   0.404
10665SOL    HW132894   3.312   3.653   0.464
10665SOL    HW232895   3.462   3.705   0.427
10666SOL     OW32896   4.146   3.896   1.160
10666SOL    HW132897   4.133   3.982   1.210
10666SOL    HW232898   4.138   3.914   1.062
10667SOL     OW32899   5.662   2.632   4.260
10667SOL    HW132900   5.688   2.671   4.348
10667SOL    HW232901   5.601   2.695   4.212
10668SOL     OW32902   3.317   3.307   6.129
10668SOL    HW132903   3.245   3.375   6.118
10668SOL    HW232904   3.371   3.302   6.045
10669SOL     OW32905   6.209   1.940   1.701
10669SOL    HW132906   6.181   1.847   1.726
10669SOL    HW232907   6.222   1.994   1.784
10670SOL     OW32908   4.656   4.475   3.683
10670SOL    HW132909   4.557   4.466   3.692
10670SOL    HW232910   4.697   4.490   3.773
10671SOL     OW32911   1.973   3.038   4.689
10671SOL    HW132912   1.941   3.124   4.649
10671SOL    HW232913   2.026   3.057   4.771
10672SOL     OW32914   6.318   4.104   1.590
10672SOL    HW132915   6.266   4.019   1.583
10672SOL    HW232916   6.411   4.088   1.555
10673SOL     OW32917   3.027   1.409   1.277
10673SOL    HW132918   2.930   1.400   1.257
10673SOL    HW232919   3.061   1.496   1.241
10674SOL     OW32920   3.921   3.455   4.429
10674SOL    HW132921   3.967   3.452   4.518
10674SOL    HW232922   3.989   3.448   4.356
10675SOL     OW32923   3.611   6.348   5.621
10675SOL    HW132924   3.654   6.424   5.670
10675SOL    HW232925   3.680   6.300   5.567
10676SOL     OW32926   1.822   0.961   5.127
10676SOL    HW132927   1.814   0.922   5.219
10676SOL    HW232928   1.915   0.947   5.092
10677SOL     OW32929   0.421   2.245   0.018
10677SOL    HW132930   0.344   2.302   0.048
10677SOL    HW232931   0.454   2.190   0.094
10678SOL     OW32932   3.915   5.137   2.701
10678SOL    HW132933   3.865   5.065   2.749
10678SOL    HW232934   3.851   5.199   2.656
10679SOL     OW32935   4.664   3.592   0.463
10679SOL    HW132936   4.748   3.581   0.516
10679SOL    HW232937   4.646   3.690   0.448
10680SOL     OW32938   4.316   1.035   5.658
10680SOL    HW132939   4.292   0.948   5.701
10680SOL    HW232940   4.232   1.081   5.629
10681SOL     OW32941   2.423   3.272   5.329
10681SOL    HW132942   2.501   3.332   5.350
10681SOL    HW232943   2.454   3.199   5.269
10682SOL     OW32944   4.856   3.554   6.116
10682SOL    HW132945   4.823   3.563   6.210
10682SOL    HW232946   4.951   3.586   6.111
10683SOL     OW32947   2.530   0.775   2.986
10683SOL    HW132948   2.447   0.722   2.972
10683SOL    HW232949   2.608   0.713   2.996
10684SOL     OW32950   4.857   4.644   1.626
10684SOL    HW132951   4.787   4.662   1.695
10684SOL    HW232952   4.821   4.665   1.536
10685SOL     OW32953   0.980   7.001   2.273
10685SOL    HW132954   0.999   0.011   2.182
10685SOL    HW232955   0.886   6.967   2.278
10686SOL     OW32956   2.541   1.274   6.990
10686SOL    HW132957   2.465   1.268   6.924
10686SOL    HW232958   2.627   1.253   6.943
10687SOL     OW32959   0.986   3.563   3.527
10687SOL    HW132960   0.951   3.496   3.593
10687SOL    HW232961   0.964   3.655   3.557
10688SOL     OW32962   4.932   1.229   3.814
10688SOL    HW132963   5.023   1.229   3.773
10688SOL    HW232964   4.863   1.248   3.744
10689SOL     OW32965   1.015   1.312   2.538
10689SOL    HW132966   1.080   1.237   2.546
10689SOL    HW232967   0.966   1.304   2.451
10690SOL     OW32968   1.200   6.657   4.441
10690SOL    HW132969   1.277   6.717   4.420
10690SOL    HW232970   1.119   6.712   4.463
10691SOL     OW32971   3.261   6.392   1.389
10691SOL    HW132972   3.340   6.340   1.420
10691SOL    HW232973   3.220   6.439   1.467
10692SOL     OW32974   2.702   1.666   4.362
10692SOL    HW132975   2.654   1.698   4.281
10692SOL    HW232976   2.643   1.604   4.414
10693SOL     OW32977   1.175   5.270   0.516
10693SOL    HW132978   1.075   5.278   0.517
10693SOL    HW232979   1.207   5.253   0.423
10694SOL     OW32980   4.582   0.383   5.504
10694SOL    HW132981   4.518   0.351   5.574
10694SOL    HW232982   4.666   0.413   5.547
10695SOL     OW32983   5.073   4.296   1.905
10695SOL    HW132984   5.153   4.285   1.964
10695SOL    HW232985   5.055   4.393   1.891
10696SOL     OW32986   6.374   4.266   4.118
10696SOL    HW132987   6.282   4.248   4.152
10696SOL    HW232988   6.404   4.356   4.148
10697SOL     OW32989   2.979   5.366   5.277
10697SOL    HW132990   2.920   5.437   5.313
10697SOL    HW232991   2.944   5.276   5.303
10698SOL     OW32992   3.678   3.946   0.141
10698SOL    HW132993   3.665   3.858   0.187
10698SOL    HW232994   3.675   3.933   0.042
10699SOL     OW32995   3.608   3.247   0.856
10699SOL    HW132996   3.589   3.273   0.762
10699SOL    HW232997   3.617   3.329   0.912
10700SOL     OW32998   4.849   0.456   1.311
10700SOL    HW132999   4.911   0.381   1.287
10700SOL    HW233000   4.797   0.484   1.231
10701SOL     OW33001   3.191   6.370   6.442
10701SOL    HW133002   3.181   6.442   6.510
10701SOL    HW233003   3.136   6.392   6.361
10702SOL     OW33004   5.912   1.625   2.118
10702SOL    HW133005   5.830   1.661   2.163
10702SOL    HW233006   5.974   1.588   2.187
10703SOL     OW33007   0.598   1.781   5.224
10703SOL    HW133008   0.643   1.854   5.174
10703SOL    HW233009   0.540   1.821   5.296
10704SOL     OW33010   5.437   6.545   2.361
10704SOL    HW133011   5.462   6.502   2.274
10704SOL    HW233012   5.339   6.533   2.377
10705SOL     OW33013   4.750   3.045   0.444
10705SOL    HW133014   4.791   2.954   0.434
10705SOL    HW233015   4.743   3.089   0.354
10706SOL     OW33016   3.618   0.853   1.559
10706SOL    HW133017   3.693   0.907   1.521
10706SOL    HW233018   3.605   0.877   1.656
10707SOL     OW33019   4.824   6.491   3.590
10707SOL    HW133020   4.788   6.457   3.503
10707SOL    HW233021   4.853   6.413   3.646
10708SOL     OW33022   4.291   0.685   2.029
10708SOL    HW133023   4.216   0.662   1.966
10708SOL    HW233024   4.254   0.731   2.109
10709SOL     OW33025   6.159   4.630   3.064
10709SOL    HW133026   6.245   4.581   3.077
10709SOL    HW233027   6.101   4.578   3.001
10710SOL     OW33028   4.756   1.844   3.864
10710SOL    HW133029   4.741   1.754   3.906
10710SOL    HW233030   4.822   1.896   3.919
10711SOL     OW33031   3.094   6.908   2.387
10711SOL    HW133032   3.169   6.891   2.450
10711SOL    HW233033   3.126   6.966   2.312
10712SOL     OW33034   5.412   0.339   3.516
10712SOL    HW133035   5.352   0.261   3.537
10712SOL    HW233036   5.440   0.384   3.601
10713SOL     OW33037   1.802   3.959   1.698
10713SOL    HW133038   1.738   3.956   1.774
10713SOL    HW233039   1.785   3.882   1.637
10714SOL     OW33040   2.989   3.843   4.914
10714SOL    HW133041   2.923   3.848   4.989
10714SOL    HW233042   2.987   3.752   4.874
10715SOL     OW33043   5.874   0.826   1.944
10715SOL    HW133044   5.830   0.736   1.942
10715SOL    HW233045   5.970   0.816   1.969
10716SOL     OW33046   5.170   0.821   3.202
10716SOL    HW133047   5.204   0.861   3.117
10716SOL    HW233048   5.224   0.855   3.279
10717SOL     OW33049   1.880   3.237   6.791
10717SOL    HW133050   1.958   3.182   6.760
10717SOL    HW233051   1.796   3.183   6.785
10718SOL     OW33052   1.558   5.229   5.939
10718SOL    HW133053   1.486   5.283   5.984
10718SOL    HW233054   1.547   5.132   5.962
10719SOL     OW33055   0.424   5.710   4.643
10719SOL    HW133056   0.485   5.648   4.692
10719SOL    HW233057   0.332   5.705   4.683
10720SOL     OW33058   0.247   4.721   3.255
10720SOL    HW133059   0.259   4.811   3.296
10720SOL    HW233060   0.150   4.696   3.259
10721SOL     OW33061   5.136   3.529   5.988
10721SOL    HW133062   5.122   3.450   6.048
10721SOL    HW233063   5.175   3.605   6.041
10722SOL     OW33064   6.764   3.451   5.338
10722SOL    HW133065   6.697   3.464   5.410
10722SOL    HW233066   6.854   3.434   5.378
10723SOL     OW33067   5.475   6.704   0.936
10723SOL    HW133068   5.533   6.776   0.900
10723SOL    HW233069   5.498   6.617   0.892
10724SOL     OW33070   0.187   6.331   6.673
10724SOL    HW133071   0.154   6.316   6.580
10724SOL    HW233072   0.196   6.429   6.690
10725SOL     OW33073   1.924   6.082   5.653
10725SOL    HW133074   1.980   6.001   5.636
10725SOL    HW233075   1.829   6.055   5.664
10726SOL     OW33076   4.587   0.925   4.230
10726SOL    HW133077   4.665   0.870   4.200
10726SOL    HW233078   4.613   1.021   4.232
10727SOL     OW33079   2.153   6.653   6.298
10727SOL    HW133080   2.176   6.747   6.271
10727SOL    HW233081   2.110   6.606   6.221
10728SOL     OW33082   5.318   5.602   0.768
10728SOL    HW133083   5.229   5.600   0.813
10728SOL    HW233084   5.342   5.510   0.737
10729SOL     OW33085   6.326   2.356   1.278
10729SOL    HW133086   6.239   2.401   1.299
10729SOL    HW233087   6.392   2.424   1.247
10730SOL     OW33088   4.524   0.268   2.737
10730SOL    HW133089   4.498   0.348   2.682
10730SOL    HW233090   4.619   0.243   2.717
10731SOL     OW33091   4.701   6.973   1.161
10731SOL    HW133092   4.643   6.910   1.213
10731SOL    HW233093   4.713   6.937   1.068
10732SOL     OW33094   0.633   3.632   5.798
10732SOL    HW133095   0.628   3.572   5.877
10732SOL    HW233096   0.728   3.656   5.779
10733SOL     OW33097   6.250   1.834   0.386
10733SOL    HW133098   6.306   1.904   0.430
10733SOL    HW233099   6.244   1.754   0.446
10734SOL     OW33100   6.719   3.053   1.781
10734SOL    HW133101   6.737   2.955   1.790
10734SOL    HW233102   6.805   3.101   1.763
10735SOL     OW33103   0.320   4.730   2.922
10735SOL    HW133104   0.239   4.690   2.965
10735SOL    HW233105   0.313   4.720   2.823
10736SOL     OW33106   2.369   0.661   3.892
10736SOL    HW133107   2.295   0.722   3.921
10736SOL    HW233108   2.347   0.567   3.917
10737SOL     OW33109   6.929   2.329   1.275
10737SOL    HW133110   6.959   2.292   1.186
10737SOL    HW233111   6.881   2.415   1.260
10738SOL     OW33112   4.360   6.728   3.768
10738SOL    HW133113   4.327   6.811   3.724
10738SOL    HW233114   4.455   6.740   3.795
10739SOL     OW33115   2.647   1.832   2.002
10739SOL    HW133116   2.640   1.742   2.045
10739SOL    HW233117   2.742   1.864   2.009
10740SOL     OW33118   4.645   5.081   3.191
10740SOL    HW133119   4.702   5.070   3.272
10740SOL    HW233120   4.682   5.155   3.134
10741SOL     OW33121   3.839   0.696   2.838
10741SOL    HW133122   3.816   0.641   2.758
10741SOL    HW233123   3.895   0.642   2.900
10742SOL     OW33124   6.755   5.359   0.565
10742SOL    HW133125   6.697   5.428   0.522
10742SOL    HW233126   6.733   5.352   0.662
10743SOL     OW33127   2.406   2.526   5.067
10743SOL    HW133128   2.505   2.532   5.070
10743SOL    HW233129   2.366   2.618   5.070
10744SOL     OW33130   5.038   1.760   0.457
10744SOL    HW133131   4.950   1.753   0.409
10744SOL    HW233132   5.111   1.770   0.390
10745SOL     OW33133   6.695   5.739   6.024
10745SOL    HW133134   6.786   5.715   6.058
10745SOL    HW233135   6.626   5.682   6.068
10746SOL     OW33136   0.824   4.385   6.180
10746SOL    HW133137   0.900   4.448   6.195
10746SOL    HW233138   0.851   4.293   6.205
10747SOL     OW33139   3.268   2.202   4.462
10747SOL    HW133140   3.323   2.285   4.467
10747SOL    HW233141   3.287   2.144   4.541
10748SOL     OW33142   4.895   1.542   2.083
10748SOL    HW133143   4.829   1.581   2.020
10748SOL    HW233144   4.888   1.442   2.080
10749SOL     OW33145   2.561   0.494   6.546
10749SOL    HW133146   2.635   0.527   6.604
10749SOL    HW233147   2.510   0.423   6.594
10750SOL     OW33148   3.837   6.941   6.269
10750SOL    HW133149   3.794   6.996   6.342
10750SOL    HW233150   3.935   6.958   6.268
10751SOL     OW33151   2.066   5.336   3.787
10751SOL    HW133152   2.062   5.249   3.738
10751SOL    HW233153   1.973   5.370   3.802
10752SOL     OW33154   5.079   4.699   3.954
10752SOL    HW133155   4.981   4.703   3.969
10752SOL    HW233156   5.123   4.779   3.995
10753SOL     OW33157   6.632   3.383   4.383
10753SOL    HW133158   6.686   3.388   4.467
10753SOL    HW233159   6.648   3.296   4.337
10754SOL     OW33160   1.528   0.308   2.516
10754SOL    HW133161   1.549   0.248   2.439
10754SOL    HW233162   1.564   0.267   2.600
10755SOL     OW33163   5.782   5.481   2.155
10755SOL    HW133164   5.857   5.469   2.220
10755SOL    HW233165   5.695   5.460   2.200
10756SOL     OW33166   0.766   0.010   5.176
10756SOL    HW133167   0.675   0.045   5.195
10756SOL    HW233168   0.825   0.085   5.146
10757SOL     OW33169   2.517   3.546   1.277
10757SOL    HW133170   2.493   3.465   1.224
10757SOL    HW233171   2.615   3.546   1.297
10758SOL     OW33172   0.416   5.277   4.280
10758SOL    HW133173   0.360   5.238   4.207
10758SOL    HW233174   0.495   5.219   4.296
10759SOL     OW33175   0.073   1.814   6.677
10759SOL    HW133176   0.106   1.720   6.665
10759SOL    HW233177   7.003   1.820   6.648
10760SOL     OW33178   5.585   1.119   4.460
10760SOL    HW133179   5.611   1.130   4.364
10760SOL    HW233180   5.500   1.169   4.477
10761SOL     OW33181   2.609   4.803   5.740
10761SOL    HW133182   2.596   4.730   5.673
10761SOL    HW233183   2.695   4.851   5.721
10762SOL     OW33184   3.367   1.123   4.947
10762SOL    HW133185   3.280   1.115   4.898
10762SOL    HW233186   3.394   1.034   4.983
10763SOL     OW33187   4.120   6.591   3.810
10763SOL    HW133188   4.130   6.538   3.894
10763SOL    HW233189   4.210   6.613   3.773
10764SOL     OW33190   4.772   0.048   4.855
10764SOL    HW133191   4.711   0.104   4.911
10764SOL    HW233192   4.851   0.102   4.827
10765SOL     OW33193   5.528   3.591   0.538
10765SOL    HW133194   5.547   3.561   0.444
10765SOL    HW233195   5.594   3.662   0.564
10766SOL     OW33196   3.734   3.622   1.500
10766SOL    HW133197   3.821   3.638   1.455
10766SOL    HW233198   3.701   3.530   1.478
10767SOL     OW33199   4.651   1.670   2.469
10767SOL    HW133200   4.576   1.682   2.404
10767SOL    HW233201   4.737   1.696   2.426
10768SOL     OW33202   5.864   4.623   0.259
10768SOL    HW133203   5.865   4.562   0.179
10768SOL    HW233204   5.783   4.604   0.314
10769SOL     OW33205   1.675   4.182   5.406
10769SOL    HW133206   1.725   4.097   5.388
10769SOL    HW233207   1.734   4.244   5.459
10770SOL     OW33208   3.725   6.017   3.675
10770SOL    HW133209   3.776   6.043   3.757
10770SOL    HW233210   3.757   5.927   3.644
10771SOL     OW33211   1.933   1.613   4.125
10771SOL    HW133212   1.868   1.640   4.054
10771SOL    HW233213   1.961   1.693   4.178
10772SOL     OW33214   5.594   5.495   3.613
10772SOL    HW133215   5.548   5.571   3.568
10772SOL    HW233216   5.533   5.415   3.613
10773SOL     OW33217   5.710   4.309   3.527
10773SOL    HW133218   5.751   4.348   3.445
10773SOL    HW233219   5.702   4.379   3.597
10774SOL     OW33220   0.842   0.227   3.047
10774SOL    HW133221   0.788   0.235   2.963
10774SOL    HW233222   0.804   0.289   3.116
10775SOL     OW33223   0.504   3.484   1.827
10775SOL    HW133224   0.580   3.419   1.818
10775SOL    HW233225   0.454   3.464   1.912
10776SOL     OW33226   1.537   0.511   6.174
10776SOL    HW133227   1.564   0.453   6.250
10776SOL    HW233228   1.597   0.591   6.170
10777SOL     OW33229   2.518   5.439   0.884
10777SOL    HW133230   2.558   5.520   0.926
10777SOL    HW233231   2.444   5.465   0.823
10778SOL     OW33232   5.924   5.548   2.617
10778SOL    HW133233   5.826   5.560   2.604
10778SOL    HW233234   5.944   5.538   2.715
10779SOL     OW33235   5.031   2.763   4.079
10779SOL    HW133236   5.095   2.707   4.025
10779SOL    HW233237   5.011   2.717   4.165
10780SOL     OW33238   6.397   0.143   2.475
10780SOL    HW133239   6.425   0.127   2.380
10780SOL    HW233240   6.439   0.228   2.508
10781SOL     OW33241   3.617   0.099   4.132
10781SOL    HW133242   3.710   0.088   4.168
10781SOL    HW233243   3.584   0.010   4.100
10782SOL     OW33244   6.112   5.244   4.161
10782SOL    HW133245   6.088   5.313   4.092
10782SOL    HW233246   6.194   5.196   4.131
10783SOL     OW33247   6.899   1.808   3.419
10783SOL    HW133248   6.993   1.840   3.413
10783SOL    HW233249   6.866   1.817   3.513
10784SOL     OW33250   2.892   1.547   4.622
10784SOL    HW133251   2.953   1.485   4.672
10784SOL    HW233252   2.798   1.516   4.632
10785SOL     OW33253   1.193   3.871   6.140
10785SOL    HW133254   1.289   3.856   6.164
10785SOL    HW233255   1.136   3.804   6.187
10786SOL     OW33256   0.476   4.718   3.452
10786SOL    HW133257   0.431   4.714   3.363
10786SOL    HW233258   0.428   4.784   3.511
10787SOL     OW33259   1.736   2.194   6.495
10787SOL    HW133260   1.699   2.236   6.413
10787SOL    HW233261   1.705   2.245   6.576
10788SOL     OW33262   5.999   3.699   5.934
10788SOL    HW133263   5.926   3.761   5.963
10788SOL    HW233264   6.086   3.731   5.972
10789SOL     OW33265   5.912   1.847   0.907
10789SOL    HW133266   5.825   1.811   0.941
10789SOL    HW233267   5.987   1.812   0.963
10790SOL     OW33268   0.054   6.098   3.087
10790SOL    HW133269   0.107   6.141   3.015
10790SOL    HW233270   0.075   6.141   3.175
10791SOL     OW33271   0.633   6.619   2.945
10791SOL    HW133272   0.606   6.682   2.872
10791SOL    HW233273   0.729   6.634   2.968
10792SOL     OW33274   3.958   4.117   5.367
10792SOL    HW133275   3.898   4.176   5.313
10792SOL    HW233276   4.000   4.049   5.308
10793SOL     OW33277   6.038   3.763   4.707
10793SOL    HW133278   5.995   3.834   4.763
10793SOL    HW233279   6.096   3.707   4.765
10794SOL     OW33280   3.354   4.158   3.591
10794SOL    HW133281   3.437   4.178   3.643
10794SOL    HW233282   3.281   4.220   3.619
10795SOL     OW33283   7.009   4.671   3.299
10795SOL    HW133284   6.915   4.687   3.269
10795SOL    HW233285   7.013   4.586   3.351
10796SOL     OW33286   1.159   6.185   5.147
10796SOL    HW133287   1.223   6.262   5.139
10796SOL    HW233288   1.066   6.220   5.160
10797SOL     OW33289   3.563   2.269   0.055
10797SOL    HW133290   3.595   2.183   0.015
10797SOL    HW233291   3.598   2.346   0.001
10798SOL     OW33292   6.821   1.323   1.261
10798SOL    HW133293   6.823   1.290   1.355
10798SOL    HW233294   6.728   1.349   1.236
10799SOL     OW33295   4.720   2.138   1.473
10799SOL    HW133296   4.646   2.200   1.497
10799SOL    HW233297   4.707   2.050   1.520
10800SOL     OW33298   0.470   0.181   1.724
10800SOL    HW133299   0.375   0.180   1.692
10800SOL    HW233300   0.509   0.089   1.715
10801SOL     OW33301   1.688   0.573   1.135
10801SOL    HW133302   1.678   0.535   1.227
10801SOL    HW233303   1.747   0.514   1.080
10802SOL     OW33304   6.391   1.180   3.492
10802SOL    HW133305   6.301   1.138   3.493
10802SOL    HW233306   6.382   1.278   3.479
10803SOL     OW33307   2.006   5.724   6.113
10803SOL    HW133308   2.045   5.720   6.205
10803SOL    HW233309   2.006   5.632   6.073
10804SOL     OW33310   0.295   3.038   4.376
10804SOL    HW133311   0.382   3.078   4.407
10804SOL    HW233312   0.261   2.976   4.447
10805SOL     OW33313   6.502   1.312   6.551
10805SOL    HW133314   6.546   1.236   6.503
10805SOL    HW233315   6.449   1.367   6.486
10806SOL     OW33316   1.764   5.160   6.829
10806SOL    HW133317   1.813   5.247   6.828
10806SOL    HW233318   1.822   5.089   6.869
10807SOL     OW33319   2.698   5.943   5.394
10807SOL    HW133320   2.669   5.852   5.423
10807SOL    HW233321   2.748   5.988   5.468
10808SOL     OW33322   0.893   3.337   6.312
10808SOL    HW133323   0.802   3.370   6.289
10808SOL    HW233324   0.961   3.383   6.253
10809SOL     OW33325   2.045   0.376   4.604
10809SOL    HW133326   2.008   0.438   4.535
10809SOL    HW233327   2.067   0.288   4.562
10810SOL     OW33328   6.720   0.282   3.916
10810SOL    HW133329   6.710   0.331   3.829
10810SOL    HW233330   6.683   0.338   3.990
10811SOL     OW33331   5.286   5.044   4.462
10811SOL    HW133332   5.354   5.040   4.536
10811SOL    HW233333   5.203   5.087   4.496
10812SOL     OW33334   6.086   2.929   0.412
10812SOL    HW133335   5.994   2.895   0.390
10812SOL    HW233336   6.080   3.026   0.438
10813SOL     OW33337   0.563   3.420   5.978
10813SOL    HW133338   0.538   3.452   6.069
10813SOL    HW233339   0.659   3.393   5.977
10814SOL     OW33340   3.278   1.217   1.354
10814SOL    HW133341   3.189   1.260   1.343
10814SOL    HW233342   3.350   1.286   1.347
10815SOL     OW33343   5.668   0.888   4.527
10815SOL    HW133344   5.630   0.978   4.508
10815SOL    HW233345   5.650   0.828   4.448
10816SOL     OW33346   3.722   2.931   4.707
10816SOL    HW133347   3.728   2.961   4.611
10816SOL    HW233348   3.665   2.850   4.712
10817SOL     OW33349   1.450   6.221   3.674
10817SOL    HW133350   1.546   6.240   3.692
10817SOL    HW233351   1.398   6.224   3.759
10818SOL     OW33352   3.903   4.444   6.915
10818SOL    HW133353   3.869   4.353   6.938
10818SOL    HW233354   3.838   4.513   6.946
10819SOL     OW33355   6.228   6.557   5.209
10819SOL    HW133356   6.256   6.615   5.132
10819SOL    HW233357   6.138   6.585   5.241
10820SOL     OW33358   2.732   4.455   5.924
10820SOL    HW133359   2.654   4.516   5.911
10820SOL    HW233360   2.712   4.390   5.997
10821SOL     OW33361   4.906   5.347   2.751
10821SOL    HW133362   4.925   5.445   2.758
10821SOL    HW233363   4.993   5.298   2.741
10822SOL     OW33364   5.440   1.254   1.735
10822SOL    HW133365   5.470   1.271   1.829
10822SOL    HW233366   5.505   1.293   1.671
10823SOL     OW33367   5.722   6.645   1.205
10823SOL    HW133368   5.725   6.743   1.223
10823SOL    HW233369   5.778   6.625   1.124
10824SOL     OW33370   1.131   2.928   3.846
10824SOL    HW133371   1.087   2.839   3.857
10824SOL    HW233372   1.223   2.925   3.885
10825SOL     OW33373   0.621   2.848   0.445
10825SOL    HW133374   0.542   2.787   0.452
10825SOL    HW233375   0.615   2.917   0.517
10826SOL     OW33376   0.411   3.493   3.005
10826SOL    HW133377   0.448   3.560   2.939
10826SOL    HW233378   0.337   3.535   3.057
10827SOL     OW33379   0.105   4.311   4.808
10827SOL    HW133380   0.086   4.256   4.726
10827SOL    HW233381   0.202   4.308   4.829
10828SOL     OW33382   6.311   4.404   5.243
10828SOL    HW133383   6.324   4.450   5.330
10828SOL    HW233384   6.388   4.343   5.225
10829SOL     OW33385   3.687   3.046   5.199
10829SOL    HW133386   3.660   3.052   5.103
10829SOL    HW233387   3.614   3.002   5.252
10830SOL     OW33388   4.555   2.039   3.257
10830SOL    HW133389   4.639   1.984   3.262
10830SOL    HW233390   4.565   2.108   3.185
10831SOL     OW33391   4.091   6.843   4.170
10831SOL    HW133392   4.046   6.866   4.084
10831SOL    HW233393   4.023   6.814   4.237
10832SOL     OW33394   6.691   2.716   0.050
10832SOL    HW133395   6.680   2.806   0.092
10832SOL    HW233396   6.611   2.660   0.070
10833SOL     OW33397   0.751   1.352   0.067
10833SOL    HW133398   0.825   1.409   0.033
10833SOL    HW233399   0.713   1.392   0.150
10834SOL     OW33400   6.055   6.502   1.585
10834SOL    HW133401   5.983   6.549   1.636
10834SOL    HW233402   6.018   6.469   1.498
10835SOL     OW33403   0.200   2.221   5.424
10835SOL    HW133404   0.268   2.248   5.493
10835SOL    HW233405   0.246   2.175   5.349
10836SOL     OW33406   6.984   1.127   3.599
10836SOL    HW133407   0.008   1.164   3.521
10836SOL    HW233408   6.944   1.202   3.652
10837SOL     OW33409   0.643   3.406   3.340
10837SOL    HW133410   0.651   3.477   3.411
10837SOL    HW233411   0.550   3.403   3.306
10838SOL     OW33412   0.348   5.986   2.302
10838SOL    HW133413   0.374   5.953   2.211
10838SOL    HW233414   0.249   5.997   2.307
10839SOL     OW33415   4.813   2.772   0.422
10839SOL    HW133416   4.735   2.743   0.366
10839SOL    HW233417   4.804   2.734   0.514
10840SOL     OW33418   2.489   0.227   1.688
10840SOL    HW133419   2.456   0.133   1.677
10840SOL    HW233420   2.509   0.265   1.597
10841SOL     OW33421   2.079   5.285   4.946
10841SOL    HW133422   2.022   5.325   4.874
10841SOL    HW233423   2.146   5.224   4.905
10842SOL     OW33424   5.440   4.499   1.844
10842SOL    HW133425   5.391   4.531   1.926
10842SOL    HW233426   5.470   4.405   1.858
10843SOL     OW33427   2.909   2.017   1.301
10843SOL    HW133428   2.989   1.987   1.353
10843SOL    HW233429   2.908   1.971   1.212
10844SOL     OW33430   1.296   5.345   5.285
10844SOL    HW133431   1.303   5.432   5.335
10844SOL    HW233432   1.367   5.282   5.318
10845SOL     OW33433   3.719   7.016   4.432
10845SOL    HW133434   3.773   0.015   4.352
10845SOL    HW233435   3.761   0.029   4.514
10846SOL     OW33436   5.586   0.261   6.064
10846SOL    HW133437   5.654   0.188   6.070
10846SOL    HW233438   5.494   0.221   6.058
10847SOL     OW33439   3.246   0.665   6.151
10847SOL    HW133440   3.226   0.576   6.193
10847SOL    HW233441   3.342   0.667   6.122
10848SOL     OW33442   1.725   4.663   1.808
10848SOL    HW133443   1.749   4.608   1.728
10848SOL    HW233444   1.630   4.692   1.801
10849SOL     OW33445   2.426   6.935   3.389
10849SOL    HW133446   2.365   7.002   3.431
10849SOL    HW233447   2.488   6.899   3.459
10850SOL     OW33448   4.673   4.388   0.880
10850SOL    HW133449   4.601   4.401   0.948
10850SOL    HW233450   4.635   4.341   0.800
10851SOL     OW33451   1.615   4.735   0.792
10851SOL    HW133452   1.558   4.687   0.725
10851SOL    HW233453   1.641   4.672   0.865
10852SOL     OW33454   2.435   2.174   2.439
10852SOL    HW133455   2.343   2.197   2.471
10852SOL    HW233456   2.484   2.259   2.418
10853SOL     OW33457   3.632   1.353   6.179
10853SOL    HW133458   3.580   1.439   6.182
10853SOL    HW233459   3.580   1.285   6.126
10854SOL     OW33460   2.781   6.356   5.400
10854SOL    HW133461   2.704   6.309   5.357
10854SOL    HW233462   2.746   6.423   5.466
10855SOL     OW33463   3.978   1.653   0.027
10855SOL    HW133464   4.018   1.621   6.967
10855SOL    HW233465   4.048   1.652   0.099
10856SOL     OW33466   0.573   1.276   0.649
10856SOL    HW133467   0.559   1.264   0.551
10856SOL    HW233468   0.553   1.370   0.675
10857SOL     OW33469   6.321   2.937   2.191
10857SOL    HW133470   6.401   2.948   2.132
10857SOL    HW233471   6.275   3.025   2.203
10858SOL     OW33472   2.774   6.559   2.347
10858SOL    HW133473   2.798   6.655   2.335
10858SOL    HW233474   2.739   6.522   2.261
10859SOL     OW33475   1.527   5.561   3.782
10859SOL    HW133476   1.472   5.634   3.821
10859SOL    HW233477   1.621   5.593   3.770
10860SOL     OW33478   7.023   3.901   3.565
10860SOL    HW133479   0.033   3.824   3.512
10860SOL    HW233480   6.932   3.878   3.600
10861SOL     OW33481   3.466   2.887   5.271
10861SOL    HW133482   3.384   2.927   5.230
10861SOL    HW233483   3.445   2.855   5.363
10862SOL     OW33484   0.920   0.505   5.020
10862SOL    HW133485   0.953   0.546   5.105
10862SOL    HW233486   0.989   0.516   4.949
10863SOL     OW33487   2.442   6.451   4.458
10863SOL    HW133488   2.540   6.465   4.471
10863SOL    HW233489   2.391   6.520   4.509
10864SOL     OW33490   3.594   6.209   2.701
10864SOL    HW133491   3.658   6.140   2.666
10864SOL    HW233492   3.601   6.291   2.645
10865SOL     OW33493   6.419   1.682   5.936
10865SOL    HW133494   6.341   1.624   5.957
10865SOL    HW233495   6.503   1.628   5.937
10866SOL     OW33496   5.014   5.023   0.422
10866SOL    HW133497   4.948   4.986   0.356
10866SOL    HW233498   5.051   4.948   0.477
10867SOL     OW33499   3.185   1.697   0.336
10867SOL    HW133500   3.229   1.693   0.426
10867SOL    HW233501   3.255   1.696   0.265
10868SOL     OW33502   2.825   2.185   3.206
10868SOL    HW133503   2.818   2.261   3.270
10868SOL    HW233504   2.829   2.099   3.256
10869NA      NA33505   6.375   2.395   5.424
10870NA      NA33506   4.337   4.636   5.260
10871NA      NA33507   2.196   3.556   1.748
10872NA      NA33508   4.813   3.730   5.271
10873NA      NA33509   4.371   2.356   5.195
10874NA      NA33510   3.694   4.727   1.600
10875NA      NA33511   6.519   6.172   4.494
10876NA      NA33512   3.635   3.510   4.920
10877NA      NA33513   4.724   6.678   6.463
10878NA      NA33514   2.669   0.326   4.959
10879NA      NA33515   0.525   4.951   2.473
10880NA      NA33516   2.882   0.592   2.847
10881NA      NA33517   3.430   4.227   1.408
10882NA      NA33518   3.523   3.127   2.824
   7.02553   7.02553   7.02553
