Generated by trjconv : CNT in water t= 369.00000
33518
    1C        C    1   2.841   2.766   4.743
    1C        C    2   2.899   2.718   4.862
    1C        C    3   2.849   2.776   4.980
    1C        C    4   2.850   2.777   4.259
    1C        C    5   2.901   2.726   4.379
    1C        C    6   2.846   2.771   4.502
    1C        C    7   3.010   2.636   4.622
    1C        C    8   2.891   2.713   4.622
    1C        C    9   3.075   2.600   4.742
    1C        C   10   3.011   2.631   4.864
    1C        C   11   3.183   2.490   4.975
    1C        C   12   3.063   2.563   4.974
    1C        C   13   2.849   2.769   3.772
    1C        C   14   2.900   2.719   3.894
    1C        C   15   2.851   2.774   4.015
    1C        C   16   3.019   2.646   4.136
    1C        C   17   2.904   2.727   4.138
    1C        C   18   3.079   2.612   4.259
    1C        C   19   3.016   2.643   4.381
    1C        C   20   3.207   2.548   4.503
    1C        C   21   3.076   2.601   4.502
    1C        C   22   3.279   2.537   4.624
    1C        C   23   3.209   2.551   4.745
    1C        C   24   3.413   2.483   4.864
    1C        C   25   3.271   2.502   4.863
    1C        C   26   3.488   2.472   4.982
    1C        C   27   2.850   2.765   3.281
    1C        C   28   2.900   2.717   3.405
    1C        C   29   2.849   2.768   3.526
    1C        C   30   3.013   2.636   3.649
    1C        C   31   2.899   2.720   3.649
    1C        C   32   3.075   2.597   3.771
    1C        C   33   3.014   2.635   3.892
    1C        C   34   3.208   2.549   4.015
    1C        C   35   3.077   2.603   4.014
    1C        C   36   3.275   2.529   4.137
    1C        C   37   3.210   2.559   4.259
    1C        C   38   3.416   2.505   4.378
    1C        C   39   3.278   2.536   4.381
    1C        C   40   3.485   2.497   4.501
    1C        C   41   3.416   2.503   4.624
    1C        C   42   3.631   2.482   4.743
    1C        C   43   3.489   2.481   4.743
    1C        C   44   3.703   2.478   4.864
    1C        C   45   3.627   2.470   4.982
    1C        C   46   2.829   2.749   2.794
    1C        C   47   2.888   2.704   2.915
    1C        C   48   2.838   2.758   3.036
    1C        C   49   3.011   2.634   3.161
    1C        C   50   2.898   2.718   3.157
    1C        C   51   3.076   2.602   3.282
    1C        C   52   3.017   2.638   3.406
    1C        C   53   3.206   2.544   3.527
    1C        C   54   3.076   2.599   3.528
    1C        C   55   3.273   2.526   3.650
    1C        C   56   3.205   2.543   3.772
    1C        C   57   3.414   2.497   3.894
    1C        C   58   3.275   2.523   3.893
    1C        C   59   3.486   2.491   4.016
    1C        C   60   3.413   2.500   4.136
    1C        C   61   3.628   2.495   4.256
    1C        C   62   3.487   2.493   4.257
    1C        C   63   3.700   2.499   4.378
    1C        C   64   3.626   2.490   4.497
    1C        C   65   3.833   2.537   4.620
    1C        C   66   3.696   2.500   4.619
    1C        C   67   3.903   2.554   4.741
    1C        C   68   3.838   2.516   4.861
    1C        C   69   4.049   2.583   4.973
    1C        C   70   3.918   2.533   4.975
    1C        C   71   2.820   2.732   2.309
    1C        C   72   2.877   2.689   2.431
    1C        C   73   2.828   2.741   2.552
    1C        C   74   3.002   2.620   2.673
    1C        C   75   2.884   2.697   2.674
    1C        C   76   3.065   2.587   2.795
    1C        C   77   3.005   2.626   2.917
    1C        C   78   3.203   2.545   3.036
    1C        C   79   3.072   2.599   3.038
    1C        C   80   3.270   2.522   3.158
    1C        C   81   3.206   2.545   3.282
    1C        C   82   3.411   2.498   3.399
    1C        C   83   3.272   2.522   3.404
    1C        C   84   3.479   2.497   3.523
    1C        C   85   3.413   2.503   3.648
    1C        C   86   3.624   2.499   3.769
    1C        C   87   3.482   2.494   3.771
    1C        C   88   3.694   2.511   3.890
    1C        C   89   3.627   2.500   4.014
    1C        C   90   3.835   2.545   4.133
    1C        C   91   3.701   2.502   4.135
    1C        C   92   3.902   2.568   4.255
    1C        C   93   3.836   2.537   4.376
    1C        C   94   4.024   2.633   4.497
    1C        C   95   3.900   2.565   4.499
    1C        C   96   4.089   2.667   4.618
    1C        C   97   4.027   2.622   4.737
    1C        C   98   4.188   2.761   4.859
    1C        C   99   4.097   2.651   4.857
    1C        C  100   4.213   2.838   4.974
    1C        C  101   2.812   2.723   2.072
    1C        C  102   2.989   2.592   2.187
    1C        C  103   2.872   2.675   2.189
    1C        C  104   3.059   2.571   2.309
    1C        C  105   2.993   2.608   2.429
    1C        C  106   3.194   2.533   2.552
    1C        C  107   3.062   2.584   2.550
    1C        C  108   3.267   2.515   2.671
    1C        C  109   3.197   2.536   2.792
    1C        C  110   3.406   2.493   2.911
    1C        C  111   3.268   2.522   2.913
    1C        C  112   3.477   2.489   3.033
    1C        C  113   3.409   2.499   3.156
    1C        C  114   3.623   2.502   3.279
    1C        C  115   3.482   2.493   3.277
    1C        C  116   3.691   2.514   3.402
    1C        C  117   3.620   2.504   3.524
    1C        C  118   3.828   2.547   3.642
    1C        C  119   3.692   2.511   3.645
    1C        C  120   3.894   2.575   3.764
    1C        C  121   3.830   2.549   3.888
    1C        C  122   4.024   2.639   4.009
    1C        C  123   3.897   2.576   4.010
    1C        C  124   4.084   2.675   4.132
    1C        C  125   4.028   2.633   4.255
    1C        C  126   4.195   2.764   4.376
    1C        C  127   4.087   2.673   4.377
    1C        C  128   4.245   2.816   4.497
    1C        C  129   4.190   2.766   4.617
    1C        C  130   4.320   2.934   4.738
    1C        C  131   4.239   2.817   4.739
    1C        C  132   4.354   3.001   4.857
    1C        C  133   4.283   2.958   4.971
    1C        C  134   3.170   2.469   2.078
    1C        C  135   3.036   2.509   2.081
    1C        C  136   3.254   2.479   2.189
    1C        C  137   3.191   2.519   2.309
    1C        C  138   3.400   2.482   2.426
    1C        C  139   3.261   2.505   2.431
    1C        C  140   3.477   2.484   2.545
    1C        C  141   3.407   2.496   2.667
    1C        C  142   3.619   2.502   2.789
    1C        C  143   3.478   2.494   2.789
    1C        C  144   3.690   2.512   2.911
    1C        C  145   3.618   2.498   3.032
    1C        C  146   3.826   2.543   3.152
    1C        C  147   3.688   2.512   3.154
    1C        C  148   3.896   2.567   3.273
    1C        C  149   3.827   2.549   3.395
    1C        C  150   4.019   2.633   3.517
    1C        C  151   3.892   2.572   3.518
    1C        C  152   4.079   2.669   3.640
    1C        C  153   4.020   2.638   3.765
    1C        C  154   4.194   2.761   3.887
    1C        C  155   4.081   2.677   3.886
    1C        C  156   4.247   2.810   4.008
    1C        C  157   4.195   2.761   4.130
    1C        C  158   4.337   2.919   4.252
    1C        C  159   4.244   2.813   4.253
    1C        C  160   4.375   2.983   4.373
    1C        C  161   4.332   2.927   4.495
    1C        C  162   4.438   3.111   4.613
    1C        C  163   4.371   2.987   4.617
    1C        C  164   4.464   3.182   4.732
    1C        C  165   4.428   3.121   4.854
    1C        C  166   4.510   3.319   4.969
    1C        C  167   4.476   3.184   4.969
    1C        C  168   3.472   2.428   2.076
    1C        C  169   3.393   2.454   2.189
    1C        C  170   3.614   2.465   2.305
    1C        C  171   3.472   2.459   2.306
    1C        C  172   3.686   2.490   2.423
    1C        C  173   3.618   2.489   2.547
    1C        C  174   3.827   2.542   2.665
    1C        C  175   3.690   2.507   2.667
    1C        C  176   3.892   2.571   2.786
    1C        C  177   3.827   2.547   2.909
    1C        C  178   4.022   2.627   3.031
    1C        C  179   3.895   2.567   3.031
    1C        C  180   4.086   2.662   3.152
    1C        C  181   4.023   2.629   3.273
    1C        C  182   4.196   2.751   3.396
    1C        C  183   4.083   2.666   3.396
    1C        C  184   4.246   2.800   3.519
    1C        C  185   4.192   2.753   3.641
    1C        C  186   4.335   2.913   3.762
    1C        C  187   4.242   2.807   3.762
    1C        C  188   4.375   2.975   3.883
    1C        C  189   4.337   2.919   4.007
    1C        C  190   4.443   3.101   4.127
    1C        C  191   4.379   2.976   4.130
    1C        C  192   4.468   3.172   4.247
    1C        C  193   4.438   3.109   4.370
    1C        C  194   4.497   3.315   4.489
    1C        C  195   4.462   3.179   4.491
    1C        C  196   4.511   3.389   4.609
    1C        C  197   4.501   3.320   4.732
    1C        C  198   4.553   3.533   4.846
    1C        C  199   4.528   3.393   4.851
    1C        C  200   4.584   3.622   4.954
    1C        C  201   3.612   2.420   2.071
    1C        C  202   3.824   2.509   2.182
    1C        C  203   3.689   2.461   2.184
    1C        C  204   3.893   2.547   2.301
    1C        C  205   3.823   2.525   2.422
    1C        C  206   4.017   2.625   2.542
    1C        C  207   3.892   2.560   2.540
    1C        C  208   4.085   2.659   2.661
    1C        C  209   4.021   2.631   2.784
    1C        C  210   4.191   2.751   2.907
    1C        C  211   4.081   2.662   2.907
    1C        C  212   4.248   2.798   3.027
    1C        C  213   4.198   2.749   3.150
    1C        C  214   4.335   2.908   3.270
    1C        C  215   4.247   2.798   3.273
    1C        C  216   4.366   2.971   3.393
    1C        C  217   4.331   2.913   3.517
    1C        C  218   4.432   3.099   3.637
    1C        C  219   4.374   2.971   3.638
    1C        C  220   4.462   3.167   3.757
    1C        C  221   4.438   3.101   3.880
    1C        C  222   4.499   3.302   4.001
    1C        C  223   4.467   3.165   4.003
    1C        C  224   4.509   3.376   4.121
    1C        C  225   4.503   3.308   4.245
    1C        C  226   4.517   3.523   4.365
    1C        C  227   4.512   3.382   4.365
    1C        C  228   4.520   3.600   4.483
    1C        C  229   4.527   3.529   4.605
    1C        C  230   4.503   3.743   4.726
    1C        C  231   4.539   3.605   4.724
    1C        C  232   4.494   3.821   4.843
    1C        C  233   4.537   3.753   4.958
    1C        C  234   4.013   2.613   2.060
    1C        C  235   3.893   2.544   2.065
    1C        C  236   4.080   2.652   2.177
    1C        C  237   4.018   2.615   2.298
    1C        C  238   4.196   2.736   2.418
    1C        C  239   4.077   2.658   2.419
    1C        C  240   4.252   2.786   2.538
    1C        C  241   4.198   2.743   2.662
    1C        C  242   4.337   2.904   2.780
    1C        C  243   4.246   2.796   2.784
    1C        C  244   4.380   2.961   2.902
    1C        C  245   4.341   2.905   3.025
    1C        C  246   4.440   3.092   3.146
    1C        C  247   4.377   2.965   3.148
    1C        C  248   4.462   3.159   3.269
    1C        C  249   4.432   3.096   3.392
    1C        C  250   4.504   3.296   3.513
    1C        C  251   4.460   3.162   3.513
    1C        C  252   4.515   3.368   3.634
    1C        C  253   4.504   3.301   3.758
    1C        C  254   4.519   3.514   3.876
    1C        C  255   4.515   3.373   3.880
    1C        C  256   4.515   3.586   3.997
    1C        C  257   4.519   3.517   4.120
    1C        C  258   4.489   3.729   4.239
    1C        C  259   4.511   3.590   4.240
    1C        C  260   4.466   3.801   4.358
    1C        C  261   4.486   3.737   4.483
    1C        C  262   4.425   3.940   4.603
    1C        C  263   4.474   3.808   4.604
    1C        C  264   4.400   4.013   4.721
    1C        C  265   4.432   3.948   4.842
    1C        C  266   4.315   4.128   4.956
    1C        C  267   4.393   4.013   4.960
    1C        C  268   4.267   2.769   2.060
    1C        C  269   4.198   2.730   2.176
    1C        C  270   4.348   2.884   2.296
    1C        C  271   4.252   2.779   2.296
    1C        C  272   4.388   2.947   2.416
    1C        C  273   4.343   2.893   2.538
    1C        C  274   4.453   3.080   2.658
    1C        C  275   4.383   2.957   2.658
    1C        C  276   4.480   3.147   2.780
    1C        C  277   4.449   3.084   2.902
    1C        C  278   4.509   3.290   3.024
    1C        C  279   4.471   3.154   3.023
    1C        C  280   4.516   3.361   3.146
    1C        C  281   4.497   3.295   3.269
    1C        C  282   4.518   3.508   3.389
    1C        C  283   4.512   3.367   3.391
    1C        C  284   4.515   3.578   3.511
    1C        C  285   4.522   3.509   3.634
    1C        C  286   4.494   3.723   3.753
    1C        C  287   4.521   3.585   3.754
    1C        C  288   4.465   3.790   3.874
    1C        C  289   4.481   3.724   3.998
    1C        C  290   4.421   3.931   4.114
    1C        C  291   4.472   3.799   4.117
    1C        C  292   4.392   3.997   4.235
    1C        C  293   4.422   3.936   4.359
    1C        C  294   4.328   4.127   4.478
    1C        C  295   4.398   4.004   4.480
    1C        C  296   4.282   4.188   4.597
    1C        C  297   4.328   4.136   4.720
    1C        C  298   4.200   4.314   4.839
    1C        C  299   4.289   4.203   4.840
    1C        C  300   4.160   4.394   4.951
    1C        C  301   4.350   2.880   2.059
    1C        C  302   4.471   3.065   2.173
    1C        C  303   4.396   2.943   2.176
    1C        C  304   4.489   3.140   2.293
    1C        C  305   4.448   3.075   2.412
    1C        C  306   4.514   3.278   2.532
    1C        C  307   4.480   3.140   2.533
    1C        C  308   4.520   3.352   2.652
    1C        C  309   4.505   3.286   2.776
    1C        C  310   4.518   3.496   2.897
    1C        C  311   4.514   3.355   2.899
    1C        C  312   4.511   3.569   3.018
    1C        C  313   4.514   3.503   3.143
    1C        C  314   4.477   3.712   3.263
    1C        C  315   4.508   3.574   3.264
    1C        C  316   4.467   3.783   3.385
    1C        C  317   4.489   3.717   3.508
    1C        C  318   4.418   3.918   3.626
    1C        C  319   4.471   3.787   3.629
    1C        C  320   4.388   3.985   3.747
    1C        C  321   4.420   3.924   3.870
    1C        C  322   4.318   4.112   3.989
    1C        C  323   4.391   3.992   3.991
    1C        C  324   4.274   4.168   4.111
    1C        C  325   4.319   4.119   4.235
    1C        C  326   4.186   4.284   4.350
    1C        C  327   4.283   4.182   4.356
    1C        C  328   4.139   4.339   4.471
    1C        C  329   4.194   4.298   4.595
    1C        C  330   4.031   4.439   4.709
    1C        C  331   4.147   4.358   4.714
    1C        C  332   3.971   4.490   4.826
    1C        C  333   4.048   4.478   4.942
    1C        C  334   4.553   3.262   2.058
    1C        C  335   4.541   3.122   2.062
    1C        C  336   4.538   3.347   2.168
    1C        C  337   4.516   3.279   2.291
    1C        C  338   4.521   3.493   2.410
    1C        C  339   4.522   3.351   2.412
    1C        C  340   4.513   3.562   2.533
    1C        C  341   4.527   3.493   2.656
    1C        C  342   4.485   3.706   2.773
    1C        C  343   4.518   3.568   2.775
    1C        C  344   4.465   3.774   2.895
    1C        C  345   4.482   3.707   3.018
    1C        C  346   4.418   3.911   3.138
    1C        C  347   4.467   3.778   3.139
    1C        C  348   4.389   3.979   3.258
    1C        C  349   4.421   3.917   3.381
    1C        C  350   4.311   4.099   3.500
    1C        C  351   4.387   3.980   3.502
    1C        C  352   4.271   4.159   3.621
    1C        C  353   4.311   4.104   3.745
    1C        C  354   4.176   4.269   3.863
    1C        C  355   4.270   4.163   3.866
    1C        C  356   4.122   4.315   3.986
    1C        C  357   4.173   4.267   4.109
    1C        C  358   4.007   4.402   4.228
    1C        C  359   4.124   4.323   4.229
    1C        C  360   3.950   4.442   4.351
    1C        C  361   4.021   4.416   4.470
    1C        C  362   3.830   4.517   4.590
    1C        C  363   3.960   4.463   4.589
    1C        C  364   3.761   4.546   4.710
    1C        C  365   3.837   4.536   4.828
    1C        C  366   3.626   4.585   4.950
    1C        C  367   3.764   4.568   4.944
    1C        C  368   4.504   3.563   2.054
    1C        C  369   4.524   3.487   2.171
    1C        C  370   4.495   3.704   2.287
    1C        C  371   4.518   3.565   2.288
    1C        C  372   4.474   3.774   2.408
    1C        C  373   4.493   3.702   2.528
    1C        C  374   4.419   3.903   2.646
    1C        C  375   4.472   3.772   2.649
    1C        C  376   4.387   3.967   2.768
    1C        C  377   4.414   3.906   2.893
    1C        C  378   4.316   4.094   3.009
    1C        C  379   4.387   3.972   3.015
    1C        C  380   4.274   4.153   3.130
    1C        C  381   4.310   4.096   3.254
    1C        C  382   4.180   4.264   3.377
    1C        C  383   4.269   4.154   3.377
    1C        C  384   4.120   4.308   3.498
    1C        C  385   4.174   4.262   3.620
    1C        C  386   4.005   4.393   3.741
    1C        C  387   4.123   4.315   3.741
    1C        C  388   3.945   4.433   3.862
    1C        C  389   4.004   4.392   3.984
    1C        C  390   3.816   4.492   4.107
    1C        C  391   3.944   4.433   4.105
    1C        C  392   3.750   4.521   4.228
    1C        C  393   3.821   4.500   4.349
    1C        C  394   3.616   4.554   4.471
    1C        C  395   3.755   4.530   4.470
    1C        C  396   3.547   4.563   4.593
    1C        C  397   3.621   4.564   4.714
    1C        C  398   3.409   4.553   4.835
    1C        C  399   3.549   4.574   4.834
    1C        C  400   3.340   4.518   4.952
    1C        C  401   4.504   3.702   2.049
    1C        C  402   4.452   3.913   2.163
    1C        C  403   4.487   3.776   2.166
    1C        C  404   4.412   3.977   2.283
    1C        C  405   4.429   3.908   2.405
    1C        C  406   4.321   4.093   2.523
    1C        C  407   4.391   3.970   2.525
    1C        C  408   4.277   4.149   2.645
    1C        C  409   4.312   4.086   2.767
    1C        C  410   4.173   4.251   2.889
    1C        C  411   4.270   4.148   2.887
    1C        C  412   4.122   4.299   3.012
    1C        C  413   4.172   4.252   3.135
    1C        C  414   4.004   4.382   3.252
    1C        C  415   4.125   4.309   3.255
    1C        C  416   3.940   4.416   3.374
    1C        C  417   4.005   4.388   3.496
    1C        C  418   3.810   4.474   3.618
    1C        C  419   3.943   4.425   3.618
    1C        C  420   3.747   4.504   3.741
    1C        C  421   3.815   4.487   3.864
    1C        C  422   3.608   4.543   3.980
    1C        C  423   3.746   4.510   3.985
    1C        C  424   3.541   4.547   4.104
    1C        C  425   3.611   4.546   4.227
    1C        C  426   3.401   4.550   4.355
    1C        C  427   3.542   4.554   4.350
    1C        C  428   3.332   4.544   4.478
    1C        C  429   3.406   4.552   4.598
    1C        C  430   3.192   4.516   4.721
    1C        C  431   3.332   4.541   4.718
    1C        C  432   3.121   4.495   4.843
    1C        C  433   3.202   4.500   4.957
    1C        C  434   4.382   4.123   2.047
    1C        C  435   4.448   4.000   2.053
    1C        C  436   4.306   4.165   2.161
    1C        C  437   4.336   4.097   2.282
    1C        C  438   4.182   4.251   2.400
    1C        C  439   4.277   4.147   2.401
    1C        C  440   4.126   4.297   2.521
    1C        C  441   4.179   4.252   2.644
    1C        C  442   4.006   4.375   2.763
    1C        C  443   4.124   4.298   2.765
    1C        C  444   3.945   4.413   2.885
    1C        C  445   4.008   4.382   3.008
    1C        C  446   3.812   4.469   3.129
    1C        C  447   3.943   4.415   3.129
    1C        C  448   3.745   4.493   3.251
    1C        C  449   3.810   4.472   3.375
    1C        C  450   3.604   4.524   3.493
    1C        C  451   3.742   4.495   3.496
    1C        C  452   3.536   4.538   3.616
    1C        C  453   3.609   4.534   3.736
    1C        C  454   3.397   4.544   3.865
    1C        C  455   3.538   4.548   3.858
    1C        C  456   3.328   4.536   3.988
    1C        C  457   3.400   4.540   4.109
    1C        C  458   3.194   4.500   4.238
    1C        C  459   3.332   4.533   4.233
    1C        C  460   3.125   4.484   4.360
    1C        C  461   3.196   4.507   4.479
    1C        C  462   2.995   4.433   4.600
    1C        C  463   3.125   4.489   4.600
    1C        C  464   2.930   4.399   4.720
    1C        C  465   2.988   4.443   4.842
    1C        C  466   2.801   4.336   4.958
    1C        C  467   2.909   4.426   4.960
    1C        C  468   4.126   4.287   2.041
    1C        C  469   4.192   4.252   2.160
    1C        C  470   4.015   4.383   2.276
    1C        C  471   4.132   4.303   2.278
    1C        C  472   3.947   4.410   2.397
    1C        C  473   4.009   4.376   2.520
    1C        C  474   3.811   4.458   2.642
    1C        C  475   3.943   4.406   2.641
    1C        C  476   3.746   4.489   2.764
    1C        C  477   3.815   4.467   2.885
    1C        C  478   3.606   4.512   3.006
    1C        C  479   3.745   4.486   3.006
    1C        C  480   3.535   4.528   3.127
    1C        C  481   3.607   4.522   3.248
    1C        C  482   3.394   4.534   3.373
    1C        C  483   3.535   4.532   3.369
    1C        C  484   3.326   4.527   3.497
    1C        C  485   3.395   4.538   3.620
    1C        C  486   3.190   4.493   3.745
    1C        C  487   3.326   4.532   3.743
    1C        C  488   3.125   4.472   3.869
    1C        C  489   3.193   4.494   3.990
    1C        C  490   3.004   4.409   4.116
    1C        C  491   3.131   4.471   4.115
    1C        C  492   2.945   4.375   4.239
    1C        C  493   2.995   4.428   4.360
    1C        C  494   2.825   4.298   4.480
    1C        C  495   2.931   4.391   4.481
    1C        C  496   2.773   4.251   4.602
    1C        C  497   2.819   4.309   4.722
    1C        C  498   2.671   4.158   4.845
    1C        C  499   2.756   4.271   4.843
    1C        C  500   2.591   4.121   4.953
    1C        C  501   4.008   4.361   2.038
    1C        C  502   3.816   4.460   2.151
    1C        C  503   3.948   4.411   2.155
    1C        C  504   3.748   4.477   2.274
    1C        C  505   3.814   4.455   2.397
    1C        C  506   3.609   4.512   2.518
    1C        C  507   3.745   4.475   2.519
    1C        C  508   3.537   4.519   2.640
    1C        C  509   3.607   4.512   2.763
    1C        C  510   3.394   4.525   2.883
    1C        C  511   3.535   4.522   2.884
    1C        C  512   3.322   4.524   3.005
    1C        C  513   3.394   4.533   3.127
    1C        C  514   3.189   4.493   3.254
    1C        C  515   3.325   4.530   3.250
    1C        C  516   3.121   4.467   3.376
    1C        C  517   3.190   4.490   3.497
    1C        C  518   2.997   4.414   3.625
    1C        C  519   3.126   4.471   3.621
    1C        C  520   2.938   4.375   3.747
    1C        C  521   3.000   4.408   3.870
    1C        C  522   2.834   4.280   3.993
    1C        C  523   2.944   4.369   3.994
    1C        C  524   2.787   4.232   4.117
    1C        C  525   2.835   4.286   4.238
    1C        C  526   2.685   4.136   4.360
    1C        C  527   2.775   4.245   4.359
    1C        C  528   2.648   4.076   4.483
    1C        C  529   2.690   4.136   4.603
    1C        C  530   2.583   3.957   4.730
    1C        C  531   2.642   4.086   4.727
    1C        C  532   2.543   3.898   4.853
    1C        C  533   2.532   3.994   4.959
    1C        C  534   3.620   4.557   2.038
    1C        C  535   3.753   4.512   2.038
    1C        C  536   3.540   4.525   2.152
    1C        C  537   3.608   4.501   2.275
    1C        C  538   3.396   4.509   2.398
    1C        C  539   3.537   4.512   2.396
    1C        C  540   3.324   4.505   2.520
    1C        C  541   3.396   4.510   2.642
    1C        C  542   3.184   4.485   2.764
    1C        C  543   3.323   4.511   2.762
    1C        C  544   3.119   4.466   2.888
    1C        C  545   3.185   4.490   3.010
    1C        C  546   2.993   4.403   3.133
    1C        C  547   3.120   4.465   3.133
    1C        C  548   2.937   4.364   3.256
    1C        C  549   2.996   4.401   3.379
    1C        C  550   2.830   4.279   3.504
    1C        C  551   2.936   4.372   3.504
    1C        C  552   2.779   4.233   3.627
    1C        C  553   2.830   4.283   3.748
    1C        C  554   2.700   4.116   3.873
    1C        C  555   2.785   4.229   3.870
    1C        C  556   2.663   4.058   3.997
    1C        C  557   2.701   4.119   4.119
    1C        C  558   2.593   3.939   4.246
    1C        C  559   2.655   4.066   4.241
    1C        C  560   2.569   3.874   4.369
    1C        C  561   2.595   3.945   4.488
    1C        C  562   2.531   3.747   4.616
    1C        C  563   2.563   3.884   4.611
    1C        C  564   2.510   3.678   4.738
    1C        C  565   2.525   3.756   4.856
    1C        C  566   2.536   3.547   4.975
    1C        C  567   2.522   3.685   4.977
    1C        C  568   3.327   4.469   2.039
    1C        C  569   3.400   4.501   2.155
    1C        C  570   3.186   4.472   2.279
    1C        C  571   3.326   4.498   2.276
    1C        C  572   3.117   4.453   2.400
    1C        C  573   3.186   4.476   2.521
    1C        C  574   2.986   4.403   2.644
    1C        C  575   3.116   4.458   2.642
    1C        C  576   2.928   4.365   2.767
    1C        C  577   2.993   4.403   2.887
    1C        C  578   2.828   4.272   3.014
    1C        C  579   2.935   4.365   3.010
    1C        C  580   2.778   4.223   3.136
    1C        C  581   2.825   4.278   3.258
    1C        C  582   2.693   4.117   3.382
    1C        C  583   2.778   4.229   3.382
    1C        C  584   2.658   4.058   3.506
    1C        C  585   2.694   4.119   3.628
    1C        C  586   2.593   3.934   3.754
    1C        C  587   2.657   4.060   3.751
    1C        C  588   2.568   3.871   3.877
    1C        C  589   2.598   3.933   4.001
    1C        C  590   2.532   3.735   4.124
    1C        C  591   2.572   3.870   4.124
    1C        C  592   2.517   3.669   4.248
    1C        C  593   2.530   3.738   4.371
    1C        C  594   2.512   3.532   4.495
    1C        C  595   2.522   3.673   4.496
    1C        C  596   2.518   3.462   4.618
    1C        C  597   2.513   3.536   4.739
    1C        C  598   2.537   3.326   4.864
    1C        C  599   2.526   3.467   4.861
    1C        C  600   2.532   3.245   4.979
    1C        C  601   3.195   4.428   2.044
    1C        C  602   2.980   4.395   2.160
    1C        C  603   3.117   4.439   2.159
    1C        C  604   2.922   4.361   2.285
    1C        C  605   2.988   4.395   2.405
    1C        C  606   2.813   4.270   2.525
    1C        C  607   2.923   4.359   2.526
    1C        C  608   2.770   4.220   2.650
    1C        C  609   2.820   4.274   2.771
    1C        C  610   2.688   4.109   2.894
    1C        C  611   2.776   4.220   2.893
    1C        C  612   2.652   4.052   3.018
    1C        C  613   2.692   4.111   3.140
    1C        C  614   2.590   3.927   3.265
    1C        C  615   2.652   4.054   3.263
    1C        C  616   2.569   3.865   3.390
    1C        C  617   2.592   3.933   3.511
    1C        C  618   2.538   3.728   3.637
    1C        C  619   2.564   3.867   3.633
    1C        C  620   2.518   3.662   3.760
    1C        C  621   2.529   3.735   3.880
    1C        C  622   2.507   3.524   4.007
    1C        C  623   2.519   3.664   4.002
    1C        C  624   2.500   3.455   4.131
    1C        C  625   2.503   3.528   4.251
    1C        C  626   2.525   3.319   4.378
    1C        C  627   2.506   3.459   4.374
    1C        C  628   2.549   3.249   4.499
    1C        C  629   2.538   3.322   4.619
    1C        C  630   2.597   3.121   4.740
    1C        C  631   2.553   3.256   4.743
    1C        C  632   2.618   3.052   4.863
    1C        C  633   2.557   3.108   4.979
    1C        C  634   2.783   4.303   2.047
    1C        C  635   2.888   4.396   2.050
    1C        C  636   2.752   4.230   2.163
    1C        C  637   2.808   4.276   2.284
    1C        C  638   2.675   4.108   2.406
    1C        C  639   2.758   4.222   2.405
    1C        C  640   2.639   4.049   2.529
    1C        C  641   2.686   4.106   2.650
    1C        C  642   2.583   3.923   2.777
    1C        C  643   2.651   4.047   2.773
    1C        C  644   2.562   3.856   2.899
    1C        C  645   2.589   3.925   3.019
    1C        C  646   2.532   3.723   3.147
    1C        C  647   2.569   3.859   3.143
    1C        C  648   2.522   3.656   3.271
    1C        C  649   2.535   3.728   3.392
    1C        C  650   2.514   3.518   3.518
    1C        C  651   2.526   3.659   3.514
    1C        C  652   2.513   3.448   3.641
    1C        C  653   2.512   3.521   3.763
    1C        C  654   2.541   3.312   3.889
    1C        C  655   2.519   3.452   3.886
    1C        C  656   2.551   3.248   4.014
    1C        C  657   2.525   3.316   4.136
    1C        C  658   2.594   3.115   4.257
    1C        C  659   2.539   3.245   4.258
    1C        C  660   2.622   3.050   4.379
    1C        C  661   2.584   3.112   4.500
    1C        C  662   2.709   2.937   4.622
    1C        C  663   2.624   3.050   4.621
    1C        C  664   2.749   2.874   4.742
    1C        C  665   2.702   2.935   4.861
    1C        C  666   2.750   2.873   4.977
    1C        C  667   2.685   4.023   2.052
    1C        C  668   2.686   4.106   2.165
    1C        C  669   2.592   3.911   2.290
    1C        C  670   2.643   4.043   2.284
    1C        C  671   2.564   3.845   2.412
    1C        C  672   2.587   3.918   2.531
    1C        C  673   2.525   3.719   2.660
    1C        C  674   2.556   3.857   2.655
    1C        C  675   2.514   3.648   2.782
    1C        C  676   2.523   3.720   2.904
    1C        C  677   2.507   3.510   3.028
    1C        C  678   2.515   3.651   3.027
    1C        C  679   2.511   3.442   3.152
    1C        C  680   2.506   3.515   3.273
    1C        C  681   2.533   3.307   3.398
    1C        C  682   2.509   3.447   3.396
    1C        C  683   2.553   3.240   3.520
    1C        C  684   2.536   3.309   3.642
    1C        C  685   2.603   3.111   3.770
    1C        C  686   2.552   3.243   3.766
    1C        C  687   2.635   3.049   3.893
    1C        C  688   2.603   3.117   4.013
    1C        C  689   2.718   2.941   4.137
    1C        C  690   2.634   3.055   4.136
    1C        C  691   2.758   2.885   4.261
    1C        C  692   2.706   2.936   4.382
    1C        C  693   2.753   2.877   4.502
    1C        C  694   2.628   3.895   2.054
    1C        C  695   2.525   3.705   2.175
    1C        C  696   2.579   3.835   2.171
    1C        C  697   2.506   3.638   2.298
    1C        C  698   2.520   3.712   2.417
    1C        C  699   2.494   3.504   2.540
    1C        C  700   2.509   3.645   2.541
    1C        C  701   2.502   3.434   2.663
    1C        C  702   2.508   3.507   2.783
    1C        C  703   2.527   3.298   2.907
    1C        C  704   2.510   3.438   2.907
    1C        C  705   2.549   3.233   3.030
    1C        C  706   2.534   3.302   3.152
    1C        C  707   2.599   3.104   3.277
    1C        C  708   2.553   3.237   3.276
    1C        C  709   2.629   3.042   3.401
    1C        C  710   2.604   3.108   3.523
    1C        C  711   2.714   2.931   3.647
    1C        C  712   2.637   3.050   3.648
    1C        C  713   2.759   2.877   3.770
    1C        C  714   2.720   2.937   3.892
    1C        C  715   2.758   2.879   4.016
    1C        C  716   2.454   3.498   2.059
    1C        C  717   2.491   3.633   2.060
    1C        C  718   2.460   3.421   2.179
    1C        C  719   2.473   3.499   2.298
    1C        C  720   2.506   3.290   2.423
    1C        C  721   2.487   3.430   2.420
    1C        C  722   2.536   3.221   2.543
    1C        C  723   2.524   3.295   2.662
    1C        C  724   2.593   3.097   2.787
    1C        C  725   2.536   3.227   2.785
    1C        C  726   2.624   3.036   2.910
    1C        C  727   2.598   3.101   3.033
    1C        C  728   2.709   2.921   3.160
    1C        C  729   2.633   3.040   3.156
    1C        C  730   2.751   2.865   3.283
    1C        C  731   2.703   2.922   3.404
    1C        C  732   2.751   2.869   3.526
    1C        C  733   2.492   3.196   2.071
    1C        C  734   2.485   3.280   2.183
    1C        C  735   2.584   3.087   2.302
    1C        C  736   2.524   3.216   2.304
    1C        C  737   2.610   3.019   2.423
    1C        C  738   2.585   3.088   2.544
    1C        C  739   2.691   2.905   2.668
    1C        C  740   2.621   3.028   2.667
    1C        C  741   2.734   2.852   2.792
    1C        C  742   2.695   2.914   2.913
    1C        C  743   2.745   2.864   3.036
    1C        C  744   2.540   3.065   2.073
    1C        C  745   2.681   2.893   2.182
    1C        C  746   2.607   3.013   2.185
    1C        C  747   2.728   2.840   2.304
    1C        C  748   2.686   2.900   2.425
    1C        C  749   2.736   2.848   2.547
    1C        C  750   2.739   2.840   2.065
    1C        C  751   3.653   2.306   1.985
    1C        O  752   3.664   2.185   2.019
    1C        O  753   3.735   2.315   1.872
    1C        C  754   4.613   3.049   1.956
    1C        O  755   4.554   3.033   1.846
    1C        O  756   4.747   3.017   1.980
    1C        C  757   4.445   4.232   1.969
    1C        O  758   4.517   4.321   2.022
    1C        O  759   4.397   4.256   1.839
    1C        C  760   3.608   4.664   1.936
    1C        O  761   3.624   4.787   1.958
    1C        O  762   3.516   4.652   1.831
    1C        C  763   2.881   4.512   1.959
    1C        O  764   2.937   4.509   1.846
    1C        O  765   2.765   4.591   1.956
    1C        C  766   2.348   3.459   1.964
    1C        O  767   2.370   3.450   1.840
    1C        O  768   2.215   3.503   1.973
    1C        C  769   4.718   3.596   5.011
    1C        O  770   4.728   3.552   5.129
    1C        O  771   4.839   3.655   4.971
    1C        C  772   4.261   4.418   5.057
    1C        O  773   4.226   4.425   5.178
    1C        O  774   4.376   4.494   5.037
    1C        C  775   4.140   2.516   5.069
    1C        O  776   4.177   2.401   5.034
    1C        O  777   4.125   2.547   5.205
    1C        C  778   2.889   4.530   5.064
    1C        O  779   2.885   4.654   5.047
    1C        O  780   2.908   4.498   5.199
    1C        C  781   2.468   3.028   5.066
    1C        O  782   2.343   3.023   5.050
    1C        O  783   2.493   2.999   5.200
    1C        C  784   2.418   3.981   5.053
    1C        O  785   2.305   3.998   5.002
    1C        O  786   2.434   4.006   5.190
    1C        C  787   2.954   2.411   2.005
    1C        O  788   2.973   2.368   1.888
    1C        O  789   2.855   2.337   2.069
    1C        C  790   3.173   2.370   5.061
    1C        O  791   3.154   2.255   5.014
    1C        O  792   3.216   2.362   5.195
    1C        H  793   4.286   3.018   5.059
    1C        H  794   4.162   2.809   5.063
    1C        H  795   4.539   3.124   5.032
    1C        H  796   4.499   3.370   5.063
    1C        H  797   4.525   3.791   5.057
    1C        H  798   4.395   3.957   5.051
    1C        H  799   4.234   4.118   5.025
    1C        H  800   4.032   4.545   5.024
    1C        H  801   3.824   4.623   5.013
    1C        H  802   3.583   4.622   5.041
    1C        H  803   3.392   4.456   5.023
    1C        H  804   3.163   4.465   5.050
    1C        H  805   3.887   2.501   5.073
    1C        H  806   3.675   2.486   5.076
    1C        H  807   3.032   2.604   5.069
    1C        H  808   3.438   2.449   5.073
    1C        H  809   2.886   2.743   5.075
    1C        H  810   2.721   2.916   5.071
    1C        H  811   2.507   3.288   5.074
    1C        H  812   2.601   3.513   5.053
    1C        H  813   2.557   3.736   5.064
    1C        H  814   2.536   4.196   5.006
    1C        H  815   2.763   4.295   5.050
    1C        H  816   2.760   2.905   1.983
    1C        H  817   2.777   2.644   2.009
    1C        H  818   3.211   2.444   1.982
    1C        H  819   3.423   2.418   1.982
    1C        H  820   3.857   2.486   1.983
    1C        H  821   4.080   2.582   1.982
    1C        H  822   4.261   2.707   1.972
    1C        H  823   4.346   2.942   1.972
    1C        H  824   4.593   3.300   1.966
    1C        H  825   4.484   3.510   1.963
    1C        H  826   4.495   3.751   1.954
    1C        H  827   3.803   4.495   1.945
    1C        H  828   3.973   4.391   1.942
    1C        H  829   4.163   4.244   1.950
    1C        H  830   4.533   3.987   1.989
    1C        H  831   2.663   3.828   1.979
    1C        H  832   2.665   4.073   1.960
    1C        H  833   2.714   4.315   1.967
    1C        H  834   3.348   4.532   1.955
    1C        H  835   3.155   4.381   1.956
    1C        H  836   2.480   2.997   2.017
    1C        H  837   2.417   3.199   1.995
    1C        H  838   2.451   3.695   1.982
    2V3OU   H29  839   2.801   3.544   3.977
    2V3OU   C27  840   2.789   3.503   4.080
    2V3OU   H27  841   2.732   3.574   4.145
    2V3OU   H28  842   2.737   3.403   4.071
    2V3OU   O11  843   2.911   3.478   4.151
    2V3OU   C15  844   2.928   3.396   4.260
    2V3OU   C13  845   3.054   3.372   4.318
    2V3OU   C14  846   3.079   3.273   4.414
    2V3OU   C16  847   2.982   3.190   4.468
    2V3OU    H6  848   2.994   3.097   4.526
    2V3OU   C12  849   3.215   3.228   4.454
    2V3OU    O2  850   3.234   3.124   4.520
    2V3OU   C10  851   3.328   3.305   4.400
    2V3OU    C8  852   3.458   3.267   4.433
    2V3OU   O10  853   3.488   3.150   4.495
    2V3OU   H26  854   3.402   3.110   4.515
    2V3OU    C6  855   3.566   3.351   4.391
    2V3OU    C5  856   3.538   3.466   4.318
    2V3OU    C4  857   3.704   3.294   4.385
    2V3OU    H4  858   3.725   3.227   4.474
    2V3OU    H5  859   3.711   3.226   4.295
    2V3OU    C2  860   3.818   3.395   4.382
    2V3OU    O6  861   3.807   3.470   4.503
    2V3OU   H21  862   3.767   3.551   4.466
    2V3OU    C3  863   3.783   3.489   4.266
    2V3OU    H2  864   3.862   3.568   4.258
    2V3OU    H3  865   3.787   3.435   4.168
    2V3OU   C25  866   3.951   3.325   4.351
    2V3OU    O7  867   3.998   3.292   4.242
    2V3OU   C26  868   4.029   3.288   4.475
    2V3OU   H22  869   4.063   3.382   4.525
    2V3OU   H23  870   4.120   3.228   4.448
    2V3OU    O8  871   3.963   3.214   4.576
    2V3OU   H24  872   3.915   3.266   4.642
    2V3OU    C1  873   3.649   3.560   4.281
    2V3OU    H1  874   3.627   3.618   4.187
    2V3OU    O3  875   3.652   3.647   4.394
    2V3OU   C19  876   3.615   3.785   4.381
    2V3OU    H9  877   3.522   3.807   4.320
    2V3OU    O4  878   3.713   3.849   4.302
    2V3OU   C20  879   3.846   3.873   4.347
    2V3OU   H10  880   3.881   3.767   4.361
    2V3OU   C24  881   3.604   3.856   4.516
    2V3OU   H16  882   3.547   3.797   4.593
    2V3OU   H17  883   3.560   3.958   4.505
    2V3OU   C23  884   3.745   3.866   4.575
    2V3OU   H15  885   3.786   3.761   4.587
    2V3OU    N1  886   3.733   3.950   4.693
    2V3OU   H19  887   3.810   3.930   4.753
    2V3OU   H20  888   3.652   3.932   4.749
    2V3OU   C21  889   3.843   3.945   4.482
    2V3OU   H11  890   3.947   3.929   4.523
    2V3OU    O5  891   3.825   4.086   4.480
    2V3OU   H18  892   3.787   4.099   4.568
    2V3OU   C22  893   3.913   3.947   4.232
    2V3OU   H12  894   3.859   4.043   4.211
    2V3OU   H13  895   3.910   3.886   4.138
    2V3OU   H14  896   4.022   3.955   4.255
    2V3OU   C11  897   3.163   3.467   4.294
    2V3OU    O1  898   3.133   3.584   4.262
    2V3OU    C9  899   3.300   3.425   4.329
    2V3OU    C7  900   3.404   3.507   4.289
    2V3OU    O9  901   3.382   3.611   4.200
    2V3OU   H25  902   3.287   3.629   4.202
    2V3OU   C17  903   2.830   3.314   4.320
    2V3OU    H7  904   2.732   3.356   4.298
    2V3OU   C18  905   2.855   3.219   4.418
    2V3OU    H8  906   2.791   3.173   4.494
    3SOL     OW  907   3.275   4.189   5.234
    3SOL    HW1  908   3.191   4.243   5.230
    3SOL    HW2  909   3.332   4.221   5.310
    4SOL     OW  910   0.184   0.146   0.279
    4SOL    HW1  911   0.091   0.175   0.303
    4SOL    HW2  912   0.248   0.221   0.295
    5SOL     OW  913   4.819   1.353   2.218
    5SOL    HW1  914   4.733   1.349   2.166
    5SOL    HW2  915   4.851   1.448   2.222
    6SOL     OW  916   5.517   2.083   3.019
    6SOL    HW1  917   5.428   2.116   3.051
    6SOL    HW2  918   5.586   2.155   3.033
    7SOL     OW  919   1.036   4.290   4.692
    7SOL    HW1  920   1.067   4.245   4.608
    7SOL    HW2  921   1.099   4.364   4.715
    8SOL     OW  922   2.618   2.392   5.393
    8SOL    HW1  923   2.536   2.440   5.425
    8SOL    HW2  924   2.675   2.368   5.471
    9SOL     OW  925   6.866   1.543   6.037
    9SOL    HW1  926   6.930   1.621   6.039
    9SOL    HW2  927   6.854   1.508   6.130
   10SOL     OW  928   3.762   5.168   3.714
   10SOL    HW1  929   3.833   5.211   3.770
   10SOL    HW2  930   3.782   5.071   3.704
   11SOL     OW  931   2.092   0.270   7.017
   11SOL    HW1  932   2.056   0.363   0.009
   11SOL    HW2  933   2.018   0.204   0.010
   12SOL     OW  934   2.630   4.654   3.995
   12SOL    HW1  935   2.682   4.717   3.937
   12SOL    HW2  936   2.535   4.686   4.002
   13SOL     OW  937   3.574   6.104   2.877
   13SOL    HW1  938   3.498   6.054   2.920
   13SOL    HW2  939   3.637   6.136   2.948
   14SOL     OW  940   4.536   4.999   5.765
   14SOL    HW1  941   4.597   5.062   5.717
   14SOL    HW2  942   4.587   4.951   5.836
   15SOL     OW  943   0.187   6.008   6.354
   15SOL    HW1  944   0.158   6.067   6.279
   15SOL    HW2  945   0.124   6.018   6.431
   16SOL     OW  946   5.382   2.667   6.408
   16SOL    HW1  947   5.372   2.694   6.504
   16SOL    HW2  948   5.332   2.732   6.351
   17SOL     OW  949   6.098   0.325   5.805
   17SOL    HW1  950   6.037   0.398   5.836
   17SOL    HW2  951   6.191   0.362   5.794
   18SOL     OW  952   3.248   1.578   5.353
   18SOL    HW1  953   3.167   1.621   5.313
   18SOL    HW2  954   3.254   1.602   5.450
   19SOL     OW  955   0.671   2.376   2.517
   19SOL    HW1  956   0.678   2.360   2.418
   19SOL    HW2  957   0.762   2.392   2.555
   20SOL     OW  958   5.785   1.816   5.881
   20SOL    HW1  959   5.801   1.890   5.815
   20SOL    HW2  960   5.687   1.798   5.888
   21SOL     OW  961   3.265   6.543   2.759
   21SOL    HW1  962   3.259   6.443   2.764
   21SOL    HW2  963   3.205   6.576   2.686
   22SOL     OW  964   1.383   5.841   5.703
   22SOL    HW1  965   1.318   5.766   5.717
   22SOL    HW2  966   1.407   5.847   5.607
   23SOL     OW  967   4.678   4.538   2.671
   23SOL    HW1  968   4.698   4.495   2.759
   23SOL    HW2  969   4.579   4.552   2.663
   24SOL     OW  970   3.809   0.282   1.283
   24SOL    HW1  971   3.838   0.369   1.323
   24SOL    HW2  972   3.764   0.227   1.354
   25SOL     OW  973   3.286   6.676   3.717
   25SOL    HW1  974   3.193   6.641   3.721
   25SOL    HW2  975   3.289   6.757   3.658
   26SOL     OW  976   1.308   2.015   6.942
   26SOL    HW1  977   1.288   1.938   6.881
   26SOL    HW2  978   1.402   2.008   6.974
   27SOL     OW  979   0.358   1.166   2.722
   27SOL    HW1  980   0.437   1.110   2.700
   27SOL    HW2  981   0.289   1.157   2.650
   28SOL     OW  982   1.048   0.818   4.473
   28SOL    HW1  983   1.038   0.734   4.527
   28SOL    HW2  984   1.090   0.889   4.530
   29SOL     OW  985   6.090   1.231   0.981
   29SOL    HW1  986   6.103   1.298   1.054
   29SOL    HW2  987   6.058   1.145   1.020
   30SOL     OW  988   3.772   0.321   4.875
   30SOL    HW1  989   3.837   0.269   4.930
   30SOL    HW2  990   3.690   0.266   4.859
   31SOL     OW  991   0.015   2.026   5.200
   31SOL    HW1  992   0.095   2.056   5.253
   31SOL    HW2  993   0.019   2.066   5.109
   32SOL     OW  994   1.445   1.526   1.544
   32SOL    HW1  995   1.374   1.460   1.570
   32SOL    HW2  996   1.492   1.558   1.626
   33SOL     OW  997   0.087   3.707   5.192
   33SOL    HW1  998   7.013   3.695   5.160
   33SOL    HW2  999   0.104   3.804   5.209
   34SOL     OW 1000   2.016   5.229   5.038
   34SOL    HW1 1001   1.981   5.175   4.961
   34SOL    HW2 1002   2.032   5.323   5.008
   35SOL     OW 1003   3.688   2.388   5.839
   35SOL    HW1 1004   3.758   2.322   5.812
   35SOL    HW2 1005   3.612   2.340   5.882
   36SOL     OW 1006   5.052   1.397   4.133
   36SOL    HW1 1007   5.073   1.320   4.192
   36SOL    HW2 1008   5.137   1.445   4.108
   37SOL     OW 1009   2.091   1.361   3.480
   37SOL    HW1 1010   2.116   1.446   3.527
   37SOL    HW2 1011   2.174   1.309   3.460
   38SOL     OW 1012   1.787   4.548   1.855
   38SOL    HW1 1013   1.819   4.465   1.808
   38SOL    HW2 1014   1.709   4.586   1.805
   39SOL     OW 1015   6.223   4.665   6.822
   39SOL    HW1 1016   6.130   4.699   6.836
   39SOL    HW2 1017   6.282   4.739   6.790
   40SOL     OW 1018   3.435   0.321   5.981
   40SOL    HW1 1019   3.448   0.228   6.015
   40SOL    HW2 1020   3.438   0.321   5.881
   41SOL     OW 1021   6.120   3.911   2.439
   41SOL    HW1 1022   6.112   3.956   2.528
   41SOL    HW2 1023   6.150   3.816   2.452
   42SOL     OW 1024   2.965   6.308   4.872
   42SOL    HW1 1025   2.969   6.244   4.796
   42SOL    HW2 1026   2.942   6.400   4.837
   43SOL     OW 1027   4.119   6.534   4.554
   43SOL    HW1 1028   4.078   6.448   4.521
   43SOL    HW2 1029   4.145   6.590   4.476
   44SOL     OW 1030   6.048   3.074   5.127
   44SOL    HW1 1031   6.008   3.010   5.062
   44SOL    HW2 1032   5.981   3.146   5.148
   45SOL     OW 1033   4.548   5.736   1.660
   45SOL    HW1 1034   4.575   5.757   1.753
   45SOL    HW2 1035   4.527   5.638   1.652
   46SOL     OW 1036   0.597   3.023   4.332
   46SOL    HW1 1037   0.595   2.926   4.357
   46SOL    HW2 1038   0.691   3.057   4.340
   47SOL     OW 1039   4.927   4.032   1.721
   47SOL    HW1 1040   4.969   4.055   1.808
   47SOL    HW2 1041   4.983   4.066   1.646
   48SOL     OW 1042   0.509   3.131   6.806
   48SOL    HW1 1043   0.523   3.089   6.896
   48SOL    HW2 1044   0.432   3.194   6.811
   49SOL     OW 1045   5.144   2.582   0.485
   49SOL    HW1 1046   5.063   2.640   0.495
   49SOL    HW2 1047   5.119   2.498   0.437
   50SOL     OW 1048   6.230   1.604   5.904
   50SOL    HW1 1049   6.308   1.661   5.926
   50SOL    HW2 1050   6.262   1.513   5.878
   51SOL     OW 1051   2.171   5.029   2.245
   51SOL    HW1 1052   2.191   5.090   2.168
   51SOL    HW2 1053   2.240   5.040   2.316
   52SOL     OW 1054   5.374   2.688   1.103
   52SOL    HW1 1055   5.375   2.671   1.202
   52SOL    HW2 1056   5.425   2.616   1.057
   53SOL     OW 1057   5.180   0.264   3.307
   53SOL    HW1 1058   5.090   0.238   3.271
   53SOL    HW2 1059   5.242   0.186   3.303
   54SOL     OW 1060   5.578   6.357   0.514
   54SOL    HW1 1061   5.513   6.405   0.456
   54SOL    HW2 1062   5.622   6.423   0.576
   55SOL     OW 1063   2.217   2.357   6.362
   55SOL    HW1 1064   2.274   2.439   6.360
   55SOL    HW2 1065   2.270   2.278   6.332
   56SOL     OW 1066   1.453   1.856   0.794
   56SOL    HW1 1067   1.527   1.789   0.791
   56SOL    HW2 1068   1.379   1.821   0.852
   57SOL     OW 1069   3.715   0.473   6.690
   57SOL    HW1 1070   3.650   0.548   6.681
   57SOL    HW2 1071   3.787   0.498   6.755
   58SOL     OW 1072   0.634   0.951   6.198
   58SOL    HW1 1073   0.654   0.854   6.212
   58SOL    HW2 1074   0.556   0.977   6.254
   59SOL     OW 1075   6.495   3.621   6.257
   59SOL    HW1 1076   6.447   3.616   6.345
   59SOL    HW2 1077   6.428   3.625   6.183
   60SOL     OW 1078   5.952   0.936   3.810
   60SOL    HW1 1079   5.896   0.979   3.739
   60SOL    HW2 1080   5.895   0.919   3.891
   61SOL     OW 1081   0.451   1.316   4.508
   61SOL    HW1 1082   0.430   1.246   4.440
   61SOL    HW2 1083   0.399   1.399   4.486
   62SOL     OW 1084   1.497   1.352   1.952
   62SOL    HW1 1085   1.575   1.304   1.992
   62SOL    HW2 1086   1.447   1.289   1.892
   63SOL     OW 1087   4.208   6.932   4.167
   63SOL    HW1 1088   4.166   6.946   4.077
   63SOL    HW2 1089   4.306   6.951   4.162
   64SOL     OW 1090   0.921   3.525   6.438
   64SOL    HW1 1091   0.839   3.530   6.380
   64SOL    HW2 1092   0.898   3.552   6.531
   65SOL     OW 1093   6.971   0.019   5.470
   65SOL    HW1 1094   6.887   0.062   5.435
   65SOL    HW2 1095   6.952   6.998   5.559
   66SOL     OW 1096   3.170   0.374   2.796
   66SOL    HW1 1097   3.267   0.351   2.794
   66SOL    HW2 1098   3.130   0.357   2.706
   67SOL     OW 1099   0.228   2.566   0.191
   67SOL    HW1 1100   0.129   2.572   0.183
   67SOL    HW2 1101   0.256   2.595   0.283
   68SOL     OW 1102   0.018   1.349   5.864
   68SOL    HW1 1103   6.978   1.364   5.943
   68SOL    HW2 1104   0.103   1.307   5.896
   69SOL     OW 1105   1.452   4.708   6.221
   69SOL    HW1 1106   1.377   4.762   6.258
   69SOL    HW2 1107   1.452   4.715   6.121
   70SOL     OW 1108   5.125   4.023   4.977
   70SOL    HW1 1109   5.167   4.081   5.046
   70SOL    HW2 1110   5.070   3.953   5.021
   71SOL     OW 1111   4.843   1.824   4.458
   71SOL    HW1 1112   4.919   1.880   4.492
   71SOL    HW2 1113   4.863   1.794   4.365
   72SOL     OW 1114   0.367   0.912   2.995
   72SOL    HW1 1115   0.432   0.909   3.070
   72SOL    HW2 1116   0.404   0.864   2.916
   73SOL     OW 1117   3.374   0.883   0.009
   73SOL    HW1 1118   3.348   0.939   0.087
   73SOL    HW2 1119   3.295   0.833   6.996
   74SOL     OW 1120   1.977   1.730   6.122
   74SOL    HW1 1121   1.994   1.723   6.024
   74SOL    HW2 1122   2.018   1.652   6.169
   75SOL     OW 1123   4.370   1.655   1.402
   75SOL    HW1 1124   4.374   1.565   1.357
   75SOL    HW2 1125   4.432   1.655   1.481
   76SOL     OW 1126   2.783   4.214   6.176
   76SOL    HW1 1127   2.705   4.157   6.201
   76SOL    HW2 1128   2.757   4.277   6.104
   77SOL     OW 1129   1.765   5.410   4.342
   77SOL    HW1 1130   1.852   5.415   4.391
   77SOL    HW2 1131   1.708   5.489   4.369
   78SOL     OW 1132   4.143   1.240   0.992
   78SOL    HW1 1133   4.179   1.195   1.073
   78SOL    HW2 1134   4.148   1.178   0.914
   79SOL     OW 1135   2.193   5.291   1.766
   79SOL    HW1 1136   2.221   5.214   1.824
   79SOL    HW2 1137   2.259   5.302   1.692
   80SOL     OW 1138   4.788   2.073   4.847
   80SOL    HW1 1139   4.709   2.070   4.785
   80SOL    HW2 1140   4.844   2.153   4.825
   81SOL     OW 1141   1.934   0.293   0.659
   81SOL    HW1 1142   1.940   0.326   0.753
   81SOL    HW2 1143   1.847   0.246   0.645
   82SOL     OW 1144   0.302   6.340   2.472
   82SOL    HW1 1145   0.289   6.439   2.477
   82SOL    HW2 1146   0.392   6.317   2.510
   83SOL     OW 1147   6.843   1.719   5.591
   83SOL    HW1 1148   6.884   1.789   5.532
   83SOL    HW2 1149   6.824   1.759   5.681
   84SOL     OW 1150   6.036   3.068   3.746
   84SOL    HW1 1151   6.113   3.088   3.807
   84SOL    HW2 1152   6.025   3.144   3.682
   85SOL     OW 1153   1.761   6.805   4.037
   85SOL    HW1 1154   1.701   6.883   4.020
   85SOL    HW2 1155   1.733   6.758   4.120
   86SOL     OW 1156   6.115   0.960   6.691
   86SOL    HW1 1157   6.038   1.021   6.672
   86SOL    HW2 1158   6.188   1.011   6.738
   87SOL     OW 1159   4.348   4.273   6.908
   87SOL    HW1 1160   4.315   4.368   6.910
   87SOL    HW2 1161   4.439   4.270   6.867
   88SOL     OW 1162   2.854   2.351   5.549
   88SOL    HW1 1163   2.918   2.416   5.592
   88SOL    HW2 1164   2.885   2.332   5.456
   89SOL     OW 1165   3.131   4.032   2.306
   89SOL    HW1 1166   3.217   3.996   2.271
   89SOL    HW2 1167   3.085   4.085   2.234
   90SOL     OW 1168   4.523   4.364   2.930
   90SOL    HW1 1169   4.599   4.325   2.878
   90SOL    HW2 1170   4.463   4.415   2.868
   91SOL     OW 1171   6.133   5.832   5.862
   91SOL    HW1 1172   6.131   5.914   5.919
   91SOL    HW2 1173   6.175   5.854   5.774
   92SOL     OW 1174   4.920   3.986   0.230
   92SOL    HW1 1175   4.903   4.008   0.134
   92SOL    HW2 1176   4.955   3.892   0.237
   93SOL     OW 1177   3.193   3.266   1.118
   93SOL    HW1 1178   3.159   3.357   1.143
   93SOL    HW2 1179   3.244   3.228   1.195
   94SOL     OW 1180   2.603   0.056   6.679
   94SOL    HW1 1181   2.523   0.022   6.630
   94SOL    HW2 1182   2.682   0.055   6.617
   95SOL     OW 1183   0.582   0.462   4.259
   95SOL    HW1 1184   0.574   0.558   4.235
   95SOL    HW2 1185   0.495   0.430   4.299
   96SOL     OW 1186   5.104   5.336   0.185
   96SOL    HW1 1187   5.040   5.362   0.257
   96SOL    HW2 1188   5.112   5.411   0.119
   97SOL     OW 1189   1.925   4.566   5.269
   97SOL    HW1 1190   1.882   4.487   5.314
   97SOL    HW2 1191   1.957   4.630   5.339
   98SOL     OW 1192   0.570   2.456   1.746
   98SOL    HW1 1193   0.558   2.451   1.647
   98SOL    HW2 1194   0.482   2.442   1.790
   99SOL     OW 1195   3.774   3.597   3.089
   99SOL    HW1 1196   3.718   3.622   3.009
   99SOL    HW2 1197   3.832   3.519   3.066
  100SOL     OW 1198   0.188   6.892   3.855
  100SOL    HW1 1199   0.104   6.935   3.822
  100SOL    HW2 1200   0.267   6.933   3.809
  101SOL     OW 1201   0.695   5.005   2.203
  101SOL    HW1 1202   0.632   4.959   2.265
  101SOL    HW2 1203   0.644   5.062   2.139
  102SOL     OW 1204   2.647   6.124   2.151
  102SOL    HW1 1205   2.570   6.121   2.215
  102SOL    HW2 1206   2.634   6.054   2.081
  103SOL     OW 1207   1.839   1.251   2.413
  103SOL    HW1 1208   1.765   1.192   2.446
  103SOL    HW2 1209   1.824   1.344   2.447
  104SOL     OW 1210   0.982   4.760   2.265
  104SOL    HW1 1211   1.031   4.820   2.328
  104SOL    HW2 1212   0.896   4.731   2.307
  105SOL     OW 1213   5.484   1.280   6.551
  105SOL    HW1 1214   5.463   1.354   6.488
  105SOL    HW2 1215   5.411   1.211   6.548
  106SOL     OW 1216   4.900   4.967   1.615
  106SOL    HW1 1217   4.861   5.050   1.575
  106SOL    HW2 1218   4.930   4.906   1.541
  107SOL     OW 1219   6.524   0.943   0.543
  107SOL    HW1 1220   6.546   0.959   0.447
  107SOL    HW2 1221   6.435   0.898   0.550
  108SOL     OW 1222   2.680   0.408   4.398
  108SOL    HW1 1223   2.654   0.393   4.494
  108SOL    HW2 1224   2.661   0.504   4.374
  109SOL     OW 1225   3.323   0.713   2.770
  109SOL    HW1 1226   3.290   0.689   2.861
  109SOL    HW2 1227   3.298   0.641   2.705
  110SOL     OW 1228   2.457   4.414   5.164
  110SOL    HW1 1229   2.361   4.425   5.191
  110SOL    HW2 1230   2.498   4.339   5.215
  111SOL     OW 1231   6.665   1.436   2.574
  111SOL    HW1 1232   6.759   1.467   2.556
  111SOL    HW2 1233   6.643   1.452   2.670
  112SOL     OW 1234   4.151   6.234   6.851
  112SOL    HW1 1235   4.186   6.158   6.796
  112SOL    HW2 1236   4.064   6.206   6.893
  113SOL     OW 1237   6.649   5.318   2.859
  113SOL    HW1 1238   6.653   5.269   2.772
  113SOL    HW2 1239   6.591   5.399   2.848
  114SOL     OW 1240   1.337   4.930   3.110
  114SOL    HW1 1241   1.343   4.831   3.119
  114SOL    HW2 1242   1.330   4.971   3.201
  115SOL     OW 1243   5.823   1.072   3.601
  115SOL    HW1 1244   5.903   1.068   3.541
  115SOL    HW2 1245   5.740   1.069   3.546
  116SOL     OW 1246   0.293   6.214   1.216
  116SOL    HW1 1247   0.357   6.184   1.286
  116SOL    HW2 1248   0.215   6.152   1.212
  117SOL     OW 1249   3.115   1.566   6.758
  117SOL    HW1 1250   3.115   1.485   6.817
  117SOL    HW2 1251   3.068   1.641   6.805
  118SOL     OW 1252   1.430   1.497   3.234
  118SOL    HW1 1253   1.369   1.428   3.272
  118SOL    HW2 1254   1.416   1.584   3.282
  119SOL     OW 1255   0.068   6.803   0.139
  119SOL    HW1 1256   0.082   6.771   0.232
  119SOL    HW2 1257   0.136   6.872   0.117
  120SOL     OW 1258   4.648   0.622   5.238
  120SOL    HW1 1259   4.653   0.527   5.207
  120SOL    HW2 1260   4.680   0.683   5.165
  121SOL     OW 1261   1.286   4.103   0.201
  121SOL    HW1 1262   1.297   4.026   0.265
  121SOL    HW2 1263   1.258   4.185   0.252
  122SOL     OW 1264   1.137   4.547   7.004
  122SOL    HW1 1265   1.219   4.594   0.015
  122SOL    HW2 1266   1.096   4.496   0.059
  123SOL     OW 1267   1.682   1.178   1.715
  123SOL    HW1 1268   1.771   1.166   1.671
  123SOL    HW2 1269   1.652   1.090   1.752
  124SOL     OW 1270   3.349   2.441   0.737
  124SOL    HW1 1271   3.264   2.456   0.687
  124SOL    HW2 1272   3.379   2.347   0.726
  125SOL     OW 1273   2.842   2.456   6.784
  125SOL    HW1 1274   2.916   2.436   6.848
  125SOL    HW2 1275   2.880   2.500   6.702
  126SOL     OW 1276   2.933   3.432   3.300
  126SOL    HW1 1277   2.979   3.355   3.343
  126SOL    HW2 1278   2.917   3.412   3.204
  127SOL     OW 1279   6.886   5.828   5.452
  127SOL    HW1 1280   6.807   5.854   5.507
  127SOL    HW2 1281   6.854   5.792   5.364
  128SOL     OW 1282   4.944   3.725   2.141
  128SOL    HW1 1283   4.919   3.652   2.205
  128SOL    HW2 1284   4.901   3.709   2.053
  129SOL     OW 1285   2.352   5.437   1.034
  129SOL    HW1 1286   2.341   5.497   1.113
  129SOL    HW2 1287   2.420   5.366   1.055
  130SOL     OW 1288   6.105   1.908   4.079
  130SOL    HW1 1289   6.190   1.912   4.132
  130SOL    HW2 1290   6.031   1.874   4.136
  131SOL     OW 1291   6.536   1.339   4.031
  131SOL    HW1 1292   6.486   1.319   4.116
  131SOL    HW2 1293   6.501   1.423   3.990
  132SOL     OW 1294   3.169   4.255   1.660
  132SOL    HW1 1295   3.075   4.246   1.692
  132SOL    HW2 1296   3.224   4.180   1.697
  133SOL     OW 1297   5.197   0.748   3.958
  133SOL    HW1 1298   5.182   0.684   4.032
  133SOL    HW2 1299   5.235   0.700   3.879
  134SOL     OW 1300   6.507   0.627   2.279
  134SOL    HW1 1301   6.440   0.588   2.216
  134SOL    HW2 1302   6.560   0.698   2.232
  135SOL     OW 1303   5.016   3.445   4.608
  135SOL    HW1 1304   4.975   3.536   4.595
  135SOL    HW2 1305   4.990   3.409   4.697
  136SOL     OW 1306   2.361   6.012   4.842
  136SOL    HW1 1307   2.412   6.015   4.928
  136SOL    HW2 1308   2.264   6.001   4.861
  137SOL     OW 1309   4.002   1.225   4.736
  137SOL    HW1 1310   4.017   1.323   4.730
  137SOL    HW2 1311   4.008   1.184   4.645
  138SOL     OW 1312   0.736   5.528   3.446
  138SOL    HW1 1313   0.652   5.572   3.415
  138SOL    HW2 1314   0.814   5.588   3.429
  139SOL     OW 1315   2.172   5.613   6.540
  139SOL    HW1 1316   2.147   5.635   6.446
  139SOL    HW2 1317   2.235   5.683   6.576
  140SOL     OW 1318   2.158   0.189   3.184
  140SOL    HW1 1319   2.231   0.131   3.219
  140SOL    HW2 1320   2.073   0.168   3.231
  141SOL     OW 1321   6.532   3.401   0.258
  141SOL    HW1 1322   6.597   3.346   0.205
  141SOL    HW2 1323   6.548   3.387   0.356
  142SOL     OW 1324   1.314   4.513   1.539
  142SOL    HW1 1325   1.373   4.588   1.507
  142SOL    HW2 1326   1.348   4.479   1.627
  143SOL     OW 1327   5.799   6.335   1.577
  143SOL    HW1 1328   5.799   6.420   1.629
  143SOL    HW2 1329   5.869   6.339   1.506
  144SOL     OW 1330   3.063   4.932   3.946
  144SOL    HW1 1331   3.134   4.946   4.015
  144SOL    HW2 1332   3.007   5.015   3.939
  145SOL     OW 1333   0.338   4.316   2.442
  145SOL    HW1 1334   0.341   4.416   2.436
  145SOL    HW2 1335   0.304   4.290   2.533
  146SOL     OW 1336   6.154   1.477   6.196
  146SOL    HW1 1337   6.169   1.544   6.268
  146SOL    HW2 1338   6.162   1.522   6.107
  147SOL     OW 1339   5.265   1.222   4.811
  147SOL    HW1 1340   5.178   1.201   4.766
  147SOL    HW2 1341   5.302   1.308   4.775
  148SOL     OW 1342   1.140   5.077   1.425
  148SOL    HW1 1343   1.112   5.058   1.519
  148SOL    HW2 1344   1.083   5.150   1.388
  149SOL     OW 1345   2.691   2.102   5.355
  149SOL    HW1 1346   2.777   2.099   5.405
  149SOL    HW2 1347   2.662   2.197   5.343
  150SOL     OW 1348   4.038   1.748   5.551
  150SOL    HW1 1349   4.125   1.702   5.568
  150SOL    HW2 1350   3.999   1.715   5.465
  151SOL     OW 1351   4.010   1.747   0.833
  151SOL    HW1 1352   3.981   1.664   0.786
  151SOL    HW2 1353   3.933   1.783   0.887
  152SOL     OW 1354   0.619   1.525   6.984
  152SOL    HW1 1355   0.657   1.494   6.897
  152SOL    HW2 1356   0.530   1.482   6.998
  153SOL     OW 1357   2.909   0.989   3.147
  153SOL    HW1 1358   2.984   1.024   3.091
  153SOL    HW2 1359   2.887   0.895   3.119
  154SOL     OW 1360   6.382   1.919   0.534
  154SOL    HW1 1361   6.377   1.841   0.471
  154SOL    HW2 1362   6.477   1.947   0.545
  155SOL     OW 1363   0.075   0.208   1.708
  155SOL    HW1 1364   0.037   0.285   1.761
  155SOL    HW2 1365   0.075   0.126   1.765
  156SOL     OW 1366   5.444   0.925   0.512
  156SOL    HW1 1367   5.479   0.885   0.428
  156SOL    HW2 1368   5.454   0.859   0.587
  157SOL     OW 1369   5.625   3.518   0.295
  157SOL    HW1 1370   5.653   3.607   0.258
  157SOL    HW2 1371   5.661   3.445   0.237
  158SOL     OW 1372   1.119   2.902   2.367
  158SOL    HW1 1373   1.062   2.934   2.291
  158SOL    HW2 1374   1.208   2.947   2.362
  159SOL     OW 1375   4.969   4.986   0.594
  159SOL    HW1 1376   4.921   5.067   0.628
  159SOL    HW2 1377   4.910   4.938   0.529
  160SOL     OW 1378   5.936   0.053   0.721
  160SOL    HW1 1379   5.858   0.070   0.661
  160SOL    HW2 1380   5.945   0.129   0.786
  161SOL     OW 1381   1.146   6.944   0.984
  161SOL    HW1 1382   1.198   6.997   1.050
  161SOL    HW2 1383   1.062   6.910   1.026
  162SOL     OW 1384   2.245   6.540   0.065
  162SOL    HW1 1385   2.330   6.539   0.118
  162SOL    HW2 1386   2.179   6.478   0.107
  163SOL     OW 1387   6.946   4.624   2.930
  163SOL    HW1 1388   6.868   4.653   2.874
  163SOL    HW2 1389   0.005   4.607   2.870
  164SOL     OW 1390   1.964   2.149   3.135
  164SOL    HW1 1391   1.991   2.245   3.136
  164SOL    HW2 1392   1.873   2.141   3.095
  165SOL     OW 1393   0.127   5.421   2.314
  165SOL    HW1 1394   0.080   5.342   2.274
  165SOL    HW2 1395   0.093   5.437   2.407
  166SOL     OW 1396   6.280   3.998   1.229
  166SOL    HW1 1397   6.298   4.093   1.253
  166SOL    HW2 1398   6.306   3.939   1.306
  167SOL     OW 1399   5.018   1.719   6.837
  167SOL    HW1 1400   5.095   1.722   6.901
  167SOL    HW2 1401   5.051   1.696   6.746
  168SOL     OW 1402   4.143   3.218   2.063
  168SOL    HW1 1403   4.121   3.315   2.050
  168SOL    HW2 1404   4.228   3.196   2.016
  169SOL     OW 1405   6.047   2.976   0.542
  169SOL    HW1 1406   6.035   3.075   0.544
  169SOL    HW2 1407   6.103   2.948   0.621
  170SOL     OW 1408   1.135   5.822   2.843
  170SOL    HW1 1409   1.169   5.738   2.885
  170SOL    HW2 1410   1.204   5.894   2.852
  171SOL     OW 1411   1.683   3.239   6.979
  171SOL    HW1 1412   1.732   3.256   6.893
  171SOL    HW2 1413   1.685   3.321   0.015
  172SOL     OW 1414   5.805   2.160   1.774
  172SOL    HW1 1415   5.745   2.100   1.827
  172SOL    HW2 1416   5.879   2.193   1.832
  173SOL     OW 1417   5.961   0.895   5.076
  173SOL    HW1 1418   5.980   0.980   5.126
  173SOL    HW2 1419   6.029   0.883   5.004
  174SOL     OW 1420   5.159   5.253   5.481
  174SOL    HW1 1421   5.242   5.273   5.429
  174SOL    HW2 1422   5.131   5.159   5.464
  175SOL     OW 1423   2.127   1.121   0.690
  175SOL    HW1 1424   2.075   1.056   0.634
  175SOL    HW2 1425   2.147   1.080   0.779
  176SOL     OW 1426   5.208   4.826   2.875
  176SOL    HW1 1427   5.111   4.813   2.854
  176SOL    HW2 1428   5.257   4.856   2.793
  177SOL     OW 1429   4.924   1.836   4.764
  177SOL    HW1 1430   4.955   1.780   4.841
  177SOL    HW2 1431   4.868   1.911   4.799
  178SOL     OW 1432   2.372   5.505   5.186
  178SOL    HW1 1433   2.377   5.565   5.105
  178SOL    HW2 1434   2.299   5.536   5.246
  179SOL     OW 1435   4.193   5.510   0.246
  179SOL    HW1 1436   4.277   5.458   0.261
  179SOL    HW2 1437   4.157   5.492   0.155
  180SOL     OW 1438   3.500   6.814   1.017
  180SOL    HW1 1439   3.517   6.764   1.102
  180SOL    HW2 1440   3.414   6.865   1.025
  181SOL     OW 1441   2.961   2.664   5.286
  181SOL    HW1 1442   2.897   2.592   5.256
  181SOL    HW2 1443   3.054   2.627   5.288
  182SOL     OW 1444   5.122   3.572   0.474
  182SOL    HW1 1445   5.114   3.514   0.392
  182SOL    HW2 1446   5.162   3.660   0.448
  183SOL     OW 1447   3.918   2.177   4.351
  183SOL    HW1 1448   3.952   2.259   4.398
  183SOL    HW2 1449   3.823   2.191   4.325
  184SOL     OW 1450   0.859   5.773   3.696
  184SOL    HW1 1451   0.763   5.746   3.690
  184SOL    HW2 1452   0.909   5.733   3.619
  185SOL     OW 1453   0.782   1.872   4.294
  185SOL    HW1 1454   0.688   1.846   4.273
  185SOL    HW2 1455   0.792   1.883   4.393
  186SOL     OW 1456   5.884   6.324   4.150
  186SOL    HW1 1457   5.941   6.245   4.173
  186SOL    HW2 1458   5.862   6.375   4.234
  187SOL     OW 1459   4.304   5.309   2.573
  187SOL    HW1 1460   4.269   5.394   2.534
  187SOL    HW2 1461   4.233   5.239   2.568
  188SOL     OW 1462   2.075   2.405   3.131
  188SOL    HW1 1463   2.006   2.461   3.177
  188SOL    HW2 1464   2.151   2.387   3.194
  189SOL     OW 1465   6.086   5.037   0.023
  189SOL    HW1 1466   6.145   5.108   0.059
  189SOL    HW2 1467   6.107   5.021   6.946
  190SOL     OW 1468   6.096   5.396   6.888
  190SOL    HW1 1469   6.186   5.423   6.921
  190SOL    HW2 1470   6.025   5.448   6.937
  191SOL     OW 1471   6.906   0.963   5.974
  191SOL    HW1 1472   6.932   0.870   5.999
  191SOL    HW2 1473   6.902   0.972   5.874
  192SOL     OW 1474   0.609   4.218   1.583
  192SOL    HW1 1475   0.706   4.231   1.567
  192SOL    HW2 1476   0.558   4.244   1.501
  193SOL     OW 1477   3.828   4.333   5.868
  193SOL    HW1 1478   3.780   4.245   5.865
  193SOL    HW2 1479   3.761   4.408   5.862
  194SOL     OW 1480   4.050   6.634   1.960
  194SOL    HW1 1481   4.112   6.712   1.949
  194SOL    HW2 1482   3.977   6.658   2.024
  195SOL     OW 1483   2.889   0.719   2.708
  195SOL    HW1 1484   2.963   0.755   2.651
  195SOL    HW2 1485   2.810   0.698   2.651
  196SOL     OW 1486   2.621   1.197   6.481
  196SOL    HW1 1487   2.713   1.187   6.444
  196SOL    HW2 1488   2.555   1.151   6.422
  197SOL     OW 1489   2.045   5.909   6.239
  197SOL    HW1 1490   1.975   5.913   6.167
  197SOL    HW2 1491   2.001   5.885   6.326
  198SOL     OW 1492   4.561   5.989   0.861
  198SOL    HW1 1493   4.484   6.023   0.807
  198SOL    HW2 1494   4.532   5.975   0.956
  199SOL     OW 1495   6.691   1.467   2.221
  199SOL    HW1 1496   6.642   1.457   2.134
  199SOL    HW2 1497   6.655   1.402   2.287
  200SOL     OW 1498   1.399   3.203   1.957
  200SOL    HW1 1499   1.369   3.276   2.017
  200SOL    HW2 1500   1.460   3.142   2.007
  201SOL     OW 1501   2.766   0.601   6.541
  201SOL    HW1 1502   2.784   0.514   6.587
  201SOL    HW2 1503   2.852   0.638   6.505
  202SOL     OW 1504   4.922   6.568   4.711
  202SOL    HW1 1505   4.897   6.471   4.722
  202SOL    HW2 1506   5.012   6.584   4.752
  203SOL     OW 1507   5.204   2.852   6.250
  203SOL    HW1 1508   5.116   2.809   6.227
  203SOL    HW2 1509   5.201   2.949   6.226
  204SOL     OW 1510   0.622   0.059   0.502
  204SOL    HW1 1511   0.621   6.980   0.490
  204SOL    HW2 1512   0.532   0.090   0.532
  205SOL     OW 1513   0.752   1.534   1.079
  205SOL    HW1 1514   0.775   1.604   1.147
  205SOL    HW2 1515   0.713   1.577   0.998
  206SOL     OW 1516   0.504   4.582   1.545
  206SOL    HW1 1517   0.546   4.628   1.467
  206SOL    HW2 1518   0.410   4.557   1.522
  207SOL     OW 1519   4.247   0.381   5.374
  207SOL    HW1 1520   4.238   0.359   5.471
  207SOL    HW2 1521   4.233   0.479   5.360
  208SOL     OW 1522   5.129   4.660   5.843
  208SOL    HW1 1523   5.109   4.757   5.858
  208SOL    HW2 1524   5.202   4.651   5.776
  209SOL     OW 1525   0.517   5.728   5.661
  209SOL    HW1 1526   0.440   5.777   5.620
  209SOL    HW2 1527   0.515   5.741   5.761
  210SOL     OW 1528   4.241   2.256   2.103
  210SOL    HW1 1529   4.206   2.264   2.009
  210SOL    HW2 1530   4.295   2.338   2.124
  211SOL     OW 1531   0.817   0.713   2.873
  211SOL    HW1 1532   0.849   0.705   2.779
  211SOL    HW2 1533   0.849   0.634   2.926
  212SOL     OW 1534   1.526   4.954   2.691
  212SOL    HW1 1535   1.495   4.874   2.743
  212SOL    HW2 1536   1.480   5.036   2.726
  213SOL     OW 1537   4.914   1.230   6.418
  213SOL    HW1 1538   4.927   1.251   6.321
  213SOL    HW2 1539   4.895   1.314   6.468
  214SOL     OW 1540   1.541   6.392   3.142
  214SOL    HW1 1541   1.614   6.426   3.201
  214SOL    HW2 1542   1.579   6.368   3.053
  215SOL     OW 1543   3.848   3.501   1.785
  215SOL    HW1 1544   3.754   3.529   1.765
  215SOL    HW2 1545   3.855   3.402   1.777
  216SOL     OW 1546   1.580   6.773   5.162
  216SOL    HW1 1547   1.496   6.810   5.123
  216SOL    HW2 1548   1.586   6.799   5.258
  217SOL     OW 1549   1.745   2.745   4.242
  217SOL    HW1 1550   1.757   2.709   4.334
  217SOL    HW2 1551   1.810   2.819   4.226
  218SOL     OW 1552   1.696   2.388   4.732
  218SOL    HW1 1553   1.617   2.403   4.791
  218SOL    HW2 1554   1.702   2.461   4.664
  219SOL     OW 1555   3.372   3.985   6.461
  219SOL    HW1 1556   3.319   3.927   6.399
  219SOL    HW2 1557   3.410   4.062   6.410
  220SOL     OW 1558   2.671   6.174   0.384
  220SOL    HW1 1559   2.588   6.221   0.354
  220SOL    HW2 1560   2.748   6.202   0.326
  221SOL     OW 1561   5.331   3.692   3.582
  221SOL    HW1 1562   5.301   3.599   3.603
  221SOL    HW2 1563   5.359   3.737   3.667
  222SOL     OW 1564   1.508   5.597   5.389
  222SOL    HW1 1565   1.491   5.692   5.415
  222SOL    HW2 1566   1.451   5.573   5.311
  223SOL     OW 1567   0.507   3.414   1.417
  223SOL    HW1 1568   0.487   3.504   1.455
  223SOL    HW2 1569   0.488   3.414   1.319
  224SOL     OW 1570   2.849   2.276   2.781
  224SOL    HW1 1571   2.839   2.176   2.780
  224SOL    HW2 1572   2.867   2.306   2.875
  225SOL     OW 1573   6.010   0.993   0.045
  225SOL    HW1 1574   6.045   1.076   0.088
  225SOL    HW2 1575   5.934   1.016   7.004
  226SOL     OW 1576   0.479   0.226   0.136
  226SOL    HW1 1577   0.544   0.159   0.100
  226SOL    HW2 1578   0.479   0.307   0.077
  227SOL     OW 1579   1.494   4.219   3.170
  227SOL    HW1 1580   1.486   4.123   3.195
  227SOL    HW2 1581   1.505   4.275   3.252
  228SOL     OW 1582   3.858   6.906   4.700
  228SOL    HW1 1583   3.863   6.814   4.740
  228SOL    HW2 1584   3.950   6.939   4.681
  229SOL     OW 1585   5.939   5.733   1.674
  229SOL    HW1 1586   6.025   5.754   1.720
  229SOL    HW2 1587   5.958   5.712   1.578
  230SOL     OW 1588   2.033   4.249   3.836
  230SOL    HW1 1589   2.033   4.318   3.764
  230SOL    HW2 1590   2.124   4.209   3.845
  231SOL     OW 1591   6.157   3.025   6.446
  231SOL    HW1 1592   6.146   2.983   6.356
  231SOL    HW2 1593   6.144   2.956   6.517
  232SOL     OW 1594   1.252   3.124   6.377
  232SOL    HW1 1595   1.326   3.079   6.427
  232SOL    HW2 1596   1.248   3.221   6.402
  233SOL     OW 1597   2.127   0.794   5.073
  233SOL    HW1 1598   2.097   0.727   5.005
  233SOL    HW2 1599   2.203   0.755   5.125
  234SOL     OW 1600   2.377   4.952   6.555
  234SOL    HW1 1601   2.391   4.860   6.590
  234SOL    HW2 1602   2.314   4.950   6.477
  235SOL     OW 1603   3.502   3.275   3.011
  235SOL    HW1 1604   3.584   3.229   3.044
  235SOL    HW2 1605   3.471   3.343   3.078
  236SOL     OW 1606   6.742   2.943   6.693
  236SOL    HW1 1607   6.835   2.940   6.659
  236SOL    HW2 1608   6.739   2.908   6.787
  237SOL     OW 1609   0.460   6.727   1.107
  237SOL    HW1 1610   0.372   6.767   1.083
  237SOL    HW2 1611   0.477   6.739   1.205
  238SOL     OW 1612   5.797   3.348   1.456
  238SOL    HW1 1613   5.832   3.287   1.385
  238SOL    HW2 1614   5.794   3.299   1.543
  239SOL     OW 1615   6.607   5.690   0.135
  239SOL    HW1 1616   6.609   5.735   0.224
  239SOL    HW2 1617   6.545   5.612   0.140
  240SOL     OW 1618   0.667   3.399   5.936
  240SOL    HW1 1619   0.718   3.357   5.861
  240SOL    HW2 1620   0.722   3.470   5.979
  241SOL     OW 1621   0.832   0.948   3.472
  241SOL    HW1 1622   0.846   0.855   3.439
  241SOL    HW2 1623   0.896   1.010   3.427
  242SOL     OW 1624   1.482   3.100   5.342
  242SOL    HW1 1625   1.459   3.006   5.319
  242SOL    HW2 1626   1.519   3.146   5.261
  243SOL     OW 1627   4.683   0.197   6.380
  243SOL    HW1 1628   4.749   0.228   6.448
  243SOL    HW2 1629   4.590   0.209   6.416
  244SOL     OW 1630   4.697   2.377   4.297
  244SOL    HW1 1631   4.615   2.330   4.264
  244SOL    HW2 1632   4.741   2.424   4.221
  245SOL     OW 1633   6.578   2.646   4.491
  245SOL    HW1 1634   6.553   2.735   4.529
  245SOL    HW2 1635   6.568   2.648   4.392
  246SOL     OW 1636   5.375   3.819   3.813
  246SOL    HW1 1637   5.463   3.828   3.859
  246SOL    HW2 1638   5.303   3.800   3.880
  247SOL     OW 1639   2.678   1.351   3.043
  247SOL    HW1 1640   2.588   1.350   2.999
  247SOL    HW2 1641   2.748   1.322   2.978
  248SOL     OW 1642   4.967   2.283   4.736
  248SOL    HW1 1643   4.880   2.298   4.688
  248SOL    HW2 1644   5.042   2.317   4.680
  249SOL     OW 1645   3.217   6.337   5.017
  249SOL    HW1 1646   3.266   6.286   4.947
  249SOL    HW2 1647   3.119   6.331   5.001
  250SOL     OW 1648   5.600   2.043   5.526
  250SOL    HW1 1649   5.643   2.108   5.588
  250SOL    HW2 1650   5.501   2.044   5.540
  251SOL     OW 1651   4.521   3.315   6.029
  251SOL    HW1 1652   4.596   3.250   6.042
  251SOL    HW2 1653   4.540   3.399   6.080
  252SOL     OW 1654   0.423   1.511   5.593
  252SOL    HW1 1655   0.338   1.501   5.541
  252SOL    HW2 1656   0.402   1.510   5.691
  253SOL     OW 1657   1.770   3.582   1.280
  253SOL    HW1 1658   1.709   3.503   1.278
  253SOL    HW2 1659   1.764   3.626   1.369
  254SOL     OW 1660   6.445   2.855   4.596
  254SOL    HW1 1661   6.491   2.832   4.682
  254SOL    HW2 1662   6.348   2.870   4.612
  255SOL     OW 1663   3.244   2.170   3.877
  255SOL    HW1 1664   3.291   2.141   3.793
  255SOL    HW2 1665   3.288   2.126   3.956
  256SOL     OW 1666   6.366   5.404   6.945
  256SOL    HW1 1667   6.429   5.464   6.895
  256SOL    HW2 1668   6.383   5.412   0.023
  257SOL     OW 1669   3.220   5.224   6.022
  257SOL    HW1 1670   3.207   5.126   6.006
  257SOL    HW2 1671   3.219   5.272   5.934
  258SOL     OW 1672   4.702   4.148   5.070
  258SOL    HW1 1673   4.723   4.050   5.065
  258SOL    HW2 1674   4.721   4.191   4.982
  259SOL     OW 1675   1.610   2.828   2.654
  259SOL    HW1 1676   1.635   2.745   2.605
  259SOL    HW2 1677   1.519   2.817   2.693
  260SOL     OW 1678   4.914   0.863   6.591
  260SOL    HW1 1679   4.880   0.914   6.512
  260SOL    HW2 1680   4.963   0.926   6.653
  261SOL     OW 1681   0.785   3.456   1.818
  261SOL    HW1 1682   0.876   3.499   1.821
  261SOL    HW2 1683   0.717   3.525   1.792
  262SOL     OW 1684   1.349   3.119   2.425
  262SOL    HW1 1685   1.439   3.091   2.457
  262SOL    HW2 1686   1.319   3.199   2.476
  263SOL     OW 1687   0.296   2.369   4.435
  263SOL    HW1 1688   0.383   2.341   4.394
  263SOL    HW2 1689   0.307   2.456   4.483
  264SOL     OW 1690   0.588   3.310   5.317
  264SOL    HW1 1691   0.512   3.306   5.252
  264SOL    HW2 1692   0.674   3.299   5.268
  265SOL     OW 1693   4.586   4.402   4.179
  265SOL    HW1 1694   4.663   4.364   4.127
  265SOL    HW2 1695   4.577   4.353   4.266
  266SOL     OW 1696   3.473   1.848   0.128
  266SOL    HW1 1697   3.563   1.808   0.109
  266SOL    HW2 1698   3.434   1.885   0.044
  267SOL     OW 1699   1.788   2.479   0.005
  267SOL    HW1 1700   1.837   2.562   7.000
  267SOL    HW2 1701   1.732   2.495   0.086
  268SOL     OW 1702   4.377   4.581   4.394
  268SOL    HW1 1703   4.386   4.481   4.386
  268SOL    HW2 1704   4.451   4.615   4.453
  269SOL     OW 1705   1.585   1.781   6.443
  269SOL    HW1 1706   1.564   1.693   6.401
  269SOL    HW2 1707   1.683   1.785   6.465
  270SOL     OW 1708   5.356   1.012   2.616
  270SOL    HW1 1709   5.364   0.998   2.517
  270SOL    HW2 1710   5.287   1.082   2.634
  271SOL     OW 1711   2.071   0.970   1.004
  271SOL    HW1 1712   2.101   0.895   1.063
  271SOL    HW2 1713   2.130   1.049   1.020
  272SOL     OW 1714   3.781   5.416   4.596
  272SOL    HW1 1715   3.876   5.387   4.603
  272SOL    HW2 1716   3.734   5.401   4.683
  273SOL     OW 1717   0.990   5.629   4.858
  273SOL    HW1 1718   1.027   5.568   4.788
  273SOL    HW2 1719   1.061   5.693   4.888
  274SOL     OW 1720   5.662   2.890   3.623
  274SOL    HW1 1721   5.634   2.799   3.592
  274SOL    HW2 1722   5.718   2.934   3.552
  275SOL     OW 1723   0.492   6.189   6.163
  275SOL    HW1 1724   0.476   6.126   6.087
  275SOL    HW2 1725   0.531   6.274   6.129
  276SOL     OW 1726   6.885   5.268   3.512
  276SOL    HW1 1727   6.904   5.325   3.432
  276SOL    HW2 1728   6.849   5.180   3.482
  277SOL     OW 1729   3.217   0.880   5.240
  277SOL    HW1 1730   3.180   0.801   5.290
  277SOL    HW2 1731   3.289   0.923   5.294
  278SOL     OW 1732   5.579   4.516   2.553
  278SOL    HW1 1733   5.657   4.456   2.574
  278SOL    HW2 1734   5.501   4.490   2.610
  279SOL     OW 1735   0.179   2.554   3.270
  279SOL    HW1 1736   0.125   2.471   3.280
  279SOL    HW2 1737   0.141   2.626   3.328
  280SOL     OW 1738   4.978   6.627   3.806
  280SOL    HW1 1739   5.007   6.532   3.801
  280SOL    HW2 1740   4.899   6.635   3.867
  281SOL     OW 1741   3.842   5.783   4.013
  281SOL    HW1 1742   3.926   5.777   4.068
  281SOL    HW2 1743   3.853   5.854   3.944
  282SOL     OW 1744   4.203   1.578   5.788
  282SOL    HW1 1745   4.272   1.649   5.779
  282SOL    HW2 1746   4.219   1.507   5.719
  283SOL     OW 1747   6.034   0.167   5.068
  283SOL    HW1 1748   6.065   0.078   5.101
  283SOL    HW2 1749   5.938   0.160   5.039
  284SOL     OW 1750   0.489   4.715   4.689
  284SOL    HW1 1751   0.576   4.685   4.649
  284SOL    HW2 1752   0.415   4.656   4.654
  285SOL     OW 1753   5.659   0.031   0.244
  285SOL    HW1 1754   5.580   0.089   0.221
  285SOL    HW2 1755   5.710   0.073   0.320
  286SOL     OW 1756   3.441   5.284   4.631
  286SOL    HW1 1757   3.373   5.221   4.670
  286SOL    HW2 1758   3.510   5.231   4.581
  287SOL     OW 1759   1.772   5.653   6.152
  287SOL    HW1 1760   1.840   5.726   6.148
  287SOL    HW2 1761   1.681   5.692   6.165
  288SOL     OW 1762   4.489   0.581   1.056
  288SOL    HW1 1763   4.545   0.603   0.975
  288SOL    HW2 1764   4.437   0.498   1.039
  289SOL     OW 1765   1.277   5.398   5.748
  289SOL    HW1 1766   1.266   5.497   5.742
  289SOL    HW2 1767   1.360   5.371   5.699
  290SOL     OW 1768   4.484   0.406   2.584
  290SOL    HW1 1769   4.524   0.389   2.674
  290SOL    HW2 1770   4.420   0.333   2.562
  291SOL     OW 1771   4.225   0.298   4.101
  291SOL    HW1 1772   4.314   0.251   4.102
  291SOL    HW2 1773   4.240   0.397   4.101
  292SOL     OW 1774   3.670   0.122   3.718
  292SOL    HW1 1775   3.711   0.072   3.794
  292SOL    HW2 1776   3.717   0.209   3.705
  293SOL     OW 1777   4.469   6.664   2.515
  293SOL    HW1 1778   4.449   6.658   2.417
  293SOL    HW2 1779   4.456   6.574   2.558
  294SOL     OW 1780   5.497   6.996   5.786
  294SOL    HW1 1781   5.412   7.000   5.839
  294SOL    HW2 1782   5.499   6.909   5.735
  295SOL     OW 1783   1.129   2.402   4.940
  295SOL    HW1 1784   1.161   2.406   5.034
  295SOL    HW2 1785   1.122   2.306   4.911
  296SOL     OW 1786   6.377   1.629   1.408
  296SOL    HW1 1787   6.413   1.543   1.372
  296SOL    HW2 1788   6.444   1.702   1.392
  297SOL     OW 1789   5.286   5.267   4.002
  297SOL    HW1 1790   5.213   5.288   4.067
  297SOL    HW2 1791   5.305   5.347   3.945
  298SOL     OW 1792   4.809   0.621   0.673
  298SOL    HW1 1793   4.719   0.664   0.674
  298SOL    HW2 1794   4.859   0.647   0.756
  299SOL     OW 1795   3.547   1.853   0.521
  299SOL    HW1 1796   3.566   1.933   0.464
  299SOL    HW2 1797   3.567   1.875   0.616
  300SOL     OW 1798   3.381   1.131   2.225
  300SOL    HW1 1799   3.316   1.168   2.159
  300SOL    HW2 1800   3.342   1.050   2.268
  301SOL     OW 1801   5.183   6.507   1.586
  301SOL    HW1 1802   5.238   6.533   1.507
  301SOL    HW2 1803   5.220   6.550   1.669
  302SOL     OW 1804   6.919   6.707   1.553
  302SOL    HW1 1805   6.891   6.766   1.629
  302SOL    HW2 1806   6.930   6.763   1.470
  303SOL     OW 1807   5.891   5.734   2.436
  303SOL    HW1 1808   5.821   5.664   2.426
  303SOL    HW2 1809   5.852   5.824   2.416
  304SOL     OW 1810   1.585   0.152   5.858
  304SOL    HW1 1811   1.671   0.102   5.865
  304SOL    HW2 1812   1.603   0.245   5.827
  305SOL     OW 1813   1.171   3.422   1.437
  305SOL    HW1 1814   1.074   3.425   1.413
  305SOL    HW2 1815   1.190   3.340   1.490
  306SOL     OW 1816   6.951   0.712   2.252
  306SOL    HW1 1817   0.025   0.733   2.226
  306SOL    HW2 1818   6.936   0.737   2.348
  307SOL     OW 1819   3.261   3.257   0.719
  307SOL    HW1 1820   3.323   3.302   0.783
  307SOL    HW2 1821   3.302   3.171   0.689
  308SOL     OW 1822   5.564   1.943   4.474
  308SOL    HW1 1823   5.586   1.930   4.570
  308SOL    HW2 1824   5.581   2.038   4.448
  309SOL     OW 1825   0.509   6.833   7.019
  309SOL    HW1 1826   0.570   6.911   0.011
  309SOL    HW2 1827   0.545   6.773   6.947
  310SOL     OW 1828   5.936   6.580   4.335
  310SOL    HW1 1829   6.015   6.520   4.336
  310SOL    HW2 1830   5.855   6.529   4.366
  311SOL     OW 1831   2.493   4.904   2.321
  311SOL    HW1 1832   2.587   4.930   2.341
  311SOL    HW2 1833   2.430   4.959   2.375
  312SOL     OW 1834   4.667   2.495   3.836
  312SOL    HW1 1835   4.643   2.465   3.744
  312SOL    HW2 1836   4.724   2.577   3.831
  313SOL     OW 1837   3.503   3.416   2.577
  313SOL    HW1 1838   3.464   3.507   2.577
  313SOL    HW2 1839   3.553   3.400   2.492
  314SOL     OW 1840   1.903   5.948   5.407
  314SOL    HW1 1841   1.932   5.894   5.328
  314SOL    HW2 1842   1.936   5.905   5.491
  315SOL     OW 1843   6.632   1.318   3.274
  315SOL    HW1 1844   6.723   1.360   3.274
  315SOL    HW2 1845   6.628   1.247   3.344
  316SOL     OW 1846   4.594   2.113   5.455
  316SOL    HW1 1847   4.648   2.194   5.477
  316SOL    HW2 1848   4.574   2.111   5.357
  317SOL     OW 1849   2.007   1.305   2.016
  317SOL    HW1 1850   2.058   1.223   1.989
  317SOL    HW2 1851   1.938   1.326   1.947
  318SOL     OW 1852   6.814   0.179   6.479
  318SOL    HW1 1853   6.821   0.191   6.578
  318SOL    HW2 1854   6.796   0.083   6.458
  319SOL     OW 1855   0.421   2.452   3.006
  319SOL    HW1 1856   0.334   2.457   2.956
  319SOL    HW2 1857   0.412   2.387   3.082
  320SOL     OW 1858   5.887   2.462   6.747
  320SOL    HW1 1859   5.824   2.537   6.724
  320SOL    HW2 1860   5.973   2.474   6.696
  321SOL     OW 1861   3.654   3.303   0.299
  321SOL    HW1 1862   3.633   3.306   0.202
  321SOL    HW2 1863   3.654   3.395   0.337
  322SOL     OW 1864   3.708   3.354   5.475
  322SOL    HW1 1865   3.696   3.295   5.396
  322SOL    HW2 1866   3.802   3.387   5.478
  323SOL     OW 1867   0.674   2.951   3.701
  323SOL    HW1 1868   0.597   3.014   3.708
  323SOL    HW2 1869   0.729   2.975   3.621
  324SOL     OW 1870   2.559   6.849   3.260
  324SOL    HW1 1871   2.570   6.832   3.162
  324SOL    HW2 1872   2.601   6.936   3.284
  325SOL     OW 1873   1.440   3.599   2.671
  325SOL    HW1 1874   1.491   3.536   2.730
  325SOL    HW2 1875   1.358   3.630   2.720
  326SOL     OW 1876   1.829   4.413   6.660
  326SOL    HW1 1877   1.823   4.499   6.610
  326SOL    HW2 1878   1.910   4.414   6.718
  327SOL     OW 1879   2.453   4.710   2.543
  327SOL    HW1 1880   2.456   4.803   2.506
  327SOL    HW2 1881   2.472   4.644   2.470
  328SOL     OW 1882   2.163   4.200   1.512
  328SOL    HW1 1883   2.090   4.153   1.561
  328SOL    HW2 1884   2.160   4.298   1.533
  329SOL     OW 1885   3.111   4.075   0.304
  329SOL    HW1 1886   3.153   3.991   0.338
  329SOL    HW2 1887   3.028   4.052   0.252
  330SOL     OW 1888   4.170   6.069   0.144
  330SOL    HW1 1889   4.214   5.986   0.180
  330SOL    HW2 1890   4.078   6.046   0.111
  331SOL     OW 1891   5.270   4.735   0.878
  331SOL    HW1 1892   5.177   4.700   0.867
  331SOL    HW2 1893   5.331   4.660   0.903
  332SOL     OW 1894   5.338   1.702   3.883
  332SOL    HW1 1895   5.358   1.797   3.909
  332SOL    HW2 1896   5.244   1.696   3.850
  333SOL     OW 1897   3.968   0.889   5.181
  333SOL    HW1 1898   3.910   0.937   5.247
  333SOL    HW2 1899   4.014   0.955   5.122
  334SOL     OW 1900   3.544   2.774   1.697
  334SOL    HW1 1901   3.533   2.685   1.741
  334SOL    HW2 1902   3.541   2.763   1.598
  335SOL     OW 1903   4.478   0.050   6.529
  335SOL    HW1 1904   4.480   0.110   6.609
  335SOL    HW2 1905   4.568   0.010   6.515
  336SOL     OW 1906   3.053   1.695   2.764
  336SOL    HW1 1907   3.039   1.630   2.839
  336SOL    HW2 1908   3.123   1.761   2.790
  337SOL     OW 1909   1.900   2.279   6.268
  337SOL    HW1 1910   1.893   2.270   6.367
  337SOL    HW2 1911   1.977   2.224   6.235
  338SOL     OW 1912   3.659   3.303   0.784
  338SOL    HW1 1913   3.654   3.260   0.694
  338SOL    HW2 1914   3.572   3.292   0.831
  339SOL     OW 1915   4.288   5.012   4.331
  339SOL    HW1 1916   4.341   4.954   4.268
  339SOL    HW2 1917   4.209   4.960   4.364
  340SOL     OW 1918   5.240   3.581   5.083
  340SOL    HW1 1919   5.310   3.579   5.155
  340SOL    HW2 1920   5.230   3.490   5.043
  341SOL     OW 1921   6.211   5.790   4.624
  341SOL    HW1 1922   6.302   5.754   4.646
  341SOL    HW2 1923   6.145   5.715   4.624
  342SOL     OW 1924   4.804   3.556   0.777
  342SOL    HW1 1925   4.877   3.493   0.750
  342SOL    HW2 1926   4.718   3.527   0.735
  343SOL     OW 1927   0.084   6.094   2.724
  343SOL    HW1 1928   0.091   6.193   2.709
  343SOL    HW2 1929   0.172   6.060   2.757
  344SOL     OW 1930   1.003   1.823   2.211
  344SOL    HW1 1931   1.039   1.909   2.175
  344SOL    HW2 1932   1.019   1.819   2.310
  345SOL     OW 1933   6.914   2.296   4.109
  345SOL    HW1 1934   6.898   2.199   4.130
  345SOL    HW2 1935   7.004   2.306   4.066
  346SOL     OW 1936   1.652   0.171   2.689
  346SOL    HW1 1937   1.554   0.172   2.710
  346SOL    HW2 1938   1.676   0.256   2.642
  347SOL     OW 1939   2.565   5.783   6.605
  347SOL    HW1 1940   2.467   5.804   6.614
  347SOL    HW2 1941   2.599   5.748   6.692
  348SOL     OW 1942   4.422   5.290   2.903
  348SOL    HW1 1943   4.516   5.262   2.922
  348SOL    HW2 1944   4.421   5.358   2.830
  349SOL     OW 1945   6.485   4.546   2.373
  349SOL    HW1 1946   6.430   4.537   2.290
  349SOL    HW2 1947   6.439   4.500   2.449
  350SOL     OW 1948   3.208   2.925   0.371
  350SOL    HW1 1949   3.272   2.981   0.318
  350SOL    HW2 1950   3.142   2.984   0.416
  351SOL     OW 1951   3.008   3.327   0.682
  351SOL    HW1 1952   3.098   3.281   0.682
  351SOL    HW2 1953   2.983   3.351   0.776
  352SOL     OW 1954   4.184   6.529   3.418
  352SOL    HW1 1955   4.128   6.474   3.480
  352SOL    HW2 1956   4.278   6.531   3.452
  353SOL     OW 1957   3.137   0.358   6.063
  353SOL    HW1 1958   3.228   0.325   6.040
  353SOL    HW2 1959   3.141   0.414   6.145
  354SOL     OW 1960   5.007   2.357   0.388
  354SOL    HW1 1961   5.068   2.292   0.343
  354SOL    HW2 1962   4.937   2.388   0.323
  355SOL     OW 1963   1.811   3.045   2.330
  355SOL    HW1 1964   1.812   2.955   2.286
  355SOL    HW2 1965   1.733   3.051   2.392
  356SOL     OW 1966   2.136   0.589   4.666
  356SOL    HW1 1967   2.091   0.658   4.610
  356SOL    HW2 1968   2.229   0.575   4.634
  357SOL     OW 1969   0.644   6.078   4.097
  357SOL    HW1 1970   0.714   6.049   4.032
  357SOL    HW2 1971   0.688   6.121   4.176
  358SOL     OW 1972   4.226   6.401   0.866
  358SOL    HW1 1973   4.211   6.404   0.964
  358SOL    HW2 1974   4.140   6.415   0.818
  359SOL     OW 1975   3.591   0.464   1.420
  359SOL    HW1 1976   3.521   0.442   1.352
  359SOL    HW2 1977   3.668   0.509   1.375
  360SOL     OW 1978   1.476   4.260   4.215
  360SOL    HW1 1979   1.514   4.179   4.258
  360SOL    HW2 1980   1.550   4.324   4.193
  361SOL     OW 1981   6.594   6.078   2.976
  361SOL    HW1 1982   6.613   5.982   2.953
  361SOL    HW2 1983   6.678   6.131   2.969
  362SOL     OW 1984   3.536   3.968   0.690
  362SOL    HW1 1985   3.519   3.986   0.787
  362SOL    HW2 1986   3.459   4.003   0.636
  363SOL     OW 1987   6.165   4.503   3.297
  363SOL    HW1 1988   6.092   4.556   3.340
  363SOL    HW2 1989   6.125   4.435   3.237
  364SOL     OW 1990   0.470   4.901   6.385
  364SOL    HW1 1991   0.455   4.975   6.319
  364SOL    HW2 1992   0.390   4.891   6.443
  365SOL     OW 1993   3.886   1.257   1.357
  365SOL    HW1 1994   3.839   1.336   1.397
  365SOL    HW2 1995   3.895   1.185   1.427
  366SOL     OW 1996   5.418   2.495   6.809
  366SOL    HW1 1997   5.414   2.399   6.784
  366SOL    HW2 1998   5.453   2.504   6.903
  367SOL     OW 1999   5.805   2.571   6.082
  367SOL    HW1 2000   5.723   2.533   6.041
  367SOL    HW2 2001   5.793   2.577   6.181
  368SOL     OW 2002   6.461   2.284   5.722
  368SOL    HW1 2003   6.395   2.284   5.647
  368SOL    HW2 2004   6.514   2.369   5.720
  369SOL     OW 2005   6.112   4.309   2.888
  369SOL    HW1 2006   6.088   4.339   2.980
  369SOL    HW2 2007   6.160   4.222   2.892
  370SOL     OW 2008   1.128   2.069   3.912
  370SOL    HW1 2009   1.056   2.137   3.894
  370SOL    HW2 2010   1.098   2.008   3.985
  371SOL     OW 2011   2.255   4.274   6.998
  371SOL    HW1 2012   2.272   4.368   0.009
  371SOL    HW2 2013   2.340   4.234   6.965
  372SOL     OW 2014   1.685   0.144   4.995
  372SOL    HW1 2015   1.602   0.117   4.946
  372SOL    HW2 2016   1.756   0.075   4.981
  373SOL     OW 2017   5.258   6.418   5.131
  373SOL    HW1 2018   5.332   6.399   5.067
  373SOL    HW2 2019   5.293   6.467   5.211
  374SOL     OW 2020   2.462   2.239   3.014
  374SOL    HW1 2021   2.497   2.201   2.929
  374SOL    HW2 2022   2.452   2.166   3.082
  375SOL     OW 2023   0.754   4.637   4.585
  375SOL    HW1 2024   0.793   4.724   4.616
  375SOL    HW2 2025   0.766   4.569   4.657
  376SOL     OW 2026   1.465   1.898   5.296
  376SOL    HW1 2027   1.403   1.955   5.350
  376SOL    HW2 2028   1.412   1.843   5.230
  377SOL     OW 2029   2.188   2.657   6.892
  377SOL    HW1 2030   2.211   2.643   6.796
  377SOL    HW2 2031   2.089   2.646   6.904
  378SOL     OW 2032   4.015   1.599   6.330
  378SOL    HW1 2033   4.109   1.582   6.359
  378SOL    HW2 2034   3.987   1.691   6.357
  379SOL     OW 2035   5.128   2.856   0.257
  379SOL    HW1 2036   5.113   2.757   0.256
  379SOL    HW2 2037   5.041   2.904   0.268
  380SOL     OW 2038   3.083   1.225   0.542
  380SOL    HW1 2039   3.037   1.268   0.620
  380SOL    HW2 2040   3.159   1.283   0.512
  381SOL     OW 2041   1.437   3.794   4.156
  381SOL    HW1 2042   1.383   3.722   4.112
  381SOL    HW2 2043   1.534   3.769   4.153
  382SOL     OW 2044   5.726   0.625   6.966
  382SOL    HW1 2045   5.786   0.585   6.896
  382SOL    HW2 2046   5.687   0.552   0.002
  383SOL     OW 2047   4.079   3.063   0.449
  383SOL    HW1 2048   4.058   3.016   0.535
  383SOL    HW2 2049   4.056   3.004   0.372
  384SOL     OW 2050   0.232   5.425   4.068
  384SOL    HW1 2051   0.162   5.457   4.133
  384SOL    HW2 2052   0.287   5.354   4.111
  385SOL     OW 2053   3.367   6.001   5.931
  385SOL    HW1 2054   3.453   5.955   5.911
  385SOL    HW2 2055   3.382   6.099   5.942
  386SOL     OW 2056   3.787   0.048   4.007
  386SOL    HW1 2057   3.761   0.102   4.086
  386SOL    HW2 2058   3.854   0.099   3.952
  387SOL     OW 2059   1.190   5.712   2.199
  387SOL    HW1 2060   1.194   5.630   2.256
  387SOL    HW2 2061   1.274   5.719   2.145
  388SOL     OW 2062   1.720   2.056   6.468
  388SOL    HW1 2063   1.755   2.125   6.530
  388SOL    HW2 2064   1.660   1.993   6.518
  389SOL     OW 2065   3.448   3.477   2.118
  389SOL    HW1 2066   3.469   3.481   2.020
  389SOL    HW2 2067   3.503   3.406   2.161
  390SOL     OW 2068   3.501   0.831   3.587
  390SOL    HW1 2069   3.526   0.762   3.519
  390SOL    HW2 2070   3.488   0.788   3.676
  391SOL     OW 2071   2.310   2.884   6.966
  391SOL    HW1 2072   2.380   2.866   0.014
  391SOL    HW2 2073   2.242   2.811   6.967
  392SOL     OW 2074   1.215   4.303   0.359
  392SOL    HW1 2075   1.301   4.354   0.350
  392SOL    HW2 2076   1.199   4.282   0.455
  393SOL     OW 2077   0.190   4.474   5.213
  393SOL    HW1 2078   0.234   4.539   5.150
  393SOL    HW2 2079   0.092   4.493   5.218
  394SOL     OW 2080   0.004   0.857   6.923
  394SOL    HW1 2081   0.097   0.889   6.942
  394SOL    HW2 2082   6.968   0.933   6.892
  395SOL     OW 2083   5.155   3.967   3.287
  395SOL    HW1 2084   5.120   4.048   3.240
  395SOL    HW2 2085   5.201   3.995   3.371
  396SOL     OW 2086   3.727   4.048   1.825
  396SOL    HW1 2087   3.786   4.032   1.746
  396SOL    HW2 2088   3.728   3.968   1.885
  397SOL     OW 2089   3.948   2.416   5.690
  397SOL    HW1 2090   3.973   2.453   5.601
  397SOL    HW2 2091   3.893   2.333   5.677
  398SOL     OW 2092   0.317   6.543   2.171
  398SOL    HW1 2093   0.321   6.611   2.098
  398SOL    HW2 2094   0.403   6.491   2.173
  399SOL     OW 2095   4.648   6.507   2.861
  399SOL    HW1 2096   4.667   6.601   2.832
  399SOL    HW2 2097   4.578   6.507   2.932
  400SOL     OW 2098   6.425   6.619   5.452
  400SOL    HW1 2099   6.397   6.524   5.438
  400SOL    HW2 2100   6.412   6.670   5.367
  401SOL     OW 2101   4.904   1.024   5.362
  401SOL    HW1 2102   4.868   1.063   5.447
  401SOL    HW2 2103   4.884   0.926   5.359
  402SOL     OW 2104   6.063   6.937   3.121
  402SOL    HW1 2105   6.156   6.953   3.089
  402SOL    HW2 2106   6.032   6.847   3.091
  403SOL     OW 2107   4.210   2.194   5.212
  403SOL    HW1 2108   4.124   2.153   5.241
  403SOL    HW2 2109   4.192   2.273   5.153
  404SOL     OW 2110   1.690   6.066   4.428
  404SOL    HW1 2111   1.707   5.973   4.461
  404SOL    HW2 2112   1.766   6.096   4.371
  405SOL     OW 2113   1.595   3.808   1.909
  405SOL    HW1 2114   1.615   3.831   1.814
  405SOL    HW2 2115   1.670   3.752   1.946
  406SOL     OW 2116   0.745   3.695   3.547
  406SOL    HW1 2117   0.820   3.644   3.504
  406SOL    HW2 2118   0.660   3.679   3.496
  407SOL     OW 2119   2.031   0.258   3.796
  407SOL    HW1 2120   1.966   0.326   3.763
  407SOL    HW2 2121   2.115   0.303   3.825
  408SOL     OW 2122   1.235   1.349   3.349
  408SOL    HW1 2123   1.238   1.334   3.448
  408SOL    HW2 2124   1.141   1.371   3.322
  409SOL     OW 2125   6.114   3.090   1.404
  409SOL    HW1 2126   6.112   3.059   1.499
  409SOL    HW2 2127   6.166   3.024   1.349
  410SOL     OW 2128   2.183   0.303   6.755
  410SOL    HW1 2129   2.172   0.211   6.717
  410SOL    HW2 2130   2.152   0.304   6.850
  411SOL     OW 2131   6.073   6.672   6.538
  411SOL    HW1 2132   5.999   6.657   6.472
  411SOL    HW2 2133   6.063   6.609   6.615
  412SOL     OW 2134   4.952   6.819   3.600
  412SOL    HW1 2135   4.952   6.756   3.678
  412SOL    HW2 2136   4.858   6.836   3.571
  413SOL     OW 2137   5.343   5.009   1.959
  413SOL    HW1 2138   5.337   5.046   1.867
  413SOL    HW2 2139   5.259   4.959   1.981
  414SOL     OW 2140   3.586   5.038   3.983
  414SOL    HW1 2141   3.679   5.014   3.955
  414SOL    HW2 2142   3.523   5.021   3.906
  415SOL     OW 2143   0.852   6.218   6.318
  415SOL    HW1 2144   0.890   6.305   6.286
  415SOL    HW2 2145   0.923   6.168   6.368
  416SOL     OW 2146   5.136   5.128   4.385
  416SOL    HW1 2147   5.154   5.032   4.405
  416SOL    HW2 2148   5.038   5.145   4.386
  417SOL     OW 2149   2.500   5.439   0.788
  417SOL    HW1 2150   2.584   5.479   0.825
  417SOL    HW2 2151   2.441   5.410   0.864
  418SOL     OW 2152   4.236   5.819   1.851
  418SOL    HW1 2153   4.335   5.828   1.839
  418SOL    HW2 2154   4.217   5.782   1.942
  419SOL     OW 2155   1.648   0.498   1.472
  419SOL    HW1 2156   1.711   0.442   1.418
  419SOL    HW2 2157   1.554   0.476   1.449
  420SOL     OW 2158   6.301   2.657   0.862
  420SOL    HW1 2159   6.337   2.564   0.860
  420SOL    HW2 2160   6.373   2.721   0.888
  421SOL     OW 2161   6.786   4.598   5.769
  421SOL    HW1 2162   6.692   4.634   5.765
  421SOL    HW2 2163   6.813   4.568   5.677
  422SOL     OW 2164   5.491   4.632   0.568
  422SOL    HW1 2165   5.476   4.578   0.651
  422SOL    HW2 2166   5.452   4.585   0.490
  423SOL     OW 2167   0.852   2.932   0.293
  423SOL    HW1 2168   0.835   2.842   0.334
  423SOL    HW2 2169   0.802   2.939   0.207
  424SOL     OW 2170   3.067   3.316   1.428
  424SOL    HW1 2171   3.076   3.307   1.528
  424SOL    HW2 2172   3.149   3.281   1.384
  425SOL     OW 2173   6.502   1.449   2.021
  425SOL    HW1 2174   6.439   1.433   2.097
  425SOL    HW2 2175   6.465   1.519   1.960
  426SOL     OW 2176   4.794   2.525   4.089
  426SOL    HW1 2177   4.754   2.518   3.998
  426SOL    HW2 2178   4.869   2.592   4.088
  427SOL     OW 2179   5.611   4.816   3.143
  427SOL    HW1 2180   5.687   4.752   3.153
  427SOL    HW2 2181   5.635   4.885   3.075
  428SOL     OW 2182   4.576   0.002   4.822
  428SOL    HW1 2183   4.578   6.990   4.727
  428SOL    HW2 2184   4.552   0.099   4.823
  429SOL     OW 2185   2.884   3.973   1.468
  429SOL    HW1 2186   2.902   4.071   1.464
  429SOL    HW2 2187   2.831   3.946   1.387
  430SOL     OW 2188   0.385   0.131   4.039
  430SOL    HW1 2189   0.384   0.109   4.137
  430SOL    HW2 2190   0.445   0.209   4.023
  431SOL     OW 2191   3.949   0.356   0.820
  431SOL    HW1 2192   3.860   0.336   0.862
  431SOL    HW2 2193   4.014   0.383   0.891
  432SOL     OW 2194   6.569   1.994   1.932
  432SOL    HW1 2195   6.647   1.941   1.965
  432SOL    HW2 2196   6.581   2.015   1.836
  433SOL     OW 2197   3.115   6.303   4.513
  433SOL    HW1 2198   3.165   6.261   4.438
  433SOL    HW2 2199   3.170   6.377   4.553
  434SOL     OW 2200   3.942   5.599   2.132
  434SOL    HW1 2201   3.961   5.532   2.204
  434SOL    HW2 2202   3.864   5.655   2.158
  435SOL     OW 2203   4.373   1.848   5.246
  435SOL    HW1 2204   4.362   1.803   5.158
  435SOL    HW2 2205   4.311   1.805   5.313
  436SOL     OW 2206   3.272   6.019   0.984
  436SOL    HW1 2207   3.361   6.054   1.013
  436SOL    HW2 2208   3.206   6.027   1.059
  437SOL     OW 2209   0.737   0.078   6.447
  437SOL    HW1 2210   0.829   0.053   6.480
  437SOL    HW2 2211   0.672   0.070   6.522
  438SOL     OW 2212   2.179   2.978   2.095
  438SOL    HW1 2213   2.132   3.009   2.013
  438SOL    HW2 2214   2.221   2.889   2.077
  439SOL     OW 2215   6.022   4.711   3.383
  439SOL    HW1 2216   6.063   4.770   3.313
  439SOL    HW2 2217   6.005   4.765   3.466
  440SOL     OW 2218   1.386   1.363   5.019
  440SOL    HW1 2219   1.454   1.292   5.001
  440SOL    HW2 2220   1.432   1.450   5.037
  441SOL     OW 2221   1.396   2.676   3.743
  441SOL    HW1 2222   1.332   2.753   3.733
  441SOL    HW2 2223   1.379   2.609   3.670
  442SOL     OW 2224   2.562   5.116   6.741
  442SOL    HW1 2225   2.486   5.074   6.691
  442SOL    HW2 2226   2.643   5.119   6.682
  443SOL     OW 2227   0.151   4.149   4.417
  443SOL    HW1 2228   0.220   4.184   4.480
  443SOL    HW2 2229   0.111   4.065   4.453
  444SOL     OW 2230   5.320   1.976   5.903
  444SOL    HW1 2231   5.234   1.941   5.938
  444SOL    HW2 2232   5.385   1.901   5.891
  445SOL     OW 2233   1.352   5.308   3.156
  445SOL    HW1 2234   1.354   5.284   3.059
  445SOL    HW2 2235   1.363   5.225   3.211
  446SOL     OW 2236   3.838   4.909   3.973
  446SOL    HW1 2237   3.888   4.840   4.026
  446SOL    HW2 2238   3.832   4.880   3.878
  447SOL     OW 2239   0.522   2.721   0.020
  447SOL    HW1 2240   0.610   2.763   0.002
  447SOL    HW2 2241   0.534   2.623   0.036
  448SOL     OW 2242   2.786   0.977   4.379
  448SOL    HW1 2243   2.810   1.073   4.365
  448SOL    HW2 2244   2.858   0.919   4.342
  449SOL     OW 2245   4.277   0.706   4.812
  449SOL    HW1 2246   4.373   0.689   4.835
  449SOL    HW2 2247   4.269   0.724   4.714
  450SOL     OW 2248   1.411   6.004   3.825
  450SOL    HW1 2249   1.411   6.065   3.905
  450SOL    HW2 2250   1.504   5.996   3.790
  451SOL     OW 2251   2.150   1.934   3.816
  451SOL    HW1 2252   2.084   1.939   3.742
  451SOL    HW2 2253   2.233   1.983   3.790
  452SOL     OW 2254   6.252   6.294   1.309
  452SOL    HW1 2255   6.256   6.258   1.216
  452SOL    HW2 2256   6.338   6.342   1.329
  453SOL     OW 2257   3.487   1.038   4.846
  453SOL    HW1 2258   3.579   0.999   4.844
  453SOL    HW2 2259   3.493   1.137   4.840
  454SOL     OW 2260   6.898   4.845   5.921
  454SOL    HW1 2261   6.906   4.755   5.879
  454SOL    HW2 2262   6.920   4.916   5.853
  455SOL     OW 2263   6.306   2.383   2.966
  455SOL    HW1 2264   6.295   2.286   2.989
  455SOL    HW2 2265   6.231   2.436   3.006
  456SOL     OW 2266   5.453   6.266   4.299
  456SOL    HW1 2267   5.476   6.314   4.214
  456SOL    HW2 2268   5.406   6.181   4.278
  457SOL     OW 2269   1.948   3.621   3.475
  457SOL    HW1 2270   1.977   3.691   3.409
  457SOL    HW2 2271   1.951   3.659   3.567
  458SOL     OW 2272   4.135   5.486   3.699
  458SOL    HW1 2273   4.044   5.446   3.687
  458SOL    HW2 2274   4.171   5.515   3.610
  459SOL     OW 2275   1.909   7.015   5.011
  459SOL    HW1 2276   1.994   6.989   4.965
  459SOL    HW2 2277   1.927   0.014   5.107
  460SOL     OW 2278   1.593   0.019   3.996
  460SOL    HW1 2279   1.603   0.013   3.897
  460SOL    HW2 2280   1.648   0.095   4.031
  461SOL     OW 2281   5.945   6.899   5.868
  461SOL    HW1 2282   5.925   6.817   5.815
  461SOL    HW2 2283   5.860   6.949   5.886
  462SOL     OW 2284   3.867   2.539   6.030
  462SOL    HW1 2285   3.797   2.500   5.970
  462SOL    HW2 2286   3.957   2.523   5.991
  463SOL     OW 2287   6.557   5.181   3.534
  463SOL    HW1 2288   6.477   5.127   3.510
  463SOL    HW2 2289   6.640   5.131   3.510
  464SOL     OW 2290   2.087   2.480   6.112
  464SOL    HW1 2291   2.034   2.400   6.083
  464SOL    HW2 2292   2.111   2.471   6.208
  465SOL     OW 2293   0.817   2.599   4.975
  465SOL    HW1 2294   0.911   2.634   4.978
  465SOL    HW2 2295   0.758   2.658   5.030
  466SOL     OW 2296   1.299   5.603   2.971
  466SOL    HW1 2297   1.372   5.658   2.931
  466SOL    HW2 2298   1.327   5.507   2.975
  467SOL     OW 2299   1.752   1.546   0.282
  467SOL    HW1 2300   1.656   1.562   0.258
  467SOL    HW2 2301   1.795   1.490   0.212
  468SOL     OW 2302   3.453   6.306   0.099
  468SOL    HW1 2303   3.407   6.350   0.176
  468SOL    HW2 2304   3.520   6.368   0.060
  469SOL     OW 2305   3.117   4.854   0.444
  469SOL    HW1 2306   3.107   4.755   0.435
  469SOL    HW2 2307   3.072   4.884   0.528
  470SOL     OW 2308   4.327   0.130   2.258
  470SOL    HW1 2309   4.316   0.186   2.176
  470SOL    HW2 2310   4.276   0.044   2.247
  471SOL     OW 2311   2.071   2.374   4.017
  471SOL    HW1 2312   2.132   2.422   4.080
  471SOL    HW2 2313   2.009   2.316   4.070
  472SOL     OW 2314   5.204   3.529   6.447
  472SOL    HW1 2315   5.226   3.611   6.394
  472SOL    HW2 2316   5.160   3.556   6.533
  473SOL     OW 2317   1.052   3.188   2.518
  473SOL    HW1 2318   1.141   3.229   2.540
  473SOL    HW2 2319   1.043   3.101   2.566
  474SOL     OW 2320   5.383   5.301   4.359
  474SOL    HW1 2321   5.436   5.304   4.274
  474SOL    HW2 2322   5.309   5.234   4.349
  475SOL     OW 2323   5.829   0.884   6.651
  475SOL    HW1 2324   5.877   0.828   6.583
  475SOL    HW2 2325   5.767   0.947   6.605
  476SOL     OW 2326   6.815   3.904   3.323
  476SOL    HW1 2327   6.789   3.996   3.354
  476SOL    HW2 2328   6.806   3.898   3.224
  477SOL     OW 2329   1.686   4.414   4.104
  477SOL    HW1 2330   1.674   4.363   4.019
  477SOL    HW2 2331   1.771   4.388   4.148
  478SOL     OW 2332   3.315   0.035   1.838
  478SOL    HW1 2333   3.327   0.075   1.747
  478SOL    HW2 2334   3.220   0.044   1.867
  479SOL     OW 2335   4.412   2.232   6.103
  479SOL    HW1 2336   4.359   2.147   6.103
  479SOL    HW2 2337   4.351   2.309   6.123
  480SOL     OW 2338   2.045   1.077   0.249
  480SOL    HW1 2339   2.071   1.169   0.278
  480SOL    HW2 2340   1.972   1.083   0.181
  481SOL     OW 2341   1.805   0.529   0.390
  481SOL    HW1 2342   1.854   0.449   0.355
  481SOL    HW2 2343   1.728   0.498   0.447
  482SOL     OW 2344   4.724   4.992   3.189
  482SOL    HW1 2345   4.750   5.084   3.160
  482SOL    HW2 2346   4.779   4.966   3.268
  483SOL     OW 2347   6.934   1.491   1.862
  483SOL    HW1 2348   6.855   1.508   1.803
  483SOL    HW2 2349   6.920   1.538   1.950
  484SOL     OW 2350   1.433   3.043   4.992
  484SOL    HW1 2351   1.526   3.077   4.975
  484SOL    HW2 2352   1.391   3.015   4.906
  485SOL     OW 2353   3.880   5.200   2.980
  485SOL    HW1 2354   3.942   5.212   3.058
  485SOL    HW2 2355   3.908   5.258   2.905
  486SOL     OW 2356   6.869   2.292   0.572
  486SOL    HW1 2357   6.906   2.219   0.630
  486SOL    HW2 2358   6.770   2.300   0.587
  487SOL     OW 2359   1.362   1.818   1.535
  487SOL    HW1 2360   1.370   1.719   1.522
  487SOL    HW2 2361   1.312   1.836   1.620
  488SOL     OW 2362   0.110   1.409   2.257
  488SOL    HW1 2363   0.083   1.356   2.337
  488SOL    HW2 2364   0.182   1.473   2.283
  489SOL     OW 2365   2.894   6.111   6.522
  489SOL    HW1 2366   2.814   6.054   6.504
  489SOL    HW2 2367   2.909   6.118   6.620
  490SOL     OW 2368   6.931   5.725   3.239
  490SOL    HW1 2369   6.854   5.781   3.272
  490SOL    HW2 2370   7.002   5.785   3.202
  491SOL     OW 2371   0.335   3.186   2.324
  491SOL    HW1 2372   0.326   3.147   2.232
  491SOL    HW2 2373   0.274   3.137   2.387
  492SOL     OW 2374   2.567   0.225   5.538
  492SOL    HW1 2375   2.603   0.283   5.465
  492SOL    HW2 2376   2.469   0.241   5.549
  493SOL     OW 2377   4.996   6.129   5.064
  493SOL    HW1 2378   5.015   6.207   5.004
  493SOL    HW2 2379   5.083   6.091   5.097
  494SOL     OW 2380   6.590   0.988   6.773
  494SOL    HW1 2381   6.580   0.896   6.734
  494SOL    HW2 2382   6.549   1.054   6.710
  495SOL     OW 2383   5.154   6.010   3.504
  495SOL    HW1 2384   5.171   5.913   3.486
  495SOL    HW2 2385   5.217   6.065   3.449
  496SOL     OW 2386   5.127   3.595   1.764
  496SOL    HW1 2387   5.092   3.527   1.828
  496SOL    HW2 2388   5.208   3.640   1.803
  497SOL     OW 2389   3.316   1.009   4.352
  497SOL    HW1 2390   3.365   1.014   4.439
  497SOL    HW2 2391   3.362   1.066   4.284
  498SOL     OW 2392   2.065   3.844   1.446
  498SOL    HW1 2393   2.024   3.885   1.364
  498SOL    HW2 2394   2.043   3.900   1.526
  499SOL     OW 2395   2.619   0.297   3.930
  499SOL    HW1 2396   2.689   0.355   3.888
  499SOL    HW2 2397   2.648   0.201   3.925
  500SOL     OW 2398   0.538   3.441   4.143
  500SOL    HW1 2399   0.505   3.399   4.059
  500SOL    HW2 2400   0.513   3.538   4.144
  501SOL     OW 2401   2.660   5.991   0.570
  501SOL    HW1 2402   2.566   5.976   0.599
  501SOL    HW2 2403   2.662   6.061   0.498
  502SOL     OW 2404   6.658   3.982   0.083
  502SOL    HW1 2405   6.723   4.010   0.013
  502SOL    HW2 2406   6.631   3.887   0.069
  503SOL     OW 2407   6.489   5.624   6.772
  503SOL    HW1 2408   6.555   5.690   6.809
  503SOL    HW2 2409   6.450   5.661   6.687
  504SOL     OW 2410   2.126   5.485   3.051
  504SOL    HW1 2411   2.097   5.552   2.983
  504SOL    HW2 2412   2.219   5.507   3.082
  505SOL     OW 2413   3.231   6.734   4.920
  505SOL    HW1 2414   3.330   6.732   4.912
  505SOL    HW2 2415   3.191   6.762   4.833
  506SOL     OW 2416   1.450   5.364   4.884
  506SOL    HW1 2417   1.386   5.349   4.959
  506SOL    HW2 2418   1.471   5.461   4.877
  507SOL     OW 2419   3.436   6.654   3.078
  507SOL    HW1 2420   3.516   6.594   3.085
  507SOL    HW2 2421   3.383   6.629   2.998
  508SOL     OW 2422   6.988   3.761   2.205
  508SOL    HW1 2423   0.058   3.719   2.210
  508SOL    HW2 2424   6.937   3.740   2.288
  509SOL     OW 2425   3.243   0.749   1.734
  509SOL    HW1 2426   3.230   0.675   1.668
  509SOL    HW2 2427   3.250   0.836   1.686
  510SOL     OW 2428   6.105   4.838   0.399
  510SOL    HW1 2429   6.126   4.761   0.338
  510SOL    HW2 2430   6.010   4.867   0.385
  511SOL     OW 2431   0.647   1.195   5.916
  511SOL    HW1 2432   0.628   1.098   5.934
  511SOL    HW2 2433   0.572   1.250   5.952
  512SOL     OW 2434   6.419   2.768   0.044
  512SOL    HW1 2435   6.435   2.835   0.116
  512SOL    HW2 2436   6.450   2.804   6.977
  513SOL     OW 2437   5.855   6.061   3.420
  513SOL    HW1 2438   5.861   6.140   3.359
  513SOL    HW2 2439   5.928   6.066   3.488
  514SOL     OW 2440   6.520   2.658   4.210
  514SOL    HW1 2441   6.610   2.673   4.168
  514SOL    HW2 2442   6.502   2.560   4.215
  515SOL     OW 2443   1.928   0.875   6.514
  515SOL    HW1 2444   1.937   0.829   6.603
  515SOL    HW2 2445   1.974   0.964   6.518
  516SOL     OW 2446   2.725   4.625   1.695
  516SOL    HW1 2447   2.766   4.620   1.786
  516SOL    HW2 2448   2.650   4.559   1.689
  517SOL     OW 2449   4.510   5.297   2.354
  517SOL    HW1 2450   4.559   5.210   2.349
  517SOL    HW2 2451   4.438   5.290   2.423
  518SOL     OW 2452   2.275   2.307   2.754
  518SOL    HW1 2453   2.230   2.221   2.734
  518SOL    HW2 2454   2.332   2.334   2.677
  519SOL     OW 2455   0.900   1.091   4.415
  519SOL    HW1 2456   0.983   1.116   4.365
  519SOL    HW2 2457   0.831   1.058   4.351
  520SOL     OW 2458   6.158   4.646   0.195
  520SOL    HW1 2459   6.098   4.699   0.136
  520SOL    HW2 2460   6.201   4.573   0.142
  521SOL     OW 2461   6.844   3.616   5.530
  521SOL    HW1 2462   6.915   3.562   5.483
  521SOL    HW2 2463   6.780   3.555   5.575
  522SOL     OW 2464   3.699   3.123   5.308
  522SOL    HW1 2465   3.612   3.114   5.356
  522SOL    HW2 2466   3.732   3.032   5.280
  523SOL     OW 2467   0.681   5.421   1.329
  523SOL    HW1 2468   0.779   5.429   1.345
  523SOL    HW2 2469   0.637   5.383   1.410
  524SOL     OW 2470   0.138   1.181   0.749
  524SOL    HW1 2471   0.217   1.207   0.805
  524SOL    HW2 2472   0.161   1.102   0.693
  525SOL     OW 2473   1.590   3.394   6.400
  525SOL    HW1 2474   1.571   3.326   6.329
  525SOL    HW2 2475   1.680   3.434   6.384
  526SOL     OW 2476   4.548   6.251   4.172
  526SOL    HW1 2477   4.561   6.242   4.074
  526SOL    HW2 2478   4.481   6.184   4.203
  527SOL     OW 2479   6.698   3.134   0.087
  527SOL    HW1 2480   6.753   3.051   0.081
  527SOL    HW2 2481   6.743   3.200   0.147
  528SOL     OW 2482   1.117   1.635   3.705
  528SOL    HW1 2483   1.180   1.591   3.769
  528SOL    HW2 2484   1.166   1.704   3.652
  529SOL     OW 2485   1.040   6.683   4.002
  529SOL    HW1 2486   1.029   6.689   3.903
  529SOL    HW2 2487   1.093   6.601   4.025
  530SOL     OW 2488   3.029   3.181   4.922
  530SOL    HW1 2489   3.111   3.143   4.877
  530SOL    HW2 2490   2.947   3.146   4.876
  531SOL     OW 2491   0.708   0.292   2.856
  531SOL    HW1 2492   0.626   0.311   2.911
  531SOL    HW2 2493   0.681   0.274   2.761
  532SOL     OW 2494   1.034   2.118   6.986
  532SOL    HW1 2495   1.104   2.058   6.949
  532SOL    HW2 2496   1.077   2.186   0.026
  533SOL     OW 2497   4.892   0.170   3.672
  533SOL    HW1 2498   4.973   0.159   3.615
  533SOL    HW2 2499   4.811   0.179   3.612
  534SOL     OW 2500   5.100   5.955   2.592
  534SOL    HW1 2501   5.141   6.003   2.670
  534SOL    HW2 2502   5.037   6.017   2.545
  535SOL     OW 2503   0.692   3.288   4.778
  535SOL    HW1 2504   0.617   3.352   4.794
  535SOL    HW2 2505   0.721   3.249   4.866
  536SOL     OW 2506   6.855   5.132   1.541
  536SOL    HW1 2507   6.925   5.069   1.507
  536SOL    HW2 2508   6.764   5.093   1.526
  537SOL     OW 2509   1.564   6.434   4.045
  537SOL    HW1 2510   1.549   6.499   4.119
  537SOL    HW2 2511   1.652   6.452   4.002
  538SOL     OW 2512   1.214   4.039   2.727
  538SOL    HW1 2513   1.281   4.003   2.663
  538SOL    HW2 2514   1.174   4.123   2.690
  539SOL     OW 2515   1.043   6.742   0.399
  539SOL    HW1 2516   1.040   6.814   0.468
  539SOL    HW2 2517   0.967   6.679   0.414
  540SOL     OW 2518   1.074   0.547   2.802
  540SOL    HW1 2519   1.022   0.589   2.727
  540SOL    HW2 2520   1.046   0.452   2.812
  541SOL     OW 2521   4.041   6.011   4.262
  541SOL    HW1 2522   4.027   5.993   4.165
  541SOL    HW2 2523   4.019   5.930   4.315
  542SOL     OW 2524   6.512   0.367   0.101
  542SOL    HW1 2525   6.575   0.298   0.137
  542SOL    HW2 2526   6.558   0.456   0.097
  543SOL     OW 2527   1.702   4.249   5.648
  543SOL    HW1 2528   1.720   4.151   5.657
  543SOL    HW2 2529   1.617   4.272   5.694
  544SOL     OW 2530   2.307   3.909   0.913
  544SOL    HW1 2531   2.251   3.879   0.990
  544SOL    HW2 2532   2.249   3.959   0.848
  545SOL     OW 2533   2.791   0.433   3.002
  545SOL    HW1 2534   2.757   0.407   3.093
  545SOL    HW2 2535   2.875   0.382   2.983
  546SOL     OW 2536   1.789   3.334   0.598
  546SOL    HW1 2537   1.749   3.278   0.526
  546SOL    HW2 2538   1.888   3.332   0.590
  547SOL     OW 2539   2.995   1.350   6.889
  547SOL    HW1 2540   3.089   1.318   6.900
  547SOL    HW2 2541   2.932   1.284   6.930
  548SOL     OW 2542   3.625   2.936   2.685
  548SOL    HW1 2543   3.552   2.879   2.647
  548SOL    HW2 2544   3.589   3.028   2.703
  549SOL     OW 2545   4.830   3.365   1.181
  549SOL    HW1 2546   4.855   3.398   1.272
  549SOL    HW2 2547   4.908   3.376   1.120
  550SOL     OW 2548   6.275   4.348   3.514
  550SOL    HW1 2549   6.226   4.427   3.550
  550SOL    HW2 2550   6.257   4.339   3.416
  551SOL     OW 2551   1.323   0.921   1.393
  551SOL    HW1 2552   1.232   0.958   1.409
  551SOL    HW2 2553   1.335   0.836   1.445
  552SOL     OW 2554   4.808   4.688   0.279
  552SOL    HW1 2555   4.812   4.714   0.183
  552SOL    HW2 2556   4.717   4.654   0.301
  553SOL     OW 2557   2.179   6.427   2.081
  553SOL    HW1 2558   2.127   6.356   2.129
  553SOL    HW2 2559   2.116   6.486   2.031
  554SOL     OW 2560   5.628   6.328   5.249
  554SOL    HW1 2561   5.616   6.427   5.263
  554SOL    HW2 2562   5.565   6.279   5.308
  555SOL     OW 2563   2.385   5.394   2.819
  555SOL    HW1 2564   2.289   5.378   2.798
  555SOL    HW2 2565   2.438   5.314   2.792
  556SOL     OW 2566   5.575   2.565   3.580
  556SOL    HW1 2567   5.645   2.496   3.563
  556SOL    HW2 2568   5.504   2.560   3.511
  557SOL     OW 2569   0.326   4.919   0.238
  557SOL    HW1 2570   0.339   4.901   0.335
  557SOL    HW2 2571   0.352   4.838   0.185
  558SOL     OW 2572   2.887   3.692   4.928
  558SOL    HW1 2573   2.871   3.748   5.010
  558SOL    HW2 2574   2.799   3.660   4.893
  559SOL     OW 2575   6.779   5.746   6.524
  559SOL    HW1 2576   6.712   5.819   6.534
  559SOL    HW2 2577   6.849   5.755   6.595
  560SOL     OW 2578   4.596   5.580   0.541
  560SOL    HW1 2579   4.584   5.493   0.588
  560SOL    HW2 2580   4.650   5.566   0.458
  561SOL     OW 2581   6.229   0.914   0.497
  561SOL    HW1 2582   6.213   1.012   0.507
  561SOL    HW2 2583   6.141   0.868   0.482
  562SOL     OW 2584   4.781   1.095   5.879
  562SOL    HW1 2585   4.830   1.164   5.933
  562SOL    HW2 2586   4.692   1.077   5.921
  563SOL     OW 2587   2.237   6.961   2.905
  563SOL    HW1 2588   2.224   6.893   2.833
  563SOL    HW2 2589   2.192   6.930   2.989
  564SOL     OW 2590   3.043   1.831   6.345
  564SOL    HW1 2591   3.033   1.826   6.245
  564SOL    HW2 2592   2.986   1.906   6.380
  565SOL     OW 2593   3.557   3.446   5.881
  565SOL    HW1 2594   3.552   3.481   5.788
  565SOL    HW2 2595   3.471   3.399   5.904
  566SOL     OW 2596   6.024   4.165   4.266
  566SOL    HW1 2597   6.108   4.219   4.278
  566SOL    HW2 2598   5.951   4.203   4.323
  567SOL     OW 2599   3.887   4.017   2.774
  567SOL    HW1 2600   3.846   4.020   2.683
  567SOL    HW2 2601   3.817   4.033   2.843
  568SOL     OW 2602   3.431   2.452   0.353
  568SOL    HW1 2603   3.417   2.355   0.373
  568SOL    HW2 2604   3.359   2.506   0.396
  569SOL     OW 2605   1.264   3.864   0.330
  569SOL    HW1 2606   1.260   3.824   0.238
  569SOL    HW2 2607   1.220   3.801   0.394
  570SOL     OW 2608   2.275   6.504   6.632
  570SOL    HW1 2609   2.279   6.465   6.541
  570SOL    HW2 2610   2.365   6.498   6.675
  571SOL     OW 2611   3.069   0.223   2.995
  571SOL    HW1 2612   3.127   0.142   2.989
  571SOL    HW2 2613   3.077   0.275   2.909
  572SOL     OW 2614   2.413   4.426   6.115
  572SOL    HW1 2615   2.405   4.505   6.053
  572SOL    HW2 2616   2.422   4.342   6.061
  573SOL     OW 2617   4.851   1.501   5.283
  573SOL    HW1 2618   4.934   1.455   5.250
  573SOL    HW2 2619   4.771   1.457   5.244
  574SOL     OW 2620   2.915   2.313   3.708
  574SOL    HW1 2621   2.929   2.291   3.805
  574SOL    HW2 2622   2.833   2.369   3.698
  575SOL     OW 2623   6.461   3.282   6.756
  575SOL    HW1 2624   6.508   3.200   6.791
  575SOL    HW2 2625   6.369   3.257   6.727
  576SOL     OW 2626   1.271   1.999   2.357
  576SOL    HW1 2627   1.206   1.948   2.414
  576SOL    HW2 2628   1.256   1.977   2.261
  577SOL     OW 2629   1.677   0.747   3.203
  577SOL    HW1 2630   1.663   0.734   3.301
  577SOL    HW2 2631   1.644   0.838   3.176
  578SOL     OW 2632   6.909   4.163   3.208
  578SOL    HW1 2633   6.893   4.189   3.113
  578SOL    HW2 2634   6.860   4.225   3.269
  579SOL     OW 2635   2.622   3.024   1.290
  579SOL    HW1 2636   2.575   3.033   1.203
  579SOL    HW2 2637   2.668   3.110   1.311
  580SOL     OW 2638   0.765   4.349   6.638
  580SOL    HW1 2639   0.724   4.326   6.727
  580SOL    HW2 2640   0.695   4.344   6.567
  581SOL     OW 2641   3.141   3.415   2.083
  581SOL    HW1 2642   3.140   3.316   2.100
  581SOL    HW2 2643   3.225   3.440   2.036
  582SOL     OW 2644   6.051   5.141   2.591
  582SOL    HW1 2645   6.132   5.105   2.545
  582SOL    HW2 2646   6.077   5.215   2.653
  583SOL     OW 2647   2.259   5.445   6.062
  583SOL    HW1 2648   2.175   5.479   6.018
  583SOL    HW2 2649   2.253   5.346   6.073
  584SOL     OW 2650   1.386   4.673   5.872
  584SOL    HW1 2651   1.312   4.613   5.842
  584SOL    HW2 2652   1.393   4.751   5.810
  585SOL     OW 2653   6.172   2.855   5.993
  585SOL    HW1 2654   6.169   2.848   6.093
  585SOL    HW2 2655   6.095   2.806   5.954
  586SOL     OW 2656   3.359   0.784   6.357
  586SOL    HW1 2657   3.368   0.694   6.398
  586SOL    HW2 2658   3.337   0.851   6.428
  587SOL     OW 2659   2.788   2.455   5.204
  587SOL    HW1 2660   2.724   2.438   5.279
  587SOL    HW2 2661   2.756   2.408   5.122
  588SOL     OW 2662   2.548   5.301   0.582
  588SOL    HW1 2663   2.527   5.359   0.661
  588SOL    HW2 2664   2.469   5.245   0.560
  589SOL     OW 2665   3.669   5.336   1.501
  589SOL    HW1 2666   3.678   5.263   1.569
  589SOL    HW2 2667   3.732   5.410   1.523
  590SOL     OW 2668   5.653   2.902   1.276
  590SOL    HW1 2669   5.720   2.889   1.203
  590SOL    HW2 2670   5.698   2.887   1.365
  591SOL     OW 2671   4.238   6.287   4.026
  591SOL    HW1 2672   4.199   6.200   3.995
  591SOL    HW2 2673   4.294   6.327   3.952
  592SOL     OW 2674   3.935   0.003   1.227
  592SOL    HW1 2675   3.887   0.061   1.161
  592SOL    HW2 2676   4.032   0.000   1.204
  593SOL     OW 2677   4.607   2.137   3.453
  593SOL    HW1 2678   4.678   2.091   3.507
  593SOL    HW2 2679   4.552   2.068   3.406
  594SOL     OW 2680   4.709   2.158   6.059
  594SOL    HW1 2681   4.628   2.214   6.076
  594SOL    HW2 2682   4.787   2.217   6.037
  595SOL     OW 2683   5.301   0.013   3.356
  595SOL    HW1 2684   5.385   7.006   3.403
  595SOL    HW2 2685   5.263   6.955   3.307
  596SOL     OW 2686   1.053   3.865   2.021
  596SOL    HW1 2687   1.153   3.868   2.021
  596SOL    HW2 2688   1.018   3.914   2.101
  597SOL     OW 2689   4.786   0.069   5.804
  597SOL    HW1 2690   4.871   0.020   5.826
  597SOL    HW2 2691   4.712   0.003   5.794
  598SOL     OW 2692   3.205   4.174   6.833
  598SOL    HW1 2693   3.273   4.187   6.761
  598SOL    HW2 2694   3.212   4.081   6.869
  599SOL     OW 2695   1.631   6.672   3.000
  599SOL    HW1 2696   1.635   6.729   2.918
  599SOL    HW2 2697   1.701   6.600   2.994
  600SOL     OW 2698   1.346   1.197   1.046
  600SOL    HW1 2699   1.363   1.188   0.948
  600SOL    HW2 2700   1.413   1.144   1.097
  601SOL     OW 2701   3.659   6.587   4.498
  601SOL    HW1 2702   3.700   6.628   4.416
  601SOL    HW2 2703   3.585   6.526   4.471
  602SOL     OW 2704   1.328   2.291   6.856
  602SOL    HW1 2705   1.304   2.200   6.892
  602SOL    HW2 2706   1.245   2.339   6.829
  603SOL     OW 2707   4.127   1.978   3.744
  603SOL    HW1 2708   4.204   1.997   3.684
  603SOL    HW2 2709   4.160   1.949   3.834
  604SOL     OW 2710   0.493   3.867   1.329
  604SOL    HW1 2711   0.407   3.846   1.283
  604SOL    HW2 2712   0.567   3.873   1.262
  605SOL     OW 2713   6.920   5.266   2.938
  605SOL    HW1 2714   6.927   5.169   2.960
  605SOL    HW2 2715   6.824   5.294   2.938
  606SOL     OW 2716   4.869   0.437   5.674
  606SOL    HW1 2717   4.961   0.406   5.698
  606SOL    HW2 2718   4.816   0.360   5.639
  607SOL     OW 2719   5.458   0.872   5.564
  607SOL    HW1 2720   5.452   0.905   5.470
  607SOL    HW2 2721   5.367   0.870   5.605
  608SOL     OW 2722   3.814   6.544   0.095
  608SOL    HW1 2723   3.719   6.574   0.099
  608SOL    HW2 2724   3.875   6.623   0.104
  609SOL     OW 2725   3.487   3.425   3.975
  609SOL    HW1 2726   3.473   3.329   3.949
  609SOL    HW2 2727   3.581   3.452   3.955
  610SOL     OW 2728   5.066   2.101   2.422
  610SOL    HW1 2729   5.051   2.071   2.516
  610SOL    HW2 2730   5.017   2.041   2.359
  611SOL     OW 2731   1.412   0.673   6.288
  611SOL    HW1 2732   1.394   0.750   6.349
  611SOL    HW2 2733   1.491   0.694   6.231
  612SOL     OW 2734   3.991   5.982   5.396
  612SOL    HW1 2735   3.902   5.956   5.434
  612SOL    HW2 2736   3.996   5.950   5.301
  613SOL     OW 2737   4.422   6.892   5.475
  613SOL    HW1 2738   4.462   6.801   5.488
  613SOL    HW2 2739   4.457   6.954   5.545
  614SOL     OW 2740   5.928   4.384   1.022
  614SOL    HW1 2741   5.954   4.294   1.057
  614SOL    HW2 2742   6.002   4.449   1.038
  615SOL     OW 2743   0.517   1.716   1.378
  615SOL    HW1 2744   0.495   1.804   1.422
  615SOL    HW2 2745   0.599   1.726   1.322
  616SOL     OW 2746   6.016   1.538   3.013
  616SOL    HW1 2747   6.086   1.468   3.005
  616SOL    HW2 2748   5.927   1.500   2.987
  617SOL     OW 2749   6.955   3.601   6.769
  617SOL    HW1 2750   6.892   3.679   6.767
  617SOL    HW2 2751   6.914   3.524   6.720
  618SOL     OW 2752   6.380   3.485   0.581
  618SOL    HW1 2753   6.453   3.417   0.577
  618SOL    HW2 2754   6.314   3.459   0.651
  619SOL     OW 2755   4.197   0.060   6.728
  619SOL    HW1 2756   4.161   0.106   6.809
  619SOL    HW2 2757   4.265   7.012   6.756
  620SOL     OW 2758   5.818   2.738   0.916
  620SOL    HW1 2759   5.840   2.764   1.010
  620SOL    HW2 2760   5.800   2.820   0.862
  621SOL     OW 2761   1.562   0.117   5.249
  621SOL    HW1 2762   1.624   0.141   5.174
  621SOL    HW2 2763   1.541   0.199   5.302
  622SOL     OW 2764   0.267   1.648   5.184
  622SOL    HW1 2765   0.227   1.635   5.275
  622SOL    HW2 2766   0.330   1.573   5.164
  623SOL     OW 2767   0.419   6.993   5.212
  623SOL    HW1 2768   0.411   6.969   5.115
  623SOL    HW2 2769   0.383   6.919   5.268
  624SOL     OW 2770   6.388   1.039   0.142
  624SOL    HW1 2771   6.384   1.078   0.234
  624SOL    HW2 2772   6.446   0.957   0.143
  625SOL     OW 2773   1.751   2.165   0.942
  625SOL    HW1 2774   1.819   2.170   1.015
  625SOL    HW2 2775   1.729   2.069   0.923
  626SOL     OW 2776   0.576   5.976   2.567
  626SOL    HW1 2777   0.601   5.932   2.653
  626SOL    HW2 2778   0.479   5.961   2.548
  627SOL     OW 2779   6.592   6.511   0.804
  627SOL    HW1 2780   6.676   6.542   0.759
  627SOL    HW2 2781   6.584   6.553   0.894
  628SOL     OW 2782   5.635   3.701   5.098
  628SOL    HW1 2783   5.693   3.747   5.165
  628SOL    HW2 2784   5.578   3.633   5.145
  629SOL     OW 2785   0.719   1.125   6.679
  629SOL    HW1 2786   0.781   1.165   6.611
  629SOL    HW2 2787   0.755   1.036   6.708
  630SOL     OW 2788   0.577   2.507   0.665
  630SOL    HW1 2789   0.619   2.482   0.753
  630SOL    HW2 2790   0.581   2.607   0.654
  631SOL     OW 2791   3.952   1.460   4.499
  631SOL    HW1 2792   3.890   1.538   4.505
  631SOL    HW2 2793   4.037   1.480   4.548
  632SOL     OW 2794   4.414   2.446   0.377
  632SOL    HW1 2795   4.511   2.455   0.397
  632SOL    HW2 2796   4.375   2.536   0.358
  633SOL     OW 2797   3.358   4.407   6.481
  633SOL    HW1 2798   3.416   4.489   6.475
  633SOL    HW2 2799   3.392   4.346   6.552
  634SOL     OW 2800   3.546   3.194   2.729
  634SOL    HW1 2801   3.529   3.204   2.827
  634SOL    HW2 2802   3.535   3.283   2.685
  635SOL     OW 2803   4.719   6.802   0.319
  635SOL    HW1 2804   4.625   6.817   0.352
  635SOL    HW2 2805   4.750   6.711   0.348
  636SOL     OW 2806   2.756   0.019   6.102
  636SOL    HW1 2807   2.846   0.062   6.105
  636SOL    HW2 2808   2.722   0.018   6.008
  637SOL     OW 2809   6.574   2.722   2.424
  637SOL    HW1 2810   6.642   2.763   2.484
  637SOL    HW2 2811   6.520   2.795   2.381
  638SOL     OW 2812   5.941   3.960   3.819
  638SOL    HW1 2813   5.956   3.863   3.838
  638SOL    HW2 2814   5.876   3.969   3.744
  639SOL     OW 2815   5.222   4.296   3.371
  639SOL    HW1 2816   5.179   4.342   3.293
  639SOL    HW2 2817   5.152   4.266   3.435
  640SOL     OW 2818   6.738   4.771   3.314
  640SOL    HW1 2819   6.751   4.692   3.374
  640SOL    HW2 2820   6.644   4.772   3.281
  641SOL     OW 2821   0.810   4.870   4.713
  641SOL    HW1 2822   0.768   4.877   4.804
  641SOL    HW2 2823   0.909   4.879   4.722
  642SOL     OW 2824   1.482   2.806   4.788
  642SOL    HW1 2825   1.437   2.862   4.719
  642SOL    HW2 2826   1.492   2.713   4.753
  643SOL     OW 2827   6.008   0.426   6.572
  643SOL    HW1 2828   6.100   0.449   6.603
  643SOL    HW2 2829   6.013   0.348   6.509
  644SOL     OW 2830   1.571   0.734   4.423
  644SOL    HW1 2831   1.614   0.668   4.485
  644SOL    HW2 2832   1.473   0.740   4.446
  645SOL     OW 2833   2.950   5.608   4.527
  645SOL    HW1 2834   2.922   5.692   4.574
  645SOL    HW2 2835   2.994   5.547   4.593
  646SOL     OW 2836   3.827   0.368   4.396
  646SOL    HW1 2837   3.908   0.337   4.345
  646SOL    HW2 2838   3.842   0.355   4.494
  647SOL     OW 2839   5.651   1.748   4.982
  647SOL    HW1 2840   5.562   1.794   4.975
  647SOL    HW2 2841   5.708   1.772   4.904
  648SOL     OW 2842   6.986   4.158   3.525
  648SOL    HW1 2843   6.962   4.099   3.448
  648SOL    HW2 2844   6.995   4.102   3.608
  649SOL     OW 2845   2.192   3.639   0.731
  649SOL    HW1 2846   2.124   3.673   0.667
  649SOL    HW2 2847   2.154   3.641   0.824
  650SOL     OW 2848   6.407   5.171   0.500
  650SOL    HW1 2849   6.329   5.151   0.440
  650SOL    HW2 2850   6.469   5.233   0.453
  651SOL     OW 2851   1.718   0.620   5.487
  651SOL    HW1 2852   1.762   0.671   5.413
  651SOL    HW2 2853   1.624   0.653   5.499
  652SOL     OW 2854   4.460   6.845   2.713
  652SOL    HW1 2855   4.452   6.792   2.629
  652SOL    HW2 2856   4.431   6.939   2.696
  653SOL     OW 2857   0.710   6.019   0.225
  653SOL    HW1 2858   0.718   5.941   0.287
  653SOL    HW2 2859   0.759   6.097   0.264
  654SOL     OW 2860   0.210   6.246   6.213
  654SOL    HW1 2861   0.154   6.280   6.289
  654SOL    HW2 2862   0.305   6.271   6.228
  655SOL     OW 2863   6.814   5.332   2.192
  655SOL    HW1 2864   6.804   5.385   2.276
  655SOL    HW2 2865   6.800   5.393   2.113
  656SOL     OW 2866   1.701   6.493   6.806
  656SOL    HW1 2867   1.791   6.468   6.773
  656SOL    HW2 2868   1.631   6.440   6.758
  657SOL     OW 2869   3.158   4.027   0.991
  657SOL    HW1 2870   3.186   3.966   0.917
  657SOL    HW2 2871   3.227   4.098   1.005
  658SOL     OW 2872   1.471   4.023   5.262
  658SOL    HW1 2873   1.381   3.990   5.235
  658SOL    HW2 2874   1.531   4.024   5.182
  659SOL     OW 2875   2.635   6.294   4.533
  659SOL    HW1 2876   2.603   6.199   4.528
  659SOL    HW2 2877   2.723   6.302   4.487
  660SOL     OW 2878   4.702   4.840   2.957
  660SOL    HW1 2879   4.705   4.922   3.015
  660SOL    HW2 2880   4.608   4.822   2.930
  661SOL     OW 2881   4.809   4.074   4.682
  661SOL    HW1 2882   4.806   4.051   4.585
  661SOL    HW2 2883   4.809   3.989   4.736
  662SOL     OW 2884   4.518   0.974   5.476
  662SOL    HW1 2885   4.425   0.966   5.510
  662SOL    HW2 2886   4.549   0.886   5.440
  663SOL     OW 2887   0.197   4.488   0.353
  663SOL    HW1 2888   0.215   4.399   0.312
  663SOL    HW2 2889   0.207   4.560   0.284
  664SOL     OW 2890   1.872   5.515   6.697
  664SOL    HW1 2891   1.887   5.529   6.599
  664SOL    HW2 2892   1.827   5.426   6.711
  665SOL     OW 2893   4.081   5.195   0.719
  665SOL    HW1 2894   4.123   5.228   0.803
  665SOL    HW2 2895   4.002   5.253   0.697
  666SOL     OW 2896   4.413   2.482   0.964
  666SOL    HW1 2897   4.379   2.575   0.978
  666SOL    HW2 2898   4.385   2.450   0.874
  667SOL     OW 2899   0.296   3.932   3.636
  667SOL    HW1 2900   0.283   4.024   3.671
  667SOL    HW2 2901   0.359   3.882   3.696
  668SOL     OW 2902   4.906   5.913   6.975
  668SOL    HW1 2903   4.855   5.944   6.895
  668SOL    HW2 2904   5.004   5.913   6.955
  669SOL     OW 2905   2.728   6.113   3.103
  669SOL    HW1 2906   2.821   6.129   3.072
  669SOL    HW2 2907   2.669   6.097   3.024
  670SOL     OW 2908   3.167   3.130   2.133
  670SOL    HW1 2909   3.239   3.118   2.065
  670SOL    HW2 2910   3.078   3.134   2.087
  671SOL     OW 2911   2.440   6.219   6.813
  671SOL    HW1 2912   2.449   6.149   6.884
  671SOL    HW2 2913   2.529   6.233   6.769
  672SOL     OW 2914   0.757   4.488   2.058
  672SOL    HW1 2915   0.755   4.495   1.959
  672SOL    HW2 2916   0.822   4.417   2.086
  673SOL     OW 2917   4.859   0.311   1.387
  673SOL    HW1 2918   4.889   0.263   1.469
  673SOL    HW2 2919   4.823   0.244   1.321
  674SOL     OW 2920   6.753   3.061   4.082
  674SOL    HW1 2921   6.658   3.030   4.076
  674SOL    HW2 2922   6.804   3.027   4.004
  675SOL     OW 2923   0.206   1.153   5.284
  675SOL    HW1 2924   0.283   1.192   5.335
  675SOL    HW2 2925   0.241   1.100   5.206
  676SOL     OW 2926   2.959   5.108   3.282
  676SOL    HW1 2927   3.010   5.021   3.282
  676SOL    HW2 2928   3.023   5.183   3.301
  677SOL     OW 2929   5.906   1.368   6.511
  677SOL    HW1 2930   5.903   1.298   6.583
  677SOL    HW2 2931   5.892   1.458   6.552
  678SOL     OW 2932   1.681   1.424   5.304
  678SOL    HW1 2933   1.603   1.473   5.265
  678SOL    HW2 2934   1.745   1.400   5.231
  679SOL     OW 2935   4.954   1.160   4.415
  679SOL    HW1 2936   5.031   1.162   4.351
  679SOL    HW2 2937   4.945   1.068   4.453
  680SOL     OW 2938   5.876   5.089   6.049
  680SOL    HW1 2939   5.852   5.026   5.975
  680SOL    HW2 2940   5.794   5.138   6.079
  681SOL     OW 2941   6.617   0.219   0.861
  681SOL    HW1 2942   6.639   0.313   0.888
  681SOL    HW2 2943   6.696   0.160   0.877
  682SOL     OW 2944   1.670   6.705   6.560
  682SOL    HW1 2945   1.760   6.734   6.591
  682SOL    HW2 2946   1.642   6.623   6.611
  683SOL     OW 2947   3.652   0.891   6.007
  683SOL    HW1 2948   3.569   0.847   6.044
  683SOL    HW2 2949   3.632   0.929   5.917
  684SOL     OW 2950   6.182   1.258   6.430
  684SOL    HW1 2951   6.189   1.321   6.353
  684SOL    HW2 2952   6.098   1.275   6.480
  685SOL     OW 2953   5.337   6.578   5.335
  685SOL    HW1 2954   5.248   6.576   5.380
  685SOL    HW2 2955   5.408   6.551   5.399
  686SOL     OW 2956   5.463   3.450   2.766
  686SOL    HW1 2957   5.423   3.540   2.753
  686SOL    HW2 2958   5.428   3.387   2.697
  687SOL     OW 2959   6.995   2.723   5.410
  687SOL    HW1 2960   6.936   2.667   5.468
  687SOL    HW2 2961   6.994   2.689   5.317
  688SOL     OW 2962   1.516   3.792   0.540
  688SOL    HW1 2963   1.433   3.776   0.486
  688SOL    HW2 2964   1.589   3.825   0.480
  689SOL     OW 2965   0.977   4.111   5.291
  689SOL    HW1 2966   0.988   4.068   5.381
  689SOL    HW2 2967   1.036   4.192   5.287
  690SOL     OW 2968   0.545   3.131   3.388
  690SOL    HW1 2969   0.510   3.064   3.455
  690SOL    HW2 2970   0.590   3.082   3.313
  691SOL     OW 2971   2.273   1.826   6.654
  691SOL    HW1 2972   2.184   1.864   6.627
  691SOL    HW2 2973   2.275   1.728   6.634
  692SOL     OW 2974   3.513   6.283   4.036
  692SOL    HW1 2975   3.417   6.264   4.019
  692SOL    HW2 2976   3.541   6.362   3.982
  693SOL     OW 2977   6.389   1.392   3.192
  693SOL    HW1 2978   6.333   1.340   3.257
  693SOL    HW2 2979   6.485   1.376   3.211
  694SOL     OW 2980   3.241   5.986   2.425
  694SOL    HW1 2981   3.309   6.053   2.394
  694SOL    HW2 2982   3.155   6.034   2.446
  695SOL     OW 2983   4.589   4.952   6.225
  695SOL    HW1 2984   4.518   4.979   6.291
  695SOL    HW2 2985   4.665   4.910   6.274
  696SOL     OW 2986   3.482   5.108   1.718
  696SOL    HW1 2987   3.450   5.201   1.729
  696SOL    HW2 2988   3.526   5.077   1.802
  697SOL     OW 2989   1.527   2.472   5.216
  697SOL    HW1 2990   1.457   2.418   5.262
  697SOL    HW2 2991   1.574   2.415   5.148
  698SOL     OW 2992   5.667   0.542   5.884
  698SOL    HW1 2993   5.657   0.642   5.878
  698SOL    HW2 2994   5.638   0.501   5.797
  699SOL     OW 2995   0.438   4.228   0.314
  699SOL    HW1 2996   0.473   4.241   0.407
  699SOL    HW2 2997   0.507   4.184   0.258
  700SOL     OW 2998   3.353   1.758   4.260
  700SOL    HW1 2999   3.433   1.704   4.235
  700SOL    HW2 3000   3.360   1.785   4.356
  701SOL     OW 3001   6.885   4.382   5.570
  701SOL    HW1 3002   6.963   4.446   5.575
  701SOL    HW2 3003   6.914   4.292   5.604
  702SOL     OW 3004   5.889   6.060   5.825
  702SOL    HW1 3005   5.848   6.124   5.891
  702SOL    HW2 3006   5.879   5.967   5.858
  703SOL     OW 3007   4.206   3.868   6.548
  703SOL    HW1 3008   4.180   3.851   6.643
  703SOL    HW2 3009   4.168   3.956   6.519
  704SOL     OW 3010   1.736   1.613   6.241
  704SOL    HW1 3011   1.734   1.695   6.184
  704SOL    HW2 3012   1.782   1.634   6.327
  705SOL     OW 3013   5.114   0.027   3.554
  705SOL    HW1 3014   5.190   0.021   3.489
  705SOL    HW2 3015   5.072   6.958   3.566
  706SOL     OW 3016   4.082   2.050   3.321
  706SOL    HW1 3017   4.067   2.128   3.382
  706SOL    HW2 3018   4.003   1.989   3.325
  707SOL     OW 3019   4.497   0.365   2.874
  707SOL    HW1 3020   4.408   0.382   2.833
  707SOL    HW2 3021   4.502   0.412   2.962
  708SOL     OW 3022   4.532   0.466   1.495
  708SOL    HW1 3023   4.619   0.421   1.479
  708SOL    HW2 3024   4.546   0.548   1.551
  709SOL     OW 3025   1.250   5.478   0.522
  709SOL    HW1 3026   1.262   5.404   0.456
  709SOL    HW2 3027   1.336   5.493   0.571
  710SOL     OW 3028   3.939   3.041   2.541
  710SOL    HW1 3029   3.867   2.997   2.594
  710SOL    HW2 3030   3.945   2.998   2.451
  711SOL     OW 3031   0.830   1.928   6.251
  711SOL    HW1 3032   0.783   1.958   6.334
  711SOL    HW2 3033   0.925   1.959   6.253
  712SOL     OW 3034   2.245   4.309   0.586
  712SOL    HW1 3035   2.235   4.242   0.660
  712SOL    HW2 3036   2.286   4.392   0.623
  713SOL     OW 3037   3.380   3.493   0.207
  713SOL    HW1 3038   3.405   3.526   0.116
  713SOL    HW2 3039   3.443   3.531   0.275
  714SOL     OW 3040   6.970   5.106   4.637
  714SOL    HW1 3041   6.943   5.155   4.721
  714SOL    HW2 3042   6.937   5.156   4.557
  715SOL     OW 3043   5.136   6.204   0.934
  715SOL    HW1 3044   5.142   6.180   0.837
  715SOL    HW2 3045   5.090   6.130   0.984
  716SOL     OW 3046   0.944   6.562   0.756
  716SOL    HW1 3047   0.890   6.532   0.834
  716SOL    HW2 3048   1.029   6.510   0.751
  717SOL     OW 3049   5.635   5.254   6.099
  717SOL    HW1 3050   5.568   5.247   6.025
  717SOL    HW2 3051   5.693   5.335   6.083
  718SOL     OW 3052   4.711   2.364   5.468
  718SOL    HW1 3053   4.762   2.428   5.412
  718SOL    HW2 3054   4.734   2.378   5.564
  719SOL     OW 3055   6.279   2.462   1.116
  719SOL    HW1 3056   6.184   2.475   1.086
  719SOL    HW2 3057   6.297   2.521   1.194
  720SOL     OW 3058   3.857   0.882   6.194
  720SOL    HW1 3059   3.922   0.808   6.174
  720SOL    HW2 3060   3.793   0.892   6.117
  721SOL     OW 3061   1.688   0.190   4.410
  721SOL    HW1 3062   1.731   0.101   4.393
  721SOL    HW2 3063   1.753   0.248   4.459
  722SOL     OW 3064   2.928   6.934   5.402
  722SOL    HW1 3065   2.876   6.931   5.317
  722SOL    HW2 3066   2.980   7.019   5.406
  723SOL     OW 3067   1.922   3.356   2.717
  723SOL    HW1 3068   1.989   3.386   2.784
  723SOL    HW2 3069   1.961   3.286   2.658
  724SOL     OW 3070   1.139   1.608   4.281
  724SOL    HW1 3071   1.170   1.515   4.301
  724SOL    HW2 3072   1.067   1.606   4.212
  725SOL     OW 3073   3.125   5.185   1.563
  725SOL    HW1 3074   3.128   5.209   1.466
  725SOL    HW2 3075   3.218   5.186   1.600
  726SOL     OW 3076   3.753   4.197   1.107
  726SOL    HW1 3077   3.850   4.212   1.088
  726SOL    HW2 3078   3.739   4.186   1.206
  727SOL     OW 3079   4.771   5.597   5.744
  727SOL    HW1 3080   4.707   5.529   5.707
  727SOL    HW2 3081   4.724   5.652   5.814
  728SOL     OW 3082   0.374   3.657   5.272
  728SOL    HW1 3083   0.317   3.701   5.341
  728SOL    HW2 3084   0.315   3.609   5.206
  729SOL     OW 3085   2.348   1.048   0.458
  729SOL    HW1 3086   2.355   1.019   0.553
  729SOL    HW2 3087   2.341   0.967   0.399
  730SOL     OW 3088   5.600   0.211   3.561
  730SOL    HW1 3089   5.650   0.221   3.475
  730SOL    HW2 3090   5.620   0.289   3.620
  731SOL     OW 3091   6.372   3.443   5.807
  731SOL    HW1 3092   6.441   3.459   5.736
  731SOL    HW2 3093   6.301   3.383   5.772
  732SOL     OW 3094   0.326   3.603   0.981
  732SOL    HW1 3095   0.409   3.637   0.937
  732SOL    HW2 3096   0.306   3.657   1.063
  733SOL     OW 3097   5.739   4.283   5.133
  733SOL    HW1 3098   5.719   4.193   5.171
  733SOL    HW2 3099   5.824   4.279   5.081
  734SOL     OW 3100   6.500   4.658   2.717
  734SOL    HW1 3101   6.464   4.565   2.710
  734SOL    HW2 3102   6.532   4.688   2.628
  735SOL     OW 3103   3.585   3.110   1.004
  735SOL    HW1 3104   3.547   3.019   1.022
  735SOL    HW2 3105   3.662   3.127   1.067
  736SOL     OW 3106   6.355   6.287   2.613
  736SOL    HW1 3107   6.442   6.291   2.662
  736SOL    HW2 3108   6.287   6.342   2.662
  737SOL     OW 3109   4.174   2.416   6.664
  737SOL    HW1 3110   4.153   2.319   6.652
  737SOL    HW2 3111   4.115   2.470   6.604
  738SOL     OW 3112   2.083   4.364   2.529
  738SOL    HW1 3113   2.171   4.339   2.569
  738SOL    HW2 3114   2.069   4.313   2.444
  739SOL     OW 3115   4.355   6.273   5.382
  739SOL    HW1 3116   4.428   6.209   5.406
  739SOL    HW2 3117   4.348   6.279   5.282
  740SOL     OW 3118   5.183   6.968   0.608
  740SOL    HW1 3119   5.119   6.893   0.626
  740SOL    HW2 3120   5.153   0.030   0.658
  741SOL     OW 3121   2.087   6.248   3.146
  741SOL    HW1 3122   2.002   6.229   3.197
  741SOL    HW2 3123   2.113   6.344   3.161
  742SOL     OW 3124   2.449   6.523   1.635
  742SOL    HW1 3125   2.501   6.565   1.561
  742SOL    HW2 3126   2.488   6.550   1.723
  743SOL     OW 3127   1.577   4.020   4.385
  743SOL    HW1 3128   1.620   3.989   4.470
  743SOL    HW2 3129   1.504   3.956   4.361
  744SOL     OW 3130   5.896   0.091   6.299
  744SOL    HW1 3131   5.958   0.067   6.224
  744SOL    HW2 3132   5.938   0.162   6.356
  745SOL     OW 3133   0.666   5.074   4.601
  745SOL    HW1 3134   0.713   5.119   4.525
  745SOL    HW2 3135   0.724   5.002   4.638
  746SOL     OW 3136   0.783   5.664   5.934
  746SOL    HW1 3137   0.709   5.622   5.986
  746SOL    HW2 3138   0.751   5.749   5.892
  747SOL     OW 3139   4.585   5.421   5.026
  747SOL    HW1 3140   4.570   5.493   5.094
  747SOL    HW2 3141   4.509   5.356   5.029
  748SOL     OW 3142   3.626   5.363   3.070
  748SOL    HW1 3143   3.579   5.404   3.149
  748SOL    HW2 3144   3.712   5.411   3.054
  749SOL     OW 3145   6.515   3.559   4.523
  749SOL    HW1 3146   6.428   3.572   4.570
  749SOL    HW2 3147   6.571   3.641   4.531
  750SOL     OW 3148   2.182   3.277   0.859
  750SOL    HW1 3149   2.229   3.334   0.928
  750SOL    HW2 3150   2.108   3.226   0.903
  751SOL     OW 3151   3.989   1.781   6.061
  751SOL    HW1 3152   3.950   1.816   6.147
  751SOL    HW2 3153   4.047   1.702   6.080
  752SOL     OW 3154   4.327   2.536   1.645
  752SOL    HW1 3155   4.236   2.576   1.639
  752SOL    HW2 3156   4.338   2.468   1.572
  753SOL     OW 3157   1.939   2.957   4.193
  753SOL    HW1 3158   1.997   2.998   4.263
  753SOL    HW2 3159   1.872   3.024   4.162
  754SOL     OW 3160   5.551   2.912   6.796
  754SOL    HW1 3161   5.532   2.983   6.728
  754SOL    HW2 3162   5.639   2.869   6.776
  755SOL     OW 3163   1.736   5.402   6.046
  755SOL    HW1 3164   1.697   5.332   6.105
  755SOL    HW2 3165   1.737   5.490   6.094
  756SOL     OW 3166   3.849   6.720   1.139
  756SOL    HW1 3167   3.893   6.748   1.053
  756SOL    HW2 3168   3.822   6.802   1.190
  757SOL     OW 3169   0.161   6.299   3.107
  757SOL    HW1 3170   0.078   6.254   3.076
  757SOL    HW2 3171   0.224   6.231   3.144
  758SOL     OW 3172   4.024   0.765   1.648
  758SOL    HW1 3173   4.077   0.697   1.598
  758SOL    HW2 3174   4.083   0.813   1.712
  759SOL     OW 3175   0.592   0.731   0.590
  759SOL    HW1 3176   0.633   0.669   0.523
  759SOL    HW2 3177   0.557   0.812   0.543
  760SOL     OW 3178   4.494   0.385   6.134
  760SOL    HW1 3179   4.555   0.312   6.105
  760SOL    HW2 3180   4.483   0.381   6.234
  761SOL     OW 3181   5.785   3.815   5.605
  761SOL    HW1 3182   5.861   3.749   5.610
  761SOL    HW2 3183   5.742   3.822   5.695
  762SOL     OW 3184   2.144   6.681   4.728
  762SOL    HW1 3185   2.081   6.623   4.677
  762SOL    HW2 3186   2.161   6.641   4.818
  763SOL     OW 3187   3.726   5.085   6.439
  763SOL    HW1 3188   3.818   5.047   6.452
  763SOL    HW2 3189   3.666   5.051   6.512
  764SOL     OW 3190   4.401   0.550   3.477
  764SOL    HW1 3191   4.440   0.471   3.525
  764SOL    HW2 3192   4.338   0.598   3.538
  765SOL     OW 3193   1.196   6.766   1.253
  765SOL    HW1 3194   1.173   6.680   1.298
  765SOL    HW2 3195   1.132   6.782   1.177
  766SOL     OW 3196   0.755   2.522   0.883
  766SOL    HW1 3197   0.774   2.611   0.840
  766SOL    HW2 3198   0.839   2.486   0.923
  767SOL     OW 3199   6.148   5.605   2.811
  767SOL    HW1 3200   6.166   5.634   2.717
  767SOL    HW2 3201   6.106   5.680   2.862
  768SOL     OW 3202   2.691   6.632   2.175
  768SOL    HW1 3203   2.660   6.611   2.268
  768SOL    HW2 3204   2.691   6.731   2.162
  769SOL     OW 3205   3.300   0.757   4.539
  769SOL    HW1 3206   3.350   0.838   4.512
  769SOL    HW2 3207   3.298   0.691   4.464
  770SOL     OW 3208   1.635   4.730   2.920
  770SOL    HW1 3209   1.726   4.696   2.900
  770SOL    HW2 3210   1.635   4.774   3.010
  771SOL     OW 3211   2.665   5.616   2.518
  771SOL    HW1 3212   2.740   5.655   2.465
  771SOL    HW2 3213   2.590   5.683   2.524
  772SOL     OW 3214   6.724   5.208   0.612
  772SOL    HW1 3215   6.650   5.222   0.547
  772SOL    HW2 3216   6.729   5.287   0.674
  773SOL     OW 3217   0.172   4.137   3.236
  773SOL    HW1 3218   0.073   4.148   3.246
  773SOL    HW2 3219   0.219   4.188   3.308
  774SOL     OW 3220   0.920   1.298   2.667
  774SOL    HW1 3221   0.930   1.219   2.727
  774SOL    HW2 3222   0.990   1.367   2.690
  775SOL     OW 3223   1.004   1.870   3.080
  775SOL    HW1 3224   0.937   1.856   3.007
  775SOL    HW2 3225   0.964   1.846   3.168
  776SOL     OW 3226   6.664   1.070   5.519
  776SOL    HW1 3227   6.578   1.088   5.568
  776SOL    HW2 3228   6.733   1.137   5.546
  777SOL     OW 3229   3.162   5.802   0.844
  777SOL    HW1 3230   3.227   5.730   0.868
  777SOL    HW2 3231   3.190   5.888   0.885
  778SOL     OW 3232   3.327   1.555   3.055
  778SOL    HW1 3233   3.236   1.593   3.073
  778SOL    HW2 3234   3.328   1.514   2.964
  779SOL     OW 3235   0.637   2.082   2.483
  779SOL    HW1 3236   0.702   2.011   2.512
  779SOL    HW2 3237   0.677   2.137   2.410
  780SOL     OW 3238   6.613   3.610   4.093
  780SOL    HW1 3239   6.522   3.614   4.052
  780SOL    HW2 3240   6.610   3.556   4.177
  781SOL     OW 3241   5.175   1.966   6.532
  781SOL    HW1 3242   5.160   1.885   6.589
  781SOL    HW2 3243   5.269   1.966   6.498
  782SOL     OW 3244   0.516   3.790   0.054
  782SOL    HW1 3245   0.616   3.791   0.057
  782SOL    HW2 3246   0.485   3.707   0.008
  783SOL     OW 3247   3.753   4.817   1.007
  783SOL    HW1 3248   3.818   4.743   1.018
  783SOL    HW2 3249   3.800   4.905   1.013
  784SOL     OW 3250   5.418   6.522   6.576
  784SOL    HW1 3251   5.394   6.619   6.583
  784SOL    HW2 3252   5.342   6.466   6.609
  785SOL     OW 3253   6.390   2.493   3.219
  785SOL    HW1 3254   6.372   2.449   3.131
  785SOL    HW2 3255   6.486   2.522   3.223
  786SOL     OW 3256   1.619   1.442   1.368
  786SOL    HW1 3257   1.581   1.508   1.433
  786SOL    HW2 3258   1.710   1.415   1.398
  787SOL     OW 3259   3.167   1.129   6.385
  787SOL    HW1 3260   3.160   1.226   6.410
  787SOL    HW2 3261   3.098   1.107   6.316
  788SOL     OW 3262   2.894   1.861   5.010
  788SOL    HW1 3263   2.912   1.958   4.999
  788SOL    HW2 3264   2.802   1.848   5.047
  789SOL     OW 3265   5.090   3.906   0.740
  789SOL    HW1 3266   4.996   3.881   0.718
  789SOL    HW2 3267   5.124   3.849   0.815
  790SOL     OW 3268   2.840   0.876   3.969
  790SOL    HW1 3269   2.880   0.918   3.887
  790SOL    HW2 3270   2.787   0.945   4.018
  791SOL     OW 3271   3.447   6.332   3.089
  791SOL    HW1 3272   3.359   6.366   3.120
  791SOL    HW2 3273   3.437   6.240   3.052
  792SOL     OW 3274   0.483   0.173   1.752
  792SOL    HW1 3275   0.558   0.136   1.696
  792SOL    HW2 3276   0.422   0.226   1.693
  793SOL     OW 3277   4.344   6.009   2.679
  793SOL    HW1 3278   4.309   6.094   2.640
  793SOL    HW2 3279   4.431   5.985   2.634
  794SOL     OW 3280   2.929   3.458   4.674
  794SOL    HW1 3281   3.016   3.409   4.663
  794SOL    HW2 3282   2.907   3.464   4.771
  795SOL     OW 3283   3.323   5.892   5.066
  795SOL    HW1 3284   3.248   5.941   5.022
  795SOL    HW2 3285   3.394   5.873   4.998
  796SOL     OW 3286   1.205   2.076   6.605
  796SOL    HW1 3287   1.221   2.039   6.697
  796SOL    HW2 3288   1.276   2.143   6.584
  797SOL     OW 3289   4.686   2.310   2.387
  797SOL    HW1 3290   4.671   2.256   2.304
  797SOL    HW2 3291   4.731   2.253   2.456
  798SOL     OW 3292   4.895   6.845   1.543
  798SOL    HW1 3293   4.904   6.746   1.545
  798SOL    HW2 3294   4.858   6.878   1.629
  799SOL     OW 3295   6.110   1.676   4.283
  799SOL    HW1 3296   6.184   1.738   4.309
  799SOL    HW2 3297   6.146   1.606   4.221
  800SOL     OW 3298   5.427   0.924   2.339
  800SOL    HW1 3299   5.496   0.995   2.326
  800SOL    HW2 3300   5.402   0.885   2.251
  801SOL     OW 3301   1.943   3.280   3.539
  801SOL    HW1 3302   1.907   3.200   3.492
  801SOL    HW2 3303   1.993   3.338   3.474
  802SOL     OW 3304   4.339   0.383   0.970
  802SOL    HW1 3305   4.251   0.424   0.992
  802SOL    HW2 3306   4.348   0.374   0.871
  803SOL     OW 3307   0.484   5.536   4.734
  803SOL    HW1 3308   0.448   5.443   4.742
  803SOL    HW2 3309   0.578   5.533   4.702
  804SOL     OW 3310   6.221   5.943   6.740
  804SOL    HW1 3311   6.195   5.907   6.650
  804SOL    HW2 3312   6.175   5.890   6.811
  805SOL     OW 3313   3.298   1.907   5.357
  805SOL    HW1 3314   3.312   1.853   5.441
  805SOL    HW2 3315   3.201   1.924   5.344
  806SOL     OW 3316   4.709   0.905   4.490
  806SOL    HW1 3317   4.674   0.999   4.481
  806SOL    HW2 3318   4.728   0.886   4.586
  807SOL     OW 3319   0.513   1.768   4.263
  807SOL    HW1 3320   0.478   1.857   4.291
  807SOL    HW2 3321   0.440   1.716   4.219
  808SOL     OW 3322   4.701   3.555   6.329
  808SOL    HW1 3323   4.768   3.523   6.395
  808SOL    HW2 3324   4.632   3.611   6.376
  809SOL     OW 3325   0.676   4.687   1.328
  809SOL    HW1 3326   0.707   4.592   1.331
  809SOL    HW2 3327   0.707   4.729   1.243
  810SOL     OW 3328   3.622   2.624   1.239
  810SOL    HW1 3329   3.709   2.576   1.243
  810SOL    HW2 3330   3.582   2.615   1.148
  811SOL     OW 3331   4.052   5.729   4.166
  811SOL    HW1 3332   4.135   5.759   4.118
  811SOL    HW2 3333   4.069   5.730   4.264
  812SOL     OW 3334   0.916   1.591   1.554
  812SOL    HW1 3335   0.999   1.540   1.531
  812SOL    HW2 3336   0.837   1.531   1.545
  813SOL     OW 3337   3.978   5.249   4.707
  813SOL    HW1 3338   3.908   5.281   4.771
  813SOL    HW2 3339   3.949   5.162   4.666
  814SOL     OW 3340   5.668   6.353   3.187
  814SOL    HW1 3341   5.765   6.353   3.208
  814SOL    HW2 3342   5.636   6.260   3.171
  815SOL     OW 3343   6.962   3.244   3.038
  815SOL    HW1 3344   0.026   3.274   2.992
  815SOL    HW2 3345   6.890   3.310   3.021
  816SOL     OW 3346   0.081   6.757   0.449
  816SOL    HW1 3347   0.129   6.844   0.462
  816SOL    HW2 3348   0.032   6.733   0.533
  817SOL     OW 3349   2.525   3.980   1.523
  817SOL    HW1 3350   2.583   3.939   1.453
  817SOL    HW2 3351   2.442   3.926   1.535
  818SOL     OW 3352   6.145   2.986   1.666
  818SOL    HW1 3353   6.109   2.905   1.713
  818SOL    HW2 3354   6.172   3.055   1.734
  819SOL     OW 3355   5.670   3.415   3.163
  819SOL    HW1 3356   5.770   3.417   3.174
  819SOL    HW2 3357   5.633   3.505   3.187
  820SOL     OW 3358   2.531   2.687   6.547
  820SOL    HW1 3359   2.617   2.655   6.508
  820SOL    HW2 3360   2.549   2.757   6.615
  821SOL     OW 3361   2.128   4.567   0.792
  821SOL    HW1 3362   2.222   4.559   0.759
  821SOL    HW2 3363   2.128   4.612   0.881
  822SOL     OW 3364   1.138   4.504   4.807
  822SOL    HW1 3365   1.167   4.564   4.733
  822SOL    HW2 3366   1.141   4.554   4.894
  823SOL     OW 3367   4.880   4.509   6.935
  823SOL    HW1 3368   4.835   4.498   0.004
  823SOL    HW2 3369   4.822   4.564   6.875
  824SOL     OW 3370   5.154   0.991   5.193
  824SOL    HW1 3371   5.074   0.992   5.254
  824SOL    HW2 3372   5.158   1.078   5.143
  825SOL     OW 3373   1.435   3.790   1.470
  825SOL    HW1 3374   1.355   3.847   1.486
  825SOL    HW2 3375   1.442   3.769   1.372
  826SOL     OW 3376   5.585   3.130   6.987
  826SOL    HW1 3377   5.676   3.118   0.009
  826SOL    HW2 3378   5.581   3.078   6.902
  827SOL     OW 3379   3.200   5.658   6.020
  827SOL    HW1 3380   3.177   5.609   5.936
  827SOL    HW2 3381   3.117   5.690   6.064
  828SOL     OW 3382   5.740   0.065   5.911
  828SOL    HW1 3383   5.659   0.030   5.863
  828SOL    HW2 3384   5.757   0.159   5.884
  829SOL     OW 3385   3.040   3.909   3.989
  829SOL    HW1 3386   2.949   3.928   3.953
  829SOL    HW2 3387   3.034   3.892   4.087
  830SOL     OW 3388   4.946   4.885   6.493
  830SOL    HW1 3389   5.024   4.839   6.451
  830SOL    HW2 3390   4.941   4.859   6.590
  831SOL     OW 3391   6.617   1.343   5.254
  831SOL    HW1 3392   6.564   1.374   5.333
  831SOL    HW2 3393   6.579   1.381   5.170
  832SOL     OW 3394   2.393   0.862   0.999
  832SOL    HW1 3395   2.336   0.861   1.081
  832SOL    HW2 3396   2.343   0.819   0.924
  833SOL     OW 3397   0.742   4.709   6.007
  833SOL    HW1 3398   0.759   4.791   5.953
  833SOL    HW2 3399   0.789   4.717   6.095
  834SOL     OW 3400   3.078   3.500   1.214
  834SOL    HW1 3401   3.032   3.588   1.198
  834SOL    HW2 3402   3.058   3.470   1.308
  835SOL     OW 3403   3.219   0.264   4.191
  835SOL    HW1 3404   3.215   0.180   4.245
  835SOL    HW2 3405   3.313   0.277   4.157
  836SOL     OW 3406   3.394   0.052   0.043
  836SOL    HW1 3407   3.470   0.102   0.085
  836SOL    HW2 3408   3.315   0.113   0.032
  837SOL     OW 3409   5.517   6.569   6.960
  837SOL    HW1 3410   5.602   6.577   6.908
  837SOL    HW2 3411   5.442   6.612   6.909
  838SOL     OW 3412   1.372   0.347   4.832
  838SOL    HW1 3413   1.305   0.357   4.759
  838SOL    HW2 3414   1.443   0.417   4.822
  839SOL     OW 3415   2.630   2.348   1.931
  839SOL    HW1 3416   2.661   2.326   1.839
  839SOL    HW2 3417   2.708   2.344   1.994
  840SOL     OW 3418   6.076   6.993   6.127
  840SOL    HW1 3419   6.036   6.912   6.086
  840SOL    HW2 3420   6.145   0.011   6.065
  841SOL     OW 3421   5.164   4.767   0.596
  841SOL    HW1 3422   5.216   4.744   0.678
  841SOL    HW2 3423   5.100   4.840   0.617
  842SOL     OW 3424   4.715   4.982   4.338
  842SOL    HW1 3425   4.762   5.033   4.410
  842SOL    HW2 3426   4.619   5.011   4.334
  843SOL     OW 3427   3.932   1.852   6.351
  843SOL    HW1 3428   3.871   1.925   6.321
  843SOL    HW2 3429   4.026   1.883   6.347
  844SOL     OW 3430   4.475   6.944   1.167
  844SOL    HW1 3431   4.391   6.998   1.179
  844SOL    HW2 3432   4.532   6.952   1.248
  845SOL     OW 3433   6.330   3.596   4.918
  845SOL    HW1 3434   6.310   3.575   4.822
  845SOL    HW2 3435   6.261   3.553   4.977
  846SOL     OW 3436   3.692   1.725   6.994
  846SOL    HW1 3437   3.745   1.809   7.000
  846SOL    HW2 3438   3.746   1.649   0.011
  847SOL     OW 3439   0.049   3.869   0.291
  847SOL    HW1 3440   7.008   3.939   0.328
  847SOL    HW2 3441   0.025   3.850   0.196
  848SOL     OW 3442   6.348   1.442   6.612
  848SOL    HW1 3443   6.277   1.410   6.550
  848SOL    HW2 3444   6.401   1.364   6.646
  849SOL     OW 3445   1.233   4.496   5.719
  849SOL    HW1 3446   1.160   4.434   5.746
  849SOL    HW2 3447   1.243   4.494   5.620
  850SOL     OW 3448   5.233   1.253   3.760
  850SOL    HW1 3449   5.212   1.282   3.666
  850SOL    HW2 3450   5.327   1.220   3.764
  851SOL     OW 3451   0.195   1.304   1.371
  851SOL    HW1 3452   0.168   1.392   1.411
  851SOL    HW2 3453   0.227   1.243   1.443
  852SOL     OW 3454   2.102   2.915   0.531
  852SOL    HW1 3455   2.142   2.927   0.440
  852SOL    HW2 3456   2.168   2.945   0.600
  853SOL     OW 3457   1.390   4.126   2.209
  853SOL    HW1 3458   1.450   4.047   2.223
  853SOL    HW2 3459   1.442   4.202   2.171
  854SOL     OW 3460   4.865   5.694   2.532
  854SOL    HW1 3461   4.841   5.697   2.435
  854SOL    HW2 3462   4.889   5.600   2.557
  855SOL     OW 3463   0.102   0.085   0.776
  855SOL    HW1 3464   0.150   0.163   0.817
  855SOL    HW2 3465   0.170   0.019   0.743
  856SOL     OW 3466   1.735   1.875   5.390
  856SOL    HW1 3467   1.656   1.859   5.330
  856SOL    HW2 3468   1.797   1.940   5.345
  857SOL     OW 3469   5.687   4.875   1.251
  857SOL    HW1 3470   5.677   4.790   1.304
  857SOL    HW2 3471   5.665   4.953   1.310
  858SOL     OW 3472   2.434   4.251   1.491
  858SOL    HW1 3473   2.336   4.238   1.508
  858SOL    HW2 3474   2.481   4.164   1.506
  859SOL     OW 3475   5.046   5.135   6.821
  859SOL    HW1 3476   5.093   5.120   6.908
  859SOL    HW2 3477   5.111   5.169   6.753
  860SOL     OW 3478   4.214   4.353   1.194
  860SOL    HW1 3479   4.142   4.361   1.263
  860SOL    HW2 3480   4.235   4.443   1.156
  861SOL     OW 3481   2.344   0.302   4.701
  861SOL    HW1 3482   2.401   0.369   4.654
  861SOL    HW2 3483   2.402   0.234   4.746
  862SOL     OW 3484   6.788   4.728   5.481
  862SOL    HW1 3485   6.809   4.720   5.383
  862SOL    HW2 3486   6.870   4.760   5.529
  863SOL     OW 3487   1.434   0.721   0.669
  863SOL    HW1 3488   1.503   0.755   0.605
  863SOL    HW2 3489   1.347   0.711   0.623
  864SOL     OW 3490   4.975   4.320   3.785
  864SOL    HW1 3491   5.023   4.344   3.870
  864SOL    HW2 3492   4.981   4.397   3.721
  865SOL     OW 3493   1.719   6.382   5.204
  865SOL    HW1 3494   1.648   6.452   5.196
  865SOL    HW2 3495   1.722   6.328   5.119
  866SOL     OW 3496   1.995   2.821   1.054
  866SOL    HW1 3497   1.896   2.825   1.043
  866SOL    HW2 3498   2.018   2.828   1.150
  867SOL     OW 3499   4.229   2.806   0.899
  867SOL    HW1 3500   4.208   2.765   0.987
  867SOL    HW2 3501   4.229   2.735   0.828
  868SOL     OW 3502   5.577   6.197   1.466
  868SOL    HW1 3503   5.496   6.175   1.521
  868SOL    HW2 3504   5.641   6.251   1.521
  869SOL     OW 3505   0.115   5.393   2.964
  869SOL    HW1 3506   0.090   5.490   2.954
  869SOL    HW2 3507   0.035   5.336   2.947
  870SOL     OW 3508   6.109   3.637   0.414
  870SOL    HW1 3509   6.068   3.725   0.435
  870SOL    HW2 3510   6.199   3.651   0.371
  871SOL     OW 3511   6.239   3.282   1.845
  871SOL    HW1 3512   6.176   3.338   1.899
  871SOL    HW2 3513   6.319   3.336   1.820
  872SOL     OW 3514   6.092   4.280   3.984
  872SOL    HW1 3515   6.036   4.306   4.063
  872SOL    HW2 3516   6.100   4.180   3.980
  873SOL     OW 3517   4.906   6.973   3.861
  873SOL    HW1 3518   5.000   6.942   3.872
  873SOL    HW2 3519   4.904   0.037   3.807
  874SOL     OW 3520   1.426   4.265   5.371
  874SOL    HW1 3521   1.492   4.264   5.445
  874SOL    HW2 3522   1.432   4.179   5.320
  875SOL     OW 3523   4.631   3.676   1.288
  875SOL    HW1 3524   4.724   3.647   1.263
  875SOL    HW2 3525   4.595   3.614   1.358
  876SOL     OW 3526   0.480   5.391   3.728
  876SOL    HW1 3527   0.443   5.425   3.641
  876SOL    HW2 3528   0.562   5.443   3.752
  877SOL     OW 3529   3.595   5.008   6.690
  877SOL    HW1 3530   3.609   4.952   6.771
  877SOL    HW2 3531   3.497   5.029   6.681
  878SOL     OW 3532   4.393   6.207   6.263
  878SOL    HW1 3533   4.460   6.259   6.316
  878SOL    HW2 3534   4.435   6.124   6.228
  879SOL     OW 3535   3.474   1.929   2.364
  879SOL    HW1 3536   3.549   1.993   2.346
  879SOL    HW2 3537   3.502   1.837   2.338
  880SOL     OW 3538   3.154   4.917   6.808
  880SOL    HW1 3539   3.067   4.892   6.765
  880SOL    HW2 3540   3.219   4.945   6.737
  881SOL     OW 3541   4.067   4.461   5.378
  881SOL    HW1 3542   4.121   4.468   5.293
  881SOL    HW2 3543   4.116   4.403   5.443
  882SOL     OW 3544   1.751   1.106   3.904
  882SOL    HW1 3545   1.826   1.169   3.927
  882SOL    HW2 3546   1.664   1.148   3.928
  883SOL     OW 3547   4.903   5.436   4.943
  883SOL    HW1 3548   4.812   5.453   4.982
  883SOL    HW2 3549   4.934   5.345   4.970
  884SOL     OW 3550   0.326   3.958   1.882
  884SOL    HW1 3551   0.249   3.898   1.861
  884SOL    HW2 3552   0.324   3.984   1.978
  885SOL     OW 3553   5.504   5.813   6.800
  885SOL    HW1 3554   5.460   5.903   6.798
  885SOL    HW2 3555   5.602   5.825   6.817
  886SOL     OW 3556   4.538   0.554   0.383
  886SOL    HW1 3557   4.508   0.568   0.289
  886SOL    HW2 3558   4.537   0.642   0.431
  887SOL     OW 3559   4.216   6.591   5.250
  887SOL    HW1 3560   4.120   6.619   5.243
  887SOL    HW2 3561   4.253   6.575   5.159
  888SOL     OW 3562   6.310   6.450   3.491
  888SOL    HW1 3563   6.316   6.450   3.590
  888SOL    HW2 3564   6.231   6.397   3.462
  889SOL     OW 3565   0.523   6.684   6.209
  889SOL    HW1 3566   0.424   6.693   6.219
  889SOL    HW2 3567   0.563   6.773   6.191
  890SOL     OW 3568   2.725   4.835   2.028
  890SOL    HW1 3569   2.753   4.741   2.009
  890SOL    HW2 3570   2.626   4.839   2.036
  891SOL     OW 3571   5.462   3.920   1.216
  891SOL    HW1 3572   5.482   3.829   1.251
  891SOL    HW2 3573   5.386   3.960   1.267
  892SOL     OW 3574   3.789   3.990   0.635
  892SOL    HW1 3575   3.823   3.938   0.557
  892SOL    HW2 3576   3.691   3.977   0.644
  893SOL     OW 3577   2.451   1.236   1.553
  893SOL    HW1 3578   2.490   1.144   1.550
  893SOL    HW2 3579   2.491   1.286   1.630
  894SOL     OW 3580   2.051   3.607   4.161
  894SOL    HW1 3581   1.966   3.587   4.208
  894SOL    HW2 3582   2.120   3.638   4.227
  895SOL     OW 3583   2.019   6.258   4.958
  895SOL    HW1 3584   2.060   6.322   5.023
  895SOL    HW2 3585   1.922   6.248   4.979
  896SOL     OW 3586   5.270   5.572   2.937
  896SOL    HW1 3587   5.204   5.579   3.012
  896SOL    HW2 3588   5.229   5.609   2.854
  897SOL     OW 3589   4.776   1.042   0.426
  897SOL    HW1 3590   4.788   1.119   0.364
  897SOL    HW2 3591   4.750   1.075   0.516
  898SOL     OW 3592   4.362   6.138   3.419
  898SOL    HW1 3593   4.294   6.134   3.492
  898SOL    HW2 3594   4.397   6.047   3.400
  899SOL     OW 3595   0.674   5.068   7.008
  899SOL    HW1 3596   0.703   5.162   0.006
  899SOL    HW2 3597   0.574   5.065   7.001
  900SOL     OW 3598   5.286   5.618   1.804
  900SOL    HW1 3599   5.203   5.607   1.859
  900SOL    HW2 3600   5.276   5.569   1.718
  901SOL     OW 3601   0.044   1.451   4.853
  901SOL    HW1 3602   0.006   1.439   4.761
  901SOL    HW2 3603   0.003   1.384   4.915
  902SOL     OW 3604   0.554   1.360   6.296
  902SOL    HW1 3605   0.486   1.302   6.340
  902SOL    HW2 3606   0.510   1.415   6.224
  903SOL     OW 3607   6.484   4.069   6.764
  903SOL    HW1 3608   6.503   4.083   6.667
  903SOL    HW2 3609   6.503   3.974   6.789
  904SOL     OW 3610   1.896   2.225   4.467
  904SOL    HW1 3611   1.805   2.202   4.500
  904SOL    HW2 3612   1.936   2.295   4.525
  905SOL     OW 3613   4.914   2.812   6.720
  905SOL    HW1 3614   4.907   2.816   6.621
  905SOL    HW2 3615   4.853   2.880   6.760
  906SOL     OW 3616   0.604   3.900   5.935
  906SOL    HW1 3617   0.619   3.815   5.884
  906SOL    HW2 3618   0.555   3.966   5.878
  907SOL     OW 3619   5.800   3.068   3.866
  907SOL    HW1 3620   5.893   3.038   3.842
  907SOL    HW2 3621   5.784   3.158   3.827
  908SOL     OW 3622   1.316   6.719   4.254
  908SOL    HW1 3623   1.249   6.789   4.277
  908SOL    HW2 3624   1.278   6.657   4.185
  909SOL     OW 3625   2.501   1.110   1.197
  909SOL    HW1 3626   2.585   1.062   1.172
  909SOL    HW2 3627   2.522   1.186   1.258
  910SOL     OW 3628   2.434   0.673   0.556
  910SOL    HW1 3629   2.359   0.651   0.619
  910SOL    HW2 3630   2.433   0.609   0.479
  911SOL     OW 3631   6.658   5.363   1.542
  911SOL    HW1 3632   6.612   5.373   1.454
  911SOL    HW2 3633   6.757   5.375   1.531
  912SOL     OW 3634   6.891   0.713   5.175
  912SOL    HW1 3635   6.853   0.666   5.255
  912SOL    HW2 3636   6.831   0.788   5.148
  913SOL     OW 3637   2.385   0.747   3.639
  913SOL    HW1 3638   2.416   0.840   3.619
  913SOL    HW2 3639   2.423   0.684   3.572
  914SOL     OW 3640   2.782   5.837   5.572
  914SOL    HW1 3641   2.785   5.839   5.672
  914SOL    HW2 3642   2.861   5.888   5.537
  915SOL     OW 3643   0.536   3.374   1.118
  915SOL    HW1 3644   0.572   3.467   1.128
  915SOL    HW2 3645   0.565   3.335   1.030
  916SOL     OW 3646   1.371   2.254   2.446
  916SOL    HW1 3647   1.348   2.306   2.364
  916SOL    HW2 3648   1.339   2.160   2.436
  917SOL     OW 3649   4.085   0.435   1.569
  917SOL    HW1 3650   4.111   0.438   1.473
  917SOL    HW2 3651   4.167   0.451   1.626
  918SOL     OW 3652   2.849   6.138   0.068
  918SOL    HW1 3653   2.880   6.144   6.994
  918SOL    HW2 3654   2.769   6.197   0.081
  919SOL     OW 3655   1.768   6.243   1.683
  919SOL    HW1 3656   1.848   6.296   1.711
  919SOL    HW2 3657   1.793   6.147   1.673
  920SOL     OW 3658   1.769   0.116   3.164
  920SOL    HW1 3659   1.777   0.175   3.083
  920SOL    HW2 3660   1.794   0.022   3.140
  921SOL     OW 3661   4.854   4.760   4.006
  921SOL    HW1 3662   4.946   4.724   3.987
  921SOL    HW2 3663   4.792   4.731   3.933
  922SOL     OW 3664   3.224   2.669   6.570
  922SOL    HW1 3665   3.240   2.684   6.667
  922SOL    HW2 3666   3.310   2.648   6.525
  923SOL     OW 3667   3.045   5.700   0.592
  923SOL    HW1 3668   2.956   5.745   0.587
  923SOL    HW2 3669   3.102   5.748   0.659
  924SOL     OW 3670   5.177   3.418   2.255
  924SOL    HW1 3671   5.139   3.403   2.164
  924SOL    HW2 3672   5.106   3.405   2.324
  925SOL     OW 3673   6.770   1.424   5.469
  925SOL    HW1 3674   6.728   1.390   5.385
  925SOL    HW2 3675   6.752   1.522   5.479
  926SOL     OW 3676   6.138   0.698   6.725
  926SOL    HW1 3677   6.137   0.798   6.722
  926SOL    HW2 3678   6.044   0.664   6.738
  927SOL     OW 3679   5.074   4.048   4.170
  927SOL    HW1 3680   5.062   3.949   4.172
  927SOL    HW2 3681   5.147   4.072   4.107
  928SOL     OW 3682   2.003   0.011   0.769
  928SOL    HW1 3683   2.005   0.056   0.858
  928SOL    HW2 3684   1.909   7.007   0.745
  929SOL     OW 3685   6.884   2.171   0.942
  929SOL    HW1 3686   6.847   2.264   0.952
  929SOL    HW2 3687   6.830   2.121   0.875
  930SOL     OW 3688   7.005   5.818   4.837
  930SOL    HW1 3689   6.996   5.741   4.775
  930SOL    HW2 3690   0.082   5.838   4.853
  931SOL     OW 3691   0.184   3.744   3.464
  931SOL    HW1 3692   0.240   3.821   3.493
  931SOL    HW2 3693   0.091   3.754   3.500
  932SOL     OW 3694   2.906   6.494   1.447
  932SOL    HW1 3695   2.912   6.524   1.543
  932SOL    HW2 3696   2.908   6.394   1.443
  933SOL     OW 3697   0.785   5.332   1.950
  933SOL    HW1 3698   0.810   5.390   2.028
  933SOL    HW2 3699   0.739   5.387   1.881
  934SOL     OW 3700   2.617   0.924   4.679
  934SOL    HW1 3701   2.551   0.977   4.626
  934SOL    HW2 3702   2.579   0.904   4.770
  935SOL     OW 3703   5.329   3.534   5.514
  935SOL    HW1 3704   5.275   3.618   5.520
  935SOL    HW2 3705   5.285   3.462   5.568
  936SOL     OW 3706   0.953   0.465   6.366
  936SOL    HW1 3707   1.002   0.463   6.453
  936SOL    HW2 3708   0.987   0.392   6.306
  937SOL     OW 3709   5.130   2.385   5.229
  937SOL    HW1 3710   5.059   2.379   5.158
  937SOL    HW2 3711   5.135   2.299   5.279
  938SOL     OW 3712   0.317   4.821   5.794
  938SOL    HW1 3713   0.308   4.910   5.749
  938SOL    HW2 3714   0.327   4.834   5.892
  939SOL     OW 3715   5.331   1.459   5.394
  939SOL    HW1 3716   5.265   1.432   5.324
  939SOL    HW2 3717   5.361   1.378   5.445
  940SOL     OW 3718   6.401   2.337   2.594
  940SOL    HW1 3719   6.446   2.386   2.669
  940SOL    HW2 3720   6.304   2.326   2.614
  941SOL     OW 3721   6.375   0.904   3.924
  941SOL    HW1 3722   6.387   0.841   3.848
  941SOL    HW2 3723   6.465   0.930   3.960
  942SOL     OW 3724   5.073   0.915   4.571
  942SOL    HW1 3725   5.137   0.875   4.506
  942SOL    HW2 3726   5.025   0.842   4.619
  943SOL     OW 3727   0.646   3.251   3.064
  943SOL    HW1 3728   0.618   3.163   3.103
  943SOL    HW2 3729   0.699   3.235   2.980
  944SOL     OW 3730   6.428   3.224   6.430
  944SOL    HW1 3731   6.370   3.288   6.480
  944SOL    HW2 3732   6.429   3.135   6.477
  945SOL     OW 3733   6.106   4.574   5.235
  945SOL    HW1 3734   6.113   4.520   5.319
  945SOL    HW2 3735   6.131   4.669   5.254
  946SOL     OW 3736   5.708   2.508   6.417
  946SOL    HW1 3737   5.631   2.465   6.371
  946SOL    HW2 3738   5.793   2.465   6.387
  947SOL     OW 3739   2.870   3.566   5.263
  947SOL    HW1 3740   2.941   3.523   5.207
  947SOL    HW2 3741   2.862   3.663   5.238
  948SOL     OW 3742   4.277   1.454   0.876
  948SOL    HW1 3743   4.245   1.461   0.782
  948SOL    HW2 3744   4.221   1.388   0.926
  949SOL     OW 3745   6.561   5.943   6.541
  949SOL    HW1 3746   6.616   5.981   6.615
  949SOL    HW2 3747   6.550   6.011   6.469
  950SOL     OW 3748   4.421   4.892   2.909
  950SOL    HW1 3749   4.422   4.914   3.007
  950SOL    HW2 3750   4.402   4.974   2.856
  951SOL     OW 3751   1.914   0.607   1.877
  951SOL    HW1 3752   1.930   0.705   1.891
  951SOL    HW2 3753   2.000   0.563   1.853
  952SOL     OW 3754   5.785   1.291   1.973
  952SOL    HW1 3755   5.739   1.360   2.028
  952SOL    HW2 3756   5.867   1.330   1.931
  953SOL     OW 3757   4.817   5.863   5.496
  953SOL    HW1 3758   4.827   5.854   5.595
  953SOL    HW2 3759   4.879   5.935   5.463
  954SOL     OW 3760   5.457   0.005   0.591
  954SOL    HW1 3761   5.361   7.000   0.580
  954SOL    HW2 3762   5.464   0.104   0.607
  955SOL     OW 3763   0.859   5.276   3.418
  955SOL    HW1 3764   0.866   5.247   3.513
  955SOL    HW2 3765   0.834   5.373   3.414
  956SOL     OW 3766   0.757   2.097   2.168
  956SOL    HW1 3767   0.694   2.023   2.146
  956SOL    HW2 3768   0.812   2.072   2.247
  957SOL     OW 3769   1.332   4.686   4.504
  957SOL    HW1 3770   1.390   4.764   4.483
  957SOL    HW2 3771   1.241   4.719   4.530
  958SOL     OW 3772   4.690   2.700   1.095
  958SOL    HW1 3773   4.720   2.683   1.189
  958SOL    HW2 3774   4.690   2.614   1.044
  959SOL     OW 3775   2.789   4.769   3.279
  959SOL    HW1 3776   2.723   4.787   3.206
  959SOL    HW2 3777   2.881   4.791   3.247
  960SOL     OW 3778   0.257   5.999   4.072
  960SOL    HW1 3779   0.251   5.899   4.069
  960SOL    HW2 3780   0.302   6.031   3.988
  961SOL     OW 3781   4.958   6.396   3.109
  961SOL    HW1 3782   4.866   6.363   3.131
  961SOL    HW2 3783   4.951   6.486   3.065
  962SOL     OW 3784   1.479   1.285   3.637
  962SOL    HW1 3785   1.437   1.211   3.690
  962SOL    HW2 3786   1.546   1.246   3.574
  963SOL     OW 3787   5.762   1.021   6.883
  963SOL    HW1 3788   5.775   0.954   6.810
  963SOL    HW2 3789   5.707   1.097   6.849
  964SOL     OW 3790   6.186   3.442   0.825
  964SOL    HW1 3791   6.204   3.501   0.904
  964SOL    HW2 3792   6.114   3.482   0.769
  965SOL     OW 3793   5.678   1.792   0.596
  965SOL    HW1 3794   5.613   1.718   0.609
  965SOL    HW2 3795   5.755   1.780   0.659
  966SOL     OW 3796   6.158   1.812   2.220
  966SOL    HW1 3797   6.246   1.833   2.178
  966SOL    HW2 3798   6.102   1.759   2.156
  967SOL     OW 3799   1.533   5.355   0.578
  967SOL    HW1 3800   1.525   5.452   0.600
  967SOL    HW2 3801   1.478   5.301   0.643
  968SOL     OW 3802   4.574   2.400   2.101
  968SOL    HW1 3803   4.505   2.393   2.173
  968SOL    HW2 3804   4.533   2.446   2.022
  969SOL     OW 3805   3.857   5.868   6.023
  969SOL    HW1 3806   3.923   5.892   6.095
  969SOL    HW2 3807   3.877   5.922   5.941
  970SOL     OW 3808   4.850   1.257   5.058
  970SOL    HW1 3809   4.947   1.274   5.077
  970SOL    HW2 3810   4.840   1.219   4.966
  971SOL     OW 3811   0.396   1.591   2.871
  971SOL    HW1 3812   0.442   1.502   2.875
  971SOL    HW2 3813   0.374   1.620   2.964
  972SOL     OW 3814   5.661   3.673   1.003
  972SOL    HW1 3815   5.747   3.715   0.973
  972SOL    HW2 3816   5.681   3.590   1.055
  973SOL     OW 3817   0.328   4.831   6.060
  973SOL    HW1 3818   0.391   4.897   6.100
  973SOL    HW2 3819   0.235   4.865   6.067
  974SOL     OW 3820   4.176   0.530   1.911
  974SOL    HW1 3821   4.263   0.493   1.879
  974SOL    HW2 3822   4.182   0.630   1.917
  975SOL     OW 3823   1.788   5.783   6.762
  975SOL    HW1 3824   1.850   5.780   6.841
  975SOL    HW2 3825   1.807   5.705   6.702
  976SOL     OW 3826   6.326   3.142   2.853
  976SOL    HW1 3827   6.412   3.167   2.808
  976SOL    HW2 3828   6.285   3.064   2.806
  977SOL     OW 3829   2.405   1.260   3.886
  977SOL    HW1 3830   2.346   1.341   3.888
  977SOL    HW2 3831   2.493   1.283   3.846
  978SOL     OW 3832   4.929   4.017   5.205
  978SOL    HW1 3833   4.976   3.929   5.197
  978SOL    HW2 3834   4.842   4.004   5.253
  979SOL     OW 3835   6.723   1.585   3.053
  979SOL    HW1 3836   6.753   1.634   3.135
  979SOL    HW2 3837   6.799   1.580   2.988
  980SOL     OW 3838   4.996   1.799   3.426
  980SOL    HW1 3839   4.974   1.770   3.519
  980SOL    HW2 3840   4.914   1.795   3.370
  981SOL     OW 3841   1.620   1.456   4.880
  981SOL    HW1 3842   1.655   1.528   4.941
  981SOL    HW2 3843   1.539   1.490   4.832
  982SOL     OW 3844   2.277   2.365   3.823
  982SOL    HW1 3845   2.213   2.372   3.900
  982SOL    HW2 3846   2.251   2.430   3.752
  983SOL     OW 3847   5.938   2.809   3.660
  983SOL    HW1 3848   5.848   2.819   3.702
  983SOL    HW2 3849   5.997   2.884   3.689
  984SOL     OW 3850   3.860   0.668   4.642
  984SOL    HW1 3851   3.897   0.579   4.615
  984SOL    HW2 3852   3.783   0.654   4.705
  985SOL     OW 3853   5.157   4.878   6.328
  985SOL    HW1 3854   5.156   4.960   6.272
  985SOL    HW2 3855   5.217   4.892   6.407
  986SOL     OW 3856   5.481   5.670   0.191
  986SOL    HW1 3857   5.398   5.647   0.242
  986SOL    HW2 3858   5.561   5.656   0.250
  987SOL     OW 3859   4.239   6.119   1.071
  987SOL    HW1 3860   4.252   6.217   1.090
  987SOL    HW2 3861   4.198   6.107   0.981
  988SOL     OW 3862   3.824   2.705   1.719
  988SOL    HW1 3863   3.728   2.717   1.694
  988SOL    HW2 3864   3.841   2.608   1.736
  989SOL     OW 3865   0.202   0.609   5.532
  989SOL    HW1 3866   0.108   0.601   5.567
  989SOL    HW2 3867   0.222   0.705   5.514
  990SOL     OW 3868   4.813   0.451   3.295
  990SOL    HW1 3869   4.730   0.501   3.273
  990SOL    HW2 3870   4.821   0.440   3.394
  991SOL     OW 3871   1.849   2.091   5.251
  991SOL    HW1 3872   1.821   2.131   5.338
  991SOL    HW2 3873   1.895   2.160   5.195
  992SOL     OW 3874   0.966   3.612   1.142
  992SOL    HW1 3875   0.975   3.594   1.240
  992SOL    HW2 3876   0.995   3.705   1.122
  993SOL     OW 3877   2.187   5.539   2.496
  993SOL    HW1 3878   2.210   5.448   2.459
  993SOL    HW2 3879   2.089   5.543   2.513
  994SOL     OW 3880   3.766   3.537   2.682
  994SOL    HW1 3881   3.729   3.454   2.725
  994SOL    HW2 3882   3.859   3.552   2.714
  995SOL     OW 3883   2.632   2.134   6.247
  995SOL    HW1 3884   2.637   2.195   6.168
  995SOL    HW2 3885   2.649   2.187   6.331
  996SOL     OW 3886   1.804   3.942   3.976
  996SOL    HW1 3887   1.890   3.902   3.943
  996SOL    HW2 3888   1.817   3.974   4.070
  997SOL     OW 3889   6.516   0.554   1.184
  997SOL    HW1 3890   6.442   0.545   1.117
  997SOL    HW2 3891   6.493   0.503   1.267
  998SOL     OW 3892   4.701   6.920   4.035
  998SOL    HW1 3893   4.779   6.944   3.977
  998SOL    HW2 3894   4.689   6.820   4.036
  999SOL     OW 3895   5.418   4.977   0.916
  999SOL    HW1 3896   5.366   4.897   0.886
  999SOL    HW2 3897   5.501   4.985   0.862
 1000SOL     OW 3898   1.142   1.074   2.445
 1000SOL    HW1 3899   1.134   1.163   2.491
 1000SOL    HW2 3900   1.126   1.086   2.347
 1001SOL     OW 3901   5.807   6.537   6.958
 1001SOL    HW1 3902   5.779   6.579   6.872
 1001SOL    HW2 3903   5.873   6.465   6.939
 1002SOL     OW 3904   5.958   2.005   6.566
 1002SOL    HW1 3905   5.874   2.058   6.578
 1002SOL    HW2 3906   6.002   1.991   6.655
 1003SOL     OW 3907   2.574   6.609   1.862
 1003SOL    HW1 3908   2.646   6.564   1.915
 1003SOL    HW2 3909   2.533   6.683   1.916
 1004SOL     OW 3910   6.691   0.504   0.962
 1004SOL    HW1 3911   6.776   0.555   0.961
 1004SOL    HW2 3912   6.635   0.534   1.040
 1005SOL     OW 3913   0.226   1.299   3.257
 1005SOL    HW1 3914   0.225   1.207   3.216
 1005SOL    HW2 3915   0.320   1.334   3.258
 1006SOL     OW 3916   1.799   5.943   1.718
 1006SOL    HW1 3917   1.895   5.955   1.696
 1006SOL    HW2 3918   1.749   5.913   1.637
 1007SOL     OW 3919   6.074   0.446   4.257
 1007SOL    HW1 3920   6.095   0.401   4.171
 1007SOL    HW2 3921   6.154   0.497   4.289
 1008SOL     OW 3922   1.933   3.109   4.484
 1008SOL    HW1 3923   1.949   3.208   4.474
 1008SOL    HW2 3924   1.995   3.073   4.554
 1009SOL     OW 3925   0.274   6.426   4.084
 1009SOL    HW1 3926   0.258   6.447   4.181
 1009SOL    HW2 3927   0.244   6.503   4.028
 1010SOL     OW 3928   3.775   2.101   6.305
 1010SOL    HW1 3929   3.848   2.165   6.277
 1010SOL    HW2 3930   3.725   2.140   6.383
 1011SOL     OW 3931   2.809   5.236   2.553
 1011SOL    HW1 3932   2.874   5.208   2.481
 1011SOL    HW2 3933   2.719   5.249   2.513
 1012SOL     OW 3934   6.828   6.247   0.349
 1012SOL    HW1 3935   6.893   6.175   0.373
 1012SOL    HW2 3936   6.842   6.274   0.254
 1013SOL     OW 3937   0.355   1.020   6.330
 1013SOL    HW1 3938   0.325   1.094   6.389
 1013SOL    HW2 3939   0.277   0.961   6.308
 1014SOL     OW 3940   5.122   5.526   6.999
 1014SOL    HW1 3941   5.065   5.523   6.917
 1014SOL    HW2 3942   5.210   5.569   6.977
 1015SOL     OW 3943   1.976   6.692   5.144
 1015SOL    HW1 3944   1.940   6.705   5.236
 1015SOL    HW2 3945   1.917   6.630   5.093
 1016SOL     OW 3946   2.454   3.692   0.700
 1016SOL    HW1 3947   2.355   3.681   0.704
 1016SOL    HW2 3948   2.480   3.723   0.608
 1017SOL     OW 3949   4.594   2.599   0.617
 1017SOL    HW1 3950   4.502   2.637   0.635
 1017SOL    HW2 3951   4.634   2.645   0.538
 1018SOL     OW 3952   1.529   3.362   3.624
 1018SOL    HW1 3953   1.546   3.454   3.589
 1018SOL    HW2 3954   1.600   3.339   3.691
 1019SOL     OW 3955   1.655   0.819   0.505
 1019SOL    HW1 3956   1.745   0.790   0.475
 1019SOL    HW2 3957   1.644   0.917   0.488
 1020SOL     OW 3958   1.286   0.106   1.145
 1020SOL    HW1 3959   1.205   0.159   1.119
 1020SOL    HW2 3960   1.277   0.078   1.241
 1021SOL     OW 3961   6.148   0.477   0.761
 1021SOL    HW1 3962   6.188   0.402   0.813
 1021SOL    HW2 3963   6.143   0.451   0.664
 1022SOL     OW 3964   3.961   4.299   6.103
 1022SOL    HW1 3965   3.926   4.214   6.144
 1022SOL    HW2 3966   3.919   4.313   6.014
 1023SOL     OW 3967   6.060   0.086   1.884
 1023SOL    HW1 3968   5.985   0.099   1.819
 1023SOL    HW2 3969   6.053   7.016   1.925
 1024SOL     OW 3970   6.114   3.326   3.917
 1024SOL    HW1 3971   6.175   3.247   3.901
 1024SOL    HW2 3972   6.053   3.305   3.993
 1025SOL     OW 3973   3.527   4.141   0.925
 1025SOL    HW1 3974   3.478   4.223   0.898
 1025SOL    HW2 3975   3.607   4.166   0.981
 1026SOL     OW 3976   1.464   2.295   1.167
 1026SOL    HW1 3977   1.524   2.359   1.118
 1026SOL    HW2 3978   1.512   2.259   1.246
 1027SOL     OW 3979   2.532   6.455   0.873
 1027SOL    HW1 3980   2.475   6.466   0.954
 1027SOL    HW2 3981   2.533   6.359   0.845
 1028SOL     OW 3982   4.135   5.729   0.430
 1028SOL    HW1 3983   4.110   5.671   0.353
 1028SOL    HW2 3984   4.059   5.734   0.494
 1029SOL     OW 3985   1.864   0.221   0.281
 1029SOL    HW1 3986   1.767   0.241   0.264
 1029SOL    HW2 3987   1.871   0.135   0.331
 1030SOL     OW 3988   4.032   2.930   1.736
 1030SOL    HW1 3989   3.960   2.862   1.722
 1030SOL    HW2 3990   4.111   2.907   1.679
 1031SOL     OW 3991   4.958   5.431   0.407
 1031SOL    HW1 3992   4.904   5.347   0.410
 1031SOL    HW2 3993   4.928   5.494   0.478
 1032SOL     OW 3994   1.704   1.907   4.902
 1032SOL    HW1 3995   1.743   1.997   4.923
 1032SOL    HW2 3996   1.668   1.907   4.809
 1033SOL     OW 3997   1.512   6.624   1.463
 1033SOL    HW1 3998   1.602   6.639   1.505
 1033SOL    HW2 3999   1.458   6.708   1.469
 1034SOL     OW 4000   1.211   5.786   4.919
 1034SOL    HW1 4001   1.151   5.852   4.872
 1034SOL    HW2 4002   1.218   5.811   5.016
 1035SOL     OW 4003   2.662   1.611   3.558
 1035SOL    HW1 4004   2.609   1.630   3.641
 1035SOL    HW2 4005   2.755   1.585   3.583
 1036SOL     OW 4006   3.146   0.380   1.338
 1036SOL    HW1 4007   3.133   0.447   1.412
 1036SOL    HW2 4008   3.229   0.403   1.288
 1037SOL     OW 4009   2.138   0.829   1.566
 1037SOL    HW1 4010   2.202   0.753   1.552
 1037SOL    HW2 4011   2.189   0.915   1.564
 1038SOL     OW 4012   1.042   0.773   5.580
 1038SOL    HW1 4013   1.000   0.699   5.528
 1038SOL    HW2 4014   1.031   0.859   5.531
 1039SOL     OW 4015   4.208   3.059   5.771
 1039SOL    HW1 4016   4.245   3.127   5.835
 1039SOL    HW2 4017   4.117   3.087   5.742
 1040SOL     OW 4018   5.094   2.769   2.330
 1040SOL    HW1 4019   5.135   2.860   2.331
 1040SOL    HW2 4020   5.068   2.745   2.237
 1041SOL     OW 4021   6.814   0.035   4.350
 1041SOL    HW1 4022   6.900   0.082   4.374
 1041SOL    HW2 4023   6.768   0.086   4.277
 1042SOL     OW 4024   3.405   4.881   2.385
 1042SOL    HW1 4025   3.307   4.886   2.368
 1042SOL    HW2 4026   3.422   4.833   2.471
 1043SOL     OW 4027   4.498   1.203   5.688
 1043SOL    HW1 4028   4.573   1.265   5.667
 1043SOL    HW2 4029   4.508   1.120   5.632
 1044SOL     OW 4030   4.562   3.747   1.637
 1044SOL    HW1 4031   4.588   3.651   1.644
 1044SOL    HW2 4032   4.468   3.759   1.668
 1045SOL     OW 4033   2.841   6.557   1.974
 1045SOL    HW1 4034   2.790   6.585   2.056
 1045SOL    HW2 4035   2.863   6.460   1.980
 1046SOL     OW 4036   2.061   7.015   0.203
 1046SOL    HW1 4037   2.008   0.075   0.231
 1046SOL    HW2 4038   2.004   6.955   0.148
 1047SOL     OW 4039   1.443   6.037   2.586
 1047SOL    HW1 4040   1.405   6.031   2.679
 1047SOL    HW2 4041   1.408   5.962   2.531
 1048SOL     OW 4042   4.561   5.929   5.602
 1048SOL    HW1 4043   4.491   5.858   5.588
 1048SOL    HW2 4044   4.646   5.901   5.559
 1049SOL     OW 4045   6.734   4.681   4.669
 1049SOL    HW1 4046   6.674   4.759   4.686
 1049SOL    HW2 4047   6.705   4.604   4.725
 1050SOL     OW 4048   3.283   5.435   0.728
 1050SOL    HW1 4049   3.317   5.345   0.756
 1050SOL    HW2 4050   3.187   5.427   0.699
 1051SOL     OW 4051   3.358   5.197   0.208
 1051SOL    HW1 4052   3.381   5.167   0.115
 1051SOL    HW2 4053   3.358   5.297   0.211
 1052SOL     OW 4054   4.436   0.154   3.731
 1052SOL    HW1 4055   4.466   0.249   3.721
 1052SOL    HW2 4056   4.353   0.140   3.676
 1053SOL     OW 4057   5.101   5.662   3.120
 1053SOL    HW1 4058   5.076   5.602   3.196
 1053SOL    HW2 4059   5.081   5.757   3.143
 1054SOL     OW 4060   3.169   4.779   5.639
 1054SOL    HW1 4061   3.112   4.841   5.585
 1054SOL    HW2 4062   3.167   4.688   5.599
 1055SOL     OW 4063   5.716   7.007   4.161
 1055SOL    HW1 4064   5.789   0.050   4.186
 1055SOL    HW2 4065   5.745   6.913   4.181
 1056SOL     OW 4066   2.215   5.990   5.658
 1056SOL    HW1 4067   2.132   5.935   5.657
 1056SOL    HW2 4068   2.196   6.079   5.615
 1057SOL     OW 4069   3.221   3.602   2.457
 1057SOL    HW1 4070   3.182   3.512   2.439
 1057SOL    HW2 4071   3.154   3.672   2.432
 1058SOL     OW 4072   5.018   1.532   2.032
 1058SOL    HW1 4073   5.013   1.631   2.039
 1058SOL    HW2 4074   5.041   1.493   2.121
 1059SOL     OW 4075   2.505   0.723   1.360
 1059SOL    HW1 4076   2.478   0.677   1.276
 1059SOL    HW2 4077   2.598   0.696   1.385
 1060SOL     OW 4078   0.325   3.014   4.542
 1060SOL    HW1 4079   0.302   2.919   4.561
 1060SOL    HW2 4080   0.336   3.027   4.444
 1061SOL     OW 4081   4.771   3.858   1.495
 1061SOL    HW1 4082   4.692   3.810   1.535
 1061SOL    HW2 4083   4.854   3.831   1.543
 1062SOL     OW 4084   6.633   5.059   6.300
 1062SOL    HW1 4085   6.622   5.087   6.395
 1062SOL    HW2 4086   6.546   5.068   6.252
 1063SOL     OW 4087   1.182   4.373   1.355
 1063SOL    HW1 4088   1.203   4.424   1.438
 1063SOL    HW2 4089   1.262   4.373   1.295
 1064SOL     OW 4090   0.941   4.250   2.069
 1064SOL    HW1 4091   1.002   4.180   2.105
 1064SOL    HW2 4092   0.937   4.242   1.969
 1065SOL     OW 4093   4.892   0.518   4.710
 1065SOL    HW1 4094   4.958   0.514   4.635
 1065SOL    HW2 4095   4.887   0.611   4.746
 1066SOL     OW 4096   5.542   0.907   4.208
 1066SOL    HW1 4097   5.449   0.880   4.234
 1066SOL    HW2 4098   5.597   0.825   4.193
 1067SOL     OW 4099   1.497   2.616   0.514
 1067SOL    HW1 4100   1.587   2.575   0.495
 1067SOL    HW2 4101   1.427   2.545   0.510
 1068SOL     OW 4102   5.555   4.195   2.117
 1068SOL    HW1 4103   5.577   4.124   2.050
 1068SOL    HW2 4104   5.570   4.285   2.077
 1069SOL     OW 4105   5.112   5.134   1.279
 1069SOL    HW1 4106   5.016   5.159   1.272
 1069SOL    HW2 4107   5.148   5.163   1.367
 1070SOL     OW 4108   1.400   1.160   0.055
 1070SOL    HW1 4109   1.477   1.102   0.031
 1070SOL    HW2 4110   1.315   1.110   0.042
 1071SOL     OW 4111   3.660   0.146   3.146
 1071SOL    HW1 4112   3.718   0.096   3.211
 1071SOL    HW2 4113   3.602   0.083   3.097
 1072SOL     OW 4114   1.635   5.894   1.480
 1072SOL    HW1 4115   1.664   5.804   1.447
 1072SOL    HW2 4116   1.539   5.909   1.458
 1073SOL     OW 4117   3.570   5.714   2.809
 1073SOL    HW1 4118   3.653   5.767   2.823
 1073SOL    HW2 4119   3.503   5.768   2.758
 1074SOL     OW 4120   1.857   5.024   1.279
 1074SOL    HW1 4121   1.791   5.072   1.337
 1074SOL    HW2 4122   1.827   5.028   1.184
 1075SOL     OW 4123   4.717   5.885   3.386
 1075SOL    HW1 4124   4.740   5.788   3.380
 1075SOL    HW2 4125   4.618   5.896   3.386
 1076SOL     OW 4126   0.802   4.419   4.750
 1076SOL    HW1 4127   0.735   4.347   4.737
 1076SOL    HW2 4128   0.894   4.384   4.731
 1077SOL     OW 4129   6.310   6.688   0.274
 1077SOL    HW1 4130   6.224   6.641   0.297
 1077SOL    HW2 4131   6.361   6.706   0.358
 1078SOL     OW 4132   2.103   0.722   2.485
 1078SOL    HW1 4133   2.007   0.706   2.507
 1078SOL    HW2 4134   2.155   0.638   2.500
 1079SOL     OW 4135   2.106   5.572   2.772
 1079SOL    HW1 4136   2.023   5.577   2.717
 1079SOL    HW2 4137   2.183   5.545   2.713
 1080SOL     OW 4138   2.001   4.446   3.652
 1080SOL    HW1 4139   1.956   4.389   3.583
 1080SOL    HW2 4140   2.071   4.501   3.609
 1081SOL     OW 4141   0.310   0.593   5.052
 1081SOL    HW1 4142   0.283   0.686   5.078
 1081SOL    HW2 4143   0.309   0.534   5.133
 1082SOL     OW 4144   2.013   0.276   5.945
 1082SOL    HW1 4145   2.010   0.275   5.845
 1082SOL    HW2 4146   1.936   0.223   5.981
 1083SOL     OW 4147   3.929   3.865   1.342
 1083SOL    HW1 4148   3.962   3.952   1.306
 1083SOL    HW2 4149   3.832   3.874   1.368
 1084SOL     OW 4150   6.505   5.925   1.282
 1084SOL    HW1 4151   6.556   5.844   1.311
 1084SOL    HW2 4152   6.453   5.960   1.360
 1085SOL     OW 4153   2.066   4.700   3.509
 1085SOL    HW1 4154   2.159   4.676   3.536
 1085SOL    HW2 4155   2.061   4.705   3.409
 1086SOL     OW 4156   6.914   5.415   3.273
 1086SOL    HW1 4157   6.932   5.508   3.243
 1086SOL    HW2 4158   6.849   5.371   3.211
 1087SOL     OW 4159   5.264   2.627   5.691
 1087SOL    HW1 4160   5.308   2.558   5.633
 1087SOL    HW2 4161   5.289   2.609   5.787
 1088SOL     OW 4162   6.021   4.834   3.643
 1088SOL    HW1 4163   6.027   4.932   3.657
 1088SOL    HW2 4164   5.954   4.795   3.707
 1089SOL     OW 4165   1.017   6.815   5.007
 1089SOL    HW1 4166   0.931   6.842   5.049
 1089SOL    HW2 4167   1.034   6.873   4.927
 1090SOL     OW 4168   2.903   1.524   3.888
 1090SOL    HW1 4169   2.918   1.551   3.793
 1090SOL    HW2 4170   2.960   1.444   3.909
 1091SOL     OW 4171   1.793   2.622   4.492
 1091SOL    HW1 4172   1.888   2.596   4.475
 1091SOL    HW2 4173   1.790   2.684   4.571
 1092SOL     OW 4174   2.660   3.457   1.390
 1092SOL    HW1 4175   2.702   3.502   1.469
 1092SOL    HW2 4176   2.571   3.498   1.370
 1093SOL     OW 4177   2.206   2.120   3.026
 1093SOL    HW1 4178   2.263   2.200   3.007
 1093SOL    HW2 4179   2.113   2.151   3.049
 1094SOL     OW 4180   0.810   7.007   2.663
 1094SOL    HW1 4181   0.882   6.962   2.715
 1094SOL    HW2 4182   0.721   6.983   2.702
 1095SOL     OW 4183   6.533   2.101   5.927
 1095SOL    HW1 4184   6.470   2.160   5.876
 1095SOL    HW2 4185   6.501   2.093   6.022
 1096SOL     OW 4186   3.788   4.943   1.753
 1096SOL    HW1 4187   3.702   4.904   1.723
 1096SOL    HW2 4188   3.845   4.871   1.793
 1097SOL     OW 4189   0.857   4.642   4.201
 1097SOL    HW1 4190   0.794   4.602   4.268
 1097SOL    HW2 4191   0.870   4.577   4.125
 1098SOL     OW 4192   5.462   2.679   0.734
 1098SOL    HW1 4193   5.392   2.608   0.726
 1098SOL    HW2 4194   5.428   2.753   0.791
 1099SOL     OW 4195   4.358   1.054   4.742
 1099SOL    HW1 4196   4.326   1.109   4.819
 1099SOL    HW2 4197   4.280   1.031   4.683
 1100SOL     OW 4198   1.900   1.749   6.747
 1100SOL    HW1 4199   1.958   1.818   6.789
 1100SOL    HW2 4200   1.888   1.672   6.810
 1101SOL     OW 4201   5.365   2.899   0.901
 1101SOL    HW1 4202   5.386   2.986   0.945
 1101SOL    HW2 4203   5.389   2.824   0.963
 1102SOL     OW 4204   2.265   4.630   2.854
 1102SOL    HW1 4205   2.229   4.599   2.766
 1102SOL    HW2 4206   2.209   4.593   2.928
 1103SOL     OW 4207   2.892   1.111   1.085
 1103SOL    HW1 4208   2.962   1.119   1.014
 1103SOL    HW2 4209   2.816   1.055   1.051
 1104SOL     OW 4210   1.431   3.538   6.540
 1104SOL    HW1 4211   1.483   3.623   6.549
 1104SOL    HW2 4212   1.484   3.473   6.485
 1105SOL     OW 4213   4.819   3.749   5.867
 1105SOL    HW1 4214   4.897   3.687   5.870
 1105SOL    HW2 4215   4.806   3.782   5.773
 1106SOL     OW 4216   1.072   1.895   0.576
 1106SOL    HW1 4217   1.084   1.933   0.668
 1106SOL    HW2 4218   1.109   1.802   0.573
 1107SOL     OW 4219   0.689   0.688   6.542
 1107SOL    HW1 4220   0.625   0.765   6.533
 1107SOL    HW2 4221   0.638   0.606   6.568
 1108SOL     OW 4222   2.409   0.366   5.767
 1108SOL    HW1 4223   2.394   0.293   5.833
 1108SOL    HW2 4224   2.505   0.391   5.766
 1109SOL     OW 4225   4.445   5.662   4.831
 1109SOL    HW1 4226   4.533   5.624   4.861
 1109SOL    HW2 4227   4.449   5.761   4.835
 1110SOL     OW 4228   3.002   1.750   2.515
 1110SOL    HW1 4229   2.913   1.710   2.494
 1110SOL    HW2 4230   3.028   1.727   2.609
 1111SOL     OW 4231   5.833   6.252   0.442
 1111SOL    HW1 4232   5.831   6.169   0.498
 1111SOL    HW2 4233   5.744   6.296   0.443
 1112SOL     OW 4234   5.969   0.811   2.940
 1112SOL    HW1 4235   5.946   0.887   2.880
 1112SOL    HW2 4236   6.038   0.753   2.896
 1113SOL     OW 4237   6.129   3.096   2.494
 1113SOL    HW1 4238   6.162   3.049   2.577
 1113SOL    HW2 4239   6.029   3.099   2.496
 1114SOL     OW 4240   4.568   0.738   6.051
 1114SOL    HW1 4241   4.506   0.760   5.975
 1114SOL    HW2 4242   4.611   0.650   6.035
 1115SOL     OW 4243   3.779   3.276   6.677
 1115SOL    HW1 4244   3.741   3.279   6.585
 1115SOL    HW2 4245   3.879   3.278   6.673
 1116SOL     OW 4246   5.679   5.507   4.736
 1116SOL    HW1 4247   5.721   5.466   4.817
 1116SOL    HW2 4248   5.740   5.499   4.658
 1117SOL     OW 4249   2.861   2.644   1.170
 1117SOL    HW1 4250   2.888   2.628   1.075
 1117SOL    HW2 4251   2.853   2.557   1.218
 1118SOL     OW 4252   1.797   5.039   2.092
 1118SOL    HW1 4253   1.851   5.093   2.028
 1118SOL    HW2 4254   1.830   4.945   2.092
 1119SOL     OW 4255   3.698   4.212   1.388
 1119SOL    HW1 4256   3.717   4.174   1.478
 1119SOL    HW2 4257   3.613   4.171   1.352
 1120SOL     OW 4258   5.581   6.019   5.593
 1120SOL    HW1 4259   5.669   5.971   5.585
 1120SOL    HW2 4260   5.591   6.097   5.654
 1121SOL     OW 4261   4.990   3.905   2.677
 1121SOL    HW1 4262   5.025   3.953   2.597
 1121SOL    HW2 4263   4.968   3.971   2.749
 1122SOL     OW 4264   5.240   3.279   6.352
 1122SOL    HW1 4265   5.337   3.264   6.332
 1122SOL    HW2 4266   5.224   3.377   6.368
 1123SOL     OW 4267   4.785   1.485   2.562
 1123SOL    HW1 4268   4.771   1.453   2.468
 1123SOL    HW2 4269   4.761   1.582   2.568
 1124SOL     OW 4270   6.657   3.976   5.047
 1124SOL    HW1 4271   6.682   3.968   4.951
 1124SOL    HW2 4272   6.589   3.905   5.069
 1125SOL     OW 4273   2.234   1.426   4.809
 1125SOL    HW1 4274   2.315   1.485   4.803
 1125SOL    HW2 4275   2.247   1.345   4.751
 1126SOL     OW 4276   5.439   0.163   0.180
 1126SOL    HW1 4277   5.390   0.142   0.264
 1126SOL    HW2 4278   5.441   0.262   0.166
 1127SOL     OW 4279   4.174   5.213   5.506
 1127SOL    HW1 4280   4.166   5.199   5.605
 1127SOL    HW2 4281   4.083   5.217   5.465
 1128SOL     OW 4282   4.897   2.578   5.410
 1128SOL    HW1 4283   4.904   2.666   5.363
 1128SOL    HW2 4284   4.884   2.593   5.508
 1129SOL     OW 4285   4.049   6.871   0.274
 1129SOL    HW1 4286   4.093   6.956   0.245
 1129SOL    HW2 4287   4.103   6.793   0.242
 1130SOL     OW 4288   1.784   3.303   0.912
 1130SOL    HW1 4289   1.770   3.317   0.814
 1130SOL    HW2 4290   1.696   3.309   0.959
 1131SOL     OW 4291   0.786   6.425   5.931
 1131SOL    HW1 4292   0.845   6.505   5.918
 1131SOL    HW2 4293   0.842   6.344   5.948
 1132SOL     OW 4294   4.652   0.464   6.586
 1132SOL    HW1 4295   4.694   0.373   6.584
 1132SOL    HW2 4296   4.716   0.531   6.550
 1133SOL     OW 4297   6.625   1.947   0.342
 1133SOL    HW1 4298   6.530   1.943   0.312
 1133SOL    HW2 4299   6.684   1.966   0.264
 1134SOL     OW 4300   5.461   1.591   0.674
 1134SOL    HW1 4301   5.408   1.507   0.689
 1134SOL    HW2 4302   5.416   1.668   0.718
 1135SOL     OW 4303   2.738   1.473   2.627
 1135SOL    HW1 4304   2.692   1.562   2.634
 1135SOL    HW2 4305   2.705   1.425   2.546
 1136SOL     OW 4306   3.204   4.830   5.153
 1136SOL    HW1 4307   3.163   4.902   5.209
 1136SOL    HW2 4308   3.138   4.801   5.083
 1137SOL     OW 4309   0.726   3.280   0.025
 1137SOL    HW1 4310   0.646   3.234   0.062
 1137SOL    HW2 4311   0.804   3.218   0.026
 1138SOL     OW 4312   1.114   1.962   6.244
 1138SOL    HW1 4313   1.180   1.921   6.308
 1138SOL    HW2 4314   1.144   2.054   6.219
 1139SOL     OW 4315   2.123   6.728   1.664
 1139SOL    HW1 4316   2.047   6.681   1.621
 1139SOL    HW2 4317   2.200   6.733   1.600
 1140SOL     OW 4318   3.899   1.900   2.419
 1140SOL    HW1 4319   3.982   1.852   2.449
 1140SOL    HW2 4320   3.878   1.873   2.325
 1141SOL     OW 4321   6.438   5.482   6.381
 1141SOL    HW1 4322   6.348   5.479   6.336
 1141SOL    HW2 4323   6.442   5.561   6.442
 1142SOL     OW 4324   4.658   0.405   4.641
 1142SOL    HW1 4325   4.674   0.313   4.604
 1142SOL    HW2 4326   4.746   0.452   4.652
 1143SOL     OW 4327   2.863   2.039   2.442
 1143SOL    HW1 4328   2.767   2.033   2.471
 1143SOL    HW2 4329   2.905   1.948   2.446
 1144SOL     OW 4330   6.666   4.962   4.734
 1144SOL    HW1 4331   6.659   4.996   4.828
 1144SOL    HW2 4332   6.756   4.986   4.697
 1145SOL     OW 4333   0.167   4.581   3.372
 1145SOL    HW1 4334   0.159   4.485   3.397
 1145SOL    HW2 4335   0.077   4.619   3.353
 1146SOL     OW 4336   5.098   0.900   1.123
 1146SOL    HW1 4337   5.177   0.955   1.152
 1146SOL    HW2 4338   5.024   0.961   1.094
 1147SOL     OW 4339   0.887   4.550   0.314
 1147SOL    HW1 4340   0.791   4.532   0.338
 1147SOL    HW2 4341   0.931   4.599   0.389
 1148SOL     OW 4342   2.930   6.798   0.596
 1148SOL    HW1 4343   3.007   6.742   0.628
 1148SOL    HW2 4344   2.943   6.821   0.500
 1149SOL     OW 4345   5.411   3.832   3.015
 1149SOL    HW1 4346   5.454   3.754   3.060
 1149SOL    HW2 4347   5.328   3.803   2.967
 1150SOL     OW 4348   1.675   3.956   1.209
 1150SOL    HW1 4349   1.646   3.866   1.177
 1150SOL    HW2 4350   1.629   4.026   1.155
 1151SOL     OW 4351   5.171   5.713   6.701
 1151SOL    HW1 4352   5.084   5.676   6.736
 1151SOL    HW2 4353   5.207   5.651   6.631
 1152SOL     OW 4354   0.913   6.477   5.261
 1152SOL    HW1 4355   0.853   6.500   5.338
 1152SOL    HW2 4356   0.861   6.431   5.190
 1153SOL     OW 4357   2.379   6.776   2.039
 1153SOL    HW1 4358   2.354   6.733   2.125
 1153SOL    HW2 4359   2.310   6.844   2.014
 1154SOL     OW 4360   0.155   3.352   2.076
 1154SOL    HW1 4361   0.193   3.260   2.090
 1154SOL    HW2 4362   0.110   3.356   1.987
 1155SOL     OW 4363   3.558   5.319   6.620
 1155SOL    HW1 4364   3.501   5.348   6.543
 1155SOL    HW2 4365   3.612   5.240   6.594
 1156SOL     OW 4366   2.241   0.465   4.365
 1156SOL    HW1 4367   2.292   0.533   4.419
 1156SOL    HW2 4368   2.193   0.403   4.427
 1157SOL     OW 4369   5.868   1.959   4.440
 1157SOL    HW1 4370   5.847   2.019   4.517
 1157SOL    HW2 4371   5.875   2.014   4.357
 1158SOL     OW 4372   6.536   5.499   5.879
 1158SOL    HW1 4373   6.455   5.553   5.903
 1158SOL    HW2 4374   6.572   5.455   5.962
 1159SOL     OW 4375   4.961   0.669   2.925
 1159SOL    HW1 4376   4.975   0.570   2.925
 1159SOL    HW2 4377   4.863   0.689   2.924
 1160SOL     OW 4378   3.514   3.864   1.649
 1160SOL    HW1 4379   3.499   3.924   1.728
 1160SOL    HW2 4380   3.457   3.783   1.657
 1161SOL     OW 4381   4.933   0.243   5.297
 1161SOL    HW1 4382   4.966   0.308   5.365
 1161SOL    HW2 4383   4.871   0.177   5.341
 1162SOL     OW 4384   4.050   2.958   0.697
 1162SOL    HW1 4385   3.959   2.971   0.734
 1162SOL    HW2 4386   4.107   2.908   0.762
 1163SOL     OW 4387   5.712   2.819   1.964
 1163SOL    HW1 4388   5.671   2.893   2.018
 1163SOL    HW2 4389   5.660   2.808   1.879
 1164SOL     OW 4390   5.326   2.745   3.907
 1164SOL    HW1 4391   5.247   2.748   3.967
 1164SOL    HW2 4392   5.314   2.810   3.832
 1165SOL     OW 4393   1.967   4.592   3.916
 1165SOL    HW1 4394   1.942   4.675   3.866
 1165SOL    HW2 4395   1.929   4.512   3.869
 1166SOL     OW 4396   4.104   0.895   0.033
 1166SOL    HW1 4397   4.038   0.821   0.021
 1166SOL    HW2 4398   4.140   0.922   6.964
 1167SOL     OW 4399   2.798   0.363   6.653
 1167SOL    HW1 4400   2.782   0.268   6.627
 1167SOL    HW2 4401   2.850   0.366   6.739
 1168SOL     OW 4402   5.956   6.905   2.402
 1168SOL    HW1 4403   5.982   6.907   2.305
 1168SOL    HW2 4404   6.016   6.967   2.454
 1169SOL     OW 4405   6.796   3.301   0.277
 1169SOL    HW1 4406   6.739   3.309   0.359
 1169SOL    HW2 4407   6.893   3.309   0.303
 1170SOL     OW 4408   4.445   0.764   2.031
 1170SOL    HW1 4409   4.452   0.665   2.019
 1170SOL    HW2 4410   4.500   0.792   2.109
 1171SOL     OW 4411   2.337   5.567   0.594
 1171SOL    HW1 4412   2.396   5.572   0.675
 1171SOL    HW2 4413   2.379   5.507   0.526
 1172SOL     OW 4414   3.609   3.997   3.181
 1172SOL    HW1 4415   3.612   4.018   3.279
 1172SOL    HW2 4416   3.520   4.024   3.144
 1173SOL     OW 4417   3.007   0.090   6.042
 1173SOL    HW1 4418   3.050   0.059   6.126
 1173SOL    HW2 4419   3.047   0.177   6.013
 1174SOL     OW 4420   3.024   5.439   0.681
 1174SOL    HW1 4421   3.032   5.529   0.637
 1174SOL    HW2 4422   2.951   5.387   0.637
 1175SOL     OW 4423   4.709   3.463   6.950
 1175SOL    HW1 4424   4.652   3.454   0.012
 1175SOL    HW2 4425   4.683   3.546   6.900
 1176SOL     OW 4426   5.851   4.577   0.581
 1176SOL    HW1 4427   5.815   4.557   0.489
 1176SOL    HW2 4428   5.794   4.531   0.649
 1177SOL     OW 4429   0.172   1.531   5.468
 1177SOL    HW1 4430   0.080   1.504   5.441
 1177SOL    HW2 4431   0.178   1.631   5.475
 1178SOL     OW 4432   4.154   3.487   1.325
 1178SOL    HW1 4433   4.136   3.483   1.423
 1178SOL    HW2 4434   4.093   3.423   1.277
 1179SOL     OW 4435   3.269   5.195   0.487
 1179SOL    HW1 4436   3.280   5.250   0.404
 1179SOL    HW2 4437   3.172   5.172   0.500
 1180SOL     OW 4438   2.818   0.469   3.482
 1180SOL    HW1 4439   2.884   0.430   3.546
 1180SOL    HW2 4440   2.759   0.534   3.530
 1181SOL     OW 4441   0.387   3.065   4.811
 1181SOL    HW1 4442   0.347   3.016   4.734
 1181SOL    HW2 4443   0.474   3.105   4.784
 1182SOL     OW 4444   1.917   4.879   3.065
 1182SOL    HW1 4445   1.827   4.859   3.102
 1182SOL    HW2 4446   1.987   4.829   3.116
 1183SOL     OW 4447   3.988   5.306   2.692
 1183SOL    HW1 4448   3.895   5.321   2.660
 1183SOL    HW2 4449   4.032   5.237   2.635
 1184SOL     OW 4450   3.673   1.788   5.057
 1184SOL    HW1 4451   3.594   1.782   5.118
 1184SOL    HW2 4452   3.751   1.826   5.107
 1185SOL     OW 4453   2.163   0.152   0.451
 1185SOL    HW1 4454   2.209   0.145   0.540
 1185SOL    HW2 4455   2.064   0.160   0.465
 1186SOL     OW 4456   6.196   6.602   6.019
 1186SOL    HW1 4457   6.264   6.568   5.954
 1186SOL    HW2 4458   6.235   6.601   6.111
 1187SOL     OW 4459   5.851   5.955   5.070
 1187SOL    HW1 4460   5.916   6.011   5.019
 1187SOL    HW2 4461   5.762   5.957   5.025
 1188SOL     OW 4462   3.116   0.045   6.267
 1188SOL    HW1 4463   3.186   0.092   6.322
 1188SOL    HW2 4464   3.107   6.971   6.298
 1189SOL     OW 4465   5.409   1.121   2.056
 1189SOL    HW1 4466   5.507   1.123   2.037
 1189SOL    HW2 4467   5.359   1.157   1.977
 1190SOL     OW 4468   4.324   4.913   4.682
 1190SOL    HW1 4469   4.296   4.863   4.600
 1190SOL    HW2 4470   4.325   4.851   4.761
 1191SOL     OW 4471   3.821   5.503   5.343
 1191SOL    HW1 4472   3.890   5.492   5.415
 1191SOL    HW2 4473   3.830   5.593   5.302
 1192SOL     OW 4474   5.746   4.942   3.393
 1192SOL    HW1 4475   5.811   4.982   3.329
 1192SOL    HW2 4476   5.658   4.929   3.348
 1193SOL     OW 4477   6.734   0.635   4.332
 1193SOL    HW1 4478   6.724   0.557   4.271
 1193SOL    HW2 4479   6.827   0.672   4.324
 1194SOL     OW 4480   0.104   1.585   0.975
 1194SOL    HW1 4481   0.023   1.538   1.009
 1194SOL    HW2 4482   0.120   1.669   1.027
 1195SOL     OW 4483   6.136   1.994   0.616
 1195SOL    HW1 4484   6.229   1.980   0.583
 1195SOL    HW2 4485   6.093   2.070   0.568
 1196SOL     OW 4486   0.264   4.752   2.092
 1196SOL    HW1 4487   0.357   4.789   2.086
 1196SOL    HW2 4488   0.224   4.777   2.180
 1197SOL     OW 4489   3.745   5.952   5.587
 1197SOL    HW1 4490   3.666   6.008   5.610
 1197SOL    HW2 4491   3.717   5.878   5.525
 1198SOL     OW 4492   2.130   2.601   2.328
 1198SOL    HW1 4493   2.088   2.525   2.279
 1198SOL    HW2 4494   2.177   2.661   2.263
 1199SOL     OW 4495   3.791   2.928   2.920
 1199SOL    HW1 4496   3.746   2.891   2.839
 1199SOL    HW2 4497   3.728   2.926   2.998
 1200SOL     OW 4498   4.157   3.408   5.063
 1200SOL    HW1 4499   4.128   3.493   5.107
 1200SOL    HW2 4500   4.124   3.407   4.968
 1201SOL     OW 4501   0.481   1.167   4.238
 1201SOL    HW1 4502   0.516   1.236   4.174
 1201SOL    HW2 4503   0.551   1.096   4.252
 1202SOL     OW 4504   6.209   0.755   5.629
 1202SOL    HW1 4505   6.254   0.687   5.687
 1202SOL    HW2 4506   6.124   0.786   5.673
 1203SOL     OW 4507   5.619   6.838   1.052
 1203SOL    HW1 4508   5.700   6.896   1.055
 1203SOL    HW2 4509   5.629   6.763   1.117
 1204SOL     OW 4510   3.976   1.133   0.066
 1204SOL    HW1 4511   4.037   1.055   0.057
 1204SOL    HW2 4512   3.884   1.101   0.090
 1205SOL     OW 4513   4.277   3.493   6.183
 1205SOL    HW1 4514   4.185   3.469   6.215
 1205SOL    HW2 4515   4.332   3.526   6.260
 1206SOL     OW 4516   1.310   2.128   5.050
 1206SOL    HW1 4517   1.259   2.048   5.083
 1206SOL    HW2 4518   1.394   2.137   5.102
 1207SOL     OW 4519   0.155   6.780   0.959
 1207SOL    HW1 4520   0.119   6.779   0.866
 1207SOL    HW2 4521   0.146   6.688   0.999
 1208SOL     OW 4522   3.520   4.149   2.391
 1208SOL    HW1 4523   3.524   4.227   2.454
 1208SOL    HW2 4524   3.429   4.107   2.396
 1209SOL     OW 4525   5.762   6.797   4.533
 1209SOL    HW1 4526   5.837   6.804   4.467
 1209SOL    HW2 4527   5.718   6.886   4.545
 1210SOL     OW 4528   4.570   6.600   3.370
 1210SOL    HW1 4529   4.517   6.548   3.436
 1210SOL    HW2 4530   4.510   6.661   3.319
 1211SOL     OW 4531   1.780   3.623   2.992
 1211SOL    HW1 4532   1.697   3.649   2.943
 1211SOL    HW2 4533   1.772   3.529   3.024
 1212SOL     OW 4534   6.773   1.963   5.873
 1212SOL    HW1 4535   6.815   1.927   5.957
 1212SOL    HW2 4536   6.688   2.011   5.896
 1213SOL     OW 4537   5.747   3.237   4.875
 1213SOL    HW1 4538   5.833   3.286   4.885
 1213SOL    HW2 4539   5.676   3.281   4.930
 1214SOL     OW 4540   1.013   3.282   4.842
 1214SOL    HW1 4541   1.026   3.201   4.785
 1214SOL    HW2 4542   1.037   3.260   4.937
 1215SOL     OW 4543   1.878   4.801   2.077
 1215SOL    HW1 4544   1.867   4.721   2.137
 1215SOL    HW2 4545   1.854   4.776   1.983
 1216SOL     OW 4546   0.569   0.151   1.288
 1216SOL    HW1 4547   0.532   0.091   1.216
 1216SOL    HW2 4548   0.636   0.101   1.342
 1217SOL     OW 4549   2.093   6.216   0.676
 1217SOL    HW1 4550   2.079   6.188   0.771
 1217SOL    HW2 4551   2.007   6.249   0.638
 1218SOL     OW 4552   0.531   3.543   4.840
 1218SOL    HW1 4553   0.581   3.611   4.894
 1218SOL    HW2 4554   0.447   3.517   4.889
 1219SOL     OW 4555   4.501   4.720   1.390
 1219SOL    HW1 4556   4.571   4.681   1.450
 1219SOL    HW2 4557   4.519   4.694   1.295
 1220SOL     OW 4558   5.100   3.825   2.910
 1220SOL    HW1 4559   5.077   3.771   2.829
 1220SOL    HW2 4560   5.131   3.916   2.881
 1221SOL     OW 4561   5.673   3.990   6.549
 1221SOL    HW1 4562   5.730   3.909   6.565
 1221SOL    HW2 4563   5.584   3.962   6.512
 1222SOL     OW 4564   0.093   0.441   0.664
 1222SOL    HW1 4565   0.139   0.399   0.743
 1222SOL    HW2 4566   7.015   0.441   0.680
 1223SOL     OW 4567   5.053   0.906   0.701
 1223SOL    HW1 4568   4.972   0.964   0.702
 1223SOL    HW2 4569   5.065   0.867   0.610
 1224SOL     OW 4570   3.398   5.946   0.268
 1224SOL    HW1 4571   3.489   5.976   0.240
 1224SOL    HW2 4572   3.406   5.883   0.346
 1225SOL     OW 4573   4.159   2.676   1.134
 1225SOL    HW1 4574   4.085   2.711   1.192
 1225SOL    HW2 4575   4.141   2.581   1.111
 1226SOL     OW 4576   5.248   6.438   1.056
 1226SOL    HW1 4577   5.211   6.515   1.109
 1226SOL    HW2 4578   5.180   6.365   1.052
 1227SOL     OW 4579   6.039   5.248   5.893
 1227SOL    HW1 4580   5.984   5.187   5.949
 1227SOL    HW2 4581   6.120   5.277   5.944
 1228SOL     OW 4582   3.670   3.191   0.536
 1228SOL    HW1 4583   3.664   3.234   0.446
 1228SOL    HW2 4584   3.644   3.094   0.528
 1229SOL     OW 4585   1.708   6.626   1.659
 1229SOL    HW1 4586   1.627   6.621   1.716
 1229SOL    HW2 4587   1.780   6.676   1.707
 1230SOL     OW 4588   5.388   5.868   2.967
 1230SOL    HW1 4589   5.469   5.890   2.912
 1230SOL    HW2 4590   5.366   5.771   2.955
 1231SOL     OW 4591   1.321   2.467   6.098
 1231SOL    HW1 4592   1.274   2.379   6.097
 1231SOL    HW2 4593   1.392   2.465   6.168
 1232SOL     OW 4594   4.822   0.971   5.109
 1232SOL    HW1 4595   4.850   1.037   5.039
 1232SOL    HW2 4596   4.821   1.015   5.198
 1233SOL     OW 4597   1.244   5.429   3.477
 1233SOL    HW1 4598   1.240   5.504   3.412
 1233SOL    HW2 4599   1.338   5.417   3.509
 1234SOL     OW 4600   6.976   2.237   6.270
 1234SOL    HW1 4601   6.979   2.333   6.296
 1234SOL    HW2 4602   6.920   2.227   6.187
 1235SOL     OW 4603   6.509   4.710   0.035
 1235SOL    HW1 4604   6.444   4.635   0.025
 1235SOL    HW2 4605   6.459   4.796   0.044
 1236SOL     OW 4606   3.771   2.116   0.637
 1236SOL    HW1 4607   3.733   2.204   0.607
 1236SOL    HW2 4608   3.869   2.126   0.652
 1237SOL     OW 4609   1.715   6.242   4.958
 1237SOL    HW1 4610   1.628   6.285   4.933
 1237SOL    HW2 4611   1.744   6.181   4.884
 1238SOL     OW 4612   0.486   6.886   3.578
 1238SOL    HW1 4613   0.438   6.799   3.578
 1238SOL    HW2 4614   0.584   6.871   3.565
 1239SOL     OW 4615   6.601   5.761   4.261
 1239SOL    HW1 4616   6.639   5.702   4.332
 1239SOL    HW2 4617   6.674   5.814   4.219
 1240SOL     OW 4618   5.975   5.007   2.245
 1240SOL    HW1 4619   5.882   5.002   2.281
 1240SOL    HW2 4620   5.974   4.995   2.146
 1241SOL     OW 4621   0.422   4.389   4.769
 1241SOL    HW1 4622   0.474   4.421   4.848
 1241SOL    HW2 4623   0.352   4.457   4.747
 1242SOL     OW 4624   2.241   3.542   0.338
 1242SOL    HW1 4625   2.257   3.633   0.300
 1242SOL    HW2 4626   2.317   3.517   0.398
 1243SOL     OW 4627   0.541   1.689   4.678
 1243SOL    HW1 4628   0.489   1.774   4.676
 1243SOL    HW2 4629   0.523   1.641   4.764
 1244SOL     OW 4630   5.375   6.967   5.445
 1244SOL    HW1 4631   5.430   0.031   5.443
 1244SOL    HW2 4632   5.331   6.954   5.356
 1245SOL     OW 4633   5.180   5.842   1.246
 1245SOL    HW1 4634   5.171   5.904   1.168
 1245SOL    HW2 4635   5.127   5.877   1.323
 1246SOL     OW 4636   3.803   0.930   2.242
 1246SOL    HW1 4637   3.857   0.856   2.283
 1246SOL    HW2 4638   3.753   0.895   2.163
 1247SOL     OW 4639   6.058   0.056   4.745
 1247SOL    HW1 4640   6.157   0.045   4.744
 1247SOL    HW2 4641   6.034   0.150   4.722
 1248SOL     OW 4642   1.083   6.243   3.734
 1248SOL    HW1 4643   1.083   6.223   3.832
 1248SOL    HW2 4644   1.008   6.306   3.713
 1249SOL     OW 4645   0.073   4.676   1.898
 1249SOL    HW1 4646   0.088   4.710   1.806
 1249SOL    HW2 4647   0.158   4.682   1.950
 1250SOL     OW 4648   6.475   2.998   4.351
 1250SOL    HW1 4649   6.449   2.956   4.438
 1250SOL    HW2 4650   6.553   3.058   4.365
 1251SOL     OW 4651   2.380   0.543   2.601
 1251SOL    HW1 4652   2.370   0.627   2.654
 1251SOL    HW2 4653   2.334   0.468   2.647
 1252SOL     OW 4654   3.068   5.458   6.638
 1252SOL    HW1 4655   3.135   5.533   6.637
 1252SOL    HW2 4656   3.061   5.420   6.730
 1253SOL     OW 4657   2.729   0.679   1.600
 1253SOL    HW1 4658   2.666   0.626   1.657
 1253SOL    HW2 4659   2.731   0.773   1.632
 1254SOL     OW 4660   6.050   2.399   3.303
 1254SOL    HW1 4661   6.020   2.481   3.352
 1254SOL    HW2 4662   6.150   2.397   3.302
 1255SOL     OW 4663   5.727   2.831   5.357
 1255SOL    HW1 4664   5.724   2.735   5.384
 1255SOL    HW2 4665   5.663   2.884   5.412
 1256SOL     OW 4666   7.004   6.132   2.969
 1256SOL    HW1 4667   0.025   6.103   2.882
 1256SOL    HW2 4668   6.924   6.189   2.950
 1257SOL     OW 4669   0.318   4.577   4.131
 1257SOL    HW1 4670   0.258   4.535   4.199
 1257SOL    HW2 4671   0.392   4.513   4.107
 1258SOL     OW 4672   2.442   5.810   2.982
 1258SOL    HW1 4673   2.368   5.853   2.931
 1258SOL    HW2 4674   2.407   5.730   3.032
 1259SOL     OW 4675   3.399   6.499   5.299
 1259SOL    HW1 4676   3.484   6.551   5.300
 1259SOL    HW2 4677   3.348   6.520   5.216
 1260SOL     OW 4678   3.417   1.030   1.444
 1260SOL    HW1 4679   3.492   1.028   1.510
 1260SOL    HW2 4680   3.447   1.076   1.360
 1261SOL     OW 4681   6.999   3.835   0.022
 1261SOL    HW1 4682   6.980   3.923   6.998
 1261SOL    HW2 4683   6.957   3.761   6.989
 1262SOL     OW 4684   4.612   4.928   1.079
 1262SOL    HW1 4685   4.710   4.949   1.086
 1262SOL    HW2 4686   4.600   4.828   1.082
 1263SOL     OW 4687   6.677   1.847   0.595
 1263SOL    HW1 4688   6.640   1.757   0.620
 1263SOL    HW2 4689   6.688   1.852   0.496
 1264SOL     OW 4690   0.791   4.045   2.447
 1264SOL    HW1 4691   0.858   4.025   2.518
 1264SOL    HW2 4692   0.740   3.962   2.424
 1265SOL     OW 4693   6.463   4.809   3.207
 1265SOL    HW1 4694   6.423   4.780   3.294
 1265SOL    HW2 4695   6.432   4.749   3.134
 1266SOL     OW 4696   2.427   0.713   3.912
 1266SOL    HW1 4697   2.397   0.805   3.940
 1266SOL    HW2 4698   2.429   0.708   3.812
 1267SOL     OW 4699   5.725   5.657   1.381
 1267SOL    HW1 4700   5.816   5.699   1.370
 1267SOL    HW2 4701   5.660   5.727   1.409
 1268SOL     OW 4702   4.721   2.180   6.736
 1268SOL    HW1 4703   4.741   2.267   6.691
 1268SOL    HW2 4704   4.793   2.114   6.715
 1269SOL     OW 4705   5.617   6.010   5.247
 1269SOL    HW1 4706   5.640   5.951   5.324
 1269SOL    HW2 4707   5.665   6.098   5.257
 1270SOL     OW 4708   2.168   3.782   4.338
 1270SOL    HW1 4709   2.173   3.808   4.434
 1270SOL    HW2 4710   2.189   3.860   4.280
 1271SOL     OW 4711   3.334   1.866   3.347
 1271SOL    HW1 4712   3.279   1.882   3.429
 1271SOL    HW2 4713   3.288   1.905   3.267
 1272SOL     OW 4714   0.081   6.020   1.234
 1272SOL    HW1 4715   0.013   6.081   1.274
 1272SOL    HW2 4716   0.106   5.949   1.301
 1273SOL     OW 4717   1.641   4.283   7.001
 1273SOL    HW1 4718   1.651   4.257   6.905
 1273SOL    HW2 4719   1.587   4.367   7.007
 1274SOL     OW 4720   6.569   3.192   1.733
 1274SOL    HW1 4721   6.635   3.155   1.668
 1274SOL    HW2 4722   6.518   3.267   1.690
 1275SOL     OW 4723   3.902   0.121   3.423
 1275SOL    HW1 4724   3.894   0.218   3.446
 1275SOL    HW2 4725   3.968   0.110   3.348
 1276SOL     OW 4726   6.966   0.501   3.499
 1276SOL    HW1 4727   7.011   0.554   3.570
 1276SOL    HW2 4728   6.867   0.512   3.506
 1277SOL     OW 4729   0.412   0.466   4.552
 1277SOL    HW1 4730   0.431   0.368   4.561
 1277SOL    HW2 4731   0.458   0.516   4.624
 1278SOL     OW 4732   1.476   1.099   5.270
 1278SOL    HW1 4733   1.428   1.176   5.311
 1278SOL    HW2 4734   1.565   1.088   5.315
 1279SOL     OW 4735   2.107   6.795   0.374
 1279SOL    HW1 4736   2.190   6.742   0.392
 1279SOL    HW2 4737   2.132   6.884   0.337
 1280SOL     OW 4738   2.530   6.216   3.577
 1280SOL    HW1 4739   2.553   6.229   3.480
 1280SOL    HW2 4740   2.541   6.303   3.625
 1281SOL     OW 4741   0.764   5.612   2.838
 1281SOL    HW1 4742   0.757   5.606   2.938
 1281SOL    HW2 4743   0.808   5.697   2.812
 1282SOL     OW 4744   0.562   1.099   0.541
 1282SOL    HW1 4745   0.567   1.037   0.463
 1282SOL    HW2 4746   0.639   1.082   0.602
 1283SOL     OW 4747   5.321   2.747   5.029
 1283SOL    HW1 4748   5.276   2.754   5.118
 1283SOL    HW2 4749   5.379   2.665   5.028
 1284SOL     OW 4750   3.527   3.480   1.651
 1284SOL    HW1 4751   3.576   3.420   1.588
 1284SOL    HW2 4752   3.495   3.561   1.601
 1285SOL     OW 4753   5.675   3.497   6.377
 1285SOL    HW1 4754   5.756   3.522   6.324
 1285SOL    HW2 4755   5.655   3.569   6.443
 1286SOL     OW 4756   5.227   4.557   2.673
 1286SOL    HW1 4757   5.157   4.560   2.745
 1286SOL    HW2 4758   5.182   4.552   2.584
 1287SOL     OW 4759   5.033   4.161   6.161
 1287SOL    HW1 4760   4.989   4.213   6.087
 1287SOL    HW2 4761   5.053   4.069   6.128
 1288SOL     OW 4762   6.245   3.610   1.042
 1288SOL    HW1 4763   6.184   3.622   1.120
 1288SOL    HW2 4764   6.326   3.560   1.072
 1289SOL     OW 4765   0.427   6.234   1.933
 1289SOL    HW1 4766   0.449   6.260   2.027
 1289SOL    HW2 4767   0.329   6.220   1.924
 1290SOL     OW 4768   1.010   0.746   0.165
 1290SOL    HW1 4769   1.018   0.742   0.066
 1290SOL    HW2 4770   0.914   0.757   0.191
 1291SOL     OW 4771   0.662   3.699   5.766
 1291SOL    HW1 4772   0.569   3.672   5.742
 1291SOL    HW2 4773   0.727   3.633   5.728
 1292SOL     OW 4774   6.304   5.084   2.478
 1292SOL    HW1 4775   6.354   5.171   2.474
 1292SOL    HW2 4776   6.285   5.051   2.386
 1293SOL     OW 4777   2.435   1.417   6.443
 1293SOL    HW1 4778   2.447   1.420   6.344
 1293SOL    HW2 4779   2.475   1.333   6.479
 1294SOL     OW 4780   0.959   3.364   1.000
 1294SOL    HW1 4781   0.971   3.441   1.064
 1294SOL    HW2 4782   0.879   3.311   1.027
 1295SOL     OW 4783   6.545   3.619   2.589
 1295SOL    HW1 4784   6.586   3.559   2.520
 1295SOL    HW2 4785   6.462   3.576   2.625
 1296SOL     OW 4786   4.008   0.207   5.275
 1296SOL    HW1 4787   4.096   0.252   5.290
 1296SOL    HW2 4788   3.990   0.144   5.350
 1297SOL     OW 4789   5.867   0.775   6.085
 1297SOL    HW1 4790   5.797   0.823   6.137
 1297SOL    HW2 4791   5.951   0.771   6.138
 1298SOL     OW 4792   6.339   3.561   3.132
 1298SOL    HW1 4793   6.366   3.503   3.055
 1298SOL    HW2 4794   6.418   3.615   3.162
 1299SOL     OW 4795   0.922   3.654   2.763
 1299SOL    HW1 4796   0.929   3.615   2.672
 1299SOL    HW2 4797   0.925   3.754   2.757
 1300SOL     OW 4798   3.250   3.998   2.021
 1300SOL    HW1 4799   3.337   3.995   2.072
 1300SOL    HW2 4800   3.208   3.907   2.023
 1301SOL     OW 4801   0.534   6.259   2.592
 1301SOL    HW1 4802   0.585   6.175   2.581
 1301SOL    HW2 4803   0.596   6.337   2.589
 1302SOL     OW 4804   3.077   0.165   4.896
 1302SOL    HW1 4805   3.061   0.068   4.915
 1302SOL    HW2 4806   3.120   0.208   4.976
 1303SOL     OW 4807   4.629   2.109   0.696
 1303SOL    HW1 4808   4.641   2.122   0.794
 1303SOL    HW2 4809   4.551   2.162   0.664
 1304SOL     OW 4810   1.466   1.430   6.669
 1304SOL    HW1 4811   1.465   1.501   6.599
 1304SOL    HW2 4812   1.474   1.340   6.626
 1305SOL     OW 4813   5.681   5.028   6.542
 1305SOL    HW1 4814   5.595   5.070   6.571
 1305SOL    HW2 4815   5.755   5.058   6.603
 1306SOL     OW 4816   0.866   4.564   5.191
 1306SOL    HW1 4817   0.936   4.634   5.207
 1306SOL    HW2 4818   0.893   4.507   5.114
 1307SOL     OW 4819   1.411   2.294   4.833
 1307SOL    HW1 4820   1.414   2.217   4.769
 1307SOL    HW2 4821   1.356   2.268   4.913
 1308SOL     OW 4822   4.456   5.375   4.648
 1308SOL    HW1 4823   4.413   5.286   4.665
 1308SOL    HW2 4824   4.418   5.443   4.710
 1309SOL     OW 4825   5.536   3.095   5.447
 1309SOL    HW1 4826   5.484   3.031   5.390
 1309SOL    HW2 4827   5.553   3.179   5.396
 1310SOL     OW 4828   6.827   3.768   5.173
 1310SOL    HW1 4829   6.822   3.838   5.102
 1310SOL    HW2 4830   6.781   3.801   5.256
 1311SOL     OW 4831   6.681   6.608   3.994
 1311SOL    HW1 4832   6.675   6.608   4.094
 1311SOL    HW2 4833   6.651   6.519   3.959
 1312SOL     OW 4834   0.956   0.607   6.701
 1312SOL    HW1 4835   0.871   0.614   6.647
 1312SOL    HW2 4836   0.981   0.511   6.711
 1313SOL     OW 4837   1.613   5.063   5.302
 1313SOL    HW1 4838   1.584   5.044   5.208
 1313SOL    HW2 4839   1.596   4.982   5.358
 1314SOL     OW 4840   2.660   1.945   5.666
 1314SOL    HW1 4841   2.568   1.959   5.630
 1314SOL    HW2 4842   2.655   1.898   5.755
 1315SOL     OW 4843   0.732   0.806   0.188
 1315SOL    HW1 4844   0.690   0.782   0.100
 1315SOL    HW2 4845   0.786   0.889   0.178
 1316SOL     OW 4846   1.996   6.794   3.590
 1316SOL    HW1 4847   1.967   6.890   3.598
 1316SOL    HW2 4848   2.027   6.762   3.680
 1317SOL     OW 4849   0.881   3.792   4.393
 1317SOL    HW1 4850   0.955   3.785   4.459
 1317SOL    HW2 4851   0.795   3.764   4.436
 1318SOL     OW 4852   6.776   0.619   0.496
 1318SOL    HW1 4853   6.801   0.694   0.558
 1318SOL    HW2 4854   6.679   0.626   0.473
 1319SOL     OW 4855   6.368   1.512   7.008
 1319SOL    HW1 4856   6.282   1.487   0.033
 1319SOL    HW2 4857   6.348   1.572   6.930
 1320SOL     OW 4858   6.246   3.979   0.519
 1320SOL    HW1 4859   6.317   4.048   0.532
 1320SOL    HW2 4860   6.281   3.890   0.547
 1321SOL     OW 4861   4.504   2.499   6.304
 1321SOL    HW1 4862   4.468   2.494   6.397
 1321SOL    HW2 4863   4.428   2.503   6.239
 1322SOL     OW 4864   5.180   1.081   3.454
 1322SOL    HW1 4865   5.184   1.033   3.542
 1322SOL    HW2 4866   5.135   1.022   3.386
 1323SOL     OW 4867   5.490   1.669   5.232
 1323SOL    HW1 4868   5.448   1.753   5.198
 1323SOL    HW2 4869   5.417   1.603   5.254
 1324SOL     OW 4870   1.168   3.170   1.593
 1324SOL    HW1 4871   1.148   3.201   1.686
 1324SOL    HW2 4872   1.244   3.106   1.595
 1325SOL     OW 4873   1.979   6.973   2.280
 1325SOL    HW1 4874   2.038   7.006   2.206
 1325SOL    HW2 4875   2.006   7.017   2.366
 1326SOL     OW 4876   5.220   3.108   4.784
 1326SOL    HW1 4877   5.219   3.009   4.795
 1326SOL    HW2 4878   5.172   3.133   4.699
 1327SOL     OW 4879   3.063   4.869   3.236
 1327SOL    HW1 4880   3.131   4.855   3.164
 1327SOL    HW2 4881   3.107   4.860   3.326
 1328SOL     OW 4882   1.147   2.796   1.055
 1328SOL    HW1 4883   1.115   2.755   1.141
 1328SOL    HW2 4884   1.075   2.855   1.018
 1329SOL     OW 4885   6.899   2.134   0.329
 1329SOL    HW1 4886   6.917   2.035   0.333
 1329SOL    HW2 4887   6.873   2.167   0.420
 1330SOL     OW 4888   6.467   0.985   1.173
 1330SOL    HW1 4889   6.421   0.966   1.087
 1330SOL    HW2 4890   6.566   0.980   1.160
 1331SOL     OW 4891   4.471   2.146   3.062
 1331SOL    HW1 4892   4.468   2.214   3.135
 1331SOL    HW2 4893   4.431   2.061   3.094
 1332SOL     OW 4894   3.616   0.096   0.188
 1332SOL    HW1 4895   3.653   0.009   0.156
 1332SOL    HW2 4896   3.668   0.171   0.148
 1333SOL     OW 4897   3.739   3.604   5.983
 1333SOL    HW1 4898   3.691   3.524   5.947
 1333SOL    HW2 4899   3.817   3.626   5.925
 1334SOL     OW 4900   0.012   2.521   4.888
 1334SOL    HW1 4901   6.986   2.559   4.809
 1334SOL    HW2 4902   0.107   2.497   4.864
 1335SOL     OW 4903   2.979   6.586   2.956
 1335SOL    HW1 4904   2.962   6.670   3.008
 1335SOL    HW2 4905   2.904   6.572   2.891
 1336SOL     OW 4906   1.534   1.503   6.359
 1336SOL    HW1 4907   1.620   1.533   6.317
 1336SOL    HW2 4908   1.473   1.467   6.289
 1337SOL     OW 4909   0.805   1.532   4.974
 1337SOL    HW1 4910   0.852   1.525   4.886
 1337SOL    HW2 4911   0.708   1.553   4.958
 1338SOL     OW 4912   4.524   2.976   5.738
 1338SOL    HW1 4913   4.596   2.930   5.789
 1338SOL    HW2 4914   4.441   2.982   5.794
 1339SOL     OW 4915   0.461   6.746   0.271
 1339SOL    HW1 4916   0.471   6.764   0.173
 1339SOL    HW2 4917   0.422   6.655   0.284
 1340SOL     OW 4918   1.011   1.383   2.217
 1340SOL    HW1 4919   0.968   1.399   2.128
 1340SOL    HW2 4920   1.040   1.471   2.256
 1341SOL     OW 4921   4.101   0.115   5.775
 1341SOL    HW1 4922   4.181   0.098   5.832
 1341SOL    HW2 4923   4.032   0.045   5.794
 1342SOL     OW 4924   1.693   4.651   5.888
 1342SOL    HW1 4925   1.741   4.578   5.937
 1342SOL    HW2 4926   1.598   4.655   5.919
 1343SOL     OW 4927   3.619   6.211   2.209
 1343SOL    HW1 4928   3.641   6.302   2.174
 1343SOL    HW2 4929   3.669   6.142   2.156
 1344SOL     OW 4930   6.999   3.927   3.661
 1344SOL    HW1 4931   0.078   3.919   3.674
 1344SOL    HW2 4932   6.952   3.888   3.741
 1345SOL     OW 4933   1.237   1.918   3.520
 1345SOL    HW1 4934   1.139   1.931   3.539
 1345SOL    HW2 4935   1.275   2.003   3.484
 1346SOL     OW 4936   1.499   0.074   3.255
 1346SOL    HW1 4937   1.589   0.060   3.213
 1346SOL    HW2 4938   1.483   0.171   3.270
 1347SOL     OW 4939   6.337   6.561   3.737
 1347SOL    HW1 4940   6.261   6.625   3.723
 1347SOL    HW2 4941   6.365   6.564   3.833
 1348SOL     OW 4942   5.949   5.883   3.182
 1348SOL    HW1 4943   5.918   5.788   3.194
 1348SOL    HW2 4944   6.015   5.906   3.254
 1349SOL     OW 4945   4.854   2.855   6.452
 1349SOL    HW1 4946   4.908   2.827   6.373
 1349SOL    HW2 4947   4.833   2.953   6.445
 1350SOL     OW 4948   3.719   4.640   0.037
 1350SOL    HW1 4949   3.686   4.556   7.015
 1350SOL    HW2 4950   3.656   4.667   0.111
 1351SOL     OW 4951   0.403   2.013   2.861
 1351SOL    HW1 4952   0.454   2.066   2.794
 1351SOL    HW2 4953   0.464   1.949   2.907
 1352SOL     OW 4954   0.786   0.936   3.029
 1352SOL    HW1 4955   0.753   0.901   3.117
 1352SOL    HW2 4956   0.804   0.859   2.967
 1353SOL     OW 4957   6.314   4.172   5.914
 1353SOL    HW1 4958   6.333   4.203   5.821
 1353SOL    HW2 4959   6.299   4.073   5.914
 1354SOL     OW 4960   0.348   2.283   0.236
 1354SOL    HW1 4961   0.251   2.305   0.231
 1354SOL    HW2 4962   0.396   2.355   0.286
 1355SOL     OW 4963   5.841   2.974   5.725
 1355SOL    HW1 4964   5.872   3.039   5.795
 1355SOL    HW2 4965   5.869   2.881   5.752
 1356SOL     OW 4966   3.155   3.626   3.951
 1356SOL    HW1 4967   3.116   3.601   4.040
 1356SOL    HW2 4968   3.083   3.626   3.882
 1357SOL     OW 4969   2.057   3.881   5.763
 1357SOL    HW1 4970   2.024   3.789   5.742
 1357SOL    HW2 4971   2.051   3.938   5.681
 1358SOL     OW 4972   3.776   1.401   5.906
 1358SOL    HW1 4973   3.727   1.382   5.991
 1358SOL    HW2 4974   3.746   1.338   5.835
 1359SOL     OW 4975   6.913   4.846   1.240
 1359SOL    HW1 4976   6.829   4.901   1.238
 1359SOL    HW2 4977   6.936   4.818   1.147
 1360SOL     OW 4978   4.013   3.793   2.587
 1360SOL    HW1 4979   4.072   3.751   2.656
 1360SOL    HW2 4980   3.940   3.844   2.633
 1361SOL     OW 4981   6.855   6.986   6.224
 1361SOL    HW1 4982   6.762   7.020   6.212
 1361SOL    HW2 4983   6.854   6.886   6.221
 1362SOL     OW 4984   3.012   3.841   4.270
 1362SOL    HW1 4985   3.001   3.912   4.340
 1362SOL    HW2 4986   2.992   3.752   4.310
 1363SOL     OW 4987   6.322   5.939   3.728
 1363SOL    HW1 4988   6.330   5.998   3.648
 1363SOL    HW2 4989   6.347   5.846   3.704
 1364SOL     OW 4990   0.508   2.475   0.352
 1364SOL    HW1 4991   0.574   2.423   0.406
 1364SOL    HW2 4992   0.536   2.474   0.256
 1365SOL     OW 4993   0.733   3.435   5.623
 1365SOL    HW1 4994   0.675   3.487   5.561
 1365SOL    HW2 4995   0.829   3.455   5.603
 1366SOL     OW 4996   0.386   4.311   0.975
 1366SOL    HW1 4997   0.311   4.249   0.953
 1366SOL    HW2 4998   0.436   4.275   1.054
 1367SOL     OW 4999   1.105   5.719   2.571
 1367SOL    HW1 5000   1.188   5.767   2.542
 1367SOL    HW2 5001   1.090   5.736   2.668
 1368SOL     OW 5002   0.160   0.829   4.072
 1368SOL    HW1 5003   0.213   0.757   4.118
 1368SOL    HW2 5004   0.220   0.907   4.053
 1369SOL     OW 5005   2.582   6.555   2.552
 1369SOL    HW1 5006   2.631   6.491   2.493
 1369SOL    HW2 5007   2.642   6.633   2.573
 1370SOL     OW 5008   5.592   2.329   3.858
 1370SOL    HW1 5009   5.495   2.308   3.867
 1370SOL    HW2 5010   5.605   2.412   3.804
 1371SOL     OW 5011   4.678   1.724   4.927
 1371SOL    HW1 5012   4.660   1.815   4.964
 1371SOL    HW2 5013   4.770   1.694   4.955
 1372SOL     OW 5014   0.321   2.349   0.846
 1372SOL    HW1 5015   0.268   2.264   0.847
 1372SOL    HW2 5016   0.418   2.327   0.839
 1373SOL     OW 5017   4.651   2.356   7.006
 1373SOL    HW1 5018   4.553   2.351   0.003
 1373SOL    HW2 5019   4.669   2.355   6.908
 1374SOL     OW 5020   4.995   3.717   0.239
 1374SOL    HW1 5021   4.967   3.632   0.193
 1374SOL    HW2 5022   5.090   3.709   0.267
 1375SOL     OW 5023   0.313   6.866   6.711
 1375SOL    HW1 5024   0.270   6.782   6.742
 1375SOL    HW2 5025   0.341   6.920   6.790
 1376SOL     OW 5026   3.474   4.676   5.598
 1376SOL    HW1 5027   3.440   4.688   5.504
 1376SOL    HW2 5028   3.525   4.758   5.625
 1377SOL     OW 5029   1.183   3.537   3.546
 1377SOL    HW1 5030   1.205   3.627   3.581
 1377SOL    HW2 5031   1.100   3.542   3.490
 1378SOL     OW 5032   5.604   2.675   5.563
 1378SOL    HW1 5033   5.568   2.582   5.573
 1378SOL    HW2 5034   5.557   2.736   5.626
 1379SOL     OW 5035   4.098   5.619   3.427
 1379SOL    HW1 5036   4.191   5.583   3.421
 1379SOL    HW2 5037   4.035   5.545   3.452
 1380SOL     OW 5038   0.167   5.945   3.516
 1380SOL    HW1 5039   0.266   5.953   3.527
 1380SOL    HW2 5040   0.145   5.858   3.471
 1381SOL     OW 5041   5.615   1.883   0.080
 1381SOL    HW1 5042   5.583   1.909   0.171
 1381SOL    HW2 5043   5.664   1.960   0.039
 1382SOL     OW 5044   5.147   3.287   1.184
 1382SOL    HW1 5045   5.085   3.227   1.236
 1382SOL    HW2 5046   5.105   3.311   1.097
 1383SOL     OW 5047   1.012   0.402   1.566
 1383SOL    HW1 5048   1.107   0.370   1.570
 1383SOL    HW2 5049   0.971   0.394   1.657
 1384SOL     OW 5050   4.669   6.784   2.114
 1384SOL    HW1 5051   4.766   6.767   2.099
 1384SOL    HW2 5052   4.653   6.809   2.209
 1385SOL     OW 5053   2.812   4.814   3.828
 1385SOL    HW1 5054   2.826   4.841   3.732
 1385SOL    HW2 5055   2.900   4.815   3.876
 1386SOL     OW 5056   3.138   0.653   3.810
 1386SOL    HW1 5057   3.080   0.677   3.888
 1386SOL    HW2 5058   3.112   0.709   3.731
 1387SOL     OW 5059   3.844   5.555   3.110
 1387SOL    HW1 5060   3.828   5.654   3.102
 1387SOL    HW2 5061   3.940   5.540   3.133
 1388SOL     OW 5062   6.564   0.226   2.003
 1388SOL    HW1 5063   6.616   0.193   2.082
 1388SOL    HW2 5064   6.483   0.169   1.991
 1389SOL     OW 5065   6.369   0.994   4.475
 1389SOL    HW1 5066   6.389   0.917   4.537
 1389SOL    HW2 5067   6.292   0.970   4.416
 1390SOL     OW 5068   0.239   3.944   6.767
 1390SOL    HW1 5069   0.326   3.910   6.803
 1390SOL    HW2 5070   0.169   3.874   6.781
 1391SOL     OW 5071   6.573   6.471   5.002
 1391SOL    HW1 5072   6.665   6.433   4.997
 1391SOL    HW2 5073   6.545   6.502   4.911
 1392SOL     OW 5074   5.680   6.135   5.992
 1392SOL    HW1 5075   5.636   6.057   6.037
 1392SOL    HW2 5076   5.681   6.213   6.055
 1393SOL     OW 5077   6.597   4.804   5.113
 1393SOL    HW1 5078   6.543   4.766   5.037
 1393SOL    HW2 5079   6.540   4.807   5.195
 1394SOL     OW 5080   3.633   4.783   5.901
 1394SOL    HW1 5081   3.604   4.840   5.824
 1394SOL    HW2 5082   3.557   4.772   5.965
 1395SOL     OW 5083   2.435   4.345   5.543
 1395SOL    HW1 5084   2.466   4.296   5.461
 1395SOL    HW2 5085   2.500   4.417   5.565
 1396SOL     OW 5086   0.938   1.018   4.974
 1396SOL    HW1 5087   0.863   1.067   5.019
 1396SOL    HW2 5088   0.941   1.042   4.877
 1397SOL     OW 5089   0.205   0.089   3.499
 1397SOL    HW1 5090   0.134   0.023   3.474
 1397SOL    HW2 5091   0.202   0.105   3.598
 1398SOL     OW 5092   3.014   0.677   6.444
 1398SOL    HW1 5093   3.072   0.754   6.418
 1398SOL    HW2 5094   2.964   0.644   6.364
 1399SOL     OW 5095   3.979   5.434   0.430
 1399SOL    HW1 5096   3.960   5.336   0.432
 1399SOL    HW2 5097   4.061   5.452   0.377
 1400SOL     OW 5098   0.415   1.794   3.378
 1400SOL    HW1 5099   0.402   1.734   3.299
 1400SOL    HW2 5100   0.329   1.802   3.428
 1401SOL     OW 5101   6.147   0.898   4.892
 1401SOL    HW1 5102   6.172   0.804   4.869
 1401SOL    HW2 5103   6.230   0.955   4.896
 1402SOL     OW 5104   6.616   3.851   6.359
 1402SOL    HW1 5105   6.587   3.946   6.357
 1402SOL    HW2 5106   6.545   3.793   6.318
 1403SOL     OW 5107   2.595   2.502   1.466
 1403SOL    HW1 5108   2.545   2.537   1.387
 1403SOL    HW2 5109   2.549   2.530   1.550
 1404SOL     OW 5110   6.332   6.846   0.747
 1404SOL    HW1 5111   6.403   6.916   0.754
 1404SOL    HW2 5112   6.243   6.890   0.731
 1405SOL     OW 5113   2.709   3.502   1.117
 1405SOL    HW1 5114   2.645   3.456   1.055
 1405SOL    HW2 5115   2.694   3.470   1.211
 1406SOL     OW 5116   0.488   5.678   0.708
 1406SOL    HW1 5117   0.588   5.677   0.696
 1406SOL    HW2 5118   0.466   5.670   0.805
 1407SOL     OW 5119   0.087   2.471   2.422
 1407SOL    HW1 5120   0.146   2.414   2.480
 1407SOL    HW2 5121   7.012   2.454   2.445
 1408SOL     OW 5122   5.630   1.401   6.080
 1408SOL    HW1 5123   5.614   1.498   6.061
 1408SOL    HW2 5124   5.707   1.391   6.142
 1409SOL     OW 5125   6.846   0.297   5.054
 1409SOL    HW1 5126   6.878   0.305   5.148
 1409SOL    HW2 5127   6.859   0.384   5.007
 1410SOL     OW 5128   1.137   3.722   6.419
 1410SOL    HW1 5129   1.069   3.653   6.448
 1410SOL    HW2 5130   1.225   3.677   6.403
 1411SOL     OW 5131   3.255   6.616   1.274
 1411SOL    HW1 5132   3.274   6.560   1.194
 1411SOL    HW2 5133   3.177   6.675   1.256
 1412SOL     OW 5134   0.597   2.327   0.971
 1412SOL    HW1 5135   0.628   2.232   0.958
 1412SOL    HW2 5136   0.669   2.390   0.941
 1413SOL     OW 5137   1.251   2.081   5.374
 1413SOL    HW1 5138   1.218   2.074   5.468
 1413SOL    HW2 5139   1.176   2.061   5.310
 1414SOL     OW 5140   2.780   1.503   1.825
 1414SOL    HW1 5141   2.772   1.600   1.802
 1414SOL    HW2 5142   2.846   1.460   1.763
 1415SOL     OW 5143   2.495   1.322   4.330
 1415SOL    HW1 5144   2.406   1.354   4.362
 1415SOL    HW2 5145   2.483   1.268   4.247
 1416SOL     OW 5146   5.275   5.221   4.618
 1416SOL    HW1 5147   5.212   5.210   4.541
 1416SOL    HW2 5148   5.360   5.264   4.585
 1417SOL     OW 5149   3.040   2.086   0.230
 1417SOL    HW1 5150   3.075   2.173   0.263
 1417SOL    HW2 5151   2.953   2.065   0.273
 1418SOL     OW 5152   3.375   4.022   3.027
 1418SOL    HW1 5153   3.385   3.947   2.962
 1418SOL    HW2 5154   3.366   4.108   2.977
 1419SOL     OW 5155   2.786   5.867   4.889
 1419SOL    HW1 5156   2.821   5.777   4.919
 1419SOL    HW2 5157   2.767   5.923   4.970
 1420SOL     OW 5158   2.883   6.641   1.694
 1420SOL    HW1 5159   2.863   6.620   1.789
 1420SOL    HW2 5160   2.910   6.737   1.686
 1421SOL     OW 5161   2.218   4.915   3.720
 1421SOL    HW1 5162   2.212   5.012   3.744
 1421SOL    HW2 5163   2.204   4.905   3.622
 1422SOL     OW 5164   1.287   3.822   0.904
 1422SOL    HW1 5165   1.243   3.758   0.840
 1422SOL    HW2 5166   1.385   3.803   0.908
 1423SOL     OW 5167   5.261   6.674   3.463
 1423SOL    HW1 5168   5.254   6.708   3.557
 1423SOL    HW2 5169   5.339   6.612   3.456
 1424SOL     OW 5170   6.404   5.085   6.161
 1424SOL    HW1 5171   6.322   5.028   6.161
 1424SOL    HW2 5172   6.437   5.095   6.067
 1425SOL     OW 5173   1.739   5.537   5.264
 1425SOL    HW1 5174   1.714   5.454   5.213
 1425SOL    HW2 5175   1.656   5.586   5.290
 1426SOL     OW 5176   1.444   3.654   6.152
 1426SOL    HW1 5177   1.518   3.666   6.086
 1426SOL    HW2 5178   1.480   3.666   6.245
 1427SOL     OW 5179   0.514   0.261   3.569
 1427SOL    HW1 5180   0.468   0.194   3.626
 1427SOL    HW2 5181   0.452   0.293   3.498
 1428SOL     OW 5182   6.778   3.719   0.286
 1428SOL    HW1 5183   6.797   3.817   0.283
 1428SOL    HW2 5184   6.680   3.704   0.290
 1429SOL     OW 5185   4.215   1.838   6.571
 1429SOL    HW1 5186   4.205   1.924   6.619
 1429SOL    HW2 5187   4.310   1.806   6.577
 1430SOL     OW 5188   1.406   4.834   3.482
 1430SOL    HW1 5189   1.422   4.838   3.581
 1430SOL    HW2 5190   1.313   4.802   3.465
 1431SOL     OW 5191   2.690   1.964   0.769
 1431SOL    HW1 5192   2.789   1.967   0.779
 1431SOL    HW2 5193   2.665   1.997   0.677
 1432SOL     OW 5194   2.380   1.621   2.422
 1432SOL    HW1 5195   2.361   1.530   2.459
 1432SOL    HW2 5196   2.314   1.686   2.460
 1433SOL     OW 5197   4.539   0.970   5.075
 1433SOL    HW1 5198   4.638   0.978   5.070
 1433SOL    HW2 5199   4.502   1.045   5.131
 1434SOL     OW 5200   0.268   6.997   5.518
 1434SOL    HW1 5201   0.178   0.020   5.522
 1434SOL    HW2 5202   0.273   6.925   5.587
 1435SOL     OW 5203   6.304   0.075   2.870
 1435SOL    HW1 5204   6.371   0.135   2.826
 1435SOL    HW2 5205   6.316   0.079   2.969
 1436SOL     OW 5206   5.127   4.029   6.561
 1436SOL    HW1 5207   5.079   4.052   6.476
 1436SOL    HW2 5208   5.062   4.022   6.636
 1437SOL     OW 5209   2.974   2.213   4.324
 1437SOL    HW1 5210   2.902   2.168   4.272
 1437SOL    HW2 5211   3.038   2.258   4.261
 1438SOL     OW 5212   2.457   6.180   1.113
 1438SOL    HW1 5213   2.466   6.279   1.115
 1438SOL    HW2 5214   2.521   6.142   1.046
 1439SOL     OW 5215   6.434   5.731   1.500
 1439SOL    HW1 5216   6.520   5.715   1.453
 1439SOL    HW2 5217   6.407   5.827   1.489
 1440SOL     OW 5218   3.265   2.842   0.044
 1440SOL    HW1 5219   3.168   2.857   0.064
 1440SOL    HW2 5220   3.288   2.746   0.063
 1441SOL     OW 5221   6.679   0.472   4.088
 1441SOL    HW1 5222   6.759   0.423   4.052
 1441SOL    HW2 5223   6.620   0.500   4.012
 1442SOL     OW 5224   0.438   5.565   6.675
 1442SOL    HW1 5225   0.451   5.501   6.750
 1442SOL    HW2 5226   0.347   5.608   6.683
 1443SOL     OW 5227   0.436   3.260   4.320
 1443SOL    HW1 5228   0.489   3.324   4.265
 1443SOL    HW2 5229   0.484   3.172   4.325
 1444SOL     OW 5230   4.897   5.641   0.591
 1444SOL    HW1 5231   4.812   5.690   0.573
 1444SOL    HW2 5232   4.891   5.595   0.680
 1445SOL     OW 5233   1.441   2.681   3.050
 1445SOL    HW1 5234   1.503   2.757   3.070
 1445SOL    HW2 5235   1.372   2.675   3.123
 1446SOL     OW 5236   6.105   1.790   0.253
 1446SOL    HW1 5237   6.062   1.879   0.235
 1446SOL    HW2 5238   6.160   1.763   0.175
 1447SOL     OW 5239   5.731   6.409   4.356
 1447SOL    HW1 5240   5.729   6.315   4.387
 1447SOL    HW2 5241   5.641   6.435   4.321
 1448SOL     OW 5242   7.019   2.407   5.360
 1448SOL    HW1 5243   0.009   2.384   5.263
 1448SOL    HW2 5244   0.084   2.447   5.394
 1449SOL     OW 5245   1.340   2.709   6.407
 1449SOL    HW1 5246   1.253   2.703   6.359
 1449SOL    HW2 5247   1.356   2.803   6.436
 1450SOL     OW 5248   0.543   2.254   1.251
 1450SOL    HW1 5249   0.464   2.194   1.263
 1450SOL    HW2 5250   0.563   2.263   1.154
 1451SOL     OW 5251   0.892   6.884   2.426
 1451SOL    HW1 5252   0.852   6.937   2.501
 1451SOL    HW2 5253   0.989   6.906   2.419
 1452SOL     OW 5254   4.278   1.684   5.044
 1452SOL    HW1 5255   4.350   1.617   5.024
 1452SOL    HW2 5256   4.249   1.728   4.959
 1453SOL     OW 5257   0.257   3.938   5.864
 1453SOL    HW1 5258   0.331   3.955   5.799
 1453SOL    HW2 5259   0.184   4.005   5.849
 1454SOL     OW 5260   0.625   2.929   2.127
 1454SOL    HW1 5261   0.678   2.888   2.053
 1454SOL    HW2 5262   0.644   3.027   2.131
 1455SOL     OW 5263   1.399   0.414   1.350
 1455SOL    HW1 5264   1.442   0.351   1.286
 1455SOL    HW2 5265   1.371   0.365   1.432
 1456SOL     OW 5266   6.516   6.934   6.015
 1456SOL    HW1 5267   6.517   6.994   6.095
 1456SOL    HW2 5268   6.421   6.917   5.987
 1457SOL     OW 5269   0.450   6.712   1.392
 1457SOL    HW1 5270   0.467   6.633   1.450
 1457SOL    HW2 5271   0.364   6.756   1.419
 1458SOL     OW 5272   5.665   5.202   4.592
 1458SOL    HW1 5273   5.637   5.159   4.506
 1458SOL    HW2 5274   5.672   5.301   4.578
 1459SOL     OW 5275   3.852   6.184   6.076
 1459SOL    HW1 5276   3.914   6.139   6.140
 1459SOL    HW2 5277   3.822   6.119   6.006
 1460SOL     OW 5278   0.154   0.178   5.108
 1460SOL    HW1 5279   0.099   0.101   5.077
 1460SOL    HW2 5280   0.231   0.145   5.162
 1461SOL     OW 5281   6.364   4.231   3.138
 1461SOL    HW1 5282   6.415   4.303   3.185
 1461SOL    HW2 5283   6.323   4.169   3.205
 1462SOL     OW 5284   1.868   0.705   0.148
 1462SOL    HW1 5285   1.810   0.651   0.210
 1462SOL    HW2 5286   1.946   0.741   0.198
 1463SOL     OW 5287   0.253   5.161   6.397
 1463SOL    HW1 5288   0.186   5.099   6.438
 1463SOL    HW2 5289   0.207   5.240   6.358
 1464SOL     OW 5290   7.016   5.997   2.170
 1464SOL    HW1 5291   0.051   6.057   2.228
 1464SOL    HW2 5292   0.006   5.902   2.201
 1465SOL     OW 5293   1.870   0.453   3.698
 1465SOL    HW1 5294   1.913   0.498   3.620
 1465SOL    HW2 5295   1.827   0.522   3.757
 1466SOL     OW 5296   2.438   2.132   1.912
 1466SOL    HW1 5297   2.463   2.095   1.823
 1466SOL    HW2 5298   2.502   2.205   1.937
 1467SOL     OW 5299   1.834   1.451   3.060
 1467SOL    HW1 5300   1.875   1.495   2.980
 1467SOL    HW2 5301   1.906   1.420   3.122
 1468SOL     OW 5302   2.844   5.857   2.744
 1468SOL    HW1 5303   2.892   5.896   2.665
 1468SOL    HW2 5304   2.802   5.770   2.718
 1469SOL     OW 5305   0.426   0.464   2.127
 1469SOL    HW1 5306   0.518   0.501   2.140
 1469SOL    HW2 5307   0.432   0.376   2.081
 1470SOL     OW 5308   1.199   1.932   2.767
 1470SOL    HW1 5309   1.291   1.951   2.733
 1470SOL    HW2 5310   1.202   1.918   2.866
 1471SOL     OW 5311   0.709   0.301   0.781
 1471SOL    HW1 5312   0.610   0.304   0.798
 1471SOL    HW2 5313   0.726   0.320   0.684
 1472SOL     OW 5314   2.560   5.441   5.356
 1472SOL    HW1 5315   2.486   5.481   5.302
 1472SOL    HW2 5316   2.550   5.469   5.452
 1473SOL     OW 5317   3.841   5.180   5.090
 1473SOL    HW1 5318   3.830   5.089   5.050
 1473SOL    HW2 5319   3.752   5.214   5.121
 1474SOL     OW 5320   5.692   4.977   2.199
 1474SOL    HW1 5321   5.641   4.909   2.146
 1474SOL    HW2 5322   5.636   5.007   2.276
 1475SOL     OW 5323   5.565   0.743   1.600
 1475SOL    HW1 5324   5.526   0.652   1.587
 1475SOL    HW2 5325   5.660   0.744   1.568
 1476SOL     OW 5326   3.204   0.820   0.968
 1476SOL    HW1 5327   3.163   0.833   1.058
 1476SOL    HW2 5328   3.143   0.767   0.910
 1477SOL     OW 5329   2.928   6.830   6.040
 1477SOL    HW1 5330   2.894   6.922   6.023
 1477SOL    HW2 5331   3.028   6.828   6.031
 1478SOL     OW 5332   6.130   5.346   5.412
 1478SOL    HW1 5333   6.229   5.339   5.415
 1478SOL    HW2 5334   6.103   5.419   5.349
 1479SOL     OW 5335   2.066   2.456   0.792
 1479SOL    HW1 5336   2.111   2.438   0.705
 1479SOL    HW2 5337   2.063   2.555   0.807
 1480SOL     OW 5338   3.479   0.781   4.924
 1480SOL    HW1 5339   3.453   0.863   4.874
 1480SOL    HW2 5340   3.498   0.804   5.019
 1481SOL     OW 5341   6.210   2.722   6.807
 1481SOL    HW1 5342   6.301   2.763   6.819
 1481SOL    HW2 5343   6.179   2.684   6.894
 1482SOL     OW 5344   4.841   1.346   1.742
 1482SOL    HW1 5345   4.842   1.446   1.738
 1482SOL    HW2 5346   4.920   1.315   1.796
 1483SOL     OW 5347   5.001   2.141   6.034
 1483SOL    HW1 5348   5.038   2.049   6.036
 1483SOL    HW2 5349   4.987   2.174   6.128
 1484SOL     OW 5350   4.927   4.984   4.147
 1484SOL    HW1 5351   4.856   4.962   4.214
 1484SOL    HW2 5352   4.913   4.931   4.064
 1485SOL     OW 5353   3.887   0.803   4.407
 1485SOL    HW1 5354   3.883   0.751   4.493
 1485SOL    HW2 5355   3.833   0.887   4.417
 1486SOL     OW 5356   5.900   0.661   2.592
 1486SOL    HW1 5357   5.998   0.664   2.573
 1486SOL    HW2 5358   5.852   0.729   2.537
 1487SOL     OW 5359   0.291   2.396   6.989
 1487SOL    HW1 5360   0.281   2.443   0.057
 1487SOL    HW2 5361   0.358   2.323   6.998
 1488SOL     OW 5362   5.909   0.485   3.859
 1488SOL    HW1 5363   5.908   0.545   3.939
 1488SOL    HW2 5364   5.816   0.479   3.822
 1489SOL     OW 5365   4.328   4.589   5.873
 1489SOL    HW1 5366   4.370   4.635   5.951
 1489SOL    HW2 5367   4.230   4.578   5.890
 1490SOL     OW 5368   0.886   3.512   1.406
 1490SOL    HW1 5369   0.867   3.414   1.401
 1490SOL    HW2 5370   0.805   3.560   1.439
 1491SOL     OW 5371   5.893   4.701   2.557
 1491SOL    HW1 5372   5.885   4.699   2.458
 1491SOL    HW2 5373   5.942   4.620   2.589
 1492SOL     OW 5374   6.328   0.641   2.497
 1492SOL    HW1 5375   6.307   0.561   2.553
 1492SOL    HW2 5376   6.403   0.619   2.434
 1493SOL     OW 5377   3.776   6.690   6.151
 1493SOL    HW1 5378   3.848   6.759   6.157
 1493SOL    HW2 5379   3.775   6.635   6.234
 1494SOL     OW 5380   4.947   2.230   6.278
 1494SOL    HW1 5381   4.877   2.299   6.294
 1494SOL    HW2 5382   4.953   2.169   6.356
 1495SOL     OW 5383   0.607   3.574   5.404
 1495SOL    HW1 5384   0.612   3.492   5.346
 1495SOL    HW2 5385   0.513   3.606   5.409
 1496SOL     OW 5386   0.307   1.693   1.207
 1496SOL    HW1 5387   0.359   1.649   1.134
 1496SOL    HW2 5388   0.363   1.701   1.289
 1497SOL     OW 5389   5.203   3.136   2.538
 1497SOL    HW1 5390   5.190   3.080   2.619
 1497SOL    HW2 5391   5.130   3.204   2.532
 1498SOL     OW 5392   2.690   4.695   6.630
 1498SOL    HW1 5393   2.781   4.653   6.630
 1498SOL    HW2 5394   2.684   4.762   6.556
 1499SOL     OW 5395   0.724   2.483   5.331
 1499SOL    HW1 5396   0.752   2.399   5.378
 1499SOL    HW2 5397   0.715   2.557   5.397
 1500SOL     OW 5398   6.931   0.290   0.087
 1500SOL    HW1 5399   6.913   0.334   0.175
 1500SOL    HW2 5400   7.019   0.320   0.052
 1501SOL     OW 5401   4.979   2.280   6.779
 1501SOL    HW1 5402   5.002   2.270   6.683
 1501SOL    HW2 5403   4.982   2.377   6.804
 1502SOL     OW 5404   4.492   0.582   6.875
 1502SOL    HW1 5405   4.422   0.653   6.868
 1502SOL    HW2 5406   4.487   0.523   6.794
 1503SOL     OW 5407   1.307   2.622   2.083
 1503SOL    HW1 5408   1.228   2.652   2.137
 1503SOL    HW2 5409   1.325   2.526   2.101
 1504SOL     OW 5410   0.431   0.096   4.311
 1504SOL    HW1 5411   0.522   0.114   4.348
 1504SOL    HW2 5412   0.396   0.011   4.350
 1505SOL     OW 5413   4.535   0.258   4.857
 1505SOL    HW1 5414   4.570   0.289   4.946
 1505SOL    HW2 5415   4.575   0.313   4.784
 1506SOL     OW 5416   0.618   6.172   6.998
 1506SOL    HW1 5417   0.677   6.122   0.042
 1506SOL    HW2 5418   0.669   6.193   6.915
 1507SOL     OW 5419   0.111   1.728   5.980
 1507SOL    HW1 5420   0.170   1.672   6.038
 1507SOL    HW2 5421   0.108   1.689   5.888
 1508SOL     OW 5422   6.532   1.452   1.190
 1508SOL    HW1 5423   6.490   1.378   1.242
 1508SOL    HW2 5424   6.515   1.438   1.092
 1509SOL     OW 5425   3.994   1.633   4.887
 1509SOL    HW1 5426   3.939   1.562   4.931
 1509SOL    HW2 5427   3.994   1.715   4.944
 1510SOL     OW 5428   4.768   1.185   4.792
 1510SOL    HW1 5429   4.723   1.096   4.799
 1510SOL    HW2 5430   4.700   1.256   4.778
 1511SOL     OW 5431   4.144   3.517   3.780
 1511SOL    HW1 5432   4.092   3.591   3.823
 1511SOL    HW2 5433   4.190   3.464   3.851
 1512SOL     OW 5434   0.079   5.492   0.665
 1512SOL    HW1 5435   0.139   5.569   0.642
 1512SOL    HW2 5436   0.096   5.417   0.601
 1513SOL     OW 5437   3.911   0.372   4.655
 1513SOL    HW1 5438   4.007   0.379   4.680
 1513SOL    HW2 5439   3.858   0.339   4.734
 1514SOL     OW 5440   3.689   2.371   5.388
 1514SOL    HW1 5441   3.784   2.340   5.391
 1514SOL    HW2 5442   3.686   2.469   5.368
 1515SOL     OW 5443   5.614   2.084   2.440
 1515SOL    HW1 5444   5.514   2.091   2.435
 1515SOL    HW2 5445   5.645   2.013   2.378
 1516SOL     OW 5446   6.680   5.745   6.129
 1516SOL    HW1 5447   6.667   5.647   6.147
 1516SOL    HW2 5448   6.744   5.783   6.196
 1517SOL     OW 5449   4.428   6.071   2.951
 1517SOL    HW1 5450   4.409   6.087   2.854
 1517SOL    HW2 5451   4.495   5.996   2.960
 1518SOL     OW 5452   0.393   2.778   0.714
 1518SOL    HW1 5453   0.315   2.826   0.676
 1518SOL    HW2 5454   0.464   2.768   0.644
 1519SOL     OW 5455   6.761   4.860   1.659
 1519SOL    HW1 5456   6.840   4.914   1.630
 1519SOL    HW2 5457   6.763   4.849   1.759
 1520SOL     OW 5458   0.588   4.509   1.805
 1520SOL    HW1 5459   0.569   4.499   1.708
 1520SOL    HW2 5460   0.512   4.473   1.858
 1521SOL     OW 5461   1.800   4.223   6.445
 1521SOL    HW1 5462   1.705   4.220   6.412
 1521SOL    HW2 5463   1.811   4.299   6.508
 1522SOL     OW 5464   5.587   6.024   4.953
 1522SOL    HW1 5465   5.513   6.067   4.901
 1522SOL    HW2 5466   5.557   6.009   5.047
 1523SOL     OW 5467   4.433   6.165   0.031
 1523SOL    HW1 5468   4.459   6.238   0.094
 1523SOL    HW2 5469   4.334   6.150   0.036
 1524SOL     OW 5470   2.362   1.678   2.961
 1524SOL    HW1 5471   2.401   1.674   3.053
 1524SOL    HW2 5472   2.436   1.677   2.893
 1525SOL     OW 5473   6.424   3.779   0.639
 1525SOL    HW1 5474   6.517   3.815   0.647
 1525SOL    HW2 5475   6.428   3.682   0.615
 1526SOL     OW 5476   6.857   1.024   6.780
 1526SOL    HW1 5477   6.879   1.121   6.797
 1526SOL    HW2 5478   6.758   1.010   6.789
 1527SOL     OW 5479   4.324   1.202   4.975
 1527SOL    HW1 5480   4.235   1.245   4.991
 1527SOL    HW2 5481   4.395   1.256   5.021
 1528SOL     OW 5482   4.031   4.883   2.701
 1528SOL    HW1 5483   4.093   4.876   2.778
 1528SOL    HW2 5484   3.940   4.850   2.727
 1529SOL     OW 5485   4.507   0.090   0.385
 1529SOL    HW1 5486   4.598   0.080   0.346
 1529SOL    HW2 5487   4.478   0.186   0.381
 1530SOL     OW 5488   3.970   2.131   2.278
 1530SOL    HW1 5489   3.965   2.132   2.178
 1530SOL    HW2 5490   3.966   2.036   2.310
 1531SOL     OW 5491   4.350   6.759   5.845
 1531SOL    HW1 5492   4.319   6.749   5.939
 1531SOL    HW2 5493   4.278   6.729   5.782
 1532SOL     OW 5494   3.230   3.234   6.544
 1532SOL    HW1 5495   3.325   3.247   6.572
 1532SOL    HW2 5496   3.177   3.195   6.620
 1533SOL     OW 5497   5.918   4.916   6.428
 1533SOL    HW1 5498   5.841   4.980   6.433
 1533SOL    HW2 5499   5.992   4.948   6.487
 1534SOL     OW 5500   3.143   5.398   6.910
 1534SOL    HW1 5501   3.109   5.482   6.952
 1534SOL    HW2 5502   3.077   5.324   6.924
 1535SOL     OW 5503   5.267   6.421   4.432
 1535SOL    HW1 5504   5.329   6.384   4.363
 1535SOL    HW2 5505   5.307   6.503   4.473
 1536SOL     OW 5506   3.670   4.045   5.718
 1536SOL    HW1 5507   3.612   4.116   5.678
 1536SOL    HW2 5508   3.648   3.957   5.677
 1537SOL     OW 5509   4.489   5.974   3.764
 1537SOL    HW1 5510   4.557   5.901   3.760
 1537SOL    HW2 5511   4.531   6.058   3.797
 1538SOL     OW 5512   3.114   6.898   0.117
 1538SOL    HW1 5513   3.115   6.924   0.021
 1538SOL    HW2 5514   3.208   6.880   0.148
 1539SOL     OW 5515   4.645   4.037   1.698
 1539SOL    HW1 5516   4.599   3.948   1.694
 1539SOL    HW2 5517   4.744   4.024   1.694
 1540SOL     OW 5518   1.189   5.657   5.711
 1540SOL    HW1 5519   1.153   5.688   5.622
 1540SOL    HW2 5520   1.122   5.676   5.782
 1541SOL     OW 5521   3.372   2.947   4.072
 1541SOL    HW1 5522   3.288   2.998   4.090
 1541SOL    HW2 5523   3.416   2.922   4.158
 1542SOL     OW 5524   6.580   0.001   2.522
 1542SOL    HW1 5525   6.660   7.006   2.464
 1542SOL    HW2 5526   6.597   6.983   2.613
 1543SOL     OW 5527   3.128   5.120   5.513
 1543SOL    HW1 5528   3.138   5.200   5.572
 1543SOL    HW2 5529   3.164   5.141   5.422
 1544SOL     OW 5530   3.034   3.398   2.385
 1544SOL    HW1 5531   3.058   3.382   2.289
 1544SOL    HW2 5532   3.025   3.311   2.432
 1545SOL     OW 5533   4.926   0.719   3.208
 1545SOL    HW1 5534   4.970   0.685   3.291
 1545SOL    HW2 5535   4.840   0.671   3.193
 1546SOL     OW 5536   3.967   7.008   6.012
 1546SOL    HW1 5537   3.946   6.946   5.936
 1546SOL    HW2 5538   4.065   7.007   6.029
 1547SOL     OW 5539   1.727   4.111   2.446
 1547SOL    HW1 5540   1.701   4.178   2.376
 1547SOL    HW2 5541   1.672   4.127   2.528
 1548SOL     OW 5542   6.026   3.364   5.327
 1548SOL    HW1 5543   6.030   3.268   5.354
 1548SOL    HW2 5544   6.068   3.420   5.399
 1549SOL     OW 5545   3.922   1.580   2.101
 1549SOL    HW1 5546   3.870   1.662   2.125
 1549SOL    HW2 5547   3.968   1.544   2.183
 1550SOL     OW 5548   2.930   3.582   0.596
 1550SOL    HW1 5549   2.919   3.585   0.496
 1550SOL    HW2 5550   2.974   3.496   0.622
 1551SOL     OW 5551   2.170   4.229   6.199
 1551SOL    HW1 5552   2.189   4.227   6.101
 1551SOL    HW2 5553   2.218   4.154   6.245
 1552SOL     OW 5554   1.168   6.062   0.566
 1552SOL    HW1 5555   1.161   5.995   0.491
 1552SOL    HW2 5556   1.232   6.134   0.540
 1553SOL     OW 5557   0.116   1.995   5.922
 1553SOL    HW1 5558   0.106   1.896   5.931
 1553SOL    HW2 5559   0.139   2.035   6.010
 1554SOL     OW 5560   3.958   1.995   2.923
 1554SOL    HW1 5561   3.895   2.009   2.847
 1554SOL    HW2 5562   3.910   1.953   3.000
 1555SOL     OW 5563   4.829   2.441   0.197
 1555SOL    HW1 5564   4.801   2.537   0.195
 1555SOL    HW2 5565   4.789   2.393   0.120
 1556SOL     OW 5566   3.117   1.767   0.476
 1556SOL    HW1 5567   3.049   1.712   0.427
 1556SOL    HW2 5568   3.167   1.823   0.411
 1557SOL     OW 5569   2.439   2.031   5.476
 1557SOL    HW1 5570   2.532   2.033   5.438
 1557SOL    HW2 5571   2.399   1.941   5.460
 1558SOL     OW 5572   5.706   0.398   4.778
 1558SOL    HW1 5573   5.624   0.361   4.822
 1558SOL    HW2 5574   5.741   0.474   4.832
 1559SOL     OW 5575   0.974   2.568   6.943
 1559SOL    HW1 5576   1.001   2.525   6.857
 1559SOL    HW2 5577   1.007   2.662   6.944
 1560SOL     OW 5578   0.388   1.160   5.659
 1560SOL    HW1 5579   0.476   1.184   5.701
 1560SOL    HW2 5580   0.334   1.106   5.723
 1561SOL     OW 5581   6.519   6.932   3.837
 1561SOL    HW1 5582   6.492   6.994   3.911
 1561SOL    HW2 5583   6.605   6.886   3.861
 1562SOL     OW 5584   4.197   5.714   2.673
 1562SOL    HW1 5585   4.241   5.744   2.758
 1562SOL    HW2 5586   4.245   5.754   2.595
 1563SOL     OW 5587   2.033   0.243   5.677
 1563SOL    HW1 5588   2.123   0.223   5.639
 1563SOL    HW2 5589   2.001   0.331   5.641
 1564SOL     OW 5590   1.124   2.702   3.448
 1564SOL    HW1 5591   1.170   2.614   3.456
 1564SOL    HW2 5592   1.150   2.746   3.362
 1565SOL     OW 5593   4.352   4.631   3.742
 1565SOL    HW1 5594   4.422   4.595   3.679
 1565SOL    HW2 5595   4.373   4.601   3.835
 1566SOL     OW 5596   6.139   4.886   3.175
 1566SOL    HW1 5597   6.180   4.842   3.095
 1566SOL    HW2 5598   6.054   4.930   3.148
 1567SOL     OW 5599   6.353   6.108   0.779
 1567SOL    HW1 5600   6.348   6.207   0.778
 1567SOL    HW2 5601   6.281   6.070   0.720
 1568SOL     OW 5602   1.335   6.433   6.972
 1568SOL    HW1 5603   1.327   6.360   6.904
 1568SOL    HW2 5604   1.325   6.522   6.927
 1569SOL     OW 5605   4.429   6.435   3.527
 1569SOL    HW1 5606   4.387   6.345   3.513
 1569SOL    HW2 5607   4.516   6.423   3.575
 1570SOL     OW 5608   1.983   0.430   0.927
 1570SOL    HW1 5609   1.950   0.522   0.906
 1570SOL    HW2 5610   2.079   0.434   0.952
 1571SOL     OW 5611   5.103   2.470   1.364
 1571SOL    HW1 5612   5.072   2.401   1.299
 1571SOL    HW2 5613   5.187   2.512   1.330
 1572SOL     OW 5614   0.779   6.671   1.015
 1572SOL    HW1 5615   0.730   6.748   0.974
 1572SOL    HW2 5616   0.715   6.615   1.067
 1573SOL     OW 5617   5.370   2.901   2.036
 1573SOL    HW1 5618   5.299   2.966   2.065
 1573SOL    HW2 5619   5.328   2.813   2.015
 1574SOL     OW 5620   6.205   1.353   1.700
 1574SOL    HW1 5621   6.159   1.371   1.787
 1574SOL    HW2 5622   6.244   1.261   1.700
 1575SOL     OW 5623   3.854   1.098   0.637
 1575SOL    HW1 5624   3.936   1.074   0.585
 1575SOL    HW2 5625   3.805   1.172   0.591
 1576SOL     OW 5626   1.115   6.699   3.740
 1576SOL    HW1 5627   1.202   6.671   3.781
 1576SOL    HW2 5628   1.132   6.763   3.666
 1577SOL     OW 5629   3.078   1.401   4.421
 1577SOL    HW1 5630   3.035   1.400   4.512
 1577SOL    HW2 5631   3.123   1.489   4.407
 1578SOL     OW 5632   6.472   3.140   6.167
 1578SOL    HW1 5633   6.468   3.175   6.261
 1578SOL    HW2 5634   6.507   3.211   6.107
 1579SOL     OW 5635   0.166   1.303   2.862
 1579SOL    HW1 5636   0.213   1.233   2.807
 1579SOL    HW2 5637   0.087   1.262   2.907
 1580SOL     OW 5638   2.991   4.052   5.249
 1580SOL    HW1 5639   2.927   4.103   5.306
 1580SOL    HW2 5640   3.083   4.062   5.285
 1581SOL     OW 5641   0.218   3.775   4.923
 1581SOL    HW1 5642   0.216   3.701   4.991
 1581SOL    HW2 5643   0.256   3.857   4.965
 1582SOL     OW 5644   1.005   6.922   4.728
 1582SOL    HW1 5645   1.045   6.858   4.661
 1582SOL    HW2 5646   1.037   7.014   4.707
 1583SOL     OW 5647   1.017   4.574   3.202
 1583SOL    HW1 5648   1.044   4.523   3.284
 1583SOL    HW2 5649   1.099   4.610   3.157
 1584SOL     OW 5650   1.438   6.496   5.119
 1584SOL    HW1 5651   1.450   6.590   5.152
 1584SOL    HW2 5652   1.376   6.496   5.041
 1585SOL     OW 5653   5.964   1.870   3.410
 1585SOL    HW1 5654   5.941   1.806   3.484
 1585SOL    HW2 5655   6.020   1.823   3.342
 1586SOL     OW 5656   3.742   4.882   1.467
 1586SOL    HW1 5657   3.719   4.935   1.385
 1586SOL    HW2 5658   3.804   4.935   1.525
 1587SOL     OW 5659   2.769   6.375   6.417
 1587SOL    HW1 5660   2.753   6.295   6.475
 1587SOL    HW2 5661   2.713   6.451   6.449
 1588SOL     OW 5662   5.232   1.457   3.288
 1588SOL    HW1 5663   5.208   1.547   3.253
 1588SOL    HW2 5664   5.171   1.388   3.246
 1589SOL     OW 5665   5.936   3.698   1.743
 1589SOL    HW1 5666   5.870   3.766   1.713
 1589SOL    HW2 5667   5.987   3.733   1.822
 1590SOL     OW 5668   2.536   6.078   7.009
 1590SOL    HW1 5669   2.557   6.172   0.014
 1590SOL    HW2 5670   2.571   6.016   0.058
 1591SOL     OW 5671   0.076   5.536   2.644
 1591SOL    HW1 5672   0.083   5.440   2.671
 1591SOL    HW2 5673   7.000   5.564   2.646
 1592SOL     OW 5674   2.351   4.378   0.978
 1592SOL    HW1 5675   2.358   4.338   1.069
 1592SOL    HW2 5676   2.393   4.317   0.911
 1593SOL     OW 5677   0.949   6.222   4.255
 1593SOL    HW1 5678   0.855   6.243   4.283
 1593SOL    HW2 5679   0.958   6.123   4.245
 1594SOL     OW 5680   6.397   5.728   2.706
 1594SOL    HW1 5681   6.405   5.744   2.607
 1594SOL    HW2 5682   6.377   5.815   2.752
 1595SOL     OW 5683   1.368   5.115   0.005
 1595SOL    HW1 5684   1.416   5.091   6.940
 1595SOL    HW2 5685   1.423   5.182   0.055
 1596SOL     OW 5686   0.671   2.761   4.473
 1596SOL    HW1 5687   0.649   2.772   4.570
 1596SOL    HW2 5688   0.758   2.806   4.453
 1597SOL     OW 5689   2.015   6.463   6.732
 1597SOL    HW1 5690   1.950   6.401   6.687
 1597SOL    HW2 5691   2.107   6.447   6.696
 1598SOL     OW 5692   0.655   3.436   6.760
 1598SOL    HW1 5693   0.615   3.385   6.684
 1598SOL    HW2 5694   0.692   3.371   6.827
 1599SOL     OW 5695   4.567   4.271   6.000
 1599SOL    HW1 5696   4.610   4.194   5.953
 1599SOL    HW2 5697   4.508   4.236   6.073
 1600SOL     OW 5698   4.973   1.667   4.988
 1600SOL    HW1 5699   5.043   1.637   4.924
 1600SOL    HW2 5700   5.015   1.694   5.074
 1601SOL     OW 5701   0.195   4.768   4.352
 1601SOL    HW1 5702   0.160   4.832   4.420
 1601SOL    HW2 5703   0.143   4.777   4.268
 1602SOL     OW 5704   2.154   5.325   4.199
 1602SOL    HW1 5705   2.059   5.357   4.195
 1602SOL    HW2 5706   2.213   5.390   4.151
 1603SOL     OW 5707   6.303   5.963   2.877
 1603SOL    HW1 5708   6.227   5.916   2.920
 1603SOL    HW2 5709   6.353   6.016   2.945
 1604SOL     OW 5710   6.259   4.261   0.184
 1604SOL    HW1 5711   6.358   4.251   0.186
 1604SOL    HW2 5712   6.233   4.323   0.110
 1605SOL     OW 5713   6.196   6.088   2.184
 1605SOL    HW1 5714   6.278   6.144   2.196
 1605SOL    HW2 5715   6.122   6.125   2.240
 1606SOL     OW 5716   3.315   0.536   5.293
 1606SOL    HW1 5717   3.398   0.575   5.334
 1606SOL    HW2 5718   3.321   0.542   5.194
 1607SOL     OW 5719   3.690   2.367   0.493
 1607SOL    HW1 5720   3.758   2.391   0.424
 1607SOL    HW2 5721   3.617   2.435   0.492
 1608SOL     OW 5722   1.134   0.158   4.716
 1608SOL    HW1 5723   1.185   0.229   4.669
 1608SOL    HW2 5724   1.131   0.177   4.814
 1609SOL     OW 5725   4.694   0.237   0.652
 1609SOL    HW1 5726   4.724   0.213   0.744
 1609SOL    HW2 5727   4.705   0.159   0.591
 1610SOL     OW 5728   5.700   4.348   5.788
 1610SOL    HW1 5729   5.742   4.275   5.843
 1610SOL    HW2 5730   5.613   4.316   5.751
 1611SOL     OW 5731   2.987   3.551   1.794
 1611SOL    HW1 5732   3.040   3.589   1.871
 1611SOL    HW2 5733   3.031   3.467   1.762
 1612SOL     OW 5734   2.595   1.206   4.849
 1612SOL    HW1 5735   2.655   1.127   4.830
 1612SOL    HW2 5736   2.612   1.239   4.941
 1613SOL     OW 5737   2.008   5.544   1.474
 1613SOL    HW1 5738   1.964   5.505   1.555
 1613SOL    HW2 5739   1.946   5.539   1.396
 1614SOL     OW 5740   6.366   3.723   0.285
 1614SOL    HW1 5741   6.378   3.789   0.212
 1614SOL    HW2 5742   6.440   3.655   0.281
 1615SOL     OW 5743   6.488   5.462   0.751
 1615SOL    HW1 5744   6.585   5.440   0.735
 1615SOL    HW2 5745   6.464   5.436   0.844
 1616SOL     OW 5746   3.498   1.650   4.594
 1616SOL    HW1 5747   3.531   1.650   4.688
 1616SOL    HW2 5748   3.433   1.725   4.581
 1617SOL     OW 5749   5.914   0.504   1.734
 1617SOL    HW1 5750   5.996   0.535   1.782
 1617SOL    HW2 5751   5.940   0.441   1.661
 1618SOL     OW 5752   1.094   3.632   1.600
 1618SOL    HW1 5753   1.133   3.557   1.546
 1618SOL    HW2 5754   1.004   3.657   1.563
 1619SOL     OW 5755   1.009   2.534   3.031
 1619SOL    HW1 5756   0.925   2.513   3.081
 1619SOL    HW2 5757   1.087   2.494   3.079
 1620SOL     OW 5758   2.643   5.589   1.259
 1620SOL    HW1 5759   2.606   5.507   1.216
 1620SOL    HW2 5760   2.599   5.670   1.219
 1621SOL     OW 5761   0.915   1.222   0.383
 1621SOL    HW1 5762   0.919   1.168   0.466
 1621SOL    HW2 5763   0.905   1.162   0.304
 1622SOL     OW 5764   0.560   2.434   5.141
 1622SOL    HW1 5765   0.608   2.418   5.055
 1622SOL    HW2 5766   0.622   2.477   5.207
 1623SOL     OW 5767   2.415   3.535   5.557
 1623SOL    HW1 5768   2.501   3.523   5.508
 1623SOL    HW2 5769   2.370   3.446   5.568
 1624SOL     OW 5770   3.094   1.126   5.194
 1624SOL    HW1 5771   3.092   1.181   5.278
 1624SOL    HW2 5772   3.151   1.045   5.208
 1625SOL     OW 5773   1.406   5.315   1.631
 1625SOL    HW1 5774   1.434   5.403   1.591
 1625SOL    HW2 5775   1.361   5.331   1.719
 1626SOL     OW 5776   3.574   2.205   6.514
 1626SOL    HW1 5777   3.525   2.253   6.441
 1626SOL    HW2 5778   3.536   2.113   6.524
 1627SOL     OW 5779   6.420   2.624   3.599
 1627SOL    HW1 5780   6.460   2.541   3.637
 1627SOL    HW2 5781   6.435   2.700   3.662
 1628SOL     OW 5782   4.372   5.098   0.214
 1628SOL    HW1 5783   4.456   5.147   0.188
 1628SOL    HW2 5784   4.355   5.110   0.312
 1629SOL     OW 5785   2.993   1.605   4.139
 1629SOL    HW1 5786   2.959   1.589   4.046
 1629SOL    HW2 5787   3.041   1.523   4.171
 1630SOL     OW 5788   1.462   6.328   5.916
 1630SOL    HW1 5789   1.557   6.306   5.937
 1630SOL    HW2 5790   1.419   6.372   5.995
 1631SOL     OW 5791   0.201   1.566   6.436
 1631SOL    HW1 5792   0.164   1.555   6.343
 1631SOL    HW2 5793   0.293   1.603   6.430
 1632SOL     OW 5794   0.179   1.578   0.344
 1632SOL    HW1 5795   0.163   1.676   0.355
 1632SOL    HW2 5796   0.265   1.553   0.387
 1633SOL     OW 5797   4.917   2.308   3.832
 1633SOL    HW1 5798   4.928   2.208   3.837
 1633SOL    HW2 5799   4.821   2.331   3.844
 1634SOL     OW 5800   3.783   4.520   6.350
 1634SOL    HW1 5801   3.831   4.581   6.414
 1634SOL    HW2 5802   3.692   4.557   6.330
 1635SOL     OW 5803   6.868   5.450   5.601
 1635SOL    HW1 5804   6.850   5.391   5.523
 1635SOL    HW2 5805   6.872   5.395   5.685
 1636SOL     OW 5806   2.698   4.232   1.180
 1636SOL    HW1 5807   2.773   4.216   1.116
 1636SOL    HW2 5808   2.725   4.299   1.248
 1637SOL     OW 5809   0.178   0.458   2.981
 1637SOL    HW1 5810   0.258   0.508   3.014
 1637SOL    HW2 5811   0.205   0.368   2.949
 1638SOL     OW 5812   0.559   4.130   3.920
 1638SOL    HW1 5813   0.650   4.115   3.957
 1638SOL    HW2 5814   0.508   4.044   3.918
 1639SOL     OW 5815   4.280   0.050   2.968
 1639SOL    HW1 5816   4.182   0.035   2.954
 1639SOL    HW2 5817   4.324   6.984   2.994
 1640SOL     OW 5818   5.833   1.380   0.935
 1640SOL    HW1 5819   5.913   1.332   0.971
 1640SOL    HW2 5820   5.845   1.479   0.949
 1641SOL     OW 5821   5.448   2.620   4.147
 1641SOL    HW1 5822   5.459   2.522   4.166
 1641SOL    HW2 5823   5.454   2.635   4.048
 1642SOL     OW 5824   5.971   3.373   6.666
 1642SOL    HW1 5825   5.994   3.418   6.580
 1642SOL    HW2 5826   5.884   3.408   6.700
 1643SOL     OW 5827   2.912   4.859   4.177
 1643SOL    HW1 5828   2.972   4.847   4.097
 1643SOL    HW2 5829   2.968   4.875   4.258
 1644SOL     OW 5830   0.572   3.012   1.290
 1644SOL    HW1 5831   0.549   3.006   1.193
 1644SOL    HW2 5832   0.545   2.928   1.336
 1645SOL     OW 5833   2.614   6.431   5.637
 1645SOL    HW1 5834   2.595   6.388   5.549
 1645SOL    HW2 5835   2.532   6.480   5.669
 1646SOL     OW 5836   2.225   6.662   0.847
 1646SOL    HW1 5837   2.308   6.650   0.792
 1646SOL    HW2 5838   2.154   6.705   0.791
 1647SOL     OW 5839   5.980   2.678   4.768
 1647SOL    HW1 5840   6.056   2.641   4.715
 1647SOL    HW2 5841   5.900   2.619   4.757
 1648SOL     OW 5842   6.008   5.945   1.081
 1648SOL    HW1 5843   6.059   5.860   1.071
 1648SOL    HW2 5844   5.958   5.964   0.997
 1649SOL     OW 5845   4.369   6.974   4.528
 1649SOL    HW1 5846   4.416   0.040   4.508
 1649SOL    HW2 5847   4.415   6.899   4.480
 1650SOL     OW 5848   1.605   6.964   4.680
 1650SOL    HW1 5849   1.535   7.012   4.734
 1650SOL    HW2 5850   1.561   6.921   4.601
 1651SOL     OW 5851   0.695   0.834   2.098
 1651SOL    HW1 5852   0.726   0.927   2.117
 1651SOL    HW2 5853   0.680   0.823   2.000
 1652SOL     OW 5854   1.859   3.253   1.582
 1652SOL    HW1 5855   1.934   3.317   1.597
 1652SOL    HW2 5856   1.880   3.166   1.628
 1653SOL     OW 5857   0.652   6.939   1.016
 1653SOL    HW1 5858   0.557   6.947   0.984
 1653SOL    HW2 5859   0.652   6.917   1.114
 1654SOL     OW 5860   6.281   3.090   2.134
 1654SOL    HW1 5861   6.343   3.168   2.125
 1654SOL    HW2 5862   6.190   3.123   2.161
 1655SOL     OW 5863   5.963   2.898   4.942
 1655SOL    HW1 5864   5.953   2.973   4.877
 1655SOL    HW2 5865   6.005   2.819   4.896
 1656SOL     OW 5866   2.067   4.592   2.656
 1656SOL    HW1 5867   2.070   4.508   2.603
 1656SOL    HW2 5868   2.067   4.671   2.595
 1657SOL     OW 5869   6.806   0.940   4.356
 1657SOL    HW1 5870   6.719   0.988   4.344
 1657SOL    HW2 5871   6.813   0.867   4.289
 1658SOL     OW 5872   1.068   0.117   2.073
 1658SOL    HW1 5873   1.079   0.036   2.017
 1658SOL    HW2 5874   0.983   0.111   2.126
 1659SOL     OW 5875   4.043   1.151   5.491
 1659SOL    HW1 5876   3.973   1.093   5.449
 1659SOL    HW2 5877   4.002   1.202   5.567
 1660SOL     OW 5878   0.982   5.003   3.904
 1660SOL    HW1 5879   1.006   5.100   3.907
 1660SOL    HW2 5880   1.056   4.949   3.943
 1661SOL     OW 5881   3.175   1.258   2.070
 1661SOL    HW1 5882   3.112   1.245   2.146
 1661SOL    HW2 5883   3.160   1.349   2.030
 1662SOL     OW 5884   6.642   1.101   4.096
 1662SOL    HW1 5885   6.614   1.193   4.069
 1662SOL    HW2 5886   6.737   1.086   4.067
 1663SOL     OW 5887   2.819   0.750   3.000
 1663SOL    HW1 5888   2.847   0.752   2.904
 1663SOL    HW2 5889   2.824   0.656   3.034
 1664SOL     OW 5890   2.238   0.011   3.568
 1664SOL    HW1 5891   2.287   0.017   3.655
 1664SOL    HW2 5892   2.140   7.018   3.587
 1665SOL     OW 5893   0.186   1.139   2.535
 1665SOL    HW1 5894   0.110   1.198   2.508
 1665SOL    HW2 5895   0.188   1.058   2.476
 1666SOL     OW 5896   5.234   3.177   0.422
 1666SOL    HW1 5897   5.139   3.185   0.453
 1666SOL    HW2 5898   5.271   3.089   0.451
 1667SOL     OW 5899   5.890   6.783   1.419
 1667SOL    HW1 5900   5.932   6.737   1.341
 1667SOL    HW2 5901   5.890   6.882   1.403
 1668SOL     OW 5902   5.131   5.815   5.567
 1668SOL    HW1 5903   5.231   5.814   5.558
 1668SOL    HW2 5904   5.093   5.887   5.510
 1669SOL     OW 5905   6.535   6.253   6.650
 1669SOL    HW1 5906   6.584   6.273   6.565
 1669SOL    HW2 5907   6.556   6.324   6.717
 1670SOL     OW 5908   6.992   4.900   6.507
 1670SOL    HW1 5909   6.962   4.847   6.427
 1670SOL    HW2 5910   6.954   4.992   6.502
 1671SOL     OW 5911   4.382   3.022   0.774
 1671SOL    HW1 5912   4.431   3.034   0.860
 1671SOL    HW2 5913   4.329   2.937   0.777
 1672SOL     OW 5914   2.058   3.874   1.964
 1672SOL    HW1 5915   2.099   3.813   2.031
 1672SOL    HW2 5916   1.975   3.915   2.002
 1673SOL     OW 5917   6.673   2.020   4.629
 1673SOL    HW1 5918   6.727   1.940   4.656
 1673SOL    HW2 5919   6.577   1.995   4.621
 1674SOL     OW 5920   0.558   4.184   2.321
 1674SOL    HW1 5921   0.644   4.168   2.370
 1674SOL    HW2 5922   0.491   4.222   2.384
 1675SOL     OW 5923   4.247   0.321   5.652
 1675SOL    HW1 5924   4.273   0.402   5.705
 1675SOL    HW2 5925   4.169   0.276   5.695
 1676SOL     OW 5926   3.004   1.157   2.270
 1676SOL    HW1 5927   2.907   1.178   2.261
 1676SOL    HW2 5928   3.023   1.124   2.363
 1677SOL     OW 5929   4.012   3.013   5.376
 1677SOL    HW1 5930   3.991   2.932   5.322
 1677SOL    HW2 5931   4.025   3.091   5.316
 1678SOL     OW 5932   4.822   4.490   5.127
 1678SOL    HW1 5933   4.735   4.502   5.079
 1678SOL    HW2 5934   4.872   4.414   5.087
 1679SOL     OW 5935   2.175   3.139   5.221
 1679SOL    HW1 5936   2.092   3.091   5.193
 1679SOL    HW2 5937   2.254   3.102   5.171
 1680SOL     OW 5938   0.554   2.252   4.388
 1680SOL    HW1 5939   0.594   2.330   4.437
 1680SOL    HW2 5940   0.575   2.259   4.290
 1681SOL     OW 5941   6.361   6.060   1.469
 1681SOL    HW1 5942   6.322   6.037   1.559
 1681SOL    HW2 5943   6.363   6.159   1.458
 1682SOL     OW 5944   0.129   2.137   4.967
 1682SOL    HW1 5945   0.093   2.161   4.876
 1682SOL    HW2 5946   0.214   2.086   4.956
 1683SOL     OW 5947   3.953   5.619   0.861
 1683SOL    HW1 5948   3.975   5.707   0.902
 1683SOL    HW2 5949   3.925   5.555   0.933
 1684SOL     OW 5950   0.879   5.880   2.771
 1684SOL    HW1 5951   0.977   5.871   2.788
 1684SOL    HW2 5952   0.863   5.897   2.674
 1685SOL     OW 5953   2.650   1.076   6.102
 1685SOL    HW1 5954   2.608   1.014   6.167
 1685SOL    HW2 5955   2.580   1.111   6.040
 1686SOL     OW 5956   1.948   4.798   5.126
 1686SOL    HW1 5957   1.941   4.856   5.207
 1686SOL    HW2 5958   1.971   4.705   5.153
 1687SOL     OW 5959   2.387   2.909   1.551
 1687SOL    HW1 5960   2.449   2.905   1.473
 1687SOL    HW2 5961   2.435   2.879   1.633
 1688SOL     OW 5962   1.620   2.532   3.749
 1688SOL    HW1 5963   1.595   2.457   3.810
 1688SOL    HW2 5964   1.539   2.588   3.730
 1689SOL     OW 5965   4.696   0.731   2.242
 1689SOL    HW1 5966   4.767   0.799   2.262
 1689SOL    HW2 5967   4.653   0.702   2.327
 1690SOL     OW 5968   1.216   3.293   3.404
 1690SOL    HW1 5969   1.306   3.251   3.418
 1690SOL    HW2 5970   1.217   3.386   3.441
 1691SOL     OW 5971   5.278   3.963   3.540
 1691SOL    HW1 5972   5.368   4.006   3.545
 1691SOL    HW2 5973   5.285   3.867   3.569
 1692SOL     OW 5974   6.192   0.494   1.527
 1692SOL    HW1 5975   6.227   0.553   1.454
 1692SOL    HW2 5976   6.175   0.548   1.609
 1693SOL     OW 5977   0.376   1.980   2.425
 1693SOL    HW1 5978   0.453   2.010   2.481
 1693SOL    HW2 5979   0.324   1.912   2.475
 1694SOL     OW 5980   5.100   0.505   3.785
 1694SOL    HW1 5981   5.117   0.447   3.705
 1694SOL    HW2 5982   5.003   0.527   3.791
 1695SOL     OW 5983   2.703   1.489   5.898
 1695SOL    HW1 5984   2.705   1.486   5.998
 1695SOL    HW2 5985   2.783   1.539   5.864
 1696SOL     OW 5986   5.039   4.540   0.827
 1696SOL    HW1 5987   4.996   4.468   0.772
 1696SOL    HW2 5988   4.974   4.616   0.839
 1697SOL     OW 5989   5.433   5.804   2.192
 1697SOL    HW1 5990   5.378   5.737   2.242
 1697SOL    HW2 5991   5.378   5.887   2.177
 1698SOL     OW 5992   4.780   0.796   0.885
 1698SOL    HW1 5993   4.739   0.871   0.937
 1698SOL    HW2 5994   4.863   0.765   0.932
 1699SOL     OW 5995   2.981   1.478   1.170
 1699SOL    HW1 5996   3.019   1.386   1.180
 1699SOL    HW2 5997   3.046   1.535   1.120
 1700SOL     OW 5998   6.353   2.366   3.538
 1700SOL    HW1 5999   6.440   2.359   3.490
 1700SOL    HW2 6000   6.334   2.462   3.558
 1701SOL     OW 6001   5.547   3.433   5.622
 1701SOL    HW1 6002   5.528   3.436   5.720
 1701SOL    HW2 6003   5.478   3.487   5.573
 1702SOL     OW 6004   6.903   3.104   0.880
 1702SOL    HW1 6005   6.964   3.090   0.959
 1702SOL    HW2 6006   6.898   3.019   0.827
 1703SOL     OW 6007   3.935   3.410   3.005
 1703SOL    HW1 6008   3.875   3.384   2.930
 1703SOL    HW2 6009   3.986   3.330   3.036
 1704SOL     OW 6010   0.840   1.312   1.990
 1704SOL    HW1 6011   0.907   1.312   1.916
 1704SOL    HW2 6012   0.766   1.375   1.968
 1705SOL     OW 6013   3.615   2.154   1.519
 1705SOL    HW1 6014   3.544   2.224   1.515
 1705SOL    HW2 6015   3.620   2.118   1.612
 1706SOL     OW 6016   4.901   0.544   1.534
 1706SOL    HW1 6017   4.927   0.620   1.475
 1706SOL    HW2 6018   4.868   0.468   1.478
 1707SOL     OW 6019   4.735   2.056   3.070
 1707SOL    HW1 6020   4.645   2.099   3.067
 1707SOL    HW2 6021   4.739   1.981   3.004
 1708SOL     OW 6022   4.673   5.024   2.282
 1708SOL    HW1 6023   4.771   5.037   2.269
 1708SOL    HW2 6024   4.652   4.926   2.281
 1709SOL     OW 6025   2.502   5.790   1.904
 1709SOL    HW1 6026   2.533   5.714   1.845
 1709SOL    HW2 6027   2.508   5.876   1.853
 1710SOL     OW 6028   5.571   4.556   3.721
 1710SOL    HW1 6029   5.493   4.604   3.761
 1710SOL    HW2 6030   5.647   4.620   3.708
 1711SOL     OW 6031   1.384   4.419   4.541
 1711SOL    HW1 6032   1.377   4.516   4.517
 1711SOL    HW2 6033   1.347   4.363   4.467
 1712SOL     OW 6034   0.978   2.823   6.606
 1712SOL    HW1 6035   1.022   2.883   6.540
 1712SOL    HW2 6036   0.921   2.756   6.559
 1713SOL     OW 6037   3.872   2.510   1.275
 1713SOL    HW1 6038   3.958   2.486   1.231
 1713SOL    HW2 6039   3.863   2.459   1.362
 1714SOL     OW 6040   4.632   1.644   5.837
 1714SOL    HW1 6041   4.648   1.591   5.920
 1714SOL    HW2 6042   4.690   1.725   5.836
 1715SOL     OW 6043   6.862   3.706   2.434
 1715SOL    HW1 6044   6.868   3.606   2.435
 1715SOL    HW2 6045   6.833   3.738   2.525
 1716SOL     OW 6046   4.678   6.828   2.408
 1716SOL    HW1 6047   4.763   6.810   2.457
 1716SOL    HW2 6048   4.606   6.767   2.443
 1717SOL     OW 6049   1.942   6.964   6.267
 1717SOL    HW1 6050   2.000   6.890   6.303
 1717SOL    HW2 6051   1.996   0.027   6.259
 1718SOL     OW 6052   2.209   1.974   2.001
 1718SOL    HW1 6053   2.308   1.985   1.992
 1718SOL    HW2 6054   2.163   2.034   1.935
 1719SOL     OW 6055   2.130   4.152   1.224
 1719SOL    HW1 6056   2.224   4.169   1.196
 1719SOL    HW2 6057   2.110   4.202   1.309
 1720SOL     OW 6058   6.906   1.450   1.061
 1720SOL    HW1 6059   6.895   1.443   0.962
 1720SOL    HW2 6060   6.941   1.364   1.097
 1721SOL     OW 6061   1.005   6.636   3.222
 1721SOL    HW1 6062   1.065   6.702   3.268
 1721SOL    HW2 6063   1.048   6.604   3.138
 1722SOL     OW 6064   4.687   1.861   3.752
 1722SOL    HW1 6065   4.657   1.773   3.717
 1722SOL    HW2 6066   4.620   1.896   3.817
 1723SOL     OW 6067   6.567   2.792   2.806
 1723SOL    HW1 6068   6.492   2.725   2.805
 1723SOL    HW2 6069   6.620   2.784   2.722
 1724SOL     OW 6070   6.036   1.965   0.872
 1724SOL    HW1 6071   6.081   1.998   0.789
 1724SOL    HW2 6072   6.018   1.867   0.863
 1725SOL     OW 6073   2.760   4.814   0.086
 1725SOL    HW1 6074   2.699   4.851   0.155
 1725SOL    HW2 6075   2.855   4.833   0.112
 1726SOL     OW 6076   5.775   4.052   5.475
 1726SOL    HW1 6077   5.738   4.022   5.387
 1726SOL    HW2 6078   5.770   3.976   5.540
 1727SOL     OW 6079   3.580   3.015   4.699
 1727SOL    HW1 6080   3.679   2.998   4.703
 1727SOL    HW2 6081   3.558   3.066   4.615
 1728SOL     OW 6082   6.107   5.483   4.758
 1728SOL    HW1 6083   6.098   5.409   4.824
 1728SOL    HW2 6084   6.017   5.527   4.745
 1729SOL     OW 6085   2.138   3.935   3.690
 1729SOL    HW1 6086   2.177   3.845   3.671
 1729SOL    HW2 6087   2.096   3.973   3.608
 1730SOL     OW 6088   6.039   6.968   5.224
 1730SOL    HW1 6089   6.023   6.958   5.322
 1730SOL    HW2 6090   6.137   6.978   5.207
 1731SOL     OW 6091   0.346   5.168   1.896
 1731SOL    HW1 6092   0.421   5.181   1.962
 1731SOL    HW2 6093   0.261   5.149   1.946
 1732SOL     OW 6094   2.224   4.520   5.630
 1732SOL    HW1 6095   2.212   4.548   5.725
 1732SOL    HW2 6096   2.319   4.493   5.615
 1733SOL     OW 6097   1.189   3.630   2.567
 1733SOL    HW1 6098   1.140   3.695   2.625
 1733SOL    HW2 6099   1.123   3.571   2.520
 1734SOL     OW 6100   4.836   3.184   1.796
 1734SOL    HW1 6101   4.930   3.185   1.763
 1734SOL    HW2 6102   4.820   3.100   1.848
 1735SOL     OW 6103   5.969   5.770   1.350
 1735SOL    HW1 6104   5.999   5.844   1.289
 1735SOL    HW2 6105   6.044   5.705   1.362
 1736SOL     OW 6106   4.111   2.327   1.368
 1736SOL    HW1 6107   4.080   2.250   1.423
 1736SOL    HW2 6108   4.191   2.369   1.411
 1737SOL     OW 6109   2.931   1.206   4.284
 1737SOL    HW1 6110   2.974   1.117   4.269
 1737SOL    HW2 6111   2.999   1.270   4.319
 1738SOL     OW 6112   2.100   1.543   4.001
 1738SOL    HW1 6113   2.074   1.453   4.035
 1738SOL    HW2 6114   2.025   1.581   3.947
 1739SOL     OW 6115   5.456   2.371   5.603
 1739SOL    HW1 6116   5.395   2.298   5.633
 1739SOL    HW2 6117   5.549   2.352   5.635
 1740SOL     OW 6118   0.489   1.662   6.617
 1740SOL    HW1 6119   0.487   1.674   6.518
 1740SOL    HW2 6120   0.582   1.675   6.651
 1741SOL     OW 6121   2.219   0.580   4.055
 1741SOL    HW1 6122   2.154   0.649   4.026
 1741SOL    HW2 6123   2.311   0.606   4.023
 1742SOL     OW 6124   4.728   6.143   5.954
 1742SOL    HW1 6125   4.774   6.161   6.042
 1742SOL    HW2 6126   4.680   6.226   5.925
 1743SOL     OW 6127   2.101   2.004   2.353
 1743SOL    HW1 6128   2.139   2.065   2.284
 1743SOL    HW2 6129   2.007   1.979   2.328
 1744SOL     OW 6130   0.479   0.495   1.446
 1744SOL    HW1 6131   0.446   0.401   1.449
 1744SOL    HW2 6132   0.532   0.515   1.528
 1745SOL     OW 6133   6.713   0.592   3.729
 1745SOL    HW1 6134   6.678   0.552   3.645
 1745SOL    HW2 6135   6.787   0.534   3.765
 1746SOL     OW 6136   2.459   5.146   5.277
 1746SOL    HW1 6137   2.374   5.137   5.226
 1746SOL    HW2 6138   2.504   5.233   5.254
 1747SOL     OW 6139   5.594   1.213   3.214
 1747SOL    HW1 6140   5.495   1.228   3.224
 1747SOL    HW2 6141   5.643   1.275   3.275
 1748SOL     OW 6142   0.786   1.068   3.721
 1748SOL    HW1 6143   0.700   1.119   3.722
 1748SOL    HW2 6144   0.794   1.016   3.635
 1749SOL     OW 6145   2.565   7.005   5.433
 1749SOL    HW1 6146   2.507   6.937   5.480
 1749SOL    HW2 6147   2.571   0.067   5.489
 1750SOL     OW 6148   6.314   0.146   3.282
 1750SOL    HW1 6149   6.285   0.054   3.257
 1750SOL    HW2 6150   6.260   0.213   3.232
 1751SOL     OW 6151   4.043   5.822   4.765
 1751SOL    HW1 6152   3.944   5.810   4.778
 1751SOL    HW2 6153   4.090   5.740   4.799
 1752SOL     OW 6154   6.995   2.140   2.543
 1752SOL    HW1 6155   6.960   2.152   2.636
 1752SOL    HW2 6156   6.921   2.153   2.477
 1753SOL     OW 6157   0.011   2.688   0.927
 1753SOL    HW1 6158   6.999   2.690   1.022
 1753SOL    HW2 6159   0.109   2.666   0.926
 1754SOL     OW 6160   3.338   3.294   1.373
 1754SOL    HW1 6161   3.358   3.244   1.457
 1754SOL    HW2 6162   3.366   3.390   1.383
 1755SOL     OW 6163   5.856   5.777   2.713
 1755SOL    HW1 6164   5.819   5.687   2.736
 1755SOL    HW2 6165   5.906   5.772   2.627
 1756SOL     OW 6166   4.228   4.296   6.190
 1756SOL    HW1 6167   4.129   4.291   6.204
 1756SOL    HW2 6168   4.251   4.259   6.100
 1757SOL     OW 6169   2.437   5.117   4.879
 1757SOL    HW1 6170   2.398   5.166   4.957
 1757SOL    HW2 6171   2.363   5.080   4.823
 1758SOL     OW 6172   2.883   0.383   3.861
 1758SOL    HW1 6173   2.944   0.396   3.783
 1758SOL    HW2 6174   2.931   0.406   3.945
 1759SOL     OW 6175   1.206   5.115   5.670
 1759SOL    HW1 6176   1.267   5.110   5.591
 1759SOL    HW2 6177   1.158   5.028   5.680
 1760SOL     OW 6178   5.908   1.958   1.596
 1760SOL    HW1 6179   5.895   1.991   1.503
 1760SOL    HW2 6180   5.867   2.022   1.661
 1761SOL     OW 6181   0.245   0.654   0.598
 1761SOL    HW1 6182   0.200   0.570   0.630
 1761SOL    HW2 6183   0.306   0.687   0.670
 1762SOL     OW 6184   6.694   1.769   4.871
 1762SOL    HW1 6185   6.766   1.738   4.934
 1762SOL    HW2 6186   6.686   1.705   4.795
 1763SOL     OW 6187   1.852   3.561   3.956
 1763SOL    HW1 6188   1.935   3.552   4.012
 1763SOL    HW2 6189   1.781   3.608   4.009
 1764SOL     OW 6190   2.204   4.108   2.650
 1764SOL    HW1 6191   2.107   4.116   2.673
 1764SOL    HW2 6192   2.215   4.112   2.551
 1765SOL     OW 6193   3.756   1.991   6.943
 1765SOL    HW1 6194   3.750   2.052   6.864
 1765SOL    HW2 6195   3.694   2.023   7.015
 1766SOL     OW 6196   4.951   3.558   3.486
 1766SOL    HW1 6197   5.036   3.525   3.446
 1766SOL    HW2 6198   4.905   3.619   3.421
 1767SOL     OW 6199   6.514   3.953   3.202
 1767SOL    HW1 6200   6.592   3.990   3.152
 1767SOL    HW2 6201   6.536   3.948   3.299
 1768SOL     OW 6202   3.541   1.292   4.812
 1768SOL    HW1 6203   3.485   1.362   4.858
 1768SOL    HW2 6204   3.577   1.329   4.727
 1769SOL     OW 6205   4.389   2.327   4.879
 1769SOL    HW1 6206   4.332   2.361   4.953
 1769SOL    HW2 6207   4.343   2.250   4.834
 1770SOL     OW 6208   0.315   5.305   4.750
 1770SOL    HW1 6209   0.290   5.215   4.716
 1770SOL    HW2 6210   0.235   5.350   4.789
 1771SOL     OW 6211   2.394   5.194   6.979
 1771SOL    HW1 6212   2.415   5.286   7.010
 1771SOL    HW2 6213   2.442   5.175   6.893
 1772SOL     OW 6214   2.976   6.457   3.449
 1772SOL    HW1 6215   2.997   6.448   3.547
 1772SOL    HW2 6216   2.944   6.549   3.430
 1773SOL     OW 6217   2.717   4.573   6.195
 1773SOL    HW1 6218   2.717   4.641   6.269
 1773SOL    HW2 6219   2.694   4.618   6.109
 1774SOL     OW 6220   4.425   0.107   1.922
 1774SOL    HW1 6221   4.359   0.151   1.982
 1774SOL    HW2 6222   4.386   0.098   1.830
 1775SOL     OW 6223   1.220   4.563   3.750
 1775SOL    HW1 6224   1.138   4.605   3.789
 1775SOL    HW2 6225   1.202   4.466   3.732
 1776SOL     OW 6226   3.431   1.005   4.585
 1776SOL    HW1 6227   3.528   0.993   4.564
 1776SOL    HW2 6228   3.422   1.032   4.681
 1777SOL     OW 6229   3.507   5.195   5.749
 1777SOL    HW1 6230   3.430   5.139   5.781
 1777SOL    HW2 6231   3.543   5.250   5.824
 1778SOL     OW 6232   4.732   2.783   6.107
 1778SOL    HW1 6233   4.766   2.877   6.099
 1778SOL    HW2 6234   4.790   2.732   6.170
 1779SOL     OW 6235   4.591   0.929   4.782
 1779SOL    HW1 6236   4.559   0.920   4.877
 1779SOL    HW2 6237   4.526   0.986   4.731
 1780SOL     OW 6238   2.564   3.484   6.082
 1780SOL    HW1 6239   2.545   3.500   5.985
 1780SOL    HW2 6240   2.629   3.551   6.116
 1781SOL     OW 6241   4.281   5.848   4.036
 1781SOL    HW1 6242   4.357   5.831   4.098
 1781SOL    HW2 6243   4.272   5.772   3.972
 1782SOL     OW 6244   2.660   2.407   2.610
 1782SOL    HW1 6245   2.663   2.403   2.510
 1782SOL    HW2 6246   2.740   2.362   2.648
 1783SOL     OW 6247   1.385   4.035   6.510
 1783SOL    HW1 6248   1.352   4.087   6.589
 1783SOL    HW2 6249   1.330   4.058   6.429
 1784SOL     OW 6250   3.584   1.296   5.125
 1784SOL    HW1 6251   3.664   1.269   5.072
 1784SOL    HW2 6252   3.504   1.298   5.065
 1785SOL     OW 6253   5.959   5.484   3.942
 1785SOL    HW1 6254   5.931   5.572   3.906
 1785SOL    HW2 6255   6.028   5.497   4.013
 1786SOL     OW 6256   1.401   2.711   1.449
 1786SOL    HW1 6257   1.323   2.708   1.513
 1786SOL    HW2 6258   1.421   2.806   1.426
 1787SOL     OW 6259   2.453   1.038   4.468
 1787SOL    HW1 6260   2.357   1.008   4.462
 1787SOL    HW2 6261   2.458   1.136   4.453
 1788SOL     OW 6262   3.500   2.879   0.156
 1788SOL    HW1 6263   3.407   2.854   0.130
 1788SOL    HW2 6264   3.501   2.971   0.193
 1789SOL     OW 6265   6.118   1.436   2.584
 1789SOL    HW1 6266   6.112   1.499   2.507
 1789SOL    HW2 6267   6.026   1.413   2.616
 1790SOL     OW 6268   4.454   6.694   4.052
 1790SOL    HW1 6269   4.449   6.652   4.143
 1790SOL    HW2 6270   4.415   6.786   4.056
 1791SOL     OW 6271   6.918   1.514   3.930
 1791SOL    HW1 6272   7.007   1.482   3.898
 1791SOL    HW2 6273   6.916   1.614   3.929
 1792SOL     OW 6274   0.217   2.294   3.823
 1792SOL    HW1 6275   0.209   2.335   3.914
 1792SOL    HW2 6276   0.257   2.361   3.760
 1793SOL     OW 6277   7.001   7.016   3.709
 1793SOL    HW1 6278   6.909   6.998   3.677
 1793SOL    HW2 6279   7.018   0.094   3.707
 1794SOL     OW 6280   5.974   6.145   6.315
 1794SOL    HW1 6281   6.001   6.222   6.257
 1794SOL    HW2 6282   5.929   6.076   6.258
 1795SOL     OW 6283   0.008   2.996   2.221
 1795SOL    HW1 6284   0.039   3.013   2.315
 1795SOL    HW2 6285   0.074   2.935   2.176
 1796SOL     OW 6286   2.582   0.736   4.398
 1796SOL    HW1 6287   2.649   0.808   4.414
 1796SOL    HW2 6288   2.583   0.711   4.301
 1797SOL     OW 6289   1.022   0.691   6.246
 1797SOL    HW1 6290   1.083   0.756   6.292
 1797SOL    HW2 6291   1.007   0.612   6.305
 1798SOL     OW 6292   5.043   1.997   4.347
 1798SOL    HW1 6293   5.081   1.978   4.257
 1798SOL    HW2 6294   4.972   2.068   4.339
 1799SOL     OW 6295   6.491   1.682   6.139
 1799SOL    HW1 6296   6.496   1.781   6.129
 1799SOL    HW2 6297   6.474   1.659   6.235
 1800SOL     OW 6298   4.210   5.097   2.861
 1800SOL    HW1 6299   4.280   5.164   2.887
 1800SOL    HW2 6300   4.130   5.145   2.824
 1801SOL     OW 6301   0.576   0.829   2.328
 1801SOL    HW1 6302   0.597   0.809   2.232
 1801SOL    HW2 6303   0.648   0.887   2.367
 1802SOL     OW 6304   5.560   5.122   2.410
 1802SOL    HW1 6305   5.470   5.107   2.369
 1802SOL    HW2 6306   5.573   5.059   2.486
 1803SOL     OW 6307   0.093   5.988   7.013
 1803SOL    HW1 6308   0.143   5.998   0.078
 1803SOL    HW2 6309   0.147   5.932   6.949
 1804SOL     OW 6310   2.139   4.222   5.913
 1804SOL    HW1 6311   2.040   4.215   5.913
 1804SOL    HW2 6312   2.172   4.224   5.818
 1805SOL     OW 6313   6.596   3.675   5.803
 1805SOL    HW1 6314   6.509   3.724   5.809
 1805SOL    HW2 6315   6.669   3.732   5.839
 1806SOL     OW 6316   1.204   1.238   0.643
 1806SOL    HW1 6317   1.279   1.201   0.698
 1806SOL    HW2 6318   1.241   1.303   0.577
 1807SOL     OW 6319   4.967   2.529   6.019
 1807SOL    HW1 6320   5.046   2.471   6.035
 1807SOL    HW2 6321   4.960   2.552   5.922
 1808SOL     OW 6322   0.162   3.467   5.700
 1808SOL    HW1 6323   0.118   3.406   5.633
 1808SOL    HW2 6324   0.093   3.503   5.763
 1809SOL     OW 6325   2.114   3.352   4.417
 1809SOL    HW1 6326   2.022   3.363   4.380
 1809SOL    HW2 6327   2.176   3.325   4.343
 1810SOL     OW 6328   2.802   0.757   4.627
 1810SOL    HW1 6329   2.738   0.832   4.610
 1810SOL    HW2 6330   2.896   0.792   4.620
 1811SOL     OW 6331   4.524   4.485   3.583
 1811SOL    HW1 6332   4.586   4.410   3.603
 1811SOL    HW2 6333   4.504   4.488   3.485
 1812SOL     OW 6334   4.443   6.481   6.111
 1812SOL    HW1 6335   4.388   6.560   6.085
 1812SOL    HW2 6336   4.426   6.459   6.207
 1813SOL     OW 6337   5.552   5.229   0.257
 1813SOL    HW1 6338   5.533   5.317   0.301
 1813SOL    HW2 6339   5.468   5.175   0.253
 1814SOL     OW 6340   6.800   1.185   0.192
 1814SOL    HW1 6341   6.789   1.186   0.093
 1814SOL    HW2 6342   6.757   1.103   0.230
 1815SOL     OW 6343   5.865   2.611   1.893
 1815SOL    HW1 6344   5.812   2.543   1.842
 1815SOL    HW2 6345   5.812   2.695   1.902
 1816SOL     OW 6346   2.555   4.169   0.911
 1816SOL    HW1 6347   2.595   4.114   0.985
 1816SOL    HW2 6348   2.600   4.145   0.824
 1817SOL     OW 6349   3.169   6.669   3.220
 1817SOL    HW1 6350   3.151   6.574   3.193
 1817SOL    HW2 6351   3.260   6.696   3.191
 1818SOL     OW 6352   1.846   6.553   2.233
 1818SOL    HW1 6353   1.787   6.529   2.155
 1818SOL    HW2 6354   1.896   6.472   2.263
 1819SOL     OW 6355   6.933   5.378   1.496
 1819SOL    HW1 6356   6.908   5.282   1.511
 1819SOL    HW2 6357   6.968   5.388   1.403
 1820SOL     OW 6358   4.991   0.857   2.566
 1820SOL    HW1 6359   5.056   0.782   2.573
 1820SOL    HW2 6360   4.941   0.867   2.652
 1821SOL     OW 6361   2.535   0.958   1.510
 1821SOL    HW1 6362   2.580   1.023   1.448
 1821SOL    HW2 6363   2.530   0.868   1.466
 1822SOL     OW 6364   1.743   2.716   1.619
 1822SOL    HW1 6365   1.712   2.772   1.542
 1822SOL    HW2 6366   1.757   2.622   1.589
 1823SOL     OW 6367   2.702   5.752   3.440
 1823SOL    HW1 6368   2.643   5.697   3.380
 1823SOL    HW2 6369   2.751   5.820   3.385
 1824SOL     OW 6370   3.641   3.311   1.482
 1824SOL    HW1 6371   3.686   3.326   1.394
 1824SOL    HW2 6372   3.589   3.226   1.479
 1825SOL     OW 6373   1.305   1.769   4.081
 1825SOL    HW1 6374   1.293   1.848   4.022
 1825SOL    HW2 6375   1.219   1.750   4.128
 1826SOL     OW 6376   3.169   0.402   0.965
 1826SOL    HW1 6377   3.085   0.379   1.014
 1826SOL    HW2 6378   3.178   0.345   0.884
 1827SOL     OW 6379   0.175   6.145   1.869
 1827SOL    HW1 6380   0.113   6.192   1.806
 1827SOL    HW2 6381   0.131   6.062   1.903
 1828SOL     OW 6382   1.110   2.511   0.859
 1828SOL    HW1 6383   1.060   2.479   0.940
 1828SOL    HW2 6384   1.208   2.495   0.873
 1829SOL     OW 6385   3.017   0.779   3.598
 1829SOL    HW1 6386   3.053   0.821   3.515
 1829SOL    HW2 6387   3.007   0.848   3.669
 1830SOL     OW 6388   5.848   6.239   3.828
 1830SOL    HW1 6389   5.934   6.193   3.805
 1830SOL    HW2 6390   5.867   6.329   3.867
 1831SOL     OW 6391   6.053   0.378   2.360
 1831SOL    HW1 6392   6.063   0.477   2.372
 1831SOL    HW2 6393   6.143   0.334   2.368
 1832SOL     OW 6394   4.882   1.757   0.979
 1832SOL    HW1 6395   4.798   1.728   0.934
 1832SOL    HW2 6396   4.873   1.742   1.078
 1833SOL     OW 6397   5.303   0.373   6.522
 1833SOL    HW1 6398   5.368   0.418   6.461
 1833SOL    HW2 6399   5.344   0.290   6.560
 1834SOL     OW 6400   2.736   4.353   0.368
 1834SOL    HW1 6401   2.756   4.363   0.270
 1834SOL    HW2 6402   2.809   4.302   0.412
 1835SOL     OW 6403   0.239   3.707   2.204
 1835SOL    HW1 6404   0.329   3.673   2.178
 1835SOL    HW2 6405   0.248   3.774   2.277
 1836SOL     OW 6406   5.032   2.628   0.917
 1836SOL    HW1 6407   4.958   2.592   0.859
 1836SOL    HW2 6408   5.026   2.728   0.919
 1837SOL     OW 6409   1.406   1.619   4.775
 1837SOL    HW1 6410   1.429   1.649   4.683
 1837SOL    HW2 6411   1.424   1.693   4.840
 1838SOL     OW 6412   6.936   1.345   4.333
 1838SOL    HW1 6413   6.862   1.353   4.266
 1838SOL    HW2 6414   6.985   1.260   4.319
 1839SOL     OW 6415   5.381   2.932   5.271
 1839SOL    HW1 6416   5.366   2.836   5.247
 1839SOL    HW2 6417   5.390   2.985   5.187
 1840SOL     OW 6418   3.266   5.733   1.494
 1840SOL    HW1 6419   3.365   5.742   1.508
 1840SOL    HW2 6420   3.220   5.814   1.530
 1841SOL     OW 6421   2.441   1.036   3.646
 1841SOL    HW1 6422   2.419   1.031   3.549
 1841SOL    HW2 6423   2.390   1.111   3.688
 1842SOL     OW 6424   1.645   5.601   0.296
 1842SOL    HW1 6425   1.551   5.632   0.293
 1842SOL    HW2 6426   1.697   5.644   0.222
 1843SOL     OW 6427   6.533   2.431   3.767
 1843SOL    HW1 6428   6.533   2.349   3.711
 1843SOL    HW2 6429   6.611   2.429   3.829
 1844SOL     OW 6430   3.304   0.305   5.442
 1844SOL    HW1 6431   3.304   0.380   5.375
 1844SOL    HW2 6432   3.391   0.256   5.437
 1845SOL     OW 6433   2.525   0.181   5.153
 1845SOL    HW1 6434   2.621   0.193   5.181
 1845SOL    HW2 6435   2.490   0.267   5.116
 1846SOL     OW 6436   4.157   2.085   1.122
 1846SOL    HW1 6437   4.208   2.013   1.167
 1846SOL    HW2 6438   4.062   2.085   1.156
 1847SOL     OW 6439   1.729   1.173   6.344
 1847SOL    HW1 6440   1.696   1.185   6.437
 1847SOL    HW2 6441   1.784   1.252   6.318
 1848SOL     OW 6442   1.032   6.988   3.104
 1848SOL    HW1 6443   1.066   0.061   3.094
 1848SOL    HW2 6444   1.097   6.933   3.157
 1849SOL     OW 6445   4.028   2.672   0.740
 1849SOL    HW1 6446   4.003   2.679   0.643
 1849SOL    HW2 6447   4.004   2.582   0.774
 1850SOL     OW 6448   0.972   2.501   1.970
 1850SOL    HW1 6449   1.041   2.430   1.958
 1850SOL    HW2 6450   1.012   2.579   2.017
 1851SOL     OW 6451   6.829   2.860   1.205
 1851SOL    HW1 6452   6.772   2.841   1.125
 1851SOL    HW2 6453   6.898   2.788   1.214
 1852SOL     OW 6454   6.270   3.953   2.079
 1852SOL    HW1 6455   6.245   3.860   2.108
 1852SOL    HW2 6456   6.188   4.011   2.079
 1853SOL     OW 6457   0.050   2.827   2.971
 1853SOL    HW1 6458   0.051   2.748   2.910
 1853SOL    HW2 6459   0.138   2.873   2.969
 1854SOL     OW 6460   2.834   5.967   3.300
 1854SOL    HW1 6461   2.783   6.015   3.229
 1854SOL    HW2 6462   2.833   6.020   3.384
 1855SOL     OW 6463   5.485   3.145   6.099
 1855SOL    HW1 6464   5.570   3.102   6.068
 1855SOL    HW2 6465   5.502   3.194   6.185
 1856SOL     OW 6466   5.976   3.613   5.622
 1856SOL    HW1 6467   5.949   3.530   5.670
 1856SOL    HW2 6468   6.052   3.593   5.560
 1857SOL     OW 6469   4.215   1.300   5.346
 1857SOL    HW1 6470   4.176   1.340   5.263
 1857SOL    HW2 6471   4.146   1.243   5.391
 1858SOL     OW 6472   6.341   3.759   3.832
 1858SOL    HW1 6473   6.418   3.816   3.804
 1858SOL    HW2 6474   6.346   3.742   3.930
 1859SOL     OW 6475   4.775   1.828   2.933
 1859SOL    HW1 6476   4.873   1.824   2.916
 1859SOL    HW2 6477   4.726   1.787   2.856
 1860SOL     OW 6478   6.198   0.325   4.898
 1860SOL    HW1 6479   6.274   0.272   4.861
 1860SOL    HW2 6480   6.141   0.267   4.956
 1861SOL     OW 6481   5.982   0.459   2.097
 1861SOL    HW1 6482   5.883   0.451   2.089
 1861SOL    HW2 6483   6.014   0.410   2.178
 1862SOL     OW 6484   2.496   0.449   6.177
 1862SOL    HW1 6485   2.400   0.443   6.150
 1862SOL    HW2 6486   2.510   0.532   6.231
 1863SOL     OW 6487   1.505   2.113   2.030
 1863SOL    HW1 6488   1.477   2.067   1.946
 1863SOL    HW2 6489   1.549   2.047   2.091
 1864SOL     OW 6490   0.950   6.755   5.386
 1864SOL    HW1 6491   0.860   6.797   5.393
 1864SOL    HW2 6492   0.946   6.675   5.325
 1865SOL     OW 6493   3.543   6.841   6.412
 1865SOL    HW1 6494   3.471   6.909   6.401
 1865SOL    HW2 6495   3.627   6.874   6.368
 1866SOL     OW 6496   4.354   5.151   3.294
 1866SOL    HW1 6497   4.352   5.152   3.394
 1866SOL    HW2 6498   4.410   5.226   3.261
 1867SOL     OW 6499   0.168   4.231   0.210
 1867SOL    HW1 6500   0.259   4.210   0.244
 1867SOL    HW2 6501   0.174   4.268   0.118
 1868SOL     OW 6502   4.683   4.058   6.641
 1868SOL    HW1 6503   4.640   4.117   6.709
 1868SOL    HW2 6504   4.775   4.034   6.672
 1869SOL     OW 6505   6.264   2.900   5.753
 1869SOL    HW1 6506   6.359   2.924   5.735
 1869SOL    HW2 6507   6.255   2.864   5.846
 1870SOL     OW 6508   1.677   2.978   5.728
 1870SOL    HW1 6509   1.648   2.894   5.683
 1870SOL    HW2 6510   1.772   2.970   5.756
 1871SOL     OW 6511   0.360   0.587   0.334
 1871SOL    HW1 6512   0.330   0.625   0.421
 1871SOL    HW2 6513   0.456   0.560   0.340
 1872SOL     OW 6514   4.172   1.240   6.235
 1872SOL    HW1 6515   4.194   1.305   6.162
 1872SOL    HW2 6516   4.086   1.266   6.278
 1873SOL     OW 6517   5.438   1.470   5.806
 1873SOL    HW1 6518   5.419   1.378   5.772
 1873SOL    HW2 6519   5.492   1.520   5.739
 1874SOL     OW 6520   3.372   1.654   0.487
 1874SOL    HW1 6521   3.282   1.699   0.491
 1874SOL    HW2 6522   3.444   1.723   0.491
 1875SOL     OW 6523   6.916   0.726   0.100
 1875SOL    HW1 6524   6.938   0.774   0.015
 1875SOL    HW2 6525   6.990   0.738   0.166
 1876SOL     OW 6526   3.658   6.402   6.210
 1876SOL    HW1 6527   3.606   6.422   6.127
 1876SOL    HW2 6528   3.679   6.304   6.212
 1877SOL     OW 6529   0.145   0.188   2.395
 1877SOL    HW1 6530   0.188   0.278   2.387
 1877SOL    HW2 6531   0.216   0.118   2.392
 1878SOL     OW 6532   6.746   2.683   3.434
 1878SOL    HW1 6533   6.784   2.653   3.521
 1878SOL    HW2 6534   6.746   2.783   3.430
 1879SOL     OW 6535   1.278   4.818   3.901
 1879SOL    HW1 6536   1.272   4.720   3.918
 1879SOL    HW2 6537   1.367   4.840   3.861
 1880SOL     OW 6538   6.447   1.320   4.305
 1880SOL    HW1 6539   6.402   1.309   4.394
 1880SOL    HW2 6540   6.478   1.415   4.295
 1881SOL     OW 6541   6.009   2.413   2.819
 1881SOL    HW1 6542   5.933   2.352   2.840
 1881SOL    HW2 6543   6.079   2.364   2.767
 1882SOL     OW 6544   0.663   3.508   6.343
 1882SOL    HW1 6545   0.647   3.605   6.359
 1882SOL    HW2 6546   0.584   3.468   6.296
 1883SOL     OW 6547   0.932   2.240   3.901
 1883SOL    HW1 6548   0.896   2.281   3.984
 1883SOL    HW2 6549   0.946   2.311   3.832
 1884SOL     OW 6550   6.585   3.128   0.758
 1884SOL    HW1 6551   6.666   3.086   0.717
 1884SOL    HW2 6552   6.503   3.082   0.725
 1885SOL     OW 6553   1.490   2.494   6.323
 1885SOL    HW1 6554   1.439   2.574   6.353
 1885SOL    HW2 6555   1.482   2.422   6.392
 1886SOL     OW 6556   2.264   0.880   1.241
 1886SOL    HW1 6557   2.270   0.966   1.293
 1886SOL    HW2 6558   2.334   0.817   1.274
 1887SOL     OW 6559   0.815   5.758   5.100
 1887SOL    HW1 6560   0.725   5.802   5.097
 1887SOL    HW2 6561   0.837   5.721   5.009
 1888SOL     OW 6562   2.454   1.870   0.035
 1888SOL    HW1 6563   2.364   1.859   7.013
 1888SOL    HW2 6564   2.524   1.838   6.991
 1889SOL     OW 6565   0.601   2.830   6.128
 1889SOL    HW1 6566   0.503   2.817   6.141
 1889SOL    HW2 6567   0.617   2.914   6.076
 1890SOL     OW 6568   1.631   6.550   4.457
 1890SOL    HW1 6569   1.731   6.551   4.455
 1890SOL    HW2 6570   1.599   6.462   4.492
 1891SOL     OW 6571   5.359   2.008   2.081
 1891SOL    HW1 6572   5.371   1.909   2.075
 1891SOL    HW2 6573   5.275   2.028   2.132
 1892SOL     OW 6574   2.514   0.913   2.539
 1892SOL    HW1 6575   2.471   0.868   2.617
 1892SOL    HW2 6576   2.445   0.933   2.470
 1893SOL     OW 6577   3.378   3.084   6.894
 1893SOL    HW1 6578   3.371   3.010   6.961
 1893SOL    HW2 6579   3.314   3.157   6.918
 1894SOL     OW 6580   3.629   4.103   3.977
 1894SOL    HW1 6581   3.617   4.082   4.074
 1894SOL    HW2 6582   3.626   4.202   3.964
 1895SOL     OW 6583   5.143   0.724   1.765
 1895SOL    HW1 6584   5.120   0.806   1.817
 1895SOL    HW2 6585   5.210   0.670   1.816
 1896SOL     OW 6586   5.576   0.098   1.235
 1896SOL    HW1 6587   5.514   0.040   1.182
 1896SOL    HW2 6588   5.545   0.193   1.229
 1897SOL     OW 6589   1.756   5.304   1.609
 1897SOL    HW1 6590   1.843   5.337   1.646
 1897SOL    HW2 6591   1.684   5.318   1.677
 1898SOL     OW 6592   2.314   5.596   3.356
 1898SOL    HW1 6593   2.367   5.596   3.271
 1898SOL    HW2 6594   2.225   5.638   3.340
 1899SOL     OW 6595   0.990   0.893   2.122
 1899SOL    HW1 6596   0.901   0.935   2.104
 1899SOL    HW2 6597   1.062   0.961   2.109
 1900SOL     OW 6598   1.556   0.248   6.439
 1900SOL    HW1 6599   1.497   0.192   6.380
 1900SOL    HW2 6600   1.501   0.290   6.510
 1901SOL     OW 6601   1.569   1.914   1.339
 1901SOL    HW1 6602   1.539   2.010   1.336
 1901SOL    HW2 6603   1.533   1.871   1.422
 1902SOL     OW 6604   2.032   1.636   5.097
 1902SOL    HW1 6605   2.132   1.633   5.098
 1902SOL    HW2 6606   1.996   1.543   5.085
 1903SOL     OW 6607   6.871   3.414   2.387
 1903SOL    HW1 6608   6.854   3.329   2.339
 1903SOL    HW2 6609   6.967   3.441   2.376
 1904SOL     OW 6610   5.388   5.483   3.394
 1904SOL    HW1 6611   5.315   5.483   3.462
 1904SOL    HW2 6612   5.378   5.564   3.336
 1905SOL     OW 6613   1.123   6.980   3.635
 1905SOL    HW1 6614   1.215   7.005   3.608
 1905SOL    HW2 6615   1.104   7.014   3.727
 1906SOL     OW 6616   2.534   0.156   4.843
 1906SOL    HW1 6617   2.506   0.063   4.865
 1906SOL    HW2 6618   2.608   0.185   4.904
 1907SOL     OW 6619   3.702   1.068   1.569
 1907SOL    HW1 6620   3.718   1.162   1.600
 1907SOL    HW2 6621   3.667   1.013   1.645
 1908SOL     OW 6622   3.641   6.617   5.326
 1908SOL    HW1 6623   3.733   6.576   5.324
 1908SOL    HW2 6624   3.646   6.709   5.289
 1909SOL     OW 6625   0.122   3.887   2.685
 1909SOL    HW1 6626   0.178   3.895   2.768
 1909SOL    HW2 6627   0.181   3.860   2.608
 1910SOL     OW 6628   0.168   4.240   6.952
 1910SOL    HW1 6629   0.250   4.183   6.943
 1910SOL    HW2 6630   0.188   4.333   6.922
 1911SOL     OW 6631   6.791   3.711   4.867
 1911SOL    HW1 6632   6.877   3.742   4.826
 1911SOL    HW2 6633   6.799   3.614   4.891
 1912SOL     OW 6634   3.822   5.895   0.695
 1912SOL    HW1 6635   3.862   5.818   0.645
 1912SOL    HW2 6636   3.879   5.976   0.682
 1913SOL     OW 6637   2.907   6.565   4.829
 1913SOL    HW1 6638   2.983   6.627   4.811
 1913SOL    HW2 6639   2.891   6.559   4.927
 1914SOL     OW 6640   3.863   3.037   6.131
 1914SOL    HW1 6641   3.773   3.044   6.088
 1914SOL    HW2 6642   3.922   2.979   6.075
 1915SOL     OW 6643   3.304   2.042   5.104
 1915SOL    HW1 6644   3.252   2.124   5.083
 1915SOL    HW2 6645   3.307   2.029   5.204
 1916SOL     OW 6646   4.142   5.702   1.144
 1916SOL    HW1 6647   4.151   5.637   1.068
 1916SOL    HW2 6648   4.228   5.708   1.194
 1917SOL     OW 6649   2.368   3.131   6.552
 1917SOL    HW1 6650   2.381   3.042   6.596
 1917SOL    HW2 6651   2.456   3.176   6.541
 1918SOL     OW 6652   1.315   0.911   5.383
 1918SOL    HW1 6653   1.371   0.979   5.335
 1918SOL    HW2 6654   1.221   0.916   5.349
 1919SOL     OW 6655   1.915   0.985   1.483
 1919SOL    HW1 6656   2.004   0.948   1.511
 1919SOL    HW2 6657   1.843   0.922   1.509
 1920SOL     OW 6658   0.256   3.808   2.911
 1920SOL    HW1 6659   0.209   3.848   2.989
 1920SOL    HW2 6660   0.355   3.825   2.919
 1921SOL     OW 6661   1.322   3.403   6.139
 1921SOL    HW1 6662   1.286   3.366   6.054
 1921SOL    HW2 6663   1.366   3.491   6.122
 1922SOL     OW 6664   2.332   3.398   1.161
 1922SOL    HW1 6665   2.275   3.366   1.237
 1922SOL    HW2 6666   2.395   3.468   1.194
 1923SOL     OW 6667   4.258   0.963   5.524
 1923SOL    HW1 6668   4.215   1.054   5.526
 1923SOL    HW2 6669   4.187   0.893   5.517
 1924SOL     OW 6670   5.019   6.569   0.217
 1924SOL    HW1 6671   5.083   6.617   0.277
 1924SOL    HW2 6672   5.062   6.553   0.128
 1925SOL     OW 6673   2.052   4.907   0.860
 1925SOL    HW1 6674   1.957   4.894   0.830
 1925SOL    HW2 6675   2.075   5.004   0.856
 1926SOL     OW 6676   2.504   6.852   2.928
 1926SOL    HW1 6677   2.485   6.758   2.900
 1926SOL    HW2 6678   2.420   6.896   2.958
 1927SOL     OW 6679   2.853   4.601   0.635
 1927SOL    HW1 6680   2.761   4.592   0.599
 1927SOL    HW2 6681   2.876   4.520   0.689
 1928SOL     OW 6682   6.335   3.986   4.899
 1928SOL    HW1 6683   6.375   3.905   4.941
 1928SOL    HW2 6684   6.361   4.067   4.951
 1929SOL     OW 6685   2.151   0.034   1.461
 1929SOL    HW1 6686   2.239   0.014   1.419
 1929SOL    HW2 6687   2.084   0.057   1.390
 1930SOL     OW 6688   4.369   3.699   6.699
 1930SOL    HW1 6689   4.345   3.766   6.629
 1930SOL    HW2 6690   4.304   3.705   6.775
 1931SOL     OW 6691   1.155   2.768   1.622
 1931SOL    HW1 6692   1.124   2.801   1.711
 1931SOL    HW2 6693   1.082   2.780   1.555
 1932SOL     OW 6694   4.725   2.376   2.952
 1932SOL    HW1 6695   4.674   2.341   3.030
 1932SOL    HW2 6696   4.663   2.420   2.888
 1933SOL     OW 6697   1.406   3.537   0.244
 1933SOL    HW1 6698   1.462   3.467   0.287
 1933SOL    HW2 6699   1.316   3.539   0.287
 1934SOL     OW 6700   6.427   0.224   5.260
 1934SOL    HW1 6701   6.438   0.247   5.357
 1934SOL    HW2 6702   6.405   0.307   5.209
 1935SOL     OW 6703   4.750   5.609   3.351
 1935SOL    HW1 6704   4.777   5.517   3.323
 1935SOL    HW2 6705   4.667   5.605   3.406
 1936SOL     OW 6706   5.375   4.328   3.829
 1936SOL    HW1 6707   5.415   4.297   3.743
 1936SOL    HW2 6708   5.426   4.406   3.864
 1937SOL     OW 6709   4.448   6.135   0.431
 1937SOL    HW1 6710   4.497   6.087   0.357
 1937SOL    HW2 6711   4.512   6.154   0.506
 1938SOL     OW 6712   1.248   1.666   2.125
 1938SOL    HW1 6713   1.170   1.727   2.114
 1938SOL    HW2 6714   1.285   1.641   2.036
 1939SOL     OW 6715   0.166   6.837   4.153
 1939SOL    HW1 6716   0.091   6.897   4.123
 1939SOL    HW2 6717   0.238   6.837   4.083
 1940SOL     OW 6718   5.874   5.592   0.931
 1940SOL    HW1 6719   5.809   5.642   0.989
 1940SOL    HW2 6720   5.950   5.559   0.987
 1941SOL     OW 6721   1.483   2.853   4.219
 1941SOL    HW1 6722   1.452   2.897   4.135
 1941SOL    HW2 6723   1.567   2.801   4.200
 1942SOL     OW 6724   5.481   2.584   1.608
 1942SOL    HW1 6725   5.401   2.595   1.666
 1942SOL    HW2 6726   5.546   2.522   1.652
 1943SOL     OW 6727   1.889   6.880   3.107
 1943SOL    HW1 6728   1.872   6.827   3.024
 1943SOL    HW2 6729   1.988   6.892   3.119
 1944SOL     OW 6730   6.271   3.768   0.002
 1944SOL    HW1 6731   6.344   3.792   6.958
 1944SOL    HW2 6732   6.292   3.680   0.045
 1945SOL     OW 6733   4.172   5.411   6.998
 1945SOL    HW1 6734   4.227   5.478   6.949
 1945SOL    HW2 6735   4.228   5.332   0.001
 1946SOL     OW 6736   5.742   6.600   1.125
 1946SOL    HW1 6737   5.744   6.508   1.086
 1946SOL    HW2 6738   5.821   6.652   1.092
 1947SOL     OW 6739   5.510   6.283   4.558
 1947SOL    HW1 6740   5.492   6.277   4.460
 1947SOL    HW2 6741   5.562   6.366   4.578
 1948SOL     OW 6742   6.699   4.827   2.839
 1948SOL    HW1 6743   6.662   4.899   2.897
 1948SOL    HW2 6744   6.631   4.755   2.826
 1949SOL     OW 6745   3.500   3.552   6.481
 1949SOL    HW1 6746   3.517   3.455   6.500
 1949SOL    HW2 6747   3.587   3.601   6.479
 1950SOL     OW 6748   3.858   3.199   1.757
 1950SOL    HW1 6749   3.910   3.121   1.792
 1950SOL    HW2 6750   3.818   3.176   1.668
 1951SOL     OW 6751   6.459   4.513   6.678
 1951SOL    HW1 6752   6.461   4.508   6.578
 1951SOL    HW2 6753   6.365   4.525   6.708
 1952SOL     OW 6754   4.751   4.444   1.183
 1952SOL    HW1 6755   4.671   4.427   1.240
 1952SOL    HW2 6756   4.834   4.422   1.235
 1953SOL     OW 6757   5.949   1.123   5.395
 1953SOL    HW1 6758   5.862   1.173   5.391
 1953SOL    HW2 6759   6.025   1.188   5.396
 1954SOL     OW 6760   6.405   0.386   1.370
 1954SOL    HW1 6761   6.423   0.290   1.392
 1954SOL    HW2 6762   6.339   0.423   1.436
 1955SOL     OW 6763   0.481   0.354   3.008
 1955SOL    HW1 6764   0.534   0.315   3.084
 1955SOL    HW2 6765   0.456   0.448   3.030
 1956SOL     OW 6766   5.104   6.900   1.762
 1956SOL    HW1 6767   5.043   6.896   1.683
 1956SOL    HW2 6768   5.199   6.902   1.730
 1957SOL     OW 6769   5.140   4.417   4.007
 1957SOL    HW1 6770   5.228   4.406   3.961
 1957SOL    HW2 6771   5.155   4.462   4.096
 1958SOL     OW 6772   4.717   1.658   1.537
 1958SOL    HW1 6773   4.782   1.690   1.607
 1958SOL    HW2 6774   4.625   1.690   1.559
 1959SOL     OW 6775   1.101   0.071   3.876
 1959SOL    HW1 6776   1.189   0.061   3.923
 1959SOL    HW2 6777   1.038   0.122   3.934
 1960SOL     OW 6778   0.278   3.872   2.406
 1960SOL    HW1 6779   0.376   3.872   2.429
 1960SOL    HW2 6780   0.240   3.963   2.422
 1961SOL     OW 6781   6.647   4.153   4.496
 1961SOL    HW1 6782   6.733   4.150   4.547
 1961SOL    HW2 6783   6.582   4.088   4.534
 1962SOL     OW 6784   1.638   6.480   2.411
 1962SOL    HW1 6785   1.712   6.532   2.369
 1962SOL    HW2 6786   1.622   6.396   2.358
 1963SOL     OW 6787   1.063   1.628   1.782
 1963SOL    HW1 6788   1.162   1.624   1.795
 1963SOL    HW2 6789   1.042   1.614   1.685
 1964SOL     OW 6790   4.240   4.627   1.506
 1964SOL    HW1 6791   4.328   4.661   1.474
 1964SOL    HW2 6792   4.254   4.557   1.576
 1965SOL     OW 6793   1.665   3.006   4.603
 1965SOL    HW1 6794   1.741   3.064   4.572
 1965SOL    HW2 6795   1.701   2.930   4.657
 1966SOL     OW 6796   0.476   6.146   1.403
 1966SOL    HW1 6797   0.499   6.117   1.496
 1966SOL    HW2 6798   0.535   6.222   1.376
 1967SOL     OW 6799   5.652   2.864   3.953
 1967SOL    HW1 6800   5.555   2.860   3.932
 1967SOL    HW2 6801   5.694   2.940   3.904
 1968SOL     OW 6802   2.037   0.500   5.541
 1968SOL    HW1 6803   1.959   0.560   5.557
 1968SOL    HW2 6804   2.054   0.493   5.442
 1969SOL     OW 6805   2.999   1.359   0.825
 1969SOL    HW1 6806   3.064   1.433   0.839
 1969SOL    HW2 6807   3.030   1.277   0.872
 1970SOL     OW 6808   1.790   6.965   5.787
 1970SOL    HW1 6809   1.827   6.984   5.695
 1970SOL    HW2 6810   1.774   6.867   5.796
 1971SOL     OW 6811   0.157   0.845   5.208
 1971SOL    HW1 6812   0.059   0.854   5.190
 1971SOL    HW2 6813   0.174   0.852   5.306
 1972SOL     OW 6814   5.662   2.226   1.161
 1972SOL    HW1 6815   5.677   2.236   1.062
 1972SOL    HW2 6816   5.565   2.205   1.178
 1973SOL     OW 6817   2.901   4.141   1.026
 1973SOL    HW1 6818   2.840   4.062   1.016
 1973SOL    HW2 6819   2.996   4.110   1.028
 1974SOL     OW 6820   4.923   0.322   4.927
 1974SOL    HW1 6821   4.926   0.224   4.905
 1974SOL    HW2 6822   4.922   0.376   4.843
 1975SOL     OW 6823   1.907   2.206   4.174
 1975SOL    HW1 6824   1.949   2.115   4.172
 1975SOL    HW2 6825   1.866   2.222   4.264
 1976SOL     OW 6826   6.199   6.520   0.479
 1976SOL    HW1 6827   6.194   6.421   0.472
 1976SOL    HW2 6828   6.264   6.546   0.550
 1977SOL     OW 6829   1.948   3.518   5.402
 1977SOL    HW1 6830   1.921   3.422   5.403
 1977SOL    HW2 6831   2.010   3.534   5.325
 1978SOL     OW 6832   1.953   6.158   2.879
 1978SOL    HW1 6833   1.965   6.061   2.860
 1978SOL    HW2 6834   1.928   6.170   2.975
 1979SOL     OW 6835   5.190   5.084   0.033
 1979SOL    HW1 6836   5.286   5.108   0.047
 1979SOL    HW2 6837   5.170   4.998   0.080
 1980SOL     OW 6838   4.125   6.946   3.901
 1980SOL    HW1 6839   4.051   6.882   3.921
 1980SOL    HW2 6840   4.118   6.975   3.805
 1981SOL     OW 6841   5.703   3.433   2.321
 1981SOL    HW1 6842   5.604   3.428   2.330
 1981SOL    HW2 6843   5.742   3.481   2.400
 1982SOL     OW 6844   6.763   4.411   3.687
 1982SOL    HW1 6845   6.781   4.415   3.785
 1982SOL    HW2 6846   6.678   4.458   3.666
 1983SOL     OW 6847   1.772   0.124   1.502
 1983SOL    HW1 6848   1.822   0.131   1.589
 1983SOL    HW2 6849   1.801   0.198   1.441
 1984SOL     OW 6850   4.638   2.388   4.991
 1984SOL    HW1 6851   4.614   2.408   5.086
 1984SOL    HW2 6852   4.563   2.338   4.948
 1985SOL     OW 6853   6.932   5.899   2.741
 1985SOL    HW1 6854   7.006   5.966   2.745
 1985SOL    HW2 6855   6.885   5.895   2.829
 1986SOL     OW 6856   3.222   1.510   6.264
 1986SOL    HW1 6857   3.124   1.500   6.244
 1986SOL    HW2 6858   3.233   1.533   6.361
 1987SOL     OW 6859   2.403   2.001   3.166
 1987SOL    HW1 6860   2.314   2.025   3.127
 1987SOL    HW2 6861   2.417   2.051   3.251
 1988SOL     OW 6862   6.971   3.247   0.628
 1988SOL    HW1 6863   6.973   3.207   0.719
 1988SOL    HW2 6864   6.949   3.345   0.635
 1989SOL     OW 6865   1.939   5.570   5.465
 1989SOL    HW1 6866   1.930   5.514   5.547
 1989SOL    HW2 6867   1.857   5.558   5.408
 1990SOL     OW 6868   3.916   5.661   0.596
 1990SOL    HW1 6869   3.931   5.649   0.694
 1990SOL    HW2 6870   3.918   5.572   0.551
 1991SOL     OW 6871   2.423   6.330   0.344
 1991SOL    HW1 6872   2.361   6.383   0.401
 1991SOL    HW2 6873   2.372   6.284   0.272
 1992SOL     OW 6874   0.119   0.789   0.278
 1992SOL    HW1 6875   0.144   0.711   0.335
 1992SOL    HW2 6876   0.199   0.847   0.265
 1993SOL     OW 6877   3.768   1.699   5.921
 1993SOL    HW1 6878   3.850   1.740   5.961
 1993SOL    HW2 6879   3.780   1.600   5.916
 1994SOL     OW 6880   6.553   2.368   0.865
 1994SOL    HW1 6881   6.524   2.284   0.912
 1994SOL    HW2 6882   6.538   2.446   0.925
 1995SOL     OW 6883   5.470   3.103   3.634
 1995SOL    HW1 6884   5.543   3.144   3.688
 1995SOL    HW2 6885   5.501   3.015   3.597
 1996SOL     OW 6886   2.512   1.871   0.991
 1996SOL    HW1 6887   2.580   1.907   0.927
 1996SOL    HW2 6888   2.543   1.782   1.024
 1997SOL     OW 6889   3.887   1.933   4.115
 1997SOL    HW1 6890   3.948   1.949   4.038
 1997SOL    HW2 6891   3.817   2.004   4.117
 1998SOL     OW 6892   1.162   3.661   0.485
 1998SOL    HW1 6893   1.096   3.603   0.438
 1998SOL    HW2 6894   1.168   3.634   0.581
 1999SOL     OW 6895   1.413   0.146   6.057
 1999SOL    HW1 6896   1.466   0.089   5.994
 1999SOL    HW2 6897   1.473   0.213   6.100
 2000SOL     OW 6898   3.716   2.649   5.728
 2000SOL    HW1 6899   3.638   2.667   5.669
 2000SOL    HW2 6900   3.711   2.554   5.761
 2001SOL     OW 6901   2.093   1.321   1.258
 2001SOL    HW1 6902   2.156   1.367   1.320
 2001SOL    HW2 6903   2.141   1.295   1.174
 2002SOL     OW 6904   6.985   4.941   0.582
 2002SOL    HW1 6905   0.044   4.884   0.561
 2002SOL    HW2 6906   6.914   4.885   0.625
 2003SOL     OW 6907   6.815   4.903   2.480
 2003SOL    HW1 6908   6.817   4.948   2.390
 2003SOL    HW2 6909   6.722   4.872   2.500
 2004SOL     OW 6910   5.311   0.884   4.425
 2004SOL    HW1 6911   5.307   0.983   4.436
 2004SOL    HW2 6912   5.338   0.841   4.511
 2005SOL     OW 6913   6.831   4.639   0.645
 2005SOL    HW1 6914   6.873   4.559   0.602
 2005SOL    HW2 6915   6.873   4.656   0.734
 2006SOL     OW 6916   5.389   0.235   3.747
 2006SOL    HW1 6917   5.422   0.302   3.813
 2006SOL    HW2 6918   5.455   0.226   3.672
 2007SOL     OW 6919   4.869   4.962   1.108
 2007SOL    HW1 6920   4.948   5.000   1.156
 2007SOL    HW2 6921   4.865   4.863   1.123
 2008SOL     OW 6922   1.886   3.875   3.404
 2008SOL    HW1 6923   1.850   3.848   3.494
 2008SOL    HW2 6924   1.936   3.961   3.413
 2009SOL     OW 6925   4.713   6.779   2.771
 2009SOL    HW1 6926   4.770   6.840   2.716
 2009SOL    HW2 6927   4.617   6.803   2.758
 2010SOL     OW 6928   2.401   1.646   1.636
 2010SOL    HW1 6929   2.329   1.715   1.641
 2010SOL    HW2 6930   2.432   1.637   1.541
 2011SOL     OW 6931   0.859   0.597   4.866
 2011SOL    HW1 6932   0.793   0.522   4.874
 2011SOL    HW2 6933   0.822   0.678   4.914
 2012SOL     OW 6934   1.615   3.793   2.598
 2012SOL    HW1 6935   1.556   3.864   2.559
 2012SOL    HW2 6936   1.561   3.712   2.618
 2013SOL     OW 6937   5.603   3.169   4.221
 2013SOL    HW1 6938   5.598   3.071   4.239
 2013SOL    HW2 6939   5.669   3.211   4.284
 2014SOL     OW 6940   3.003   6.980   3.265
 2014SOL    HW1 6941   3.055   7.013   3.344
 2014SOL    HW2 6942   3.065   6.965   3.188
 2015SOL     OW 6943   2.422   6.924   1.066
 2015SOL    HW1 6944   2.374   6.836   1.069
 2015SOL    HW2 6945   2.450   6.943   0.972
 2016SOL     OW 6946   1.621   5.439   5.799
 2016SOL    HW1 6947   1.666   5.403   5.880
 2016SOL    HW2 6948   1.598   5.535   5.813
 2017SOL     OW 6949   4.111   0.292   2.988
 2017SOL    HW1 6950   4.171   0.217   3.017
 2017SOL    HW2 6951   4.028   0.291   3.043
 2018SOL     OW 6952   6.292   3.106   3.853
 2018SOL    HW1 6953   6.343   3.083   3.769
 2018SOL    HW2 6954   6.312   3.037   3.923
 2019SOL     OW 6955   5.351   3.946   6.460
 2019SOL    HW1 6956   5.318   3.880   6.392
 2019SOL    HW2 6957   5.273   3.987   6.507
 2020SOL     OW 6958   2.056   0.183   6.307
 2020SOL    HW1 6959   2.118   0.222   6.375
 2020SOL    HW2 6960   1.989   0.252   6.280
 2021SOL     OW 6961   6.683   6.533   4.759
 2021SOL    HW1 6962   6.768   6.522   4.707
 2021SOL    HW2 6963   6.665   6.631   4.773
 2022SOL     OW 6964   1.513   4.589   4.231
 2022SOL    HW1 6965   1.570   4.543   4.164
 2022SOL    HW2 6966   1.571   4.635   4.299
 2023SOL     OW 6967   0.891   0.878   6.772
 2023SOL    HW1 6968   0.923   0.798   6.721
 2023SOL    HW2 6969   0.968   0.919   6.820
 2024SOL     OW 6970   6.899   5.687   3.662
 2024SOL    HW1 6971   6.802   5.672   3.682
 2024SOL    HW2 6972   6.952   5.668   3.745
 2025SOL     OW 6973   4.100   0.826   4.129
 2025SOL    HW1 6974   4.050   0.787   4.052
 2025SOL    HW2 6975   4.064   0.917   4.150
 2026SOL     OW 6976   6.569   2.360   6.489
 2026SOL    HW1 6977   6.614   2.383   6.575
 2026SOL    HW2 6978   6.471   2.348   6.505
 2027SOL     OW 6979   1.213   0.078   1.412
 2027SOL    HW1 6980   1.252   0.117   1.496
 2027SOL    HW2 6981   1.119   0.108   1.402
 2028SOL     OW 6982   3.384   5.517   4.487
 2028SOL    HW1 6983   3.337   5.485   4.405
 2028SOL    HW2 6984   3.389   5.442   4.553
 2029SOL     OW 6985   6.591   2.086   0.050
 2029SOL    HW1 6986   6.523   2.114   7.003
 2029SOL    HW2 6987   6.622   2.166   0.102
 2030SOL     OW 6988   2.940   0.382   3.258
 2030SOL    HW1 6989   2.931   0.290   3.296
 2030SOL    HW2 6990   2.915   0.449   3.327
 2031SOL     OW 6991   6.739   5.914   2.094
 2031SOL    HW1 6992   6.808   5.974   2.133
 2031SOL    HW2 6993   6.778   5.861   2.019
 2032SOL     OW 6994   3.683   1.403   1.536
 2032SOL    HW1 6995   3.691   1.394   1.635
 2032SOL    HW2 6996   3.668   1.499   1.512
 2033SOL     OW 6997   2.573   1.437   0.427
 2033SOL    HW1 6998   2.587   1.340   0.449
 2033SOL    HW2 6999   2.486   1.447   0.379
 2034SOL     OW 7000   2.594   5.208   5.702
 2034SOL    HW1 7001   2.520   5.252   5.753
 2034SOL    HW2 7002   2.562   5.183   5.611
 2035SOL     OW 7003   6.530   6.386   3.309
 2035SOL    HW1 7004   6.472   6.451   3.358
 2035SOL    HW2 7005   6.593   6.342   3.373
 2036SOL     OW 7006   1.126   3.305   2.841
 2036SOL    HW1 7007   1.042   3.356   2.821
 2036SOL    HW2 7008   1.103   3.211   2.863
 2037SOL     OW 7009   6.366   2.634   6.270
 2037SOL    HW1 7010   6.400   2.672   6.184
 2037SOL    HW2 7011   6.443   2.618   6.332
 2038SOL     OW 7012   2.497   1.741   0.403
 2038SOL    HW1 7013   2.524   1.650   0.434
 2038SOL    HW2 7014   2.432   1.780   0.469
 2039SOL     OW 7015   0.055   6.439   3.388
 2039SOL    HW1 7016   0.025   6.353   3.348
 2039SOL    HW2 7017   0.150   6.456   3.361
 2040SOL     OW 7018   1.904   2.028   6.893
 2040SOL    HW1 7019   1.889   2.115   6.941
 2040SOL    HW2 7020   1.866   1.953   6.947
 2041SOL     OW 7021   1.133   0.179   5.000
 2041SOL    HW1 7022   1.203   0.121   5.043
 2041SOL    HW2 7023   1.150   0.275   5.023
 2042SOL     OW 7024   5.373   6.807   6.074
 2042SOL    HW1 7025   5.439   6.761   6.016
 2042SOL    HW2 7026   5.315   6.866   6.018
 2043SOL     OW 7027   6.403   2.566   2.778
 2043SOL    HW1 7028   6.380   2.493   2.841
 2043SOL    HW2 7029   6.322   2.592   2.725
 2044SOL     OW 7030   6.226   0.382   1.139
 2044SOL    HW1 7031   6.153   0.317   1.159
 2044SOL    HW2 7032   6.282   0.395   1.221
 2045SOL     OW 7033   1.073   4.780   4.548
 2045SOL    HW1 7034   1.062   4.834   4.631
 2045SOL    HW2 7035   0.996   4.799   4.486
 2046SOL     OW 7036   6.278   2.130   5.180
 2046SOL    HW1 7037   6.326   2.045   5.202
 2046SOL    HW2 7038   6.187   2.128   5.222
 2047SOL     OW 7039   6.656   2.471   0.642
 2047SOL    HW1 7040   6.578   2.490   0.583
 2047SOL    HW2 7041   6.626   2.424   0.725
 2048SOL     OW 7042   0.328   0.332   4.952
 2048SOL    HW1 7043   0.340   0.428   4.977
 2048SOL    HW2 7044   0.265   0.288   5.016
 2049SOL     OW 7045   5.809   1.684   4.358
 2049SOL    HW1 7046   5.846   1.772   4.388
 2049SOL    HW2 7047   5.784   1.630   4.439
 2050SOL     OW 7048   6.826   2.458   4.371
 2050SOL    HW1 7049   6.752   2.412   4.420
 2050SOL    HW2 7050   6.849   2.406   4.289
 2051SOL     OW 7051   1.822   6.311   6.618
 2051SOL    HW1 7052   1.853   6.289   6.525
 2051SOL    HW2 7053   1.795   6.228   6.665
 2052SOL     OW 7054   1.455   2.789   1.007
 2052SOL    HW1 7055   1.503   2.809   0.921
 2052SOL    HW2 7056   1.356   2.786   0.990
 2053SOL     OW 7057   0.629   5.425   5.029
 2053SOL    HW1 7058   0.603   5.521   5.020
 2053SOL    HW2 7059   0.610   5.377   4.943
 2054SOL     OW 7060   2.996   3.891   2.946
 2054SOL    HW1 7061   3.002   3.796   2.915
 2054SOL    HW2 7062   2.942   3.944   2.881
 2055SOL     OW 7063   6.293   2.994   5.045
 2055SOL    HW1 7064   6.209   3.032   5.083
 2055SOL    HW2 7065   6.368   3.059   5.057
 2056SOL     OW 7066   3.908   5.112   2.095
 2056SOL    HW1 7067   3.911   5.017   2.064
 2056SOL    HW2 7068   3.870   5.169   2.023
 2057SOL     OW 7069   5.141   3.700   5.610
 2057SOL    HW1 7070   5.170   3.736   5.698
 2057SOL    HW2 7071   5.045   3.673   5.615
 2058SOL     OW 7072   0.026   6.476   2.548
 2058SOL    HW1 7073   0.077   6.416   2.610
 2058SOL    HW2 7074   0.091   6.528   2.492
 2059SOL     OW 7075   2.210   6.312   6.909
 2059SOL    HW1 7076   2.224   6.408   6.934
 2059SOL    HW2 7077   2.298   6.270   6.889
 2060SOL     OW 7078   0.445   3.866   1.625
 2060SOL    HW1 7079   0.408   3.923   1.698
 2060SOL    HW2 7080   0.482   3.924   1.552
 2061SOL     OW 7081   2.006   2.412   2.488
 2061SOL    HW1 7082   1.939   2.446   2.422
 2061SOL    HW2 7083   2.043   2.488   2.541
 2062SOL     OW 7084   0.219   6.351   5.570
 2062SOL    HW1 7085   0.154   6.407   5.519
 2062SOL    HW2 7086   0.245   6.272   5.514
 2063SOL     OW 7087   1.274   5.895   5.164
 2063SOL    HW1 7088   1.289   5.969   5.099
 2063SOL    HW2 7089   1.191   5.913   5.217
 2064SOL     OW 7090   0.237   2.399   4.779
 2064SOL    HW1 7091   0.321   2.446   4.752
 2064SOL    HW2 7092   0.201   2.348   4.701
 2065SOL     OW 7093   5.891   3.141   6.485
 2065SOL    HW1 7094   5.971   3.121   6.429
 2065SOL    HW2 7095   5.914   3.211   6.553
 2066SOL     OW 7096   6.351   3.963   5.479
 2066SOL    HW1 7097   6.271   4.022   5.465
 2066SOL    HW2 7098   6.408   3.965   5.397
 2067SOL     OW 7099   6.796   5.255   1.018
 2067SOL    HW1 7100   6.893   5.239   1.002
 2067SOL    HW2 7101   6.743   5.183   0.974
 2068SOL     OW 7102   4.033   0.254   4.293
 2068SOL    HW1 7103   4.096   0.266   4.216
 2068SOL    HW2 7104   4.001   0.159   4.295
 2069SOL     OW 7105   0.204   2.354   4.114
 2069SOL    HW1 7106   0.280   2.418   4.116
 2069SOL    HW2 7107   0.177   2.331   4.207
 2070SOL     OW 7108   1.099   2.301   1.442
 2070SOL    HW1 7109   1.122   2.312   1.345
 2070SOL    HW2 7110   1.017   2.354   1.463
 2071SOL     OW 7111   6.300   0.870   5.922
 2071SOL    HW1 7112   6.203   0.855   5.904
 2071SOL    HW2 7113   6.313   0.957   5.969
 2072SOL     OW 7114   4.851   5.258   4.432
 2072SOL    HW1 7115   4.815   5.334   4.486
 2072SOL    HW2 7116   4.834   5.275   4.335
 2073SOL     OW 7117   3.580   6.239   5.251
 2073SOL    HW1 7118   3.497   6.292   5.270
 2073SOL    HW2 7119   3.635   6.287   5.183
 2074SOL     OW 7120   2.243   2.248   0.048
 2074SOL    HW1 7121   2.183   2.224   6.992
 2074SOL    HW2 7122   2.335   2.211   0.032
 2075SOL     OW 7123   6.481   2.463   2.360
 2075SOL    HW1 7124   6.529   2.547   2.385
 2075SOL    HW2 7125   6.431   2.429   2.440
 2076SOL     OW 7126   5.696   6.862   6.078
 2076SOL    HW1 7127   5.674   6.918   6.159
 2076SOL    HW2 7128   5.775   6.804   6.098
 2077SOL     OW 7129   6.313   2.418   1.787
 2077SOL    HW1 7130   6.306   2.369   1.874
 2077SOL    HW2 7131   6.347   2.511   1.803
 2078SOL     OW 7132   1.972   5.089   6.777
 2078SOL    HW1 7133   2.052   5.121   6.725
 2078SOL    HW2 7134   1.997   5.081   6.874
 2079SOL     OW 7135   6.774   0.947   3.080
 2079SOL    HW1 7136   6.822   0.897   3.008
 2079SOL    HW2 7137   6.698   0.998   3.040
 2080SOL     OW 7138   3.222   1.229   4.761
 2080SOL    HW1 7139   3.155   1.164   4.725
 2080SOL    HW2 7140   3.282   1.259   4.688
 2081SOL     OW 7141   1.075   6.276   4.519
 2081SOL    HW1 7142   1.035   6.286   4.428
 2081SOL    HW2 7143   1.013   6.316   4.587
 2082SOL     OW 7144   0.788   6.449   3.112
 2082SOL    HW1 7145   0.856   6.485   3.176
 2082SOL    HW2 7146   0.772   6.515   3.039
 2083SOL     OW 7147   1.490   5.987   4.806
 2083SOL    HW1 7148   1.519   5.936   4.887
 2083SOL    HW2 7149   1.395   6.016   4.816
 2084SOL     OW 7150   0.817   2.934   1.900
 2084SOL    HW1 7151   0.791   3.008   1.838
 2084SOL    HW2 7152   0.794   2.846   1.858
 2085SOL     OW 7153   4.690   6.502   0.874
 2085SOL    HW1 7154   4.788   6.491   0.894
 2085SOL    HW2 7155   4.660   6.593   0.903
 2086SOL     OW 7156   3.889   6.072   0.330
 2086SOL    HW1 7157   3.834   6.025   0.400
 2086SOL    HW2 7158   3.848   6.162   0.311
 2087SOL     OW 7159   4.415   2.214   0.523
 2087SOL    HW1 7160   4.426   2.131   0.469
 2087SOL    HW2 7161   4.362   2.281   0.471
 2088SOL     OW 7162   1.538   5.806   6.217
 2088SOL    HW1 7163   1.528   5.882   6.152
 2088SOL    HW2 7164   1.450   5.761   6.230
 2089SOL     OW 7165   4.527   2.365   5.253
 2089SOL    HW1 7166   4.502   2.271   5.229
 2089SOL    HW2 7167   4.588   2.364   5.332
 2090SOL     OW 7168   4.686   3.084   5.270
 2090SOL    HW1 7169   4.713   3.180   5.268
 2090SOL    HW2 7170   4.593   3.076   5.305
 2091SOL     OW 7171   6.863   6.297   0.666
 2091SOL    HW1 7172   6.842   6.286   0.569
 2091SOL    HW2 7173   6.793   6.249   0.720
 2092SOL     OW 7174   5.415   3.945   0.948
 2092SOL    HW1 7175   5.319   3.917   0.948
 2092SOL    HW2 7176   5.452   3.936   1.040
 2093SOL     OW 7177   3.446   2.032   2.095
 2093SOL    HW1 7178   3.524   2.090   2.073
 2093SOL    HW2 7179   3.444   2.015   2.193
 2094SOL     OW 7180   5.428   1.938   1.118
 2094SOL    HW1 7181   5.346   1.968   1.167
 2094SOL    HW2 7182   5.488   2.017   1.103
 2095SOL     OW 7183   6.181   6.779   3.673
 2095SOL    HW1 7184   6.207   6.821   3.586
 2095SOL    HW2 7185   6.176   6.849   3.744
 2096SOL     OW 7186   4.476   5.348   3.185
 2096SOL    HW1 7187   4.576   5.349   3.180
 2096SOL    HW2 7188   4.438   5.352   3.093
 2097SOL     OW 7189   2.983   3.045   0.200
 2097SOL    HW1 7190   3.001   3.080   0.292
 2097SOL    HW2 7191   2.968   3.121   0.137
 2098SOL     OW 7192   3.957   5.940   2.994
 2098SOL    HW1 7193   4.014   5.972   2.919
 2098SOL    HW2 7194   4.015   5.905   3.068
 2099SOL     OW 7195   4.538   1.328   6.335
 2099SOL    HW1 7196   4.446   1.361   6.354
 2099SOL    HW2 7197   4.605   1.382   6.385
 2100SOL     OW 7198   4.550   1.483   6.900
 2100SOL    HW1 7199   4.637   1.434   6.895
 2100SOL    HW2 7200   4.564   1.571   6.945
 2101SOL     OW 7201   6.951   6.177   1.410
 2101SOL    HW1 7202   6.982   6.142   1.498
 2101SOL    HW2 7203   6.852   6.185   1.410
 2102SOL     OW 7204   4.855   3.601   1.672
 2102SOL    HW1 7205   4.796   3.531   1.711
 2102SOL    HW2 7206   4.947   3.593   1.712
 2103SOL     OW 7207   4.181   3.666   0.756
 2103SOL    HW1 7208   4.098   3.634   0.800
 2103SOL    HW2 7209   4.258   3.661   0.821
 2104SOL     OW 7210   1.430   4.806   1.999
 2104SOL    HW1 7211   1.338   4.818   1.961
 2104SOL    HW2 7212   1.450   4.880   2.064
 2105SOL     OW 7213   3.791   4.570   6.750
 2105SOL    HW1 7214   3.794   4.634   6.673
 2105SOL    HW2 7215   3.808   4.620   6.835
 2106SOL     OW 7216   5.184   3.760   0.954
 2106SOL    HW1 7217   5.095   3.738   0.995
 2106SOL    HW2 7218   5.249   3.686   0.972
 2107SOL     OW 7219   6.091   2.507   5.703
 2107SOL    HW1 7220   6.142   2.569   5.642
 2107SOL    HW2 7221   6.149   2.430   5.729
 2108SOL     OW 7222   5.934   5.834   4.819
 2108SOL    HW1 7223   5.849   5.785   4.800
 2108SOL    HW2 7224   5.945   5.845   4.918
 2109SOL     OW 7225   3.081   5.853   2.230
 2109SOL    HW1 7226   3.157   5.878   2.291
 2109SOL    HW2 7227   3.057   5.931   2.173
 2110SOL     OW 7228   3.881   0.478   6.138
 2110SOL    HW1 7229   3.838   0.433   6.216
 2110SOL    HW2 7230   3.954   0.420   6.102
 2111SOL     OW 7231   1.921   2.353   5.135
 2111SOL    HW1 7232   1.909   2.421   5.208
 2111SOL    HW2 7233   1.897   2.393   5.047
 2112SOL     OW 7234   5.451   2.212   6.986
 2112SOL    HW1 7235   5.352   2.203   6.991
 2112SOL    HW2 7236   5.487   2.153   6.913
 2113SOL     OW 7237   2.159   6.907   4.885
 2113SOL    HW1 7238   2.133   6.823   4.838
 2113SOL    HW2 7239   2.257   6.924   4.871
 2114SOL     OW 7240   2.272   3.129   0.041
 2114SOL    HW1 7241   2.295   3.046   7.011
 2114SOL    HW2 7242   2.209   3.184   7.007
 2115SOL     OW 7243   1.164   4.760   1.886
 2115SOL    HW1 7244   1.125   4.673   1.858
 2115SOL    HW2 7245   1.140   4.830   1.819
 2116SOL     OW 7246   1.424   2.926   1.242
 2116SOL    HW1 7247   1.398   2.852   1.180
 2116SOL    HW2 7248   1.344   2.954   1.296
 2117SOL     OW 7249   5.133   3.703   1.504
 2117SOL    HW1 7250   5.161   3.621   1.454
 2117SOL    HW2 7251   5.115   3.680   1.599
 2118SOL     OW 7252   6.568   3.856   2.877
 2118SOL    HW1 7253   6.618   3.770   2.867
 2118SOL    HW2 7254   6.483   3.839   2.927
 2119SOL     OW 7255   1.838   1.130   0.924
 2119SOL    HW1 7256   1.909   1.079   0.973
 2119SOL    HW2 7257   1.881   1.205   0.873
 2120SOL     OW 7258   6.808   2.530   2.624
 2120SOL    HW1 7259   6.740   2.493   2.687
 2120SOL    HW2 7260   6.796   2.489   2.533
 2121SOL     OW 7261   2.267   2.725   6.558
 2121SOL    HW1 7262   2.201   2.765   6.494
 2121SOL    HW2 7263   2.353   2.707   6.510
 2122SOL     OW 7264   6.381   6.530   5.844
 2122SOL    HW1 7265   6.473   6.512   5.881
 2122SOL    HW2 7266   6.387   6.601   5.774
 2123SOL     OW 7267   6.132   6.221   2.428
 2123SOL    HW1 7268   6.137   6.154   2.501
 2123SOL    HW2 7269   6.193   6.298   2.449
 2124SOL     OW 7270   3.232   1.691   6.485
 2124SOL    HW1 7271   3.168   1.661   6.556
 2124SOL    HW2 7272   3.182   1.740   6.414
 2125SOL     OW 7273   1.003   5.892   2.288
 2125SOL    HW1 7274   0.932   5.911   2.219
 2125SOL    HW2 7275   1.070   5.828   2.250
 2126SOL     OW 7276   4.223   2.440   6.141
 2126SOL    HW1 7277   4.188   2.457   6.048
 2126SOL    HW2 7278   4.157   2.474   6.208
 2127SOL     OW 7279   0.499   1.767   5.207
 2127SOL    HW1 7280   0.533   1.703   5.276
 2127SOL    HW2 7281   0.405   1.743   5.182
 2128SOL     OW 7282   6.032   2.562   0.994
 2128SOL    HW1 7283   6.088   2.612   0.927
 2128SOL    HW2 7284   5.939   2.600   0.995
 2129SOL     OW 7285   4.871   4.484   4.176
 2129SOL    HW1 7286   4.967   4.507   4.190
 2129SOL    HW2 7287   4.814   4.548   4.228
 2130SOL     OW 7288   2.201   1.677   1.332
 2130SOL    HW1 7289   2.187   1.775   1.321
 2130SOL    HW2 7290   2.272   1.645   1.269
 2131SOL     OW 7291   5.070   1.788   0.796
 2131SOL    HW1 7292   5.068   1.881   0.759
 2131SOL    HW2 7293   5.009   1.782   0.875
 2132SOL     OW 7294   3.429   1.477   6.707
 2132SOL    HW1 7295   3.357   1.430   6.758
 2132SOL    HW2 7296   3.442   1.569   6.744
 2133SOL     OW 7297   3.363   2.142   0.970
 2133SOL    HW1 7298   3.291   2.196   1.013
 2133SOL    HW2 7299   3.343   2.129   0.873
 2134SOL     OW 7300   1.296   1.152   4.822
 2134SOL    HW1 7301   1.263   1.245   4.837
 2134SOL    HW2 7302   1.353   1.123   4.899
 2135SOL     OW 7303   0.089   1.549   4.469
 2135SOL    HW1 7304   0.059   1.459   4.501
 2135SOL    HW2 7305   0.045   1.569   4.382
 2136SOL     OW 7306   1.083   3.682   4.544
 2136SOL    HW1 7307   0.997   3.647   4.583
 2136SOL    HW2 7308   1.149   3.607   4.537
 2137SOL     OW 7309   0.625   6.607   4.636
 2137SOL    HW1 7310   0.657   6.599   4.542
 2137SOL    HW2 7311   0.642   6.700   4.670
 2138SOL     OW 7312   5.844   3.150   1.664
 2138SOL    HW1 7313   5.938   3.184   1.658
 2138SOL    HW2 7314   5.841   3.055   1.633
 2139SOL     OW 7315   4.087   1.318   3.300
 2139SOL    HW1 7316   4.122   1.249   3.236
 2139SOL    HW2 7317   4.154   1.391   3.310
 2140SOL     OW 7318   3.178   6.414   3.050
 2140SOL    HW1 7319   3.112   6.483   3.019
 2140SOL    HW2 7320   3.215   6.365   2.970
 2141SOL     OW 7321   6.423   2.997   1.904
 2141SOL    HW1 7322   6.411   3.086   1.860
 2141SOL    HW2 7323   6.381   2.998   1.995
 2142SOL     OW 7324   1.422   2.338   3.069
 2142SOL    HW1 7325   1.457   2.246   3.084
 2142SOL    HW2 7326   1.497   2.404   3.080
 2143SOL     OW 7327   3.566   5.460   0.633
 2143SOL    HW1 7328   3.633   5.522   0.675
 2143SOL    HW2 7329   3.484   5.456   0.690
 2144SOL     OW 7330   2.132   0.469   3.030
 2144SOL    HW1 7331   2.117   0.461   3.129
 2144SOL    HW2 7332   2.229   0.461   3.010
 2145SOL     OW 7333   3.654   5.168   4.504
 2145SOL    HW1 7334   3.694   5.164   4.412
 2145SOL    HW2 7335   3.700   5.240   4.557
 2146SOL     OW 7336   3.234   3.856   2.654
 2146SOL    HW1 7337   3.171   3.784   2.624
 2146SOL    HW2 7338   3.278   3.829   2.739
 2147SOL     OW 7339   0.097   1.464   0.092
 2147SOL    HW1 7340   0.116   1.507   0.180
 2147SOL    HW2 7341   0.053   1.375   0.106
 2148SOL     OW 7342   5.142   3.175   4.294
 2148SOL    HW1 7343   5.169   3.089   4.337
 2148SOL    HW2 7344   5.216   3.242   4.303
 2149SOL     OW 7345   4.340   0.296   1.420
 2149SOL    HW1 7346   4.326   0.231   1.495
 2149SOL    HW2 7347   4.400   0.371   1.451
 2150SOL     OW 7348   2.965   2.131   2.216
 2150SOL    HW1 7349   2.930   2.104   2.306
 2150SOL    HW2 7350   2.927   2.221   2.192
 2151SOL     OW 7351   2.750   2.024   4.512
 2151SOL    HW1 7352   2.790   2.010   4.421
 2151SOL    HW2 7353   2.814   2.075   4.569
 2152SOL     OW 7354   4.438   6.089   2.156
 2152SOL    HW1 7355   4.514   6.142   2.119
 2152SOL    HW2 7356   4.474   6.012   2.210
 2153SOL     OW 7357   4.132   0.853   3.470
 2153SOL    HW1 7358   4.153   0.764   3.512
 2153SOL    HW2 7359   4.033   0.863   3.463
 2154SOL     OW 7360   3.140   6.016   4.868
 2154SOL    HW1 7361   3.227   6.055   4.839
 2154SOL    HW2 7362   3.065   6.074   4.836
 2155SOL     OW 7363   1.648   4.959   0.311
 2155SOL    HW1 7364   1.700   4.940   0.394
 2155SOL    HW2 7365   1.633   5.057   0.302
 2156SOL     OW 7366   2.997   0.450   1.620
 2156SOL    HW1 7367   3.035   0.535   1.582
 2156SOL    HW2 7368   2.929   0.413   1.556
 2157SOL     OW 7369   6.643   1.120   3.478
 2157SOL    HW1 7370   6.584   1.039   3.476
 2157SOL    HW2 7371   6.685   1.130   3.568
 2158SOL     OW 7372   3.620   6.553   0.384
 2158SOL    HW1 7373   3.604   6.586   0.291
 2158SOL    HW2 7374   3.538   6.508   0.418
 2159SOL     OW 7375   1.526   5.706   5.888
 2159SOL    HW1 7376   1.482   5.722   5.976
 2159SOL    HW2 7377   1.486   5.767   5.819
 2160SOL     OW 7378   4.317   3.806   1.703
 2160SOL    HW1 7379   4.233   3.791   1.650
 2160SOL    HW2 7380   4.320   3.900   1.736
 2161SOL     OW 7381   4.886   3.286   3.534
 2161SOL    HW1 7382   4.946   3.261   3.610
 2161SOL    HW2 7383   4.898   3.382   3.511
 2162SOL     OW 7384   2.384   0.410   0.446
 2162SOL    HW1 7385   2.285   0.430   0.447
 2162SOL    HW2 7386   2.398   0.312   0.433
 2163SOL     OW 7387   0.033   5.333   6.649
 2163SOL    HW1 7388   0.119   5.290   6.675
 2163SOL    HW2 7389   0.045   5.383   6.563
 2164SOL     OW 7390   1.771   1.313   6.597
 2164SOL    HW1 7391   1.680   1.339   6.565
 2164SOL    HW2 7392   1.766   1.284   6.693
 2165SOL     OW 7393   1.585   1.366   3.065
 2165SOL    HW1 7394   1.672   1.411   3.086
 2165SOL    HW2 7395   1.514   1.399   3.126
 2166SOL     OW 7396   1.880   2.331   5.888
 2166SOL    HW1 7397   1.835   2.243   5.905
 2166SOL    HW2 7398   1.831   2.380   5.816
 2167SOL     OW 7399   2.794   0.211   2.350
 2167SOL    HW1 7400   2.790   0.310   2.344
 2167SOL    HW2 7401   2.761   0.181   2.439
 2168SOL     OW 7402   6.319   2.196   4.682
 2168SOL    HW1 7403   6.396   2.257   4.663
 2168SOL    HW2 7404   6.301   2.194   4.781
 2169SOL     OW 7405   5.585   1.805   6.707
 2169SOL    HW1 7406   5.589   1.743   6.628
 2169SOL    HW2 7407   5.574   1.752   6.791
 2170SOL     OW 7408   5.694   4.725   4.972
 2170SOL    HW1 7409   5.600   4.749   4.994
 2170SOL    HW2 7410   5.697   4.681   4.882
 2171SOL     OW 7411   6.573   2.838   0.427
 2171SOL    HW1 7412   6.544   2.874   0.338
 2171SOL    HW2 7413   6.655   2.886   0.457
 2172SOL     OW 7414   3.323   1.350   0.381
 2172SOL    HW1 7415   3.412   1.307   0.365
 2172SOL    HW2 7416   3.336   1.439   0.426
 2173SOL     OW 7417   3.682   0.168   5.638
 2173SOL    HW1 7418   3.632   0.167   5.552
 2173SOL    HW2 7419   3.772   0.209   5.624
 2174SOL     OW 7420   6.464   5.115   5.910
 2174SOL    HW1 7421   6.427   5.024   5.891
 2174SOL    HW2 7422   6.457   5.171   5.827
 2175SOL     OW 7423   3.057   2.024   2.826
 2175SOL    HW1 7424   3.123   2.063   2.891
 2175SOL    HW2 7425   3.078   2.056   2.734
 2176SOL     OW 7426   0.853   2.041   1.665
 2176SOL    HW1 7427   0.769   2.076   1.707
 2176SOL    HW2 7428   0.851   1.941   1.665
 2177SOL     OW 7429   6.590   0.371   2.301
 2177SOL    HW1 7430   6.690   0.378   2.295
 2177SOL    HW2 7431   6.551   0.463   2.306
 2178SOL     OW 7432   0.631   4.140   0.168
 2178SOL    HW1 7433   0.653   4.046   0.196
 2178SOL    HW2 7434   0.704   4.175   0.109
 2179SOL     OW 7435   2.070   5.914   4.415
 2179SOL    HW1 7436   2.043   5.885   4.323
 2179SOL    HW2 7437   2.157   5.963   4.410
 2180SOL     OW 7438   2.915   3.142   2.005
 2180SOL    HW1 7439   2.858   3.075   2.053
 2180SOL    HW2 7440   2.865   3.228   1.995
 2181SOL     OW 7441   4.502   4.198   5.683
 2181SOL    HW1 7442   4.584   4.167   5.730
 2181SOL    HW2 7443   4.526   4.223   5.589
 2182SOL     OW 7444   6.905   3.487   6.287
 2182SOL    HW1 7445   6.974   3.438   6.234
 2182SOL    HW2 7446   6.945   3.517   6.374
 2183SOL     OW 7447   3.402   3.014   0.722
 2183SOL    HW1 7448   3.459   2.995   0.802
 2183SOL    HW2 7449   3.350   2.932   0.698
 2184SOL     OW 7450   3.198   6.899   5.919
 2184SOL    HW1 7451   3.198   6.916   5.821
 2184SOL    HW2 7452   3.134   6.962   5.964
 2185SOL     OW 7453   2.192   1.816   1.666
 2185SOL    HW1 7454   2.103   1.852   1.694
 2185SOL    HW2 7455   2.232   1.876   1.597
 2186SOL     OW 7456   6.754   4.547   2.294
 2186SOL    HW1 7457   6.795   4.463   2.259
 2186SOL    HW2 7458   6.656   4.533   2.309
 2187SOL     OW 7459   0.536   0.882   1.892
 2187SOL    HW1 7460   0.516   0.979   1.911
 2187SOL    HW2 7461   0.560   0.872   1.795
 2188SOL     OW 7462   4.991   5.837   3.663
 2188SOL    HW1 7463   5.079   5.851   3.710
 2188SOL    HW2 7464   4.958   5.925   3.629
 2189SOL     OW 7465   1.760   0.253   6.667
 2189SOL    HW1 7466   1.820   0.329   6.644
 2189SOL    HW2 7467   1.668   0.271   6.632
 2190SOL     OW 7468   6.018   2.708   1.449
 2190SOL    HW1 7469   5.997   2.611   1.434
 2190SOL    HW2 7470   6.114   2.717   1.474
 2191SOL     OW 7471   3.687   1.992   6.034
 2191SOL    HW1 7472   3.751   2.064   6.005
 2191SOL    HW2 7473   3.706   1.909   5.983
 2192SOL     OW 7474   4.275   6.537   4.938
 2192SOL    HW1 7475   4.176   6.525   4.939
 2192SOL    HW2 7476   4.305   6.559   4.845
 2193SOL     OW 7477   6.856   5.125   6.123
 2193SOL    HW1 7478   6.945   5.159   6.094
 2193SOL    HW2 7479   6.857   5.109   6.222
 2194SOL     OW 7480   2.389   6.029   0.550
 2194SOL    HW1 7481   2.376   5.967   0.473
 2194SOL    HW2 7482   2.315   6.095   0.553
 2195SOL     OW 7483   6.799   6.646   1.908
 2195SOL    HW1 7484   6.814   6.703   1.990
 2195SOL    HW2 7485   6.702   6.621   1.903
 2196SOL     OW 7486   2.213   0.568   5.831
 2196SOL    HW1 7487   2.288   0.511   5.796
 2196SOL    HW2 7488   2.181   0.628   5.757
 2197SOL     OW 7489   4.807   4.385   1.469
 2197SOL    HW1 7490   4.904   4.407   1.456
 2197SOL    HW2 7491   4.798   4.293   1.507
 2198SOL     OW 7492   7.019   2.761   6.939
 2198SOL    HW1 7493   0.067   2.775   6.867
 2198SOL    HW2 7494   0.038   2.701   7.010
 2199SOL     OW 7495   5.116   6.839   0.975
 2199SOL    HW1 7496   5.192   6.820   0.913
 2199SOL    HW2 7497   5.090   6.935   0.966
 2200SOL     OW 7498   4.093   0.598   4.439
 2200SOL    HW1 7499   4.122   0.508   4.407
 2200SOL    HW2 7500   4.000   0.616   4.410
 2201SOL     OW 7501   5.835   3.895   2.349
 2201SOL    HW1 7502   5.933   3.888   2.363
 2201SOL    HW2 7503   5.807   3.831   2.277
 2202SOL     OW 7504   3.366   4.952   4.591
 2202SOL    HW1 7505   3.388   4.969   4.495
 2202SOL    HW2 7506   3.450   4.954   4.645
 2203SOL     OW 7507   3.119   2.138   2.585
 2203SOL    HW1 7508   3.033   2.122   2.536
 2203SOL    HW2 7509   3.131   2.235   2.602
 2204SOL     OW 7510   4.219   1.081   6.543
 2204SOL    HW1 7511   4.195   1.177   6.557
 2204SOL    HW2 7512   4.156   1.040   6.478
 2205SOL     OW 7513   1.237   0.735   6.937
 2205SOL    HW1 7514   1.323   0.778   6.961
 2205SOL    HW2 7515   1.225   0.737   6.837
 2206SOL     OW 7516   3.004   4.047   5.755
 2206SOL    HW1 7517   3.088   4.034   5.702
 2206SOL    HW2 7518   2.997   3.977   5.826
 2207SOL     OW 7519   1.396   4.221   6.064
 2207SOL    HW1 7520   1.357   4.313   6.056
 2207SOL    HW2 7521   1.481   4.217   6.011
 2208SOL     OW 7522   1.467   4.551   2.155
 2208SOL    HW1 7523   1.479   4.629   2.094
 2208SOL    HW2 7524   1.370   4.527   2.160
 2209SOL     OW 7525   1.457   5.976   6.009
 2209SOL    HW1 7526   1.539   6.005   5.959
 2209SOL    HW2 7527   1.377   6.023   5.972
 2210SOL     OW 7528   1.048   5.283   2.874
 2210SOL    HW1 7529   1.034   5.217   2.948
 2210SOL    HW2 7530   1.103   5.360   2.908
 2211SOL     OW 7531   5.727   1.644   5.356
 2211SOL    HW1 7532   5.647   1.633   5.296
 2211SOL    HW2 7533   5.743   1.741   5.373
 2212SOL     OW 7534   0.508   6.383   6.736
 2212SOL    HW1 7535   0.449   6.334   6.672
 2212SOL    HW2 7536   0.599   6.343   6.736
 2213SOL     OW 7537   4.553   2.585   4.444
 2213SOL    HW1 7538   4.606   2.555   4.365
 2213SOL    HW2 7539   4.464   2.540   4.443
 2214SOL     OW 7540   4.280   0.804   5.066
 2214SOL    HW1 7541   4.303   0.749   4.985
 2214SOL    HW2 7542   4.363   0.846   5.102
 2215SOL     OW 7543   6.917   0.960   5.689
 2215SOL    HW1 7544   6.858   0.883   5.663
 2215SOL    HW2 7545   6.903   1.036   5.625
 2216SOL     OW 7546   1.619   0.322   6.985
 2216SOL    HW1 7547   1.699   0.264   6.970
 2216SOL    HW2 7548   1.611   0.343   0.062
 2217SOL     OW 7549   3.745   6.966   0.993
 2217SOL    HW1 7550   3.660   6.914   0.989
 2217SOL    HW2 7551   3.819   6.912   0.953
 2218SOL     OW 7552   0.798   6.569   7.020
 2218SOL    HW1 7553   0.723   6.605   6.964
 2218SOL    HW2 7554   0.762   6.536   0.087
 2219SOL     OW 7555   1.676   3.896   2.861
 2219SOL    HW1 7556   1.616   3.869   2.936
 2219SOL    HW2 7557   1.660   3.837   2.782
 2220SOL     OW 7558   0.524   1.461   4.259
 2220SOL    HW1 7559   0.592   1.395   4.292
 2220SOL    HW2 7560   0.472   1.496   4.337
 2221SOL     OW 7561   6.787   2.079   0.720
 2221SOL    HW1 7562   6.781   1.986   0.685
 2221SOL    HW2 7563   6.711   2.134   0.685
 2222SOL     OW 7564   4.367   0.843   1.068
 2222SOL    HW1 7565   4.306   0.875   1.141
 2222SOL    HW2 7566   4.400   0.751   1.089
 2223SOL     OW 7567   5.800   4.971   3.948
 2223SOL    HW1 7568   5.847   5.050   3.906
 2223SOL    HW2 7569   5.832   4.887   3.905
 2224SOL     OW 7570   1.582   4.518   1.050
 2224SOL    HW1 7571   1.588   4.547   0.955
 2224SOL    HW2 7572   1.637   4.579   1.107
 2225SOL     OW 7573   5.994   4.902   2.749
 2225SOL    HW1 7574   5.964   4.855   2.665
 2225SOL    HW2 7575   6.019   4.996   2.727
 2226SOL     OW 7576   3.573   3.474   1.086
 2226SOL    HW1 7577   3.583   3.546   1.017
 2226SOL    HW2 7578   3.512   3.403   1.052
 2227SOL     OW 7579   5.891   4.099   6.338
 2227SOL    HW1 7580   5.928   4.104   6.431
 2227SOL    HW2 7581   5.799   4.139   6.336
 2228SOL     OW 7582   3.309   5.482   0.221
 2228SOL    HW1 7583   3.308   5.538   0.305
 2228SOL    HW2 7584   3.371   5.523   0.154
 2229SOL     OW 7585   4.390   1.589   3.861
 2229SOL    HW1 7586   4.310   1.532   3.881
 2229SOL    HW2 7587   4.362   1.685   3.858
 2230SOL     OW 7588   1.397   5.683   3.844
 2230SOL    HW1 7589   1.451   5.633   3.912
 2230SOL    HW2 7590   1.378   5.775   3.878
 2231SOL     OW 7591   1.634   1.933   2.189
 2231SOL    HW1 7592   1.728   1.914   2.221
 2231SOL    HW2 7593   1.577   1.852   2.205
 2232SOL     OW 7594   0.369   3.262   3.953
 2232SOL    HW1 7595   0.430   3.192   3.991
 2232SOL    HW2 7596   0.277   3.251   3.991
 2233SOL     OW 7597   3.864   5.203   6.751
 2233SOL    HW1 7598   3.882   5.295   6.715
 2233SOL    HW2 7599   3.767   5.182   6.742
 2234SOL     OW 7600   3.971   2.423   0.795
 2234SOL    HW1 7601   4.062   2.401   0.832
 2234SOL    HW2 7602   3.907   2.350   0.821
 2235SOL     OW 7603   0.963   0.449   0.028
 2235SOL    HW1 7604   1.058   0.435   0.054
 2235SOL    HW2 7605   0.930   0.536   0.064
 2236SOL     OW 7606   0.969   4.374   0.775
 2236SOL    HW1 7607   0.993   4.443   0.843
 2236SOL    HW2 7608   0.954   4.286   0.820
 2237SOL     OW 7609   6.767   3.468   4.307
 2237SOL    HW1 7610   6.758   3.413   4.224
 2237SOL    HW2 7611   6.720   3.422   4.382
 2238SOL     OW 7612   0.067   5.323   1.830
 2238SOL    HW1 7613   0.084   5.371   1.916
 2238SOL    HW2 7614   0.006   5.245   1.847
 2239SOL     OW 7615   4.046   4.831   4.138
 2239SOL    HW1 7616   4.080   4.924   4.124
 2239SOL    HW2 7617   4.123   4.767   4.137
 2240SOL     OW 7618   6.335   5.044   3.373
 2240SOL    HW1 7619   6.308   5.004   3.460
 2240SOL    HW2 7620   6.301   4.987   3.298
 2241SOL     OW 7621   6.786   6.350   2.537
 2241SOL    HW1 7622   6.777   6.263   2.586
 2241SOL    HW2 7623   6.877   6.388   2.554
 2242SOL     OW 7624   5.398   1.578   2.995
 2242SOL    HW1 7625   5.392   1.481   2.972
 2242SOL    HW2 7626   5.467   1.591   3.067
 2243SOL     OW 7627   2.444   6.548   5.079
 2243SOL    HW1 7628   2.500   6.465   5.072
 2243SOL    HW2 7629   2.477   6.604   5.156
 2244SOL     OW 7630   4.185   1.008   3.256
 2244SOL    HW1 7631   4.131   0.976   3.179
 2244SOL    HW2 7632   4.174   0.946   3.334
 2245SOL     OW 7633   0.272   2.132   2.067
 2245SOL    HW1 7634   0.328   2.150   2.148
 2245SOL    HW2 7635   0.311   2.057   2.015
 2246SOL     OW 7636   2.064   2.701   5.387
 2246SOL    HW1 7637   2.132   2.771   5.366
 2246SOL    HW2 7638   2.008   2.683   5.306
 2247SOL     OW 7639   2.737   2.231   5.793
 2247SOL    HW1 7640   2.779   2.306   5.741
 2247SOL    HW2 7641   2.668   2.186   5.736
 2248SOL     OW 7642   5.300   4.140   5.415
 2248SOL    HW1 7643   5.358   4.067   5.379
 2248SOL    HW2 7644   5.355   4.222   5.429
 2249SOL     OW 7645   6.017   6.329   2.944
 2249SOL    HW1 7646   5.958   6.277   2.882
 2249SOL    HW2 7647   6.073   6.266   2.997
 2250SOL     OW 7648   5.127   4.146   1.538
 2250SOL    HW1 7649   5.203   4.207   1.516
 2250SOL    HW2 7650   5.057   4.155   1.468
 2251SOL     OW 7651   6.006   1.303   0.288
 2251SOL    HW1 7652   6.067   1.270   0.359
 2251SOL    HW2 7653   5.966   1.390   0.315
 2252SOL     OW 7654   6.317   3.104   5.532
 2252SOL    HW1 7655   6.375   3.070   5.458
 2252SOL    HW2 7656   6.225   3.066   5.523
 2253SOL     OW 7657   1.478   2.993   6.385
 2253SOL    HW1 7658   1.566   3.008   6.340
 2253SOL    HW2 7659   1.493   2.954   6.476
 2254SOL     OW 7660   2.202   3.026   6.128
 2254SOL    HW1 7661   2.199   3.091   6.204
 2254SOL    HW2 7662   2.245   3.069   6.048
 2255SOL     OW 7663   5.973   2.434   1.437
 2255SOL    HW1 7664   5.880   2.404   1.461
 2255SOL    HW2 7665   6.039   2.381   1.489
 2256SOL     OW 7666   3.780   5.213   1.878
 2256SOL    HW1 7667   3.727   5.132   1.903
 2256SOL    HW2 7668   3.805   5.208   1.782
 2257SOL     OW 7669   1.383   3.150   4.653
 2257SOL    HW1 7670   1.452   3.110   4.591
 2257SOL    HW2 7671   1.419   3.233   4.694
 2258SOL     OW 7672   1.368   5.456   4.418
 2258SOL    HW1 7673   1.328   5.372   4.455
 2258SOL    HW2 7674   1.299   5.506   4.365
 2259SOL     OW 7675   4.938   4.046   6.368
 2259SOL    HW1 7676   4.966   4.097   6.287
 2259SOL    HW2 7677   4.916   3.952   6.342
 2260SOL     OW 7678   4.274   4.666   2.957
 2260SOL    HW1 7679   4.345   4.732   2.932
 2260SOL    HW2 7680   4.260   4.602   2.882
 2261SOL     OW 7681   5.520   6.372   0.932
 2261SOL    HW1 7682   5.459   6.419   0.996
 2261SOL    HW2 7683   5.614   6.375   0.967
 2262SOL     OW 7684   5.498   2.224   3.356
 2262SOL    HW1 7685   5.584   2.191   3.317
 2262SOL    HW2 7686   5.479   2.316   3.322
 2263SOL     OW 7687   2.239   6.283   6.170
 2263SOL    HW1 7688   2.176   6.346   6.125
 2263SOL    HW2 7689   2.298   6.241   6.102
 2264SOL     OW 7690   3.019   3.792   2.410
 2264SOL    HW1 7691   2.978   3.763   2.323
 2264SOL    HW2 7692   3.050   3.887   2.402
 2265SOL     OW 7693   0.363   1.108   3.585
 2265SOL    HW1 7694   0.324   1.053   3.659
 2265SOL    HW2 7695   0.289   1.152   3.533
 2266SOL     OW 7696   0.012   1.025   0.939
 2266SOL    HW1 7697   6.940   1.064   0.940
 2266SOL    HW2 7698   0.076   1.090   0.897
 2267SOL     OW 7699   5.622   2.887   5.072
 2267SOL    HW1 7700   5.627   2.899   4.973
 2267SOL    HW2 7701   5.571   2.803   5.093
 2268SOL     OW 7702   6.394   5.765   0.370
 2268SOL    HW1 7703   6.403   5.741   0.467
 2268SOL    HW2 7704   6.469   5.827   0.345
 2269SOL     OW 7705   6.017   5.593   5.249
 2269SOL    HW1 7706   5.936   5.572   5.195
 2269SOL    HW2 7707   6.023   5.692   5.263
 2270SOL     OW 7708   3.521   3.714   1.244
 2270SOL    HW1 7709   3.519   3.637   1.181
 2270SOL    HW2 7710   3.514   3.799   1.193
 2271SOL     OW 7711   6.038   4.371   1.366
 2271SOL    HW1 7712   6.044   4.412   1.274
 2271SOL    HW2 7713   5.983   4.430   1.424
 2272SOL     OW 7714   5.865   2.142   4.643
 2272SOL    HW1 7715   5.849   2.205   4.719
 2272SOL    HW2 7716   5.929   2.183   4.579
 2273SOL     OW 7717   1.634   1.815   3.398
 2273SOL    HW1 7718   1.725   1.780   3.378
 2273SOL    HW2 7719   1.632   1.914   3.382
 2274SOL     OW 7720   1.681   3.934   4.827
 2274SOL    HW1 7721   1.772   3.949   4.789
 2274SOL    HW2 7722   1.613   3.936   4.754
 2275SOL     OW 7723   4.680   6.628   4.561
 2275SOL    HW1 7724   4.767   6.634   4.611
 2275SOL    HW2 7725   4.668   6.534   4.529
 2276SOL     OW 7726   3.687   5.643   0.791
 2276SOL    HW1 7727   3.783   5.637   0.819
 2276SOL    HW2 7728   3.668   5.733   0.754
 2277SOL     OW 7729   3.240   3.373   4.778
 2277SOL    HW1 7730   3.269   3.277   4.772
 2277SOL    HW2 7731   3.172   3.383   4.850
 2278SOL     OW 7732   4.696   6.402   3.183
 2278SOL    HW1 7733   4.626   6.331   3.183
 2278SOL    HW2 7734   4.663   6.482   3.233
 2279SOL     OW 7735   5.386   4.517   4.147
 2279SOL    HW1 7736   5.464   4.454   4.140
 2279SOL    HW2 7737   5.378   4.551   4.240
 2280SOL     OW 7738   6.810   6.317   4.992
 2280SOL    HW1 7739   6.858   6.265   5.063
 2280SOL    HW2 7740   6.736   6.262   4.954
 2281SOL     OW 7741   3.381   1.617   1.622
 2281SOL    HW1 7742   3.422   1.540   1.672
 2281SOL    HW2 7743   3.354   1.688   1.687
 2282SOL     OW 7744   5.281   5.906   4.583
 2282SOL    HW1 7745   5.350   5.872   4.519
 2282SOL    HW2 7746   5.208   5.838   4.592
 2283SOL     OW 7747   6.708   3.411   2.651
 2283SOL    HW1 7748   6.760   3.436   2.569
 2283SOL    HW2 7749   6.674   3.494   2.696
 2284SOL     OW 7750   2.841   2.144   1.529
 2284SOL    HW1 7751   2.938   2.120   1.531
 2284SOL    HW2 7752   2.823   2.216   1.596
 2285SOL     OW 7753   1.105   3.627   0.766
 2285SOL    HW1 7754   1.019   3.592   0.728
 2285SOL    HW2 7755   1.153   3.553   0.813
 2286SOL     OW 7756   0.059   5.858   5.181
 2286SOL    HW1 7757   6.997   5.807   5.209
 2286SOL    HW2 7758   0.140   5.802   5.199
 2287SOL     OW 7759   2.039   2.850   1.322
 2287SOL    HW1 7760   2.015   2.759   1.356
 2287SOL    HW2 7761   2.131   2.849   1.284
 2288SOL     OW 7762   0.971   5.694   3.468
 2288SOL    HW1 7763   1.070   5.685   3.461
 2288SOL    HW2 7764   0.934   5.724   3.380
 2289SOL     OW 7765   5.396   2.351   1.941
 2289SOL    HW1 7766   5.465   2.289   1.978
 2289SOL    HW2 7767   5.318   2.355   2.004
 2290SOL     OW 7768   3.002   3.163   2.544
 2290SOL    HW1 7769   3.041   3.085   2.495
 2290SOL    HW2 7770   3.074   3.211   2.594
 2291SOL     OW 7771   1.958   1.899   1.723
 2291SOL    HW1 7772   1.946   1.994   1.697
 2291SOL    HW2 7773   1.892   1.842   1.673
 2292SOL     OW 7774   5.204   3.449   3.676
 2292SOL    HW1 7775   5.213   3.433   3.577
 2292SOL    HW2 7776   5.215   3.363   3.725
 2293SOL     OW 7777   5.584   1.161   0.640
 2293SOL    HW1 7778   5.523   1.090   0.604
 2293SOL    HW2 7779   5.647   1.190   0.568
 2294SOL     OW 7780   3.269   1.802   6.008
 2294SOL    HW1 7781   3.241   1.723   6.063
 2294SOL    HW2 7782   3.362   1.829   6.033
 2295SOL     OW 7783   6.768   1.092   1.617
 2295SOL    HW1 7784   6.779   1.130   1.525
 2295SOL    HW2 7785   6.853   1.106   1.668
 2296SOL     OW 7786   2.699   5.112   3.349
 2296SOL    HW1 7787   2.661   5.025   3.383
 2296SOL    HW2 7788   2.797   5.102   3.335
 2297SOL     OW 7789   5.018   4.739   5.546
 2297SOL    HW1 7790   5.025   4.695   5.636
 2297SOL    HW2 7791   4.972   4.678   5.483
 2298SOL     OW 7792   3.858   3.864   3.157
 2298SOL    HW1 7793   3.835   3.769   3.136
 2298SOL    HW2 7794   3.774   3.916   3.171
 2299SOL     OW 7795   4.928   3.820   4.779
 2299SOL    HW1 7796   4.956   3.759   4.705
 2299SOL    HW2 7797   4.873   3.768   4.845
 2300SOL     OW 7798   3.328   6.831   3.447
 2300SOL    HW1 7799   3.419   6.791   3.453
 2300SOL    HW2 7800   3.278   6.788   3.372
 2301SOL     OW 7801   3.593   3.004   4.250
 2301SOL    HW1 7802   3.601   3.022   4.348
 2301SOL    HW2 7803   3.681   3.024   4.206
 2302SOL     OW 7804   4.167   0.409   0.515
 2302SOL    HW1 7805   4.069   0.398   0.533
 2302SOL    HW2 7806   4.190   0.506   0.512
 2303SOL     OW 7807   2.333   2.815   1.229
 2303SOL    HW1 7808   2.394   2.736   1.234
 2303SOL    HW2 7809   2.377   2.888   1.176
 2304SOL     OW 7810   6.466   6.104   3.911
 2304SOL    HW1 7811   6.429   6.049   3.836
 2304SOL    HW2 7812   6.558   6.072   3.934
 2305SOL     OW 7813   1.773   0.929   3.682
 2305SOL    HW1 7814   1.786   0.996   3.609
 2305SOL    HW2 7815   1.770   0.976   3.770
 2306SOL     OW 7816   1.419   5.252   2.570
 2306SOL    HW1 7817   1.353   5.186   2.605
 2306SOL    HW2 7818   1.375   5.341   2.559
 2307SOL     OW 7819   1.171   2.653   5.566
 2307SOL    HW1 7820   1.194   2.749   5.551
 2307SOL    HW2 7821   1.208   2.597   5.492
 2308SOL     OW 7822   2.372   4.991   0.937
 2308SOL    HW1 7823   2.412   4.994   0.845
 2308SOL    HW2 7824   2.287   5.043   0.937
 2309SOL     OW 7825   1.852   0.466   4.066
 2309SOL    HW1 7826   1.826   0.543   4.124
 2309SOL    HW2 7827   1.847   0.494   3.970
 2310SOL     OW 7828   5.254   6.716   2.378
 2310SOL    HW1 7829   5.272   6.812   2.402
 2310SOL    HW2 7830   5.160   6.693   2.404
 2311SOL     OW 7831   2.248   6.207   0.150
 2311SOL    HW1 7832   2.226   6.120   0.192
 2311SOL    HW2 7833   2.206   6.213   0.059
 2312SOL     OW 7834   3.839   5.748   3.610
 2312SOL    HW1 7835   3.855   5.702   3.522
 2312SOL    HW2 7836   3.756   5.713   3.652
 2313SOL     OW 7837   5.194   5.224   2.384
 2313SOL    HW1 7838   5.213   5.310   2.433
 2313SOL    HW2 7839   5.154   5.158   2.448
 2314SOL     OW 7840   3.749   5.865   3.137
 2314SOL    HW1 7841   3.777   5.866   3.233
 2314SOL    HW2 7842   3.827   5.889   3.079
 2315SOL     OW 7843   4.943   3.416   6.472
 2315SOL    HW1 7844   4.973   3.406   6.377
 2315SOL    HW2 7845   5.018   3.392   6.533
 2316SOL     OW 7846   4.756   2.693   3.477
 2316SOL    HW1 7847   4.669   2.645   3.464
 2316SOL    HW2 7848   4.761   2.729   3.570
 2317SOL     OW 7849   1.191   5.105   2.688
 2317SOL    HW1 7850   1.122   5.162   2.734
 2317SOL    HW2 7851   1.225   5.037   2.753
 2318SOL     OW 7852   0.996   2.441   3.493
 2318SOL    HW1 7853   0.926   2.401   3.553
 2318SOL    HW2 7854   0.953   2.505   3.430
 2319SOL     OW 7855   2.085   4.074   4.859
 2319SOL    HW1 7856   2.157   4.037   4.917
 2319SOL    HW2 7857   2.014   4.114   4.916
 2320SOL     OW 7858   0.065   2.266   4.553
 2320SOL    HW1 7859   0.053   2.166   4.551
 2320SOL    HW2 7860   0.132   2.293   4.485
 2321SOL     OW 7861   3.393   0.469   4.971
 2321SOL    HW1 7862   3.441   0.386   4.944
 2321SOL    HW2 7863   3.434   0.548   4.926
 2322SOL     OW 7864   1.462   2.011   5.806
 2322SOL    HW1 7865   1.535   2.048   5.749
 2322SOL    HW2 7866   1.445   1.915   5.781
 2323SOL     OW 7867   3.836   5.965   3.375
 2323SOL    HW1 7868   3.909   6.030   3.353
 2323SOL    HW2 7869   3.850   5.930   3.468
 2324SOL     OW 7870   0.831   6.271   2.196
 2324SOL    HW1 7871   0.900   6.237   2.260
 2324SOL    HW2 7872   0.759   6.202   2.184
 2325SOL     OW 7873   0.849   3.800   1.560
 2325SOL    HW1 7874   0.867   3.827   1.655
 2325SOL    HW2 7875   0.884   3.871   1.498
 2326SOL     OW 7876   1.515   3.817   6.607
 2326SOL    HW1 7877   1.450   3.889   6.584
 2326SOL    HW2 7878   1.585   3.853   6.669
 2327SOL     OW 7879   4.812   2.978   4.289
 2327SOL    HW1 7880   4.896   2.949   4.334
 2327SOL    HW2 7881   4.834   3.035   4.210
 2328SOL     OW 7882   4.802   1.124   3.292
 2328SOL    HW1 7883   4.731   1.053   3.299
 2328SOL    HW2 7884   4.891   1.083   3.311
 2329SOL     OW 7885   1.144   5.444   4.218
 2329SOL    HW1 7886   1.047   5.437   4.241
 2329SOL    HW2 7887   1.187   5.354   4.227
 2330SOL     OW 7888   0.319   5.352   1.182
 2330SOL    HW1 7889   0.285   5.264   1.214
 2330SOL    HW2 7890   0.242   5.415   1.170
 2331SOL     OW 7891   6.943   4.467   5.163
 2331SOL    HW1 7892   6.852   4.451   5.201
 2331SOL    HW2 7893   6.942   4.443   5.066
 2332SOL     OW 7894   5.147   3.014   5.832
 2332SOL    HW1 7895   5.171   2.960   5.751
 2332SOL    HW2 7896   5.093   3.093   5.804
 2333SOL     OW 7897   0.759   4.846   2.667
 2333SOL    HW1 7898   0.660   4.829   2.672
 2333SOL    HW2 7899   0.785   4.858   2.571
 2334SOL     OW 7900   3.317   6.704   0.098
 2334SOL    HW1 7901   3.275   6.717   0.008
 2334SOL    HW2 7902   3.260   6.642   0.153
 2335SOL     OW 7903   6.199   0.730   3.229
 2335SOL    HW1 7904   6.116   0.752   3.279
 2335SOL    HW2 7905   6.239   0.814   3.192
 2336SOL     OW 7906   5.012   1.279   5.366
 2336SOL    HW1 7907   4.997   1.320   5.456
 2336SOL    HW2 7908   4.983   1.183   5.368
 2337SOL     OW 7909   5.526   0.562   3.415
 2337SOL    HW1 7910   5.447   0.537   3.358
 2337SOL    HW2 7911   5.554   0.655   3.394
 2338SOL     OW 7912   0.398   6.554   0.039
 2338SOL    HW1 7913   0.310   6.515   0.067
 2338SOL    HW2 7914   0.472   6.503   0.083
 2339SOL     OW 7915   3.253   3.379   5.935
 2339SOL    HW1 7916   3.253   3.422   6.026
 2339SOL    HW2 7917   3.194   3.299   5.936
 2340SOL     OW 7918   3.691   6.210   4.987
 2340SOL    HW1 7919   3.768   6.161   4.946
 2340SOL    HW2 7920   3.620   6.145   5.013
 2341SOL     OW 7921   5.495   4.910   0.633
 2341SOL    HW1 7922   5.473   4.818   0.602
 2341SOL    HW2 7923   5.412   4.967   0.630
 2342SOL     OW 7924   0.269   6.590   5.919
 2342SOL    HW1 7925   0.349   6.537   5.949
 2342SOL    HW2 7926   0.226   6.632   5.999
 2343SOL     OW 7927   1.016   6.285   0.939
 2343SOL    HW1 7928   0.922   6.308   0.965
 2343SOL    HW2 7929   1.066   6.250   1.018
 2344SOL     OW 7930   2.761   1.954   2.839
 2344SOL    HW1 7931   2.792   1.951   2.933
 2344SOL    HW2 7932   2.835   1.926   2.778
 2345SOL     OW 7933   1.267   0.371   4.584
 2345SOL    HW1 7934   1.179   0.408   4.555
 2345SOL    HW2 7935   1.323   0.352   4.503
 2346SOL     OW 7936   4.379   3.091   5.331
 2346SOL    HW1 7937   4.309   3.027   5.362
 2346SOL    HW2 7938   4.349   3.185   5.348
 2347SOL     OW 7939   1.527   3.899   2.281
 2347SOL    HW1 7940   1.469   3.818   2.289
 2347SOL    HW2 7941   1.607   3.889   2.341
 2348SOL     OW 7942   2.105   6.610   3.238
 2348SOL    HW1 7943   2.199   6.610   3.272
 2348SOL    HW2 7944   2.042   6.597   3.315
 2349SOL     OW 7945   7.015   6.528   5.904
 2349SOL    HW1 7946   7.002   6.439   5.948
 2349SOL    HW2 7947   0.093   6.547   5.897
 2350SOL     OW 7948   3.146   0.685   5.421
 2350SOL    HW1 7949   3.112   0.643   5.505
 2350SOL    HW2 7950   3.190   0.616   5.364
 2351SOL     OW 7951   2.748   5.288   3.818
 2351SOL    HW1 7952   2.733   5.281   3.719
 2351SOL    HW2 7953   2.846   5.296   3.837
 2352SOL     OW 7954   6.670   4.157   3.708
 2352SOL    HW1 7955   6.735   4.233   3.693
 2352SOL    HW2 7956   6.599   4.186   3.772
 2353SOL     OW 7957   2.816   3.902   5.522
 2353SOL    HW1 7958   2.807   3.892   5.423
 2353SOL    HW2 7959   2.800   3.997   5.547
 2354SOL     OW 7960   3.600   2.452   0.112
 2354SOL    HW1 7961   3.532   2.459   0.184
 2354SOL    HW2 7962   3.657   2.534   0.112
 2355SOL     OW 7963   0.406   0.005   0.972
 2355SOL    HW1 7964   0.350   7.007   1.052
 2355SOL    HW2 7965   0.356   6.996   0.889
 2356SOL     OW 7966   2.438   4.782   2.087
 2356SOL    HW1 7967   2.470   4.814   2.176
 2356SOL    HW2 7968   2.349   4.821   2.067
 2357SOL     OW 7969   5.175   5.031   3.607
 2357SOL    HW1 7970   5.236   5.026   3.685
 2357SOL    HW2 7971   5.092   4.978   3.626
 2358SOL     OW 7972   2.834   6.803   3.813
 2358SOL    HW1 7973   2.772   6.746   3.867
 2358SOL    HW2 7974   2.870   6.877   3.871
 2359SOL     OW 7975   2.782   1.753   6.149
 2359SOL    HW1 7976   2.705   1.815   6.168
 2359SOL    HW2 7977   2.859   1.805   6.113
 2360SOL     OW 7978   3.650   4.430   6.940
 2360SOL    HW1 7979   3.698   4.445   6.854
 2360SOL    HW2 7980   3.553   4.415   6.922
 2361SOL     OW 7981   2.827   0.080   3.073
 2361SOL    HW1 7982   2.849   0.045   3.164
 2361SOL    HW2 7983   2.909   0.116   3.030
 2362SOL     OW 7984   4.312   6.063   4.922
 2362SOL    HW1 7985   4.371   6.143   4.910
 2362SOL    HW2 7986   4.220   6.094   4.949
 2363SOL     OW 7987   4.356   1.987   5.619
 2363SOL    HW1 7988   4.368   2.063   5.683
 2363SOL    HW2 7989   4.418   1.998   5.542
 2364SOL     OW 7990   5.308   1.610   1.891
 2364SOL    HW1 7991   5.243   1.665   1.838
 2364SOL    HW2 7992   5.374   1.567   1.830
 2365SOL     OW 7993   5.374   4.072   4.301
 2365SOL    HW1 7994   5.453   4.129   4.282
 2365SOL    HW2 7995   5.342   4.030   4.216
 2366SOL     OW 7996   1.577   3.898   5.490
 2366SOL    HW1 7997   1.637   3.819   5.479
 2366SOL    HW2 7998   1.540   3.926   5.402
 2367SOL     OW 7999   1.251   3.249   5.663
 2367SOL    HW1 8000   1.299   3.282   5.581
 2367SOL    HW2 8001   1.297   3.167   5.697
 2368SOL     OW 8002   4.596   1.576   4.388
 2368SOL    HW1 8003   4.538   1.556   4.309
 2368SOL    HW2 8004   4.673   1.512   4.390
 2369SOL     OW 8005   3.613   1.930   3.333
 2369SOL    HW1 8006   3.660   1.943   3.245
 2369SOL    HW2 8007   3.521   1.895   3.316
 2370SOL     OW 8008   4.837   2.794   0.504
 2370SOL    HW1 8009   4.902   2.831   0.570
 2370SOL    HW2 8010   4.859   2.828   0.413
 2371SOL     OW 8011   0.841   0.219   2.521
 2371SOL    HW1 8012   0.772   0.286   2.550
 2371SOL    HW2 8013   0.841   0.141   2.585
 2372SOL     OW 8014   6.542   0.775   6.224
 2372SOL    HW1 8015   6.538   0.867   6.263
 2372SOL    HW2 8016   6.623   0.767   6.166
 2373SOL     OW 8017   6.030   0.880   6.280
 2373SOL    HW1 8018   5.996   0.972   6.263
 2373SOL    HW2 8019   6.128   0.883   6.297
 2374SOL     OW 8020   5.801   5.602   3.138
 2374SOL    HW1 8021   5.814   5.514   3.183
 2374SOL    HW2 8022   5.704   5.618   3.122
 2375SOL     OW 8023   0.788   0.430   3.837
 2375SOL    HW1 8024   0.872   0.476   3.866
 2375SOL    HW2 8025   0.811   0.354   3.776
 2376SOL     OW 8026   6.949   2.471   3.412
 2376SOL    HW1 8027   6.946   2.500   3.508
 2376SOL    HW2 8028   6.890   2.530   3.358
 2377SOL     OW 8029   3.140   4.208   6.074
 2377SOL    HW1 8030   3.160   4.200   6.172
 2377SOL    HW2 8031   3.077   4.137   6.046
 2378SOL     OW 8032   6.099   2.072   0.019
 2378SOL    HW1 8033   6.131   2.154   0.066
 2378SOL    HW2 8034   6.027   2.028   0.073
 2379SOL     OW 8035   6.538   4.642   0.308
 2379SOL    HW1 8036   6.537   4.663   0.211
 2379SOL    HW2 8037   6.475   4.567   0.327
 2380SOL     OW 8038   6.027   2.110   5.302
 2380SOL    HW1 8039   5.974   2.195   5.300
 2380SOL    HW2 8040   5.966   2.033   5.319
 2381SOL     OW 8041   2.116   4.666   4.862
 2381SOL    HW1 8042   2.103   4.572   4.895
 2381SOL    HW2 8043   2.168   4.718   4.929
 2382SOL     OW 8044   1.363   5.788   2.485
 2382SOL    HW1 8045   1.453   5.779   2.527
 2382SOL    HW2 8046   1.368   5.851   2.408
 2383SOL     OW 8047   5.029   5.649   5.748
 2383SOL    HW1 8048   4.935   5.616   5.743
 2383SOL    HW2 8049   5.048   5.709   5.671
 2384SOL     OW 8050   0.353   1.918   1.468
 2384SOL    HW1 8051   0.383   1.998   1.519
 2384SOL    HW2 8052   0.270   1.881   1.510
 2385SOL     OW 8053   1.117   2.235   0.219
 2385SOL    HW1 8054   1.019   2.238   0.238
 2385SOL    HW2 8055   1.159   2.161   0.271
 2386SOL     OW 8056   3.237   5.190   4.801
 2386SOL    HW1 8057   3.158   5.129   4.794
 2386SOL    HW2 8058   3.259   5.206   4.898
 2387SOL     OW 8059   6.896   3.013   3.798
 2387SOL    HW1 8060   6.799   3.035   3.788
 2387SOL    HW2 8061   6.952   3.085   3.756
 2388SOL     OW 8062   0.368   1.572   5.879
 2388SOL    HW1 8063   0.278   1.589   5.838
 2388SOL    HW2 8064   0.407   1.659   5.910
 2389SOL     OW 8065   5.141   4.534   4.483
 2389SOL    HW1 8066   5.141   4.443   4.440
 2389SOL    HW2 8067   5.088   4.531   4.567
 2390SOL     OW 8068   4.047   3.239   5.230
 2390SOL    HW1 8069   4.086   3.306   5.167
 2390SOL    HW2 8070   4.009   3.286   5.310
 2391SOL     OW 8071   3.077   3.321   6.351
 2391SOL    HW1 8072   3.028   3.257   6.293
 2391SOL    HW2 8073   3.141   3.271   6.409
 2392SOL     OW 8074   3.623   4.512   5.834
 2392SOL    HW1 8075   3.546   4.494   5.896
 2392SOL    HW2 8076   3.634   4.610   5.822
 2393SOL     OW 8077   3.711   5.868   1.717
 2393SOL    HW1 8078   3.628   5.894   1.668
 2393SOL    HW2 8079   3.771   5.948   1.725
 2394SOL     OW 8080   0.185   4.168   3.758
 2394SOL    HW1 8081   0.189   4.182   3.857
 2394SOL    HW2 8082   0.272   4.194   3.717
 2395SOL     OW 8083   0.230   3.146   0.198
 2395SOL    HW1 8084   0.239   3.047   0.208
 2395SOL    HW2 8085   0.140   3.169   0.163
 2396SOL     OW 8086   5.500   0.768   6.845
 2396SOL    HW1 8087   5.434   0.695   6.862
 2396SOL    HW2 8088   5.590   0.740   6.879
 2397SOL     OW 8089   0.493   4.596   6.087
 2397SOL    HW1 8090   0.580   4.620   6.044
 2397SOL    HW2 8091   0.427   4.670   6.075
 2398SOL     OW 8092   2.710   5.583   4.364
 2398SOL    HW1 8093   2.653   5.543   4.436
 2398SOL    HW2 8094   2.806   5.576   4.390
 2399SOL     OW 8095   3.783   2.192   4.011
 2399SOL    HW1 8096   3.726   2.173   3.932
 2399SOL    HW2 8097   3.871   2.230   3.981
 2400SOL     OW 8098   1.638   3.503   0.027
 2400SOL    HW1 8099   1.718   3.540   0.076
 2400SOL    HW2 8100   1.555   3.531   0.075
 2401SOL     OW 8101   3.409   0.114   3.866
 2401SOL    HW1 8102   3.475   0.116   3.791
 2401SOL    HW2 8103   3.418   0.198   3.920
 2402SOL     OW 8104   0.413   2.152   3.237
 2402SOL    HW1 8105   0.323   2.174   3.200
 2402SOL    HW2 8106   0.431   2.209   3.318
 2403SOL     OW 8107   3.972   3.612   0.917
 2403SOL    HW1 8108   3.928   3.524   0.929
 2403SOL    HW2 8109   3.992   3.652   1.007
 2404SOL     OW 8110   5.930   1.654   1.506
 2404SOL    HW1 8111   5.852   1.715   1.523
 2404SOL    HW2 8112   5.916   1.568   1.555
 2405SOL     OW 8113   3.295   5.024   5.784
 2405SOL    HW1 8114   3.225   5.050   5.718
 2405SOL    HW2 8115   3.331   4.934   5.760
 2406SOL     OW 8116   2.373   0.092   3.793
 2406SOL    HW1 8117   2.456   0.111   3.740
 2406SOL    HW2 8118   2.391   0.020   3.859
 2407SOL     OW 8119   4.346   2.214   2.794
 2407SOL    HW1 8120   4.359   2.305   2.756
 2407SOL    HW2 8121   4.389   2.208   2.883
 2408SOL     OW 8122   2.593   5.365   2.428
 2408SOL    HW1 8123   2.629   5.443   2.479
 2408SOL    HW2 8124   2.602   5.382   2.330
 2409SOL     OW 8125   2.831   3.150   0.872
 2409SOL    HW1 8126   2.736   3.127   0.894
 2409SOL    HW2 8127   2.841   3.249   0.866
 2410SOL     OW 8128   6.545   3.350   6.005
 2410SOL    HW1 8129   6.590   3.438   6.021
 2410SOL    HW2 8130   6.466   3.362   5.945
 2411SOL     OW 8131   2.468   3.823   6.103
 2411SOL    HW1 8132   2.372   3.814   6.076
 2411SOL    HW2 8133   2.524   3.765   6.044
 2412SOL     OW 8134   2.721   2.997   0.198
 2412SOL    HW1 8135   2.820   3.001   0.185
 2412SOL    HW2 8136   2.677   3.059   0.133
 2413SOL     OW 8137   6.019   3.667   6.774
 2413SOL    HW1 8138   5.983   3.640   6.863
 2413SOL    HW2 8139   6.066   3.590   6.732
 2414SOL     OW 8140   5.382   1.995   3.844
 2414SOL    HW1 8141   5.400   2.032   3.753
 2414SOL    HW2 8142   5.359   2.069   3.907
 2415SOL     OW 8143   2.550   7.016   0.824
 2415SOL    HW1 8144   2.618   7.006   0.750
 2415SOL    HW2 8145   2.467   0.037   0.788
 2416SOL     OW 8146   1.011   3.122   3.430
 2416SOL    HW1 8147   0.935   3.170   3.386
 2416SOL    HW2 8148   1.096   3.173   3.414
 2417SOL     OW 8149   4.650   2.057   6.353
 2417SOL    HW1 8150   4.653   2.101   6.263
 2417SOL    HW2 8151   4.618   2.124   6.421
 2418SOL     OW 8152   3.661   3.807   5.578
 2418SOL    HW1 8153   3.619   3.816   5.488
 2418SOL    HW2 8154   3.644   3.715   5.613
 2419SOL     OW 8155   2.232   6.967   4.592
 2419SOL    HW1 8156   2.144   7.002   4.559
 2419SOL    HW2 8157   2.236   6.868   4.579
 2420SOL     OW 8158   3.322   5.332   1.718
 2420SOL    HW1 8159   3.372   5.399   1.773
 2420SOL    HW2 8160   3.239   5.305   1.767
 2421SOL     OW 8161   4.508   6.625   3.776
 2421SOL    HW1 8162   4.495   6.653   3.871
 2421SOL    HW2 8163   4.476   6.698   3.715
 2422SOL     OW 8164   3.888   6.767   0.812
 2422SOL    HW1 8165   3.902   6.669   0.822
 2422SOL    HW2 8166   3.960   6.805   0.753
 2423SOL     OW 8167   1.722   5.359   1.175
 2423SOL    HW1 8168   1.717   5.282   1.238
 2423SOL    HW2 8169   1.804   5.412   1.195
 2424SOL     OW 8170   6.055   6.459   6.745
 2424SOL    HW1 8171   6.058   6.359   6.745
 2424SOL    HW2 8172   6.112   6.494   6.820
 2425SOL     OW 8173   4.590   6.148   5.452
 2425SOL    HW1 8174   4.560   6.075   5.514
 2425SOL    HW2 8175   4.651   6.111   5.383
 2426SOL     OW 8176   0.915   5.300   5.024
 2426SOL    HW1 8177   0.917   5.369   5.096
 2426SOL    HW2 8178   0.853   5.330   4.951
 2427SOL     OW 8179   5.139   5.993   6.613
 2427SOL    HW1 8180   5.203   6.017   6.686
 2427SOL    HW2 8181   5.072   5.928   6.648
 2428SOL     OW 8182   0.086   0.531   2.506
 2428SOL    HW1 8183   0.021   0.457   2.525
 2428SOL    HW2 8184   0.126   0.517   2.415
 2429SOL     OW 8185   5.519   4.213   2.566
 2429SOL    HW1 8186   5.608   4.186   2.602
 2429SOL    HW2 8187   5.470   4.267   2.635
 2430SOL     OW 8188   5.766   2.040   0.487
 2430SOL    HW1 8189   5.749   1.953   0.533
 2430SOL    HW2 8190   5.683   2.095   0.487
 2431SOL     OW 8191   5.334   1.626   1.535
 2431SOL    HW1 8192   5.371   1.546   1.583
 2431SOL    HW2 8193   5.404   1.666   1.476
 2432SOL     OW 8194   3.026   6.244   1.403
 2432SOL    HW1 8195   3.093   6.176   1.374
 2432SOL    HW2 8196   3.066   6.335   1.400
 2433SOL     OW 8197   1.014   6.376   6.985
 2433SOL    HW1 8198   0.952   6.435   0.017
 2433SOL    HW2 8199   1.109   6.404   7.001
 2434SOL     OW 8200   4.862   1.625   2.278
 2434SOL    HW1 8201   4.771   1.665   2.289
 2434SOL    HW2 8202   4.929   1.680   2.329
 2435SOL     OW 8203   5.786   5.998   0.547
 2435SOL    HW1 8204   5.694   6.020   0.579
 2435SOL    HW2 8205   5.812   5.907   0.578
 2436SOL     OW 8206   1.752   1.125   1.319
 2436SOL    HW1 8207   1.758   1.218   1.355
 2436SOL    HW2 8208   1.815   1.066   1.369
 2437SOL     OW 8209   5.272   6.114   1.650
 2437SOL    HW1 8210   5.223   6.172   1.715
 2437SOL    HW2 8211   5.307   6.033   1.698
 2438SOL     OW 8212   4.397   1.612   4.705
 2438SOL    HW1 8213   4.347   1.698   4.708
 2438SOL    HW2 8214   4.439   1.594   4.794
 2439SOL     OW 8215   0.502   4.799   6.871
 2439SOL    HW1 8216   0.541   4.707   6.882
 2439SOL    HW2 8217   0.507   4.848   6.958
 2440SOL     OW 8218   4.582   6.641   5.517
 2440SOL    HW1 8219   4.633   6.586   5.583
 2440SOL    HW2 8220   4.496   6.595   5.495
 2441SOL     OW 8221   6.119   1.491   0.091
 2441SOL    HW1 8222   6.054   1.566   0.078
 2441SOL    HW2 8223   6.078   1.421   0.150
 2442SOL     OW 8224   5.894   4.655   2.990
 2442SOL    HW1 8225   5.924   4.735   2.937
 2442SOL    HW2 8226   5.947   4.575   2.961
 2443SOL     OW 8227   2.862   0.931   6.765
 2443SOL    HW1 8228   2.815   1.013   6.732
 2443SOL    HW2 8229   2.816   0.849   6.731
 2444SOL     OW 8230   4.067   4.691   6.926
 2444SOL    HW1 8231   4.021   4.755   6.865
 2444SOL    HW2 8232   4.065   4.727   7.019
 2445SOL     OW 8233   6.053   1.455   1.923
 2445SOL    HW1 8234   6.045   1.551   1.950
 2445SOL    HW2 8235   6.094   1.403   1.998
 2446SOL     OW 8236   1.216   2.816   3.207
 2446SOL    HW1 8237   1.271   2.855   3.133
 2446SOL    HW2 8238   1.122   2.849   3.200
 2447SOL     OW 8239   2.261   0.434   0.978
 2447SOL    HW1 8240   2.271   0.336   0.993
 2447SOL    HW2 8241   2.314   0.462   0.898
 2448SOL     OW 8242   5.930   2.107   4.221
 2448SOL    HW1 8243   5.858   2.130   4.157
 2448SOL    HW2 8244   6.018   2.103   4.173
 2449SOL     OW 8245   1.643   3.324   1.417
 2449SOL    HW1 8246   1.729   3.327   1.469
 2449SOL    HW2 8247   1.573   3.376   1.466
 2450SOL     OW 8248   2.663   5.468   6.521
 2450SOL    HW1 8249   2.620   5.557   6.532
 2450SOL    HW2 8250   2.613   5.415   6.452
 2451SOL     OW 8251   1.073   0.431   3.254
 2451SOL    HW1 8252   1.164   0.473   3.260
 2451SOL    HW2 8253   1.014   0.469   3.324
 2452SOL     OW 8254   3.007   2.231   3.997
 2452SOL    HW1 8255   2.974   2.138   4.015
 2452SOL    HW2 8256   3.090   2.227   3.942
 2453SOL     OW 8257   0.089   3.472   1.057
 2453SOL    HW1 8258   0.150   3.528   1.000
 2453SOL    HW2 8259   0.143   3.400   1.101
 2454SOL     OW 8260   2.628   6.324   0.085
 2454SOL    HW1 8261   2.560   6.379   0.133
 2454SOL    HW2 8262   2.693   6.384   0.038
 2455SOL     OW 8263   4.473   1.169   0.756
 2455SOL    HW1 8264   4.382   1.164   0.797
 2455SOL    HW2 8265   4.500   1.079   0.721
 2456SOL     OW 8266   0.372   2.601   6.837
 2456SOL    HW1 8267   0.432   2.658   6.894
 2456SOL    HW2 8268   0.338   2.524   6.891
 2457SOL     OW 8269   6.390   1.477   5.558
 2457SOL    HW1 8270   6.371   1.425   5.642
 2457SOL    HW2 8271   6.482   1.515   5.563
 2458SOL     OW 8272   1.381   6.606   3.846
 2458SOL    HW1 8273   1.469   6.642   3.815
 2458SOL    HW2 8274   1.367   6.515   3.807
 2459SOL     OW 8275   3.084   6.074   5.806
 2459SOL    HW1 8276   3.132   6.030   5.883
 2459SOL    HW2 8277   3.038   6.004   5.751
 2460SOL     OW 8278   1.469   1.248   0.299
 2460SOL    HW1 8279   1.429   1.228   0.209
 2460SOL    HW2 8280   1.398   1.285   0.359
 2461SOL     OW 8281   4.799   0.788   4.230
 2461SOL    HW1 8282   4.763   0.851   4.299
 2461SOL    HW2 8283   4.843   0.839   4.157
 2462SOL     OW 8284   2.757   5.064   6.988
 2462SOL    HW1 8285   2.671   5.114   6.986
 2462SOL    HW2 8286   2.739   4.965   6.986
 2463SOL     OW 8287   6.270   1.852   7.007
 2463SOL    HW1 8288   6.192   1.914   7.002
 2463SOL    HW2 8289   6.322   1.857   6.922
 2464SOL     OW 8290   1.741   3.353   3.098
 2464SOL    HW1 8291   1.732   3.335   3.196
 2464SOL    HW2 8292   1.781   3.273   3.053
 2465SOL     OW 8293   0.258   6.518   6.595
 2465SOL    HW1 8294   0.329   6.501   6.526
 2465SOL    HW2 8295   0.299   6.562   6.675
 2466SOL     OW 8296   1.907   1.583   2.815
 2466SOL    HW1 8297   1.933   1.549   2.725
 2466SOL    HW2 8298   1.826   1.641   2.807
 2467SOL     OW 8299   5.216   2.125   5.289
 2467SOL    HW1 8300   5.180   2.056   5.226
 2467SOL    HW2 8301   5.226   2.085   5.380
 2468SOL     OW 8302   4.293   6.776   1.008
 2468SOL    HW1 8303   4.378   6.822   1.031
 2468SOL    HW2 8304   4.304   6.728   0.921
 2469SOL     OW 8305   3.856   3.319   4.808
 2469SOL    HW1 8306   3.762   3.352   4.808
 2469SOL    HW2 8307   3.873   3.267   4.892
 2470SOL     OW 8308   4.083   4.736   5.515
 2470SOL    HW1 8309   4.103   4.642   5.487
 2470SOL    HW2 8310   4.147   4.764   5.586
 2471SOL     OW 8311   2.948   6.006   0.292
 2471SOL    HW1 8312   2.905   6.056   0.216
 2471SOL    HW2 8313   3.037   6.047   0.312
 2472SOL     OW 8314   4.633   2.324   3.240
 2472SOL    HW1 8315   4.726   2.358   3.244
 2472SOL    HW2 8316   4.620   2.251   3.307
 2473SOL     OW 8317   1.487   3.895   4.636
 2473SOL    HW1 8318   1.401   3.936   4.607
 2473SOL    HW2 8319   1.485   3.797   4.617
 2474SOL     OW 8320   0.469   6.139   0.877
 2474SOL    HW1 8321   0.405   6.160   0.802
 2474SOL    HW2 8322   0.533   6.068   0.847
 2475SOL     OW 8323   4.350   0.780   2.512
 2475SOL    HW1 8324   4.437   0.731   2.501
 2475SOL    HW2 8325   4.366   0.867   2.558
 2476SOL     OW 8326   5.703   0.801   2.066
 2476SOL    HW1 8327   5.675   0.878   2.009
 2476SOL    HW2 8328   5.693   0.716   2.014
 2477SOL     OW 8329   4.180   0.984   2.789
 2477SOL    HW1 8330   4.269   1.011   2.827
 2477SOL    HW2 8331   4.117   0.964   2.864
 2478SOL     OW 8332   6.488   1.922   1.352
 2478SOL    HW1 8333   6.580   1.944   1.317
 2478SOL    HW2 8334   6.420   1.976   1.302
 2479SOL     OW 8335   1.018   2.949   2.616
 2479SOL    HW1 8336   1.060   2.920   2.530
 2479SOL    HW2 8337   0.939   2.890   2.635
 2480SOL     OW 8338   4.569   3.986   0.865
 2480SOL    HW1 8339   4.498   4.039   0.911
 2480SOL    HW2 8340   4.652   3.985   0.921
 2481SOL     OW 8341   3.965   6.464   0.775
 2481SOL    HW1 8342   3.930   6.501   0.689
 2481SOL    HW2 8343   3.891   6.421   0.826
 2482SOL     OW 8344   5.246   3.720   5.874
 2482SOL    HW1 8345   5.340   3.748   5.852
 2482SOL    HW2 8346   5.242   3.620   5.880
 2483SOL     OW 8347   1.703   1.711   0.697
 2483SOL    HW1 8348   1.670   1.640   0.634
 2483SOL    HW2 8349   1.753   1.780   0.646
 2484SOL     OW 8350   3.936   0.275   6.949
 2484SOL    HW1 8351   3.937   0.353   6.886
 2484SOL    HW2 8352   3.891   0.197   6.906
 2485SOL     OW 8353   5.487   3.399   1.213
 2485SOL    HW1 8354   5.463   3.320   1.157
 2485SOL    HW2 8355   5.554   3.372   1.282
 2486SOL     OW 8356   1.571   4.929   5.056
 2486SOL    HW1 8357   1.492   4.914   4.995
 2486SOL    HW2 8358   1.646   4.870   5.027
 2487SOL     OW 8359   4.213   6.578   0.331
 2487SOL    HW1 8360   4.302   6.545   0.299
 2487SOL    HW2 8361   4.149   6.501   0.338
 2488SOL     OW 8362   1.495   4.210   1.889
 2488SOL    HW1 8363   1.510   4.240   1.983
 2488SOL    HW2 8364   1.468   4.288   1.833
 2489SOL     OW 8365   0.743   6.637   4.352
 2489SOL    HW1 8366   0.687   6.569   4.305
 2489SOL    HW2 8367   0.782   6.700   4.286
 2490SOL     OW 8368   7.000   5.265   1.256
 2490SOL    HW1 8369   0.054   5.212   1.215
 2490SOL    HW2 8370   6.932   5.202   1.293
 2491SOL     OW 8371   3.049   4.874   0.046
 2491SOL    HW1 8372   3.054   4.893   6.968
 2491SOL    HW2 8373   3.077   4.780   0.063
 2492SOL     OW 8374   4.683   3.711   1.019
 2492SOL    HW1 8375   4.643   3.696   1.109
 2492SOL    HW2 8376   4.669   3.631   0.962
 2493SOL     OW 8377   5.721   0.364   2.130
 2493SOL    HW1 8378   5.712   0.309   2.213
 2493SOL    HW2 8379   5.720   0.304   2.050
 2494SOL     OW 8380   5.636   4.672   2.825
 2494SOL    HW1 8381   5.667   4.656   2.731
 2494SOL    HW2 8382   5.690   4.617   2.888
 2495SOL     OW 8383   5.180   6.451   4.047
 2495SOL    HW1 8384   5.194   6.461   3.948
 2495SOL    HW2 8385   5.226   6.526   4.094
 2496SOL     OW 8386   0.287   2.343   6.179
 2496SOL    HW1 8387   0.385   2.364   6.170
 2496SOL    HW2 8388   0.244   2.408   6.241
 2497SOL     OW 8389   0.206   0.323   0.874
 2497SOL    HW1 8390   0.300   0.334   0.907
 2497SOL    HW2 8391   0.142   0.327   0.951
 2498SOL     OW 8392   2.936   2.175   4.710
 2498SOL    HW1 8393   3.000   2.110   4.752
 2498SOL    HW2 8394   2.953   2.266   4.747
 2499SOL     OW 8395   5.783   2.653   2.518
 2499SOL    HW1 8396   5.816   2.668   2.425
 2499SOL    HW2 8397   5.694   2.608   2.514
 2500SOL     OW 8398   4.283   4.385   6.569
 2500SOL    HW1 8399   4.378   4.363   6.546
 2500SOL    HW2 8400   4.275   4.399   6.668
 2501SOL     OW 8401   5.233   5.594   0.355
 2501SOL    HW1 8402   5.263   5.508   0.396
 2501SOL    HW2 8403   5.139   5.584   0.322
 2502SOL     OW 8404   1.003   0.492   3.536
 2502SOL    HW1 8405   0.979   0.579   3.578
 2502SOL    HW2 8406   0.946   0.419   3.575
 2503SOL     OW 8407   2.112   6.292   4.700
 2503SOL    HW1 8408   2.034   6.320   4.645
 2503SOL    HW2 8409   2.084   6.285   4.796
 2504SOL     OW 8410   3.526   5.448   4.829
 2504SOL    HW1 8411   3.470   5.529   4.848
 2504SOL    HW2 8412   3.482   5.394   4.758
 2505SOL     OW 8413   0.508   6.871   3.125
 2505SOL    HW1 8414   0.607   6.881   3.116
 2505SOL    HW2 8415   0.477   6.922   3.206
 2506SOL     OW 8416   6.093   3.825   5.776
 2506SOL    HW1 8417   6.051   3.739   5.747
 2506SOL    HW2 8418   6.063   3.898   5.714
 2507SOL     OW 8419   6.796   3.469   0.676
 2507SOL    HW1 8420   6.785   3.432   0.768
 2507SOL    HW2 8421   6.821   3.566   0.682
 2508SOL     OW 8422   2.963   1.585   3.615
 2508SOL    HW1 8423   3.025   1.641   3.669
 2508SOL    HW2 8424   3.001   1.570   3.524
 2509SOL     OW 8425   6.900   3.768   1.016
 2509SOL    HW1 8426   6.871   3.679   0.982
 2509SOL    HW2 8427   6.976   3.802   0.960
 2510SOL     OW 8428   2.872   5.248   1.184
 2510SOL    HW1 8429   2.853   5.264   1.087
 2510SOL    HW2 8430   2.917   5.328   1.223
 2511SOL     OW 8431   3.702   1.889   4.398
 2511SOL    HW1 8432   3.664   1.922   4.484
 2511SOL    HW2 8433   3.690   1.957   4.327
 2512SOL     OW 8434   4.895   3.614   5.573
 2512SOL    HW1 8435   4.932   3.580   5.486
 2512SOL    HW2 8436   4.798   3.593   5.578
 2513SOL     OW 8437   1.890   4.181   5.011
 2513SOL    HW1 8438   1.939   4.174   5.098
 2513SOL    HW2 8439   1.873   4.278   4.991
 2514SOL     OW 8440   7.012   3.494   4.912
 2514SOL    HW1 8441   0.030   3.410   4.872
 2514SOL    HW2 8442   0.066   3.557   4.934
 2515SOL     OW 8443   1.194   0.551   1.233
 2515SOL    HW1 8444   1.235   0.637   1.204
 2515SOL    HW2 8445   1.252   0.507   1.301
 2516SOL     OW 8446   5.967   1.907   2.580
 2516SOL    HW1 8447   5.896   1.950   2.636
 2516SOL    HW2 8448   6.010   1.977   2.523
 2517SOL     OW 8449   1.204   6.561   5.766
 2517SOL    HW1 8450   1.248   6.494   5.705
 2517SOL    HW2 8451   1.240   6.652   5.747
 2518SOL     OW 8452   1.472   4.740   6.898
 2518SOL    HW1 8453   1.466   4.642   6.914
 2518SOL    HW2 8454   1.484   4.787   6.986
 2519SOL     OW 8455   3.927   6.419   2.154
 2519SOL    HW1 8456   3.956   6.482   2.226
 2519SOL    HW2 8457   3.914   6.328   2.192
 2520SOL     OW 8458   2.910   1.654   0.333
 2520SOL    HW1 8459   2.871   1.578   0.282
 2520SOL    HW2 8460   2.863   1.739   0.309
 2521SOL     OW 8461   2.137   0.907   5.477
 2521SOL    HW1 8462   2.129   0.994   5.430
 2521SOL    HW2 8463   2.090   0.912   5.565
 2522SOL     OW 8464   0.672   2.777   5.112
 2522SOL    HW1 8465   0.665   2.848   5.042
 2522SOL    HW2 8466   0.647   2.816   5.201
 2523SOL     OW 8467   0.263   3.253   1.417
 2523SOL    HW1 8468   0.242   3.178   1.480
 2523SOL    HW2 8469   0.335   3.310   1.456
 2524SOL     OW 8470   0.773   6.412   5.027
 2524SOL    HW1 8471   0.691   6.466   5.006
 2524SOL    HW2 8472   0.745   6.321   5.059
 2525SOL     OW 8473   1.053   2.300   5.618
 2525SOL    HW1 8474   1.138   2.249   5.631
 2525SOL    HW2 8475   1.058   2.385   5.671
 2526SOL     OW 8476   1.555   4.581   6.468
 2526SOL    HW1 8477   1.528   4.486   6.477
 2526SOL    HW2 8478   1.522   4.618   6.381
 2527SOL     OW 8479   5.397   5.701   5.030
 2527SOL    HW1 8480   5.420   5.673   4.937
 2527SOL    HW2 8481   5.342   5.784   5.027
 2528SOL     OW 8482   5.866   5.024   0.433
 2528SOL    HW1 8483   5.856   5.057   0.339
 2528SOL    HW2 8484   5.821   5.086   0.496
 2529SOL     OW 8485   7.004   5.989   6.554
 2529SOL    HW1 8486   6.917   6.033   6.577
 2529SOL    HW2 8487   7.016   5.909   6.613
 2530SOL     OW 8488   2.597   6.354   5.377
 2530SOL    HW1 8489   2.575   6.353   5.279
 2530SOL    HW2 8490   2.688   6.315   5.391
 2531SOL     OW 8491   5.830   5.864   4.470
 2531SOL    HW1 8492   5.769   5.904   4.538
 2531SOL    HW2 8493   5.780   5.844   4.387
 2532SOL     OW 8494   0.498   6.014   0.603
 2532SOL    HW1 8495   0.541   5.981   0.687
 2532SOL    HW2 8496   0.447   6.098   0.623
 2533SOL     OW 8497   3.226   6.755   4.363
 2533SOL    HW1 8498   3.288   6.685   4.327
 2533SOL    HW2 8499   3.132   6.726   4.349
 2534SOL     OW 8500   3.681   0.568   2.954
 2534SOL    HW1 8501   3.604   0.618   2.994
 2534SOL    HW2 8502   3.743   0.632   2.909
 2535SOL     OW 8503   3.436   2.201   5.344
 2535SOL    HW1 8504   3.533   2.226   5.348
 2535SOL    HW2 8505   3.386   2.270   5.291
 2536SOL     OW 8506   1.392   1.749   4.510
 2536SOL    HW1 8507   1.475   1.797   4.481
 2536SOL    HW2 8508   1.312   1.805   4.489
 2537SOL     OW 8509   3.613   0.196   6.390
 2537SOL    HW1 8510   3.646   0.291   6.398
 2537SOL    HW2 8511   3.687   0.138   6.356
 2538SOL     OW 8512   0.838   4.602   3.004
 2538SOL    HW1 8513   0.910   4.579   3.070
 2538SOL    HW2 8514   0.757   4.546   3.022
 2539SOL     OW 8515   6.043   1.121   4.725
 2539SOL    HW1 8516   6.051   1.064   4.807
 2539SOL    HW2 8517   6.039   1.062   4.644
 2540SOL     OW 8518   3.798   1.852   3.108
 2540SOL    HW1 8519   3.849   1.780   3.156
 2540SOL    HW2 8520   3.710   1.815   3.077
 2541SOL     OW 8521   2.768   0.152   5.281
 2541SOL    HW1 8522   2.847   0.164   5.341
 2541SOL    HW2 8523   2.700   0.095   5.328
 2542SOL     OW 8524   3.523   1.053   5.829
 2542SOL    HW1 8525   3.491   1.083   5.918
 2542SOL    HW2 8526   3.529   1.131   5.767
 2543SOL     OW 8527   1.668   1.124   3.444
 2543SOL    HW1 8528   1.754   1.167   3.471
 2543SOL    HW2 8529   1.668   1.109   3.345
 2544SOL     OW 8530   0.406   6.508   1.586
 2544SOL    HW1 8531   0.337   6.516   1.658
 2544SOL    HW2 8532   0.457   6.423   1.597
 2545SOL     OW 8533   1.303   6.874   1.784
 2545SOL    HW1 8534   1.285   6.803   1.852
 2545SOL    HW2 8535   1.292   6.836   1.692
 2546SOL     OW 8536   0.017   1.036   1.673
 2546SOL    HW1 8537   0.034   1.100   1.748
 2546SOL    HW2 8538   0.096   1.033   1.613
 2547SOL     OW 8539   6.106   5.736   0.660
 2547SOL    HW1 8540   6.160   5.652   0.660
 2547SOL    HW2 8541   6.013   5.717   0.692
 2548SOL     OW 8542   1.348   6.695   6.183
 2548SOL    HW1 8543   1.293   6.767   6.140
 2548SOL    HW2 8544   1.331   6.695   6.282
 2549SOL     OW 8545   2.192   0.462   0.696
 2549SOL    HW1 8546   2.104   0.424   0.668
 2549SOL    HW2 8547   2.184   0.562   0.704
 2550SOL     OW 8548   6.805   0.485   6.861
 2550SOL    HW1 8549   6.890   0.510   6.817
 2550SOL    HW2 8550   6.814   0.497   6.960
 2551SOL     OW 8551   3.071   5.318   0.205
 2551SOL    HW1 8552   3.038   5.279   0.119
 2551SOL    HW2 8553   3.163   5.353   0.192
 2552SOL     OW 8554   1.923   5.252   5.373
 2552SOL    HW1 8555   1.854   5.291   5.312
 2552SOL    HW2 8556   1.880   5.186   5.435
 2553SOL     OW 8557   5.214   3.303   5.601
 2553SOL    HW1 8558   5.292   3.241   5.610
 2553SOL    HW2 8559   5.132   3.258   5.637
 2554SOL     OW 8560   1.351   6.995   0.475
 2554SOL    HW1 8561   1.391   6.912   0.436
 2554SOL    HW2 8562   1.252   6.984   0.481
 2555SOL     OW 8563   6.009   6.653   5.615
 2555SOL    HW1 8564   6.018   6.602   5.529
 2555SOL    HW2 8565   5.942   6.608   5.674
 2556SOL     OW 8566   4.661   5.839   0.586
 2556SOL    HW1 8567   4.619   5.750   0.568
 2556SOL    HW2 8568   4.620   5.879   0.669
 2557SOL     OW 8569   2.874   3.984   0.180
 2557SOL    HW1 8570   2.790   4.038   0.173
 2557SOL    HW2 8571   2.910   3.965   0.089
 2558SOL     OW 8572   4.906   1.764   4.196
 2558SOL    HW1 8573   4.895   1.835   4.126
 2558SOL    HW2 8574   4.996   1.722   4.186
 2559SOL     OW 8575   6.969   3.424   3.887
 2559SOL    HW1 8576   0.036   3.444   3.932
 2559SOL    HW2 8577   6.919   3.509   3.872
 2560SOL     OW 8578   5.808   3.566   4.286
 2560SOL    HW1 8579   5.780   3.632   4.355
 2560SOL    HW2 8580   5.766   3.477   4.304
 2561SOL     OW 8581   3.340   6.296   5.490
 2561SOL    HW1 8582   3.357   6.390   5.463
 2561SOL    HW2 8583   3.310   6.293   5.585
 2562SOL     OW 8584   2.042   5.406   2.079
 2562SOL    HW1 8585   2.060   5.358   2.165
 2562SOL    HW2 8586   1.982   5.484   2.096
 2563SOL     OW 8587   3.862   2.441   0.292
 2563SOL    HW1 8588   3.937   2.376   0.285
 2563SOL    HW2 8589   3.871   2.511   0.221
 2564SOL     OW 8590   2.082   6.470   6.074
 2564SOL    HW1 8591   2.153   6.518   6.023
 2564SOL    HW2 8592   1.998   6.468   6.020
 2565SOL     OW 8593   0.661   0.460   6.791
 2565SOL    HW1 8594   0.618   0.405   6.862
 2565SOL    HW2 8595   0.744   0.414   6.759
 2566SOL     OW 8596   2.655   6.729   1.101
 2566SOL    HW1 8597   2.588   6.801   1.120
 2566SOL    HW2 8598   2.690   6.740   1.008
 2567SOL     OW 8599   1.093   1.138   1.143
 2567SOL    HW1 8600   1.178   1.159   1.095
 2567SOL    HW2 8601   1.028   1.213   1.131
 2568SOL     OW 8602   4.135   6.941   0.006
 2568SOL    HW1 8603   4.196   6.993   0.065
 2568SOL    HW2 8604   4.150   6.843   0.018
 2569SOL     OW 8605   3.355   1.348   1.741
 2569SOL    HW1 8606   3.282   1.387   1.795
 2569SOL    HW2 8607   3.429   1.318   1.801
 2570SOL     OW 8608   5.481   6.911   6.308
 2570SOL    HW1 8609   5.425   6.875   6.233
 2570SOL    HW2 8610   5.524   6.997   6.280
 2571SOL     OW 8611   2.783   4.371   5.931
 2571SOL    HW1 8612   2.720   4.448   5.933
 2571SOL    HW2 8613   2.731   4.285   5.924
 2572SOL     OW 8614   2.739   4.882   0.563
 2572SOL    HW1 8615   2.794   4.799   0.558
 2572SOL    HW2 8616   2.797   4.962   0.549
 2573SOL     OW 8617   6.834   2.554   2.080
 2573SOL    HW1 8618   6.787   2.628   2.032
 2573SOL    HW2 8619   6.876   2.493   2.013
 2574SOL     OW 8620   6.091   4.067   0.313
 2574SOL    HW1 8621   6.158   4.126   0.269
 2574SOL    HW2 8622   6.134   4.022   0.393
 2575SOL     OW 8623   5.173   5.414   0.994
 2575SOL    HW1 8624   5.115   5.493   0.975
 2575SOL    HW2 8625   5.118   5.341   1.035
 2576SOL     OW 8626   4.394   6.491   4.243
 2576SOL    HW1 8627   4.465   6.424   4.265
 2576SOL    HW2 8628   4.334   6.455   4.171
 2577SOL     OW 8629   4.285   6.540   1.763
 2577SOL    HW1 8630   4.300   6.442   1.777
 2577SOL    HW2 8631   4.189   6.562   1.781
 2578SOL     OW 8632   4.850   1.749   5.346
 2578SOL    HW1 8633   4.850   1.656   5.310
 2578SOL    HW2 8634   4.761   1.791   5.329
 2579SOL     OW 8635   1.537   6.208   3.540
 2579SOL    HW1 8636   1.483   6.248   3.613
 2579SOL    HW2 8637   1.633   6.234   3.552
 2580SOL     OW 8638   2.774   3.631   6.399
 2580SOL    HW1 8639   2.806   3.632   6.304
 2580SOL    HW2 8640   2.676   3.651   6.401
 2581SOL     OW 8641   0.970   5.228   1.226
 2581SOL    HW1 8642   0.948   5.318   1.265
 2581SOL    HW2 8643   1.066   5.226   1.198
 2582SOL     OW 8644   0.493   4.347   2.095
 2582SOL    HW1 8645   0.510   4.274   2.028
 2582SOL    HW2 8646   0.580   4.381   2.129
 2583SOL     OW 8647   0.958   1.470   0.111
 2583SOL    HW1 8648   0.919   1.561   0.124
 2583SOL    HW2 8649   0.901   1.402   0.157
 2584SOL     OW 8650   3.971   4.975   6.443
 2584SOL    HW1 8651   4.037   4.939   6.509
 2584SOL    HW2 8652   3.994   4.942   6.351
 2585SOL     OW 8653   3.993   2.991   6.760
 2585SOL    HW1 8654   4.080   3.026   6.793
 2585SOL    HW2 8655   3.918   3.046   6.798
 2586SOL     OW 8656   3.718   1.353   3.252
 2586SOL    HW1 8657   3.671   1.434   3.288
 2586SOL    HW2 8658   3.777   1.381   3.176
 2587SOL     OW 8659   0.380   0.610   3.151
 2587SOL    HW1 8660   0.319   0.566   3.216
 2587SOL    HW2 8661   0.344   0.699   3.126
 2588SOL     OW 8662   5.196   1.138   6.475
 2588SOL    HW1 8663   5.104   1.156   6.439
 2588SOL    HW2 8664   5.198   1.049   6.520
 2589SOL     OW 8665   1.061   6.545   6.054
 2589SOL    HW1 8666   1.147   6.519   6.011
 2589SOL    HW2 8667   1.008   6.603   5.992
 2590SOL     OW 8668   3.322   5.609   0.479
 2590SOL    HW1 8669   3.233   5.655   0.488
 2590SOL    HW2 8670   3.340   5.556   0.561
 2591SOL     OW 8671   6.984   4.710   3.179
 2591SOL    HW1 8672   6.896   4.718   3.228
 2591SOL    HW2 8673   6.967   4.684   3.084
 2592SOL     OW 8674   3.341   5.810   0.025
 2592SOL    HW1 8675   3.340   5.846   0.118
 2592SOL    HW2 8676   3.402   5.731   0.019
 2593SOL     OW 8677   3.718   5.574   0.391
 2593SOL    HW1 8678   3.802   5.525   0.416
 2593SOL    HW2 8679   3.640   5.513   0.399
 2594SOL     OW 8680   1.927   4.623   6.470
 2594SOL    HW1 8681   1.897   4.625   6.375
 2594SOL    HW2 8682   1.901   4.708   6.516
 2595SOL     OW 8683   6.758   0.861   3.591
 2595SOL    HW1 8684   6.734   0.775   3.636
 2595SOL    HW2 8685   6.849   0.890   3.620
 2596SOL     OW 8686   3.274   2.093   1.879
 2596SOL    HW1 8687   3.339   2.079   1.954
 2596SOL    HW2 8688   3.181   2.080   1.913
 2597SOL     OW 8689   0.578   4.821   5.444
 2597SOL    HW1 8690   0.660   4.765   5.439
 2597SOL    HW2 8691   0.544   4.840   5.352
 2598SOL     OW 8692   6.333   1.000   3.161
 2598SOL    HW1 8693   6.325   1.069   3.233
 2598SOL    HW2 8694   6.361   1.044   3.075
 2599SOL     OW 8695   1.420   6.156   0.930
 2599SOL    HW1 8696   1.390   6.250   0.920
 2599SOL    HW2 8697   1.368   6.097   0.868
 2600SOL     OW 8698   5.534   2.894   4.816
 2600SOL    HW1 8699   5.462   2.831   4.846
 2600SOL    HW2 8700   5.583   2.854   4.738
 2601SOL     OW 8701   2.157   1.516   2.158
 2601SOL    HW1 8702   2.206   1.575   2.094
 2601SOL    HW2 8703   2.088   1.464   2.109
 2602SOL     OW 8704   1.358   4.865   4.896
 2602SOL    HW1 8705   1.282   4.846   4.958
 2602SOL    HW2 8706   1.397   4.778   4.863
 2603SOL     OW 8707   3.086   0.974   3.766
 2603SOL    HW1 8708   3.142   0.990   3.684
 2603SOL    HW2 8709   3.141   0.986   3.848
 2604SOL     OW 8710   4.765   1.827   2.543
 2604SOL    HW1 8711   4.741   1.865   2.454
 2604SOL    HW2 8712   4.684   1.787   2.586
 2605SOL     OW 8713   1.998   2.955   3.642
 2605SOL    HW1 8714   2.097   2.945   3.630
 2605SOL    HW2 8715   1.955   2.977   3.555
 2606SOL     OW 8716   5.384   4.793   1.633
 2606SOL    HW1 8717   5.306   4.754   1.681
 2606SOL    HW2 8718   5.353   4.839   1.550
 2607SOL     OW 8719   1.134   1.589   2.358
 2607SOL    HW1 8720   1.195   1.575   2.436
 2607SOL    HW2 8721   1.188   1.620   2.279
 2608SOL     OW 8722   4.304   4.707   0.564
 2608SOL    HW1 8723   4.328   4.756   0.480
 2608SOL    HW2 8724   4.288   4.611   0.544
 2609SOL     OW 8725   6.542   0.925   1.962
 2609SOL    HW1 8726   6.555   1.015   2.003
 2609SOL    HW2 8727   6.613   0.863   1.995
 2610SOL     OW 8728   0.850   4.116   4.427
 2610SOL    HW1 8729   0.804   4.173   4.496
 2610SOL    HW2 8730   0.810   4.025   4.427
 2611SOL     OW 8731   4.118   6.071   0.835
 2611SOL    HW1 8732   4.190   6.087   0.768
 2611SOL    HW2 8733   4.031   6.057   0.787
 2612SOL     OW 8734   6.657   7.005   4.584
 2612SOL    HW1 8735   6.700   0.006   4.497
 2612SOL    HW2 8736   6.702   0.035   4.657
 2613SOL     OW 8737   2.039   5.756   5.929
 2613SOL    HW1 8738   2.112   5.787   5.990
 2613SOL    HW2 8739   2.024   5.658   5.942
 2614SOL     OW 8740   6.378   1.932   0.216
 2614SOL    HW1 8741   6.349   1.880   0.136
 2614SOL    HW2 8742   6.382   2.029   0.193
 2615SOL     OW 8743   0.825   2.719   2.625
 2615SOL    HW1 8744   0.815   2.762   2.535
 2615SOL    HW2 8745   0.820   2.620   2.614
 2616SOL     OW 8746   2.639   3.129   5.848
 2616SOL    HW1 8747   2.556   3.115   5.902
 2616SOL    HW2 8748   2.615   3.166   5.758
 2617SOL     OW 8749   4.371   0.328   0.703
 2617SOL    HW1 8750   4.311   0.312   0.624
 2617SOL    HW2 8751   4.467   0.318   0.674
 2618SOL     OW 8752   6.941   0.478   3.832
 2618SOL    HW1 8753   7.012   0.536   3.793
 2618SOL    HW2 8754   6.944   0.388   3.789
 2619SOL     OW 8755   4.637   1.911   1.753
 2619SOL    HW1 8756   4.597   1.949   1.836
 2619SOL    HW2 8757   4.730   1.945   1.742
 2620SOL     OW 8758   6.519   6.993   3.562
 2620SOL    HW1 8759   6.584   6.939   3.507
 2620SOL    HW2 8760   6.521   6.960   3.657
 2621SOL     OW 8761   1.154   5.411   2.102
 2621SOL    HW1 8762   1.140   5.321   2.144
 2621SOL    HW2 8763   1.092   5.477   2.144
 2622SOL     OW 8764   1.249   3.668   5.956
 2622SOL    HW1 8765   1.322   3.665   6.025
 2622SOL    HW2 8766   1.263   3.594   5.890
 2623SOL     OW 8767   0.206   0.463   5.286
 2623SOL    HW1 8768   0.256   0.379   5.304
 2623SOL    HW2 8769   0.205   0.520   5.369
 2624SOL     OW 8770   0.579   1.272   4.739
 2624SOL    HW1 8771   0.504   1.242   4.798
 2624SOL    HW2 8772   0.542   1.302   4.651
 2625SOL     OW 8773   2.479   3.807   5.548
 2625SOL    HW1 8774   2.427   3.876   5.599
 2625SOL    HW2 8775   2.432   3.719   5.556
 2626SOL     OW 8776   6.802   0.271   6.160
 2626SOL    HW1 8777   6.895   0.299   6.133
 2626SOL    HW2 8778   6.805   0.228   6.250
 2627SOL     OW 8779   1.379   1.306   6.199
 2627SOL    HW1 8780   1.360   1.304   6.101
 2627SOL    HW2 8781   1.382   1.212   6.234
 2628SOL     OW 8782   2.250   4.167   5.676
 2628SOL    HW1 8783   2.193   4.130   5.603
 2628SOL    HW2 8784   2.320   4.226   5.636
 2629SOL     OW 8785   4.060   3.264   2.349
 2629SOL    HW1 8786   4.090   3.190   2.409
 2629SOL    HW2 8787   4.112   3.260   2.264
 2630SOL     OW 8788   3.594   1.492   2.681
 2630SOL    HW1 8789   3.663   1.425   2.652
 2630SOL    HW2 8790   3.637   1.581   2.693
 2631SOL     OW 8791   5.543   0.748   6.285
 2631SOL    HW1 8792   5.516   0.672   6.346
 2631SOL    HW2 8793   5.597   0.712   6.209
 2632SOL     OW 8794   5.093   2.920   0.939
 2632SOL    HW1 8795   5.094   2.957   1.032
 2632SOL    HW2 8796   5.187   2.899   0.911
 2633SOL     OW 8797   0.353   1.560   4.454
 2633SOL    HW1 8798   0.400   1.644   4.482
 2633SOL    HW2 8799   0.256   1.568   4.473
 2634SOL     OW 8800   0.943   5.182   3.685
 2634SOL    HW1 8801   0.900   5.250   3.744
 2634SOL    HW2 8802   0.884   5.102   3.679
 2635SOL     OW 8803   0.316   6.019   4.625
 2635SOL    HW1 8804   0.275   5.937   4.666
 2635SOL    HW2 8805   0.335   6.001   4.528
 2636SOL     OW 8806   4.252   0.537   5.830
 2636SOL    HW1 8807   4.285   0.629   5.848
 2636SOL    HW2 8808   4.302   0.472   5.888
 2637SOL     OW 8809   6.147   2.290   3.709
 2637SOL    HW1 8810   6.105   2.218   3.655
 2637SOL    HW2 8811   6.224   2.329   3.659
 2638SOL     OW 8812   6.985   6.517   4.168
 2638SOL    HW1 8813   6.921   6.465   4.111
 2638SOL    HW2 8814   6.951   6.610   4.180
 2639SOL     OW 8815   0.355   6.246   0.641
 2639SOL    HW1 8816   0.396   6.336   0.655
 2639SOL    HW2 8817   0.258   6.249   0.667
 2640SOL     OW 8818   6.798   6.581   5.433
 2640SOL    HW1 8819   6.701   6.568   5.409
 2640SOL    HW2 8820   6.819   6.527   5.515
 2641SOL     OW 8821   5.478   2.586   2.203
 2641SOL    HW1 8822   5.490   2.665   2.264
 2641SOL    HW2 8823   5.407   2.606   2.136
 2642SOL     OW 8824   6.152   0.716   3.884
 2642SOL    HW1 8825   6.125   0.812   3.869
 2642SOL    HW2 8826   6.101   0.657   3.822
 2643SOL     OW 8827   1.644   3.576   3.479
 2643SOL    HW1 8828   1.742   3.574   3.461
 2643SOL    HW2 8829   1.608   3.667   3.459
 2644SOL     OW 8830   4.897   5.038   4.640
 2644SOL    HW1 8831   4.832   5.088   4.696
 2644SOL    HW2 8832   4.990   5.064   4.666
 2645SOL     OW 8833   4.567   5.615   3.570
 2645SOL    HW1 8834   4.559   5.706   3.611
 2645SOL    HW2 8835   4.644   5.566   3.613
 2646SOL     OW 8836   6.626   1.829   6.951
 2646SOL    HW1 8837   6.602   1.765   0.004
 2646SOL    HW2 8838   6.639   1.920   6.989
 2647SOL     OW 8839   6.558   0.189   1.691
 2647SOL    HW1 8840   6.616   0.261   1.653
 2647SOL    HW2 8841   6.575   0.182   1.789
 2648SOL     OW 8842   0.657   6.442   3.917
 2648SOL    HW1 8843   0.686   6.407   4.006
 2648SOL    HW2 8844   0.730   6.431   3.850
 2649SOL     OW 8845   6.475   3.528   1.146
 2649SOL    HW1 8846   6.500   3.491   1.056
 2649SOL    HW2 8847   6.518   3.473   1.218
 2650SOL     OW 8848   1.791   5.007   3.647
 2650SOL    HW1 8849   1.703   5.005   3.694
 2650SOL    HW2 8850   1.831   5.098   3.653
 2651SOL     OW 8851   2.804   1.938   1.163
 2651SOL    HW1 8852   2.777   1.903   1.253
 2651SOL    HW2 8853   2.874   1.877   1.124
 2652SOL     OW 8854   4.211   3.425   5.577
 2652SOL    HW1 8855   4.240   3.341   5.624
 2652SOL    HW2 8856   4.265   3.437   5.494
 2653SOL     OW 8857   4.568   6.846   6.069
 2653SOL    HW1 8858   4.587   6.885   5.979
 2653SOL    HW2 8859   4.472   6.816   6.073
 2654SOL     OW 8860   4.375   6.869   1.525
 2654SOL    HW1 8861   4.352   6.787   1.577
 2654SOL    HW2 8862   4.468   6.862   1.491
 2655SOL     OW 8863   5.430   5.842   3.912
 2655SOL    HW1 8864   5.487   5.820   3.833
 2655SOL    HW2 8865   5.428   5.941   3.925
 2656SOL     OW 8866   3.644   4.968   4.707
 2656SOL    HW1 8867   3.643   5.043   4.641
 2656SOL    HW2 8868   3.725   4.911   4.692
 2657SOL     OW 8869   1.822   4.159   0.186
 2657SOL    HW1 8870   1.753   4.176   0.115
 2657SOL    HW2 8871   1.783   4.182   0.276
 2658SOL     OW 8872   5.250   5.153   0.322
 2658SOL    HW1 8873   5.205   5.064   0.324
 2658SOL    HW2 8874   5.206   5.211   0.254
 2659SOL     OW 8875   4.887   3.196   4.894
 2659SOL    HW1 8876   4.844   3.192   4.804
 2659SOL    HW2 8877   4.911   3.104   4.924
 2660SOL     OW 8878   1.407   0.085   1.667
 2660SOL    HW1 8879   1.363   0.002   1.702
 2660SOL    HW2 8880   1.493   0.100   1.716
 2661SOL     OW 8881   1.869   6.479   1.215
 2661SOL    HW1 8882   1.886   6.536   1.296
 2661SOL    HW2 8883   1.911   6.389   1.228
 2662SOL     OW 8884   3.592   6.917   4.781
 2662SOL    HW1 8885   3.689   6.916   4.757
 2662SOL    HW2 8886   3.537   6.903   4.698
 2663SOL     OW 8887   4.203   4.103   6.785
 2663SOL    HW1 8888   4.259   4.172   6.830
 2663SOL    HW2 8889   4.119   4.144   6.750
 2664SOL     OW 8890   4.638   3.581   5.603
 2664SOL    HW1 8891   4.599   3.661   5.649
 2664SOL    HW2 8892   4.622   3.499   5.658
 2665SOL     OW 8893   2.669   3.490   5.456
 2665SOL    HW1 8894   2.698   3.559   5.523
 2665SOL    HW2 8895   2.713   3.510   5.368
 2666SOL     OW 8896   1.389   5.156   1.427
 2666SOL    HW1 8897   1.298   5.123   1.401
 2666SOL    HW2 8898   1.384   5.203   1.515
 2667SOL     OW 8899   1.761   5.479   3.792
 2667SOL    HW1 8900   1.738   5.501   3.697
 2667SOL    HW2 8901   1.680   5.490   3.849
 2668SOL     OW 8902   6.488   2.408   4.683
 2668SOL    HW1 8903   6.554   2.412   4.757
 2668SOL    HW2 8904   6.499   2.488   4.624
 2669SOL     OW 8905   2.649   5.237   6.041
 2669SOL    HW1 8906   2.610   5.272   5.956
 2669SOL    HW2 8907   2.746   5.215   6.027
 2670SOL     OW 8908   6.073   3.140   4.648
 2670SOL    HW1 8909   6.070   3.238   4.629
 2670SOL    HW2 8910   5.980   3.102   4.643
 2671SOL     OW 8911   4.579   5.374   6.497
 2671SOL    HW1 8912   4.546   5.304   6.560
 2671SOL    HW2 8913   4.597   5.333   6.408
 2672SOL     OW 8914   3.250   6.361   1.110
 2672SOL    HW1 8915   3.200   6.303   1.045
 2672SOL    HW2 8916   3.325   6.309   1.151
 2673SOL     OW 8917   5.964   2.358   1.964
 2673SOL    HW1 8918   5.886   2.405   2.005
 2673SOL    HW2 8919   6.015   2.423   1.908
 2674SOL     OW 8920   1.237   4.625   4.217
 2674SOL    HW1 8921   1.222   4.676   4.301
 2674SOL    HW2 8922   1.335   4.624   4.195
 2675SOL     OW 8923   6.622   6.519   3.691
 2675SOL    HW1 8924   6.621   6.617   3.712
 2675SOL    HW2 8925   6.529   6.486   3.680
 2676SOL     OW 8926   3.423   3.049   1.536
 2676SOL    HW1 8927   3.323   3.039   1.538
 2676SOL    HW2 8928   3.465   2.963   1.509
 2677SOL     OW 8929   2.639   4.423   0.846
 2677SOL    HW1 8930   2.731   4.390   0.823
 2677SOL    HW2 8931   2.594   4.356   0.905
 2678SOL     OW 8932   0.451   2.712   2.471
 2678SOL    HW1 8933   0.450   2.621   2.513
 2678SOL    HW2 8934   0.491   2.777   2.534
 2679SOL     OW 8935   2.008   4.754   2.410
 2679SOL    HW1 8936   2.066   4.696   2.352
 2679SOL    HW2 8937   2.019   4.849   2.383
 2680SOL     OW 8938   0.877   2.160   0.635
 2680SOL    HW1 8939   0.925   2.074   0.652
 2680SOL    HW2 8940   0.943   2.235   0.630
 2681SOL     OW 8941   1.382   2.068   4.671
 2681SOL    HW1 8942   1.462   2.025   4.630
 2681SOL    HW2 8943   1.303   2.055   4.611
 2682SOL     OW 8944   4.778   4.142   3.894
 2682SOL    HW1 8945   4.848   4.198   3.849
 2682SOL    HW2 8946   4.764   4.175   3.987
 2683SOL     OW 8947   2.624   4.593   2.176
 2683SOL    HW1 8948   2.568   4.663   2.131
 2683SOL    HW2 8949   2.699   4.566   2.115
 2684SOL     OW 8950   4.386   6.701   2.273
 2684SOL    HW1 8951   4.322   6.774   2.248
 2684SOL    HW2 8952   4.400   6.642   2.194
 2685SOL     OW 8953   5.289   5.589   5.766
 2685SOL    HW1 8954   5.196   5.617   5.745
 2685SOL    HW2 8955   5.334   5.556   5.683
 2686SOL     OW 8956   1.161   1.518   5.277
 2686SOL    HW1 8957   1.157   1.607   5.323
 2686SOL    HW2 8958   1.068   1.490   5.252
 2687SOL     OW 8959   4.328   5.608   0.729
 2687SOL    HW1 8960   4.403   5.627   0.666
 2687SOL    HW2 8961   4.244   5.595   0.677
 2688SOL     OW 8962   2.390   2.665   0.549
 2688SOL    HW1 8963   2.376   2.730   0.624
 2688SOL    HW2 8964   2.335   2.583   0.565
 2689SOL     OW 8965   6.696   3.463   2.193
 2689SOL    HW1 8966   6.722   3.433   2.102
 2689SOL    HW2 8967   6.777   3.465   2.252
 2690SOL     OW 8968   2.910   3.274   5.773
 2690SOL    HW1 8969   2.860   3.283   5.687
 2690SOL    HW2 8970   2.854   3.225   5.840
 2691SOL     OW 8971   0.199   4.924   3.705
 2691SOL    HW1 8972   0.203   4.917   3.805
 2691SOL    HW2 8973   0.184   4.834   3.665
 2692SOL     OW 8974   2.649   6.499   3.677
 2692SOL    HW1 8975   2.679   6.579   3.626
 2692SOL    HW2 8976   2.689   6.500   3.768
 2693SOL     OW 8977   2.701   4.680   4.250
 2693SOL    HW1 8978   2.776   4.746   4.242
 2693SOL    HW2 8979   2.662   4.662   4.160
 2694SOL     OW 8980   3.786   6.783   3.224
 2694SOL    HW1 8981   3.752   6.719   3.155
 2694SOL    HW2 8982   3.764   6.748   3.315
 2695SOL     OW 8983   6.077   0.224   2.788
 2695SOL    HW1 8984   6.125   0.137   2.801
 2695SOL    HW2 8985   6.048   0.260   2.877
 2696SOL     OW 8986   4.310   3.831   5.588
 2696SOL    HW1 8987   4.298   3.774   5.669
 2696SOL    HW2 8988   4.251   3.912   5.595
 2697SOL     OW 8989   3.324   1.443   2.817
 2697SOL    HW1 8990   3.238   1.422   2.770
 2697SOL    HW2 8991   3.398   1.447   2.750
 2698SOL     OW 8992   2.440   4.612   0.278
 2698SOL    HW1 8993   2.418   4.595   0.182
 2698SOL    HW2 8994   2.358   4.597   0.334
 2699SOL     OW 8995   2.705   5.910   0.840
 2699SOL    HW1 8996   2.606   5.910   0.852
 2699SOL    HW2 8997   2.727   5.926   0.744
 2700SOL     OW 8998   3.017   1.851   1.004
 2700SOL    HW1 8999   3.107   1.820   1.037
 2700SOL    HW2 9000   3.018   1.950   0.993
 2701SOL     OW 9001   5.182   2.354   6.102
 2701SOL    HW1 9002   5.151   2.354   6.197
 2701SOL    HW2 9003   5.134   2.283   6.051
 2702SOL     OW 9004   1.001   2.821   3.675
 2702SOL    HW1 9005   0.959   2.911   3.667
 2702SOL    HW2 9006   1.021   2.786   3.583
 2703SOL     OW 9007   1.092   5.847   1.089
 2703SOL    HW1 9008   0.997   5.829   1.113
 2703SOL    HW2 9009   1.111   5.945   1.097
 2704SOL     OW 9010   6.234   6.241   1.921
 2704SOL    HW1 9011   6.197   6.200   2.003
 2704SOL    HW2 9012   6.179   6.320   1.894
 2705SOL     OW 9013   6.083   0.383   5.248
 2705SOL    HW1 9014   6.062   0.325   5.327
 2705SOL    HW2 9015   6.093   0.326   5.167
 2706SOL     OW 9016   6.353   4.719   3.430
 2706SOL    HW1 9017   6.344   4.781   3.508
 2706SOL    HW2 9018   6.273   4.659   3.426
 2707SOL     OW 9019   3.571   6.900   4.009
 2707SOL    HW1 9020   3.499   6.957   4.048
 2707SOL    HW2 9021   3.654   6.955   3.997
 2708SOL     OW 9022   6.261   2.953   1.239
 2708SOL    HW1 9023   6.308   2.866   1.259
 2708SOL    HW2 9024   6.300   2.993   1.156
 2709SOL     OW 9025   5.316   6.724   6.791
 2709SOL    HW1 9026   5.255   6.781   6.846
 2709SOL    HW2 9027   5.356   6.780   6.718
 2710SOL     OW 9028   1.357   3.023   4.004
 2710SOL    HW1 9029   1.341   2.993   3.910
 2710SOL    HW2 9030   1.409   3.108   4.004
 2711SOL     OW 9031   3.084   0.708   4.106
 2711SOL    HW1 9032   3.040   0.619   4.117
 2711SOL    HW2 9033   3.020   0.772   4.063
 2712SOL     OW 9034   2.537   5.296   1.957
 2712SOL    HW1 9035   2.517   5.346   1.873
 2712SOL    HW2 9036   2.585   5.211   1.934
 2713SOL     OW 9037   2.515   3.705   6.399
 2713SOL    HW1 9038   2.451   3.713   6.322
 2713SOL    HW2 9039   2.464   3.677   6.481
 2714SOL     OW 9040   3.607   2.848   6.748
 2714SOL    HW1 9041   3.611   2.931   6.804
 2714SOL    HW2 9042   3.644   2.868   6.657
 2715SOL     OW 9043   5.121   2.063   0.685
 2715SOL    HW1 9044   5.127   2.097   0.779
 2715SOL    HW2 9045   5.211   2.068   0.642
 2716SOL     OW 9046   4.990   3.560   4.132
 2716SOL    HW1 9047   4.939   3.606   4.060
 2716SOL    HW2 9048   4.967   3.462   4.132
 2717SOL     OW 9049   0.612   6.932   2.063
 2717SOL    HW1 9050   0.526   6.895   2.028
 2717SOL    HW2 9051   0.595   6.984   2.147
 2718SOL     OW 9052   0.654   1.037   5.481
 2718SOL    HW1 9053   0.679   1.111   5.544
 2718SOL    HW2 9054   0.587   0.977   5.526
 2719SOL     OW 9055   1.032   4.952   1.668
 2719SOL    HW1 9056   0.976   5.013   1.725
 2719SOL    HW2 9057   0.973   4.882   1.628
 2720SOL     OW 9058   1.324   0.386   2.522
 2720SOL    HW1 9059   1.292   0.477   2.550
 2720SOL    HW2 9060   1.270   0.316   2.568
 2721SOL     OW 9061   3.347   6.033   3.112
 2721SOL    HW1 9062   3.386   5.942   3.099
 2721SOL    HW2 9063   3.260   6.025   3.161
 2722SOL     OW 9064   5.357   5.341   6.874
 2722SOL    HW1 9065   5.359   5.308   6.969
 2722SOL    HW2 9066   5.375   5.439   6.873
 2723SOL     OW 9067   1.683   6.071   6.655
 2723SOL    HW1 9068   1.633   6.049   6.571
 2723SOL    HW2 9069   1.730   5.990   6.688
 2724SOL     OW 9070   1.457   6.430   6.173
 2724SOL    HW1 9071   1.454   6.527   6.198
 2724SOL    HW2 9072   1.420   6.375   6.248
 2725SOL     OW 9073   5.222   4.278   5.179
 2725SOL    HW1 9074   5.270   4.212   5.236
 2725SOL    HW2 9075   5.230   4.369   5.220
 2726SOL     OW 9076   0.434   2.757   2.188
 2726SOL    HW1 9077   0.441   2.749   2.287
 2726SOL    HW2 9078   0.513   2.807   2.153
 2727SOL     OW 9079   0.763   3.813   4.136
 2727SOL    HW1 9080   0.807   3.793   4.224
 2727SOL    HW2 9081   0.778   3.909   4.113
 2728SOL     OW 9082   4.881   6.268   5.424
 2728SOL    HW1 9083   4.787   6.259   5.456
 2728SOL    HW2 9084   4.888   6.347   5.363
 2729SOL     OW 9085   6.886   6.749   0.638
 2729SOL    HW1 9086   6.812   6.727   0.574
 2729SOL    HW2 9087   6.879   6.692   0.719
 2730SOL     OW 9088   1.358   5.914   1.781
 2730SOL    HW1 9089   1.327   5.906   1.686
 2730SOL    HW2 9090   1.406   6.001   1.793
 2731SOL     OW 9091   2.955   3.711   3.368
 2731SOL    HW1 9092   3.012   3.766   3.307
 2731SOL    HW2 9093   2.943   3.620   3.329
 2732SOL     OW 9094   5.875   1.730   0.789
 2732SOL    HW1 9095   5.921   1.649   0.754
 2732SOL    HW2 9096   5.877   1.729   0.889
 2733SOL     OW 9097   6.642   1.763   5.358
 2733SOL    HW1 9098   6.629   1.791   5.453
 2733SOL    HW2 9099   6.573   1.806   5.300
 2734SOL     OW 9100   2.719   5.514   0.904
 2734SOL    HW1 9101   2.724   5.470   0.994
 2734SOL    HW2 9102   2.787   5.587   0.899
 2735SOL     OW 9103   1.331   2.304   2.127
 2735SOL    HW1 9104   1.394   2.230   2.104
 2735SOL    HW2 9105   1.259   2.310   2.057
 2736SOL     OW 9106   6.906   6.122   4.749
 2736SOL    HW1 9107   6.848   6.162   4.820
 2736SOL    HW2 9108   6.923   6.026   4.769
 2737SOL     OW 9109   3.071   3.778   5.560
 2737SOL    HW1 9110   3.126   3.809   5.638
 2737SOL    HW2 9111   2.982   3.823   5.563
 2738SOL     OW 9112   5.666   5.841   2.039
 2738SOL    HW1 9113   5.718   5.910   2.089
 2738SOL    HW2 9114   5.599   5.799   2.101
 2739SOL     OW 9115   1.034   4.584   0.554
 2739SOL    HW1 9116   1.066   4.491   0.568
 2739SOL    HW2 9117   1.019   4.629   0.642
 2740SOL     OW 9118   6.441   5.038   1.406
 2740SOL    HW1 9119   6.477   4.947   1.426
 2740SOL    HW2 9120   6.411   5.081   1.492
 2741SOL     OW 9121   6.599   1.110   4.441
 2741SOL    HW1 9122   6.521   1.049   4.452
 2741SOL    HW2 9123   6.575   1.184   4.379
 2742SOL     OW 9124   2.321   5.165   0.535
 2742SOL    HW1 9125   2.299   5.080   0.584
 2742SOL    HW2 9126   2.236   5.207   0.501
 2743SOL     OW 9127   0.220   4.761   2.405
 2743SOL    HW1 9128   0.125   4.733   2.388
 2743SOL    HW2 9129   0.274   4.680   2.431
 2744SOL     OW 9130   4.434   2.731   0.221
 2744SOL    HW1 9131   4.393   2.804   0.166
 2744SOL    HW2 9132   4.481   2.771   0.300
 2745SOL     OW 9133   0.045   1.113   4.713
 2745SOL    HW1 9134   0.015   1.059   4.634
 2745SOL    HW2 9135   0.036   1.058   4.796
 2746SOL     OW 9136   1.170   2.694   4.902
 2746SOL    HW1 9137   1.176   2.594   4.908
 2746SOL    HW2 9138   1.262   2.732   4.902
 2747SOL     OW 9139   4.936   5.567   6.782
 2747SOL    HW1 9140   4.929   5.512   6.699
 2747SOL    HW2 9141   4.846   5.605   6.805
 2748SOL     OW 9142   4.427   1.279   2.414
 2748SOL    HW1 9143   4.493   1.255   2.485
 2748SOL    HW2 9144   4.418   1.203   2.349
 2749SOL     OW 9145   6.385   4.694   1.118
 2749SOL    HW1 9146   6.483   4.701   1.130
 2749SOL    HW2 9147   6.351   4.612   1.163
 2750SOL     OW 9148   2.166   4.218   2.010
 2750SOL    HW1 9149   2.232   4.227   1.935
 2750SOL    HW2 9150   2.123   4.128   2.007
 2751SOL     OW 9151   0.714   2.674   1.516
 2751SOL    HW1 9152   0.692   2.661   1.419
 2751SOL    HW2 9153   0.682   2.596   1.568
 2752SOL     OW 9154   3.384   4.351   5.965
 2752SOL    HW1 9155   3.295   4.306   5.972
 2752SOL    HW2 9156   3.401   4.378   5.871
 2753SOL     OW 9157   6.743   6.838   4.988
 2753SOL    HW1 9158   6.770   6.742   4.993
 2753SOL    HW2 9159   6.681   6.851   4.910
 2754SOL     OW 9160   0.474   0.262   0.935
 2754SOL    HW1 9161   0.540   0.306   0.997
 2754SOL    HW2 9162   0.456   0.169   0.966
 2755SOL     OW 9163   3.639   6.796   2.242
 2755SOL    HW1 9164   3.703   6.759   2.175
 2755SOL    HW2 9165   3.688   6.816   2.327
 2756SOL     OW 9166   4.614   6.078   6.850
 2756SOL    HW1 9167   4.602   5.979   6.855
 2756SOL    HW2 9168   4.546   6.123   6.908
 2757SOL     OW 9169   2.498   6.609   0.222
 2757SOL    HW1 9170   2.476   6.620   0.319
 2757SOL    HW2 9171   2.597   6.612   0.210
 2758SOL     OW 9172   4.261   0.119   3.505
 2758SOL    HW1 9173   4.356   0.098   3.481
 2758SOL    HW2 9174   4.204   0.112   3.423
 2759SOL     OW 9175   5.821   6.573   5.800
 2759SOL    HW1 9176   5.853   6.528   5.883
 2759SOL    HW2 9177   5.793   6.504   5.733
 2760SOL     OW 9178   0.173   5.753   1.766
 2760SOL    HW1 9179   0.241   5.774   1.696
 2760SOL    HW2 9180   0.120   5.673   1.738
 2761SOL     OW 9181   2.032   5.180   4.445
 2761SOL    HW1 9182   1.966   5.167   4.371
 2761SOL    HW2 9183   2.107   5.238   4.413
 2762SOL     OW 9184   1.724   1.093   5.404
 2762SOL    HW1 9185   1.776   1.106   5.319
 2762SOL    HW2 9186   1.728   1.177   5.458
 2763SOL     OW 9187   4.938   1.712   3.707
 2763SOL    HW1 9188   4.993   1.640   3.748
 2763SOL    HW2 9189   4.881   1.756   3.777
 2764SOL     OW 9190   5.960   1.024   1.104
 2764SOL    HW1 9191   5.867   1.044   1.073
 2764SOL    HW2 9192   5.962   1.021   1.204
 2765SOL     OW 9193   5.586   0.200   0.903
 2765SOL    HW1 9194   5.683   0.218   0.920
 2765SOL    HW2 9195   5.564   0.219   0.807
 2766SOL     OW 9196   4.234   2.073   6.719
 2766SOL    HW1 9197   4.182   2.057   6.803
 2766SOL    HW2 9198   4.295   2.151   6.732
 2767SOL     OW 9199   6.733   5.241   0.098
 2767SOL    HW1 9200   6.736   5.150   0.056
 2767SOL    HW2 9201   6.692   5.306   0.034
 2768SOL     OW 9202   4.716   0.439   0.914
 2768SOL    HW1 9203   4.726   0.467   0.819
 2768SOL    HW2 9204   4.791   0.479   0.968
 2769SOL     OW 9205   0.825   4.068   4.037
 2769SOL    HW1 9206   0.839   4.157   4.081
 2769SOL    HW2 9207   0.890   4.058   3.961
 2770SOL     OW 9208   2.835   5.158   5.787
 2770SOL    HW1 9209   2.896   5.215   5.732
 2770SOL    HW2 9210   2.740   5.179   5.764
 2771SOL     OW 9211   6.496   0.753   3.125
 2771SOL    HW1 9212   6.551   0.671   3.136
 2771SOL    HW2 9213   6.489   0.801   3.212
 2772SOL     OW 9214   4.433   1.538   0.432
 2772SOL    HW1 9215   4.528   1.522   0.458
 2772SOL    HW2 9216   4.417   1.637   0.423
 2773SOL     OW 9217   5.917   2.330   5.585
 2773SOL    HW1 9218   5.964   2.410   5.623
 2773SOL    HW2 9219   5.963   2.303   5.500
 2774SOL     OW 9220   6.122   3.720   3.648
 2774SOL    HW1 9221   6.150   3.683   3.559
 2774SOL    HW2 9222   6.198   3.770   3.689
 2775SOL     OW 9223   6.742   5.382   6.784
 2775SOL    HW1 9224   6.736   5.414   6.689
 2775SOL    HW2 9225   6.738   5.283   6.785
 2776SOL     OW 9226   4.573   4.626   6.412
 2776SOL    HW1 9227   4.544   4.611   6.317
 2776SOL    HW2 9228   4.669   4.653   6.413
 2777SOL     OW 9229   2.832   1.360   2.060
 2777SOL    HW1 9230   2.924   1.377   2.093
 2777SOL    HW2 9231   2.816   1.413   1.976
 2778SOL     OW 9232   1.459   7.009   5.633
 2778SOL    HW1 9233   1.516   0.045   5.693
 2778SOL    HW2 9234   1.503   7.001   5.543
 2779SOL     OW 9235   4.966   6.429   0.905
 2779SOL    HW1 9236   5.023   6.470   0.834
 2779SOL    HW2 9237   5.004   6.341   0.933
 2780SOL     OW 9238   6.697   6.168   6.947
 2780SOL    HW1 9239   6.615   6.145   6.893
 2780SOL    HW2 9240   6.778   6.159   6.889
 2781SOL     OW 9241   5.839   6.058   1.704
 2781SOL    HW1 9242   5.857   5.975   1.651
 2781SOL    HW2 9243   5.853   6.138   1.646
 2782SOL     OW 9244   3.847   1.901   5.251
 2782SOL    HW1 9245   3.894   1.814   5.262
 2782SOL    HW2 9246   3.765   1.903   5.309
 2783SOL     OW 9247   5.208   3.733   4.022
 2783SOL    HW1 9248   5.208   3.752   4.120
 2783SOL    HW2 9249   5.135   3.668   4.000
 2784SOL     OW 9250   3.510   1.736   1.163
 2784SOL    HW1 9251   3.555   1.791   1.233
 2784SOL    HW2 9252   3.570   1.660   1.137
 2785SOL     OW 9253   5.609   1.727   1.122
 2785SOL    HW1 9254   5.526   1.778   1.141
 2785SOL    HW2 9255   5.686   1.791   1.112
 2786SOL     OW 9256   4.555   5.610   2.317
 2786SOL    HW1 9257   4.599   5.521   2.326
 2786SOL    HW2 9258   4.484   5.605   2.247
 2787SOL     OW 9259   3.109   2.104   6.986
 2787SOL    HW1 9260   3.191   2.046   6.985
 2787SOL    HW2 9261   3.053   2.082   0.046
 2788SOL     OW 9262   2.179   4.808   6.314
 2788SOL    HW1 9263   2.156   4.719   6.275
 2788SOL    HW2 9264   2.099   4.867   6.311
 2789SOL     OW 9265   2.338   2.109   3.734
 2789SOL    HW1 9266   2.320   2.112   3.635
 2789SOL    HW2 9267   2.301   2.191   3.777
 2790SOL     OW 9268   3.192   5.475   1.938
 2790SOL    HW1 9269   3.183   5.516   2.029
 2790SOL    HW2 9270   3.139   5.529   1.872
 2791SOL     OW 9271   1.122   3.926   3.229
 2791SOL    HW1 9272   1.179   3.971   3.160
 2791SOL    HW2 9273   1.178   3.864   3.283
 2792SOL     OW 9274   0.893   6.871   4.178
 2792SOL    HW1 9275   0.823   6.927   4.135
 2792SOL    HW2 9276   0.908   6.789   4.123
 2793SOL     OW 9277   5.012   3.336   3.224
 2793SOL    HW1 9278   5.084   3.400   3.200
 2793SOL    HW2 9279   5.037   3.286   3.307
 2794SOL     OW 9280   0.458   3.307   0.215
 2794SOL    HW1 9281   0.452   3.405   0.233
 2794SOL    HW2 9282   0.366   3.269   0.201
 2795SOL     OW 9283   1.736   2.862   0.573
 2795SOL    HW1 9284   1.804   2.932   0.548
 2795SOL    HW2 9285   1.756   2.829   0.665
 2796SOL     OW 9286   6.620   5.499   2.554
 2796SOL    HW1 9287   6.689   5.448   2.606
 2796SOL    HW2 9288   6.530   5.457   2.566
 2797SOL     OW 9289   5.529   4.989   4.731
 2797SOL    HW1 9290   5.588   5.061   4.694
 2797SOL    HW2 9291   5.471   5.028   4.803
 2798SOL     OW 9292   0.992   5.447   1.405
 2798SOL    HW1 9293   1.002   5.468   1.502
 2798SOL    HW2 9294   1.061   5.497   1.352
 2799SOL     OW 9295   6.860   7.011   0.433
 2799SOL    HW1 9296   6.912   6.926   0.441
 2799SOL    HW2 9297   6.880   0.050   0.511
 2800SOL     OW 9298   4.604   5.165   0.086
 2800SOL    HW1 9299   4.703   5.162   0.097
 2800SOL    HW2 9300   4.578   5.256   0.053
 2801SOL     OW 9301   5.701   5.134   4.969
 2801SOL    HW1 9302   5.608   5.152   4.937
 2801SOL    HW2 9303   5.731   5.211   5.027
 2802SOL     OW 9304   4.652   1.885   5.591
 2802SOL    HW1 9305   4.631   1.817   5.520
 2802SOL    HW2 9306   4.618   1.975   5.562
 2803SOL     OW 9307   3.238   5.933   6.517
 2803SOL    HW1 9308   3.312   5.965   6.458
 2803SOL    HW2 9309   3.184   5.865   6.467
 2804SOL     OW 9310   0.286   4.681   5.056
 2804SOL    HW1 9311   0.210   4.709   4.998
 2804SOL    HW2 9312   0.372   4.702   5.011
 2805SOL     OW 9313   5.249   2.603   2.038
 2805SOL    HW1 9314   5.155   2.621   2.064
 2805SOL    HW2 9315   5.264   2.504   2.030
 2806SOL     OW 9316   6.757   5.415   4.609
 2806SOL    HW1 9317   6.674   5.383   4.655
 2806SOL    HW2 9318   6.823   5.446   4.679
 2807SOL     OW 9319   4.785   5.350   3.301
 2807SOL    HW1 9320   4.849   5.289   3.255
 2807SOL    HW2 9321   4.745   5.302   3.379
 2808SOL     OW 9322   5.318   3.684   2.721
 2808SOL    HW1 9323   5.338   3.782   2.722
 2808SOL    HW2 9324   5.284   3.658   2.631
 2809SOL     OW 9325   5.815   3.092   1.006
 2809SOL    HW1 9326   5.763   3.136   0.933
 2809SOL    HW2 9327   5.912   3.095   0.985
 2810SOL     OW 9328   3.201   5.766   4.449
 2810SOL    HW1 9329   3.148   5.681   4.457
 2810SOL    HW2 9330   3.298   5.747   4.462
 2811SOL     OW 9331   1.376   1.769   3.305
 2811SOL    HW1 9332   1.471   1.781   3.332
 2811SOL    HW2 9333   1.317   1.815   3.372
 2812SOL     OW 9334   4.865   4.027   6.983
 2812SOL    HW1 9335   4.863   4.120   0.000
 2812SOL    HW2 9336   4.771   3.994   6.971
 2813SOL     OW 9337   6.760   6.983   5.875
 2813SOL    HW1 9338   6.686   6.941   5.928
 2813SOL    HW2 9339   6.740   0.059   5.859
 2814SOL     OW 9340   4.399   3.499   6.464
 2814SOL    HW1 9341   4.408   3.570   6.533
 2814SOL    HW2 9342   4.369   3.414   6.507
 2815SOL     OW 9343   5.869   0.747   5.265
 2815SOL    HW1 9344   5.892   0.787   5.176
 2815SOL    HW2 9345   5.952   0.731   5.317
 2816SOL     OW 9346   5.903   5.620   3.494
 2816SOL    HW1 9347   5.956   5.594   3.413
 2816SOL    HW2 9348   5.838   5.692   3.471
 2817SOL     OW 9349   2.410   7.000   1.336
 2817SOL    HW1 9350   2.481   6.949   1.385
 2817SOL    HW2 9351   2.421   6.986   1.237
 2818SOL     OW 9352   6.898   0.396   0.345
 2818SOL    HW1 9353   6.854   0.472   0.394
 2818SOL    HW2 9354   6.993   0.419   0.327
 2819SOL     OW 9355   1.069   1.007   1.405
 2819SOL    HW1 9356   1.100   1.047   1.318
 2819SOL    HW2 9357   0.988   0.952   1.389
 2820SOL     OW 9358   1.335   2.025   3.020
 2820SOL    HW1 9359   1.372   2.044   2.929
 2820SOL    HW2 9360   1.401   1.972   3.073
 2821SOL     OW 9361   4.006   3.374   0.075
 2821SOL    HW1 9362   3.996   3.351   0.172
 2821SOL    HW2 9363   3.984   3.470   0.061
 2822SOL     OW 9364   4.492   2.105   0.036
 2822SOL    HW1 9365   4.459   2.184   0.087
 2822SOL    HW2 9366   4.489   2.024   0.095
 2823SOL     OW 9367   3.924   6.160   0.640
 2823SOL    HW1 9368   3.988   6.192   0.570
 2823SOL    HW2 9369   3.893   6.238   0.695
 2824SOL     OW 9370   2.720   1.179   3.249
 2824SOL    HW1 9371   2.774   1.098   3.227
 2824SOL    HW2 9372   2.729   1.247   3.176
 2825SOL     OW 9373   6.816   0.202   6.779
 2825SOL    HW1 9374   6.850   0.283   6.827
 2825SOL    HW2 9375   6.737   0.165   6.828
 2826SOL     OW 9376   4.492   1.250   6.675
 2826SOL    HW1 9377   4.442   1.303   6.743
 2826SOL    HW2 9378   4.466   1.154   6.680
 2827SOL     OW 9379   6.467   0.775   5.478
 2827SOL    HW1 9380   6.391   0.817   5.528
 2827SOL    HW2 9381   6.465   0.807   5.383
 2828SOL     OW 9382   3.249   1.401   0.108
 2828SOL    HW1 9383   3.263   1.370   0.202
 2828SOL    HW2 9384   3.337   1.401   0.060
 2829SOL     OW 9385   3.467   3.680   5.421
 2829SOL    HW1 9386   3.436   3.635   5.337
 2829SOL    HW2 9387   3.496   3.773   5.401
 2830SOL     OW 9388   1.310   3.133   5.988
 2830SOL    HW1 9389   1.231   3.173   6.034
 2830SOL    HW2 9390   1.386   3.199   5.987
 2831SOL     OW 9391   0.748   5.258   3.163
 2831SOL    HW1 9392   0.804   5.206   3.099
 2831SOL    HW2 9393   0.781   5.243   3.256
 2832SOL     OW 9394   1.218   1.224   2.199
 2832SOL    HW1 9395   1.141   1.286   2.205
 2832SOL    HW2 9396   1.294   1.260   2.253
 2833SOL     OW 9397   4.382   2.033   2.210
 2833SOL    HW1 9398   4.352   2.004   2.301
 2833SOL    HW2 9399   4.338   2.121   2.188
 2834SOL     OW 9400   2.809   5.572   6.244
 2834SOL    HW1 9401   2.726   5.520   6.265
 2834SOL    HW2 9402   2.799   5.665   6.279
 2835SOL     OW 9403   6.990   0.251   1.456
 2835SOL    HW1 9404   6.941   0.166   1.437
 2835SOL    HW2 9405   0.019   0.243   1.543
 2836SOL     OW 9406   6.096   0.638   2.356
 2836SOL    HW1 9407   6.176   0.660   2.411
 2836SOL    HW2 9408   6.092   0.698   2.276
 2837SOL     OW 9409   5.520   4.046   2.845
 2837SOL    HW1 9410   5.501   3.968   2.904
 2837SOL    HW2 9411   5.468   4.037   2.760
 2838SOL     OW 9412   1.937   4.527   1.163
 2838SOL    HW1 9413   1.942   4.427   1.175
 2838SOL    HW2 9414   2.025   4.568   1.184
 2839SOL     OW 9415   6.810   1.817   1.671
 2839SOL    HW1 9416   6.728   1.874   1.672
 2839SOL    HW2 9417   6.784   1.721   1.672
 2840SOL     OW 9418   2.341   0.880   3.070
 2840SOL    HW1 9419   2.432   0.873   3.112
 2840SOL    HW2 9420   2.319   0.977   3.055
 2841SOL     OW 9421   0.596   0.527   5.643
 2841SOL    HW1 9422   0.526   0.456   5.639
 2841SOL    HW2 9423   0.614   0.552   5.738
 2842SOL     OW 9424   6.774   3.610   3.804
 2842SOL    HW1 9425   6.812   3.702   3.819
 2842SOL    HW2 9426   6.703   3.593   3.872
 2843SOL     OW 9427   2.502   1.305   2.844
 2843SOL    HW1 9428   2.420   1.345   2.803
 2843SOL    HW2 9429   2.548   1.249   2.776
 2844SOL     OW 9430   0.374   5.698   0.193
 2844SOL    HW1 9431   0.411   5.756   0.266
 2844SOL    HW2 9432   0.288   5.657   0.224
 2845SOL     OW 9433   6.497   3.052   1.400
 2845SOL    HW1 9434   6.497   2.987   1.477
 2845SOL    HW2 9435   6.410   3.044   1.351
 2846SOL     OW 9436   4.326   0.828   6.304
 2846SOL    HW1 9437   4.331   0.748   6.245
 2846SOL    HW2 9438   4.271   0.807   6.385
 2847SOL     OW 9439   4.874   3.807   4.244
 2847SOL    HW1 9440   4.855   3.811   4.146
 2847SOL    HW2 9441   4.935   3.729   4.263
 2848SOL     OW 9442   1.398   3.023   5.745
 2848SOL    HW1 9443   1.492   2.988   5.750
 2848SOL    HW2 9444   1.371   3.058   5.834
 2849SOL     OW 9445   3.768   6.323   0.868
 2849SOL    HW1 9446   3.683   6.374   0.880
 2849SOL    HW2 9447   3.765   6.239   0.923
 2850SOL     OW 9448   2.305   6.977   2.474
 2850SOL    HW1 9449   2.381   0.000   2.427
 2850SOL    HW2 9450   2.229   0.022   2.482
 2851SOL     OW 9451   6.877   1.229   5.635
 2851SOL    HW1 9452   6.868   1.310   5.576
 2851SOL    HW2 9453   6.934   1.252   5.713
 2852SOL     OW 9454   5.459   5.102   0.024
 2852SOL    HW1 9455   5.535   5.160   0.054
 2852SOL    HW2 9456   5.495   5.021   6.998
 2853SOL     OW 9457   1.809   2.981   6.802
 2853SOL    HW1 9458   1.756   2.964   6.885
 2853SOL    HW2 9459   1.783   3.070   6.763
 2854SOL     OW 9460   3.726   1.057   5.058
 2854SOL    HW1 9461   3.755   1.041   4.964
 2854SOL    HW2 9462   3.676   0.977   5.091
 2855SOL     OW 9463   2.594   1.271   6.735
 2855SOL    HW1 9464   2.612   1.369   6.749
 2855SOL    HW2 9465   2.617   1.246   6.641
 2856SOL     OW 9466   1.414   2.912   6.107
 2856SOL    HW1 9467   1.448   2.918   6.201
 2856SOL    HW2 9468   1.406   3.004   6.069
 2857SOL     OW 9469   3.224   1.672   2.333
 2857SOL    HW1 9470   3.141   1.711   2.373
 2857SOL    HW2 9471   3.281   1.633   2.405
 2858SOL     OW 9472   4.805   4.477   3.036
 2858SOL    HW1 9473   4.801   4.566   3.081
 2858SOL    HW2 9474   4.744   4.413   3.083
 2859SOL     OW 9475   4.951   1.985   0.020
 2859SOL    HW1 9476   4.912   1.985   6.948
 2859SOL    HW2 9477   4.878   1.988   0.088
 2860SOL     OW 9478   3.106   1.828   1.477
 2860SOL    HW1 9479   3.136   1.786   1.562
 2860SOL    HW2 9480   3.021   1.786   1.446
 2861SOL     OW 9481   3.928   3.731   5.842
 2861SOL    HW1 9482   3.906   3.828   5.829
 2861SOL    HW2 9483   4.008   3.708   5.788
 2862SOL     OW 9484   5.192   1.855   3.270
 2862SOL    HW1 9485   5.275   1.885   3.316
 2862SOL    HW2 9486   5.125   1.825   3.337
 2863SOL     OW 9487   5.242   0.996   6.917
 2863SOL    HW1 9488   5.305   0.979   6.842
 2863SOL    HW2 9489   5.282   1.063   6.979
 2864SOL     OW 9490   4.294   1.285   1.394
 2864SOL    HW1 9491   4.216   1.345   1.377
 2864SOL    HW2 9492   4.349   1.321   1.470
 2865SOL     OW 9493   4.733   4.257   6.360
 2865SOL    HW1 9494   4.650   4.206   6.338
 2865SOL    HW2 9495   4.808   4.193   6.378
 2866SOL     OW 9496   6.172   5.692   0.172
 2866SOL    HW1 9497   6.240   5.689   0.099
 2866SOL    HW2 9498   6.155   5.786   0.199
 2867SOL     OW 9499   6.099   3.989   2.703
 2867SOL    HW1 9500   6.171   4.034   2.756
 2867SOL    HW2 9501   6.067   3.908   2.753
 2868SOL     OW 9502   6.960   2.063   5.655
 2868SOL    HW1 9503   6.899   2.040   5.731
 2868SOL    HW2 9504   0.031   2.084   5.690
 2869SOL     OW 9505   6.515   0.705   2.857
 2869SOL    HW1 9506   6.526   0.718   2.956
 2869SOL    HW2 9507   6.551   0.616   2.831
 2870SOL     OW 9508   6.982   1.340   4.621
 2870SOL    HW1 9509   7.008   1.259   4.673
 2870SOL    HW2 9510   6.964   1.313   4.526
 2871SOL     OW 9511   0.367   1.994   0.450
 2871SOL    HW1 9512   0.429   1.959   0.379
 2871SOL    HW2 9513   0.352   2.092   0.436
 2872SOL     OW 9514   2.844   1.306   2.836
 2872SOL    HW1 9515   2.848   1.392   2.786
 2872SOL    HW2 9516   2.817   1.233   2.774
 2873SOL     OW 9517   0.166   4.908   2.781
 2873SOL    HW1 9518   0.069   4.932   2.789
 2873SOL    HW2 9519   0.198   4.872   2.868
 2874SOL     OW 9520   3.472   6.206   3.394
 2874SOL    HW1 9521   3.532   6.206   3.314
 2874SOL    HW2 9522   3.384   6.246   3.370
 2875SOL     OW 9523   4.621   6.769   1.005
 2875SOL    HW1 9524   4.586   6.845   1.059
 2875SOL    HW2 9525   4.650   6.802   0.915
 2876SOL     OW 9526   1.030   6.908   1.916
 2876SOL    HW1 9527   1.123   6.876   1.931
 2876SOL    HW2 9528   0.994   6.869   1.831
 2877SOL     OW 9529   3.215   2.584   5.317
 2877SOL    HW1 9530   3.217   2.506   5.255
 2877SOL    HW2 9531   3.242   2.554   5.409
 2878SOL     OW 9532   4.523   5.162   4.445
 2878SOL    HW1 9533   4.435   5.122   4.421
 2878SOL    HW2 9534   4.509   5.234   4.513
 2879SOL     OW 9535   4.905   4.776   0.874
 2879SOL    HW1 9536   4.813   4.758   0.839
 2879SOL    HW2 9537   4.907   4.866   0.919
 2880SOL     OW 9538   5.609   6.746   1.502
 2880SOL    HW1 9539   5.529   6.705   1.458
 2880SOL    HW2 9540   5.687   6.740   1.441
 2881SOL     OW 9541   5.347   6.088   6.766
 2881SOL    HW1 9542   5.377   6.137   6.684
 2881SOL    HW2 9543   5.340   6.153   6.842
 2882SOL     OW 9544   0.716   4.513   2.679
 2882SOL    HW1 9545   0.816   4.510   2.688
 2882SOL    HW2 9546   0.686   4.608   2.679
 2883SOL     OW 9547   6.163   0.399   4.005
 2883SOL    HW1 9548   6.200   0.308   4.025
 2883SOL    HW2 9549   6.093   0.391   3.933
 2884SOL     OW 9550   0.785   5.754   3.228
 2884SOL    HW1 9551   0.813   5.671   3.181
 2884SOL    HW2 9552   0.808   5.834   3.173
 2885SOL     OW 9553   0.728   3.260   2.175
 2885SOL    HW1 9554   0.780   3.345   2.165
 2885SOL    HW2 9555   0.773   3.200   2.240
 2886SOL     OW 9556   2.679   4.129   5.909
 2886SOL    HW1 9557   2.731   4.131   5.824
 2886SOL    HW2 9558   2.676   4.035   5.944
 2887SOL     OW 9559   0.672   0.633   4.539
 2887SOL    HW1 9560   0.740   0.570   4.502
 2887SOL    HW2 9561   0.605   0.656   4.468
 2888SOL     OW 9562   0.873   4.175   7.020
 2888SOL    HW1 9563   0.939   4.151   6.950
 2888SOL    HW2 9564   0.921   4.210   0.080
 2889SOL     OW 9565   1.775   6.982   2.096
 2889SOL    HW1 9566   1.837   6.943   2.164
 2889SOL    HW2 9567   1.745   0.052   2.126
 2890SOL     OW 9568   2.295   6.620   0.442
 2890SOL    HW1 9569   2.281   6.544   0.505
 2890SOL    HW2 9570   2.331   6.699   0.493
 2891SOL     OW 9571   1.383   4.410   3.041
 2891SOL    HW1 9572   1.421   4.328   3.083
 2891SOL    HW2 9573   1.285   4.396   3.024
 2892SOL     OW 9574   5.691   3.694   6.577
 2892SOL    HW1 9575   5.619   3.722   6.640
 2892SOL    HW2 9576   5.776   3.743   6.600
 2893SOL     OW 9577   0.373   6.275   4.523
 2893SOL    HW1 9578   0.290   6.312   4.481
 2893SOL    HW2 9579   0.356   6.181   4.554
 2894SOL     OW 9580   2.668   2.840   0.789
 2894SOL    HW1 9581   2.679   2.765   0.723
 2894SOL    HW2 9582   2.627   2.919   0.743
 2895SOL     OW 9583   4.676   2.726   5.834
 2895SOL    HW1 9584   4.584   2.689   5.846
 2895SOL    HW2 9585   4.715   2.751   5.923
 2896SOL     OW 9586   3.853   5.414   6.273
 2896SOL    HW1 9587   3.779   5.349   6.294
 2896SOL    HW2 9588   3.819   5.484   6.210
 2897SOL     OW 9589   3.518   4.884   3.607
 2897SOL    HW1 9590   3.471   4.872   3.519
 2897SOL    HW2 9591   3.475   4.959   3.657
 2898SOL     OW 9592   3.670   5.616   4.452
 2898SOL    HW1 9593   3.584   5.578   4.418
 2898SOL    HW2 9594   3.725   5.543   4.491
 2899SOL     OW 9595   0.726   1.826   0.642
 2899SOL    HW1 9596   0.675   1.912   0.642
 2899SOL    HW2 9597   0.701   1.772   0.562
 2900SOL     OW 9598   2.493   4.699   5.063
 2900SOL    HW1 9599   2.396   4.722   5.071
 2900SOL    HW2 9600   2.507   4.604   5.089
 2901SOL     OW 9601   2.067   6.397   3.592
 2901SOL    HW1 9602   2.090   6.433   3.682
 2901SOL    HW2 9603   2.091   6.300   3.587
 2902SOL     OW 9604   4.684   6.376   1.643
 2902SOL    HW1 9605   4.627   6.378   1.560
 2902SOL    HW2 9606   4.650   6.443   1.709
 2903SOL     OW 9607   3.634   0.934   0.634
 2903SOL    HW1 9608   3.714   0.987   0.660
 2903SOL    HW2 9609   3.622   0.859   0.700
 2904SOL     OW 9610   2.223   3.898   5.338
 2904SOL    HW1 9611   2.229   3.799   5.351
 2904SOL    HW2 9612   2.304   3.930   5.288
 2905SOL     OW 9613   1.402   2.289   3.602
 2905SOL    HW1 9614   1.477   2.278   3.667
 2905SOL    HW2 9615   1.315   2.291   3.650
 2906SOL     OW 9616   4.736   5.896   2.666
 2906SOL    HW1 9617   4.789   5.981   2.664
 2906SOL    HW2 9618   4.773   5.832   2.599
 2907SOL     OW 9619   0.568   1.659   3.624
 2907SOL    HW1 9620   0.647   1.706   3.664
 2907SOL    HW2 9621   0.549   1.697   3.533
 2908SOL     OW 9622   4.559   6.347   4.453
 2908SOL    HW1 9623   4.577   6.297   4.368
 2908SOL    HW2 9624   4.475   6.313   4.494
 2909SOL     OW 9625   0.974   6.437   3.441
 2909SOL    HW1 9626   1.053   6.453   3.501
 2909SOL    HW2 9627   0.977   6.502   3.365
 2910SOL     OW 9628   4.678   6.486   4.950
 2910SOL    HW1 9629   4.646   6.519   4.861
 2910SOL    HW2 9630   4.618   6.523   5.022
 2911SOL     OW 9631   1.919   5.426   3.228
 2911SOL    HW1 9632   1.993   5.469   3.177
 2911SOL    HW2 9633   1.861   5.497   3.269
 2912SOL     OW 9634   4.777   0.221   6.847
 2912SOL    HW1 9635   4.690   0.185   6.814
 2912SOL    HW2 9636   4.764   0.263   6.937
 2913SOL     OW 9637   2.488   4.458   3.238
 2913SOL    HW1 9638   2.573   4.496   3.201
 2913SOL    HW2 9639   2.496   4.451   3.337
 2914SOL     OW 9640   6.211   6.333   5.936
 2914SOL    HW1 9641   6.122   6.376   5.954
 2914SOL    HW2 9642   6.280   6.404   5.923
 2915SOL     OW 9643   5.779   2.072   5.125
 2915SOL    HW1 9644   5.703   2.075   5.061
 2915SOL    HW2 9645   5.865   2.073   5.075
 2916SOL     OW 9646   0.081   6.315   6.659
 2916SOL    HW1 9647   0.119   6.407   6.650
 2916SOL    HW2 9648   0.055   6.280   6.569
 2917SOL     OW 9649   3.646   6.514   2.507
 2917SOL    HW1 9650   3.726   6.514   2.447
 2917SOL    HW2 9651   3.565   6.537   2.454
 2918SOL     OW 9652   6.784   4.465   3.956
 2918SOL    HW1 9653   6.882   4.486   3.966
 2918SOL    HW2 9654   6.730   4.546   3.976
 2919SOL     OW 9655   6.832   0.991   1.162
 2919SOL    HW1 9656   6.782   1.068   1.121
 2919SOL    HW2 9657   6.766   0.920   1.189
 2920SOL     OW 9658   2.987   2.092   1.934
 2920SOL    HW1 9659   2.980   2.086   2.033
 2920SOL    HW2 9660   2.967   2.185   1.904
 2921SOL     OW 9661   1.383   0.833   3.104
 2921SOL    HW1 9662   1.376   0.744   3.148
 2921SOL    HW2 9663   1.354   0.904   3.168
 2922SOL     OW 9664   5.151   0.466   0.733
 2922SOL    HW1 9665   5.089   0.471   0.655
 2922SOL    HW2 9666   5.241   0.501   0.707
 2923SOL     OW 9667   6.544   5.110   2.034
 2923SOL    HW1 9668   6.474   5.073   1.973
 2923SOL    HW2 9669   6.602   5.174   1.983
 2924SOL     OW 9670   0.122   1.953   6.572
 2924SOL    HW1 9671   0.075   1.868   6.594
 2924SOL    HW2 9672   0.055   2.025   6.553
 2925SOL     OW 9673   4.420   1.043   2.927
 2925SOL    HW1 9674   4.501   0.986   2.941
 2925SOL    HW2 9675   4.404   1.098   3.009
 2926SOL     OW 9676   6.676   1.281   4.650
 2926SOL    HW1 9677   6.776   1.284   4.636
 2926SOL    HW2 9678   6.639   1.201   4.603
 2927SOL     OW 9679   1.081   2.189   2.737
 2927SOL    HW1 9680   1.095   2.090   2.733
 2927SOL    HW2 9681   1.165   2.233   2.767
 2928SOL     OW 9682   0.368   1.913   6.251
 2928SOL    HW1 9683   0.269   1.926   6.237
 2928SOL    HW2 9684   0.403   1.987   6.308
 2929SOL     OW 9685   0.777   1.340   6.506
 2929SOL    HW1 9686   0.720   1.340   6.424
 2929SOL    HW2 9687   0.721   1.356   6.587
 2930SOL     OW 9688   4.531   6.169   4.765
 2930SOL    HW1 9689   4.626   6.187   4.739
 2930SOL    HW2 9690   4.471   6.232   4.717
 2931SOL     OW 9691   5.646   5.135   0.646
 2931SOL    HW1 9692   5.700   5.151   0.728
 2931SOL    HW2 9693   5.584   5.057   0.661
 2932SOL     OW 9694   0.488   5.385   0.995
 2932SOL    HW1 9695   0.419   5.372   1.067
 2932SOL    HW2 9696   0.493   5.481   0.971
 2933SOL     OW 9697   6.528   4.508   3.555
 2933SOL    HW1 9698   6.488   4.594   3.525
 2933SOL    HW2 9699   6.466   4.433   3.532
 2934SOL     OW 9700   4.802   1.299   0.243
 2934SOL    HW1 9701   4.714   1.278   0.201
 2934SOL    HW2 9702   4.875   1.284   0.176
 2935SOL     OW 9703   6.437   3.067   1.045
 2935SOL    HW1 9704   6.529   3.103   1.030
 2935SOL    HW2 9705   6.369   3.137   1.022
 2936SOL     OW 9706   4.027   5.425   1.754
 2936SOL    HW1 9707   4.013   5.329   1.779
 2936SOL    HW2 9708   3.938   5.470   1.746
 2937SOL     OW 9709   4.091   4.302   0.190
 2937SOL    HW1 9710   4.034   4.384   0.199
 2937SOL    HW2 9711   4.072   4.240   0.266
 2938SOL     OW 9712   4.410   5.131   6.406
 2938SOL    HW1 9713   4.350   5.158   6.481
 2938SOL    HW2 9714   4.354   5.107   6.326
 2939SOL     OW 9715   1.029   0.449   4.016
 2939SOL    HW1 9716   1.129   0.446   4.027
 2939SOL    HW2 9717   0.989   0.371   4.064
 2940SOL     OW 9718   5.765   5.719   6.437
 2940SOL    HW1 9719   5.712   5.793   6.477
 2940SOL    HW2 9720   5.712   5.675   6.365
 2941SOL     OW 9721   2.119   3.232   4.138
 2941SOL    HW1 9722   2.152   3.243   4.045
 2941SOL    HW2 9723   2.019   3.223   4.138
 2942SOL     OW 9724   3.349   2.250   1.298
 2942SOL    HW1 9725   3.417   2.259   1.224
 2942SOL    HW2 9726   3.320   2.155   1.305
 2943SOL     OW 9727   5.219   4.473   3.135
 2943SOL    HW1 9728   5.302   4.507   3.091
 2943SOL    HW2 9729   5.174   4.407   3.075
 2944SOL     OW 9730   2.850   5.588   5.432
 2944SOL    HW1 9731   2.785   5.598   5.357
 2944SOL    HW2 9732   2.831   5.658   5.502
 2945SOL     OW 9733   3.554   3.713   3.382
 2945SOL    HW1 9734   3.614   3.634   3.366
 2945SOL    HW2 9735   3.609   3.796   3.383
 2946SOL     OW 9736   0.875   5.353   6.926
 2946SOL    HW1 9737   0.785   5.376   6.962
 2946SOL    HW2 9738   0.900   5.416   6.853
 2947SOL     OW 9739   0.492   3.551   6.955
 2947SOL    HW1 9740   0.552   3.537   6.875
 2947SOL    HW2 9741   0.413   3.490   6.947
 2948SOL     OW 9742   0.092   4.542   5.605
 2948SOL    HW1 9743   0.180   4.536   5.651
 2948SOL    HW2 9744   0.064   4.638   5.599
 2949SOL     OW 9745   2.929   5.494   0.363
 2949SOL    HW1 9746   2.973   5.423   0.308
 2949SOL    HW2 9747   2.938   5.582   0.317
 2950SOL     OW 9748   4.959   3.721   4.529
 2950SOL    HW1 9749   5.033   3.715   4.462
 2950SOL    HW2 9750   4.882   3.771   4.490
 2951SOL     OW 9751   5.984   1.586   1.041
 2951SOL    HW1 9752   6.017   1.554   1.131
 2951SOL    HW2 9753   6.052   1.645   0.999
 2952SOL     OW 9754   0.939   5.223   5.357
 2952SOL    HW1 9755   0.965   5.305   5.306
 2952SOL    HW2 9756   0.967   5.232   5.452
 2953SOL     OW 9757   5.283   3.309   2.930
 2953SOL    HW1 9758   5.358   3.343   2.874
 2953SOL    HW2 9759   5.316   3.290   3.022
 2954SOL     OW 9760   0.598   5.837   1.973
 2954SOL    HW1 9761   0.610   5.793   2.062
 2954SOL    HW2 9762   0.500   5.842   1.952
 2955SOL     OW 9763   0.639   3.684   1.442
 2955SOL    HW1 9764   0.699   3.740   1.499
 2955SOL    HW2 9765   0.564   3.741   1.407
 2956SOL     OW 9766   6.031   6.504   3.422
 2956SOL    HW1 9767   6.023   6.585   3.363
 2956SOL    HW2 9768   5.999   6.527   3.514
 2957SOL     OW 9769   6.025   2.890   2.045
 2957SOL    HW1 9770   5.930   2.906   2.018
 2957SOL    HW2 9771   6.057   2.966   2.101
 2958SOL     OW 9772   2.395   4.421   4.420
 2958SOL    HW1 9773   2.442   4.443   4.505
 2958SOL    HW2 9774   2.419   4.487   4.349
 2959SOL     OW 9775   4.830   4.957   0.350
 2959SOL    HW1 9776   4.830   4.857   0.337
 2959SOL    HW2 9777   4.878   5.000   0.273
 2960SOL     OW 9778   4.291   6.764   6.113
 2960SOL    HW1 9779   4.286   6.863   6.113
 2960SOL    HW2 9780   4.278   6.729   6.206
 2961SOL     OW 9781   4.811   2.749   3.749
 2961SOL    HW1 9782   4.882   2.759   3.818
 2961SOL    HW2 9783   4.791   2.838   3.708
 2962SOL     OW 9784   4.228   0.727   3.095
 2962SOL    HW1 9785   4.298   0.693   3.032
 2962SOL    HW2 9786   4.164   0.786   3.046
 2963SOL     OW 9787   2.230   1.050   5.780
 2963SOL    HW1 9788   2.137   1.084   5.771
 2963SOL    HW2 9789   2.231   0.970   5.840
 2964SOL     OW 9790   0.207   0.224   2.703
 2964SOL    HW1 9791   0.215   0.247   2.607
 2964SOL    HW2 9792   0.117   0.184   2.721
 2965SOL     OW 9793   6.531   0.837   4.850
 2965SOL    HW1 9794   6.491   0.911   4.905
 2965SOL    HW2 9795   6.614   0.870   4.806
 2966SOL     OW 9796   6.370   5.913   4.362
 2966SOL    HW1 9797   6.449   5.859   4.332
 2966SOL    HW2 9798   6.307   5.854   4.413
 2967SOL     OW 9799   5.769   1.831   4.757
 2967SOL    HW1 9800   5.742   1.795   4.667
 2967SOL    HW2 9801   5.868   1.824   4.767
 2968SOL     OW 9802   0.802   3.114   6.432
 2968SOL    HW1 9803   0.802   3.116   6.532
 2968SOL    HW2 9804   0.878   3.169   6.397
 2969SOL     OW 9805   5.683   0.917   4.534
 2969SOL    HW1 9806   5.733   0.903   4.449
 2969SOL    HW2 9807   5.746   0.908   4.611
 2970SOL     OW 9808   1.045   4.312   5.852
 2970SOL    HW1 9809   0.964   4.292   5.796
 2970SOL    HW2 9810   1.033   4.272   5.943
 2971SOL     OW 9811   5.911   3.595   6.194
 2971SOL    HW1 9812   5.963   3.657   6.136
 2971SOL    HW2 9813   5.932   3.500   6.169
 2972SOL     OW 9814   6.240   4.366   6.492
 2972SOL    HW1 9815   6.180   4.353   6.413
 2972SOL    HW2 9816   6.334   4.376   6.461
 2973SOL     OW 9817   5.663   1.164   4.239
 2973SOL    HW1 9818   5.611   1.079   4.222
 2973SOL    HW2 9819   5.641   1.230   4.167
 2974SOL     OW 9820   0.494   3.982   2.545
 2974SOL    HW1 9821   0.571   3.968   2.483
 2974SOL    HW2 9822   0.526   3.971   2.640
 2975SOL     OW 9823   0.099   2.364   5.116
 2975SOL    HW1 9824   0.054   2.397   5.033
 2975SOL    HW2 9825   0.148   2.279   5.097
 2976SOL     OW 9826   4.092   2.223   2.993
 2976SOL    HW1 9827   4.029   2.152   2.961
 2976SOL    HW2 9828   4.163   2.238   2.925
 2977SOL     OW 9829   1.686   6.656   3.714
 2977SOL    HW1 9830   1.729   6.730   3.767
 2977SOL    HW2 9831   1.745   6.576   3.717
 2978SOL     OW 9832   4.300   4.539   6.923
 2978SOL    HW1 9833   4.234   4.613   6.930
 2978SOL    HW2 9834   4.388   4.574   6.890
 2979SOL     OW 9835   4.481   0.613   4.220
 2979SOL    HW1 9836   4.484   0.599   4.319
 2979SOL    HW2 9837   4.568   0.652   4.189
 2980SOL     OW 9838   1.270   5.863   3.642
 2980SOL    HW1 9839   1.312   5.919   3.713
 2980SOL    HW2 9840   1.274   5.766   3.668
 2981SOL     OW 9841   1.967   1.121   6.072
 2981SOL    HW1 9842   1.873   1.089   6.066
 2981SOL    HW2 9843   1.978   1.203   6.017
 2982SOL     OW 9844   3.788   6.201   3.062
 2982SOL    HW1 9845   3.850   6.124   3.076
 2982SOL    HW2 9846   3.800   6.268   3.135
 2983SOL     OW 9847   0.972   1.507   4.071
 2983SOL    HW1 9848   1.045   1.443   4.052
 2983SOL    HW2 9849   0.884   1.464   4.054
 2984SOL     OW 9850   5.017   5.286   1.868
 2984SOL    HW1 9851   4.972   5.245   1.789
 2984SOL    HW2 9852   5.003   5.228   1.948
 2985SOL     OW 9853   1.297   2.244   5.742
 2985SOL    HW1 9854   1.340   2.177   5.802
 2985SOL    HW2 9855   1.333   2.335   5.762
 2986SOL     OW 9856   1.985   3.946   6.170
 2986SOL    HW1 9857   2.017   3.976   6.260
 2986SOL    HW2 9858   1.899   3.992   6.148
 2987SOL     OW 9859   5.843   1.612   4.104
 2987SOL    HW1 9860   5.844   1.638   4.201
 2987SOL    HW2 9861   5.755   1.637   4.063
 2988SOL     OW 9862   0.380   6.308   2.853
 2988SOL    HW1 9863   0.426   6.292   2.941
 2988SOL    HW2 9864   0.443   6.286   2.779
 2989SOL     OW 9865   6.621   5.889   0.306
 2989SOL    HW1 9866   6.658   5.899   0.398
 2989SOL    HW2 9867   6.684   5.930   0.240
 2990SOL     OW 9868   4.574   1.828   4.522
 2990SOL    HW1 9869   4.673   1.836   4.508
 2990SOL    HW2 9870   4.547   1.731   4.518
 2991SOL     OW 9871   6.291   4.205   6.182
 2991SOL    HW1 9872   6.238   4.287   6.199
 2991SOL    HW2 9873   6.329   4.208   6.089
 2992SOL     OW 9874   2.137   4.931   5.634
 2992SOL    HW1 9875   2.161   4.868   5.708
 2992SOL    HW2 9876   2.215   4.940   5.572
 2993SOL     OW 9877   0.442   5.578   1.309
 2993SOL    HW1 9878   0.535   5.543   1.317
 2993SOL    HW2 9879   0.383   5.509   1.267
 2994SOL     OW 9880   3.580   6.668   0.118
 2994SOL    HW1 9881   3.486   6.703   0.120
 2994SOL    HW2 9882   3.641   6.734   0.162
 2995SOL     OW 9883   1.671   3.461   6.717
 2995SOL    HW1 9884   1.682   3.467   6.618
 2995SOL    HW2 9885   1.676   3.553   6.756
 2996SOL     OW 9886   1.806   6.981   4.278
 2996SOL    HW1 9887   1.719   6.932   4.281
 2996SOL    HW2 9888   1.820   7.017   4.186
 2997SOL     OW 9889   5.285   0.496   2.489
 2997SOL    HW1 9890   5.264   0.494   2.391
 2997SOL    HW2 9891   5.358   0.562   2.506
 2998SOL     OW 9892   5.016   0.221   4.367
 2998SOL    HW1 9893   5.000   0.196   4.271
 2998SOL    HW2 9894   5.109   0.195   4.393
 2999SOL     OW 9895   3.129   4.836   4.417
 2999SOL    HW1 9896   3.183   4.841   4.502
 2999SOL    HW2 9897   3.033   4.824   4.439
 3000SOL     OW 9898   2.287   3.809   6.900
 3000SOL    HW1 9899   2.310   3.719   6.937
 3000SOL    HW2 9900   2.339   3.879   6.949
 3001SOL     OW 9901   5.976   5.709   6.273
 3001SOL    HW1 9902   5.965   5.801   6.236
 3001SOL    HW2 9903   5.917   5.698   6.353
 3002SOL     OW 9904   3.659   6.905   6.025
 3002SOL    HW1 9905   3.662   6.908   5.925
 3002SOL    HW2 9906   3.702   6.820   6.057
 3003SOL     OW 9907   2.183   6.767   6.945
 3003SOL    HW1 9908   2.228   6.838   7.000
 3003SOL    HW2 9909   2.212   6.677   6.977
 3004SOL     OW 9910   1.446   5.114   2.930
 3004SOL    HW1 9911   1.413   5.052   3.001
 3004SOL    HW2 9912   1.546   5.110   2.925
 3005SOL     OW 9913   2.772   2.209   6.698
 3005SOL    HW1 9914   2.788   2.294   6.748
 3005SOL    HW2 9915   2.791   2.223   6.601
 3006SOL     OW 9916   4.759   2.423   6.287
 3006SOL    HW1 9917   4.831   2.483   6.252
 3006SOL    HW2 9918   4.670   2.466   6.272
 3007SOL     OW 9919   5.586   5.313   1.609
 3007SOL    HW1 9920   5.655   5.374   1.649
 3007SOL    HW2 9921   5.613   5.289   1.516
 3008SOL     OW 9922   3.778   0.443   6.425
 3008SOL    HW1 9923   3.699   0.477   6.375
 3008SOL    HW2 9924   3.758   0.442   6.523
 3009SOL     OW 9925   0.861   0.654   2.586
 3009SOL    HW1 9926   0.803   0.583   2.545
 3009SOL    HW2 9927   0.871   0.730   2.521
 3010SOL     OW 9928   3.417   6.069   3.793
 3010SOL    HW1 9929   3.435   6.034   3.701
 3010SOL    HW2 9930   3.346   6.139   3.788
 3011SOL     OW 9931   5.135   1.709   1.349
 3011SOL    HW1 9932   5.190   1.681   1.428
 3011SOL    HW2 9933   5.174   1.670   1.266
 3012SOL     OW 9934   1.326   3.710   5.268
 3012SOL    HW1 9935   1.254   3.661   5.319
 3012SOL    HW2 9936   1.287   3.792   5.227
 3013SOL     OW 9937   5.413   5.626   4.760
 3013SOL    HW1 9938   5.351   5.563   4.712
 3013SOL    HW2 9939   5.507   5.609   4.731
 3014SOL     OW 9940   4.814   3.008   4.674
 3014SOL    HW1 9941   4.838   2.937   4.740
 3014SOL    HW2 9942   4.758   2.969   4.601
 3015SOL     OW 9943   2.493   2.149   0.052
 3015SOL    HW1 9944   2.592   2.157   0.063
 3015SOL    HW2 9945   2.466   2.054   0.068
 3016SOL     OW 9946   2.878   6.289   4.386
 3016SOL    HW1 9947   2.903   6.226   4.313
 3016SOL    HW2 9948   2.960   6.319   4.434
 3017SOL     OW 9949   0.616   5.730   2.210
 3017SOL    HW1 9950   0.555   5.716   2.287
 3017SOL    HW2 9951   0.657   5.643   2.182
 3018SOL     OW 9952   2.380   6.859   5.555
 3018SOL    HW1 9953   2.423   6.793   5.616
 3018SOL    HW2 9954   2.300   6.817   5.511
 3019SOL     OW 9955   1.358   0.320   6.898
 3019SOL    HW1 9956   1.449   0.307   6.935
 3019SOL    HW2 9957   1.295   0.346   6.972
 3020SOL     OW 9958   4.125   3.709   2.206
 3020SOL    HW1 9959   4.161   3.720   2.113
 3020SOL    HW2 9960   4.174   3.635   2.252
 3021SOL     OW 9961   3.434   0.388   6.998
 3021SOL    HW1 9962   3.525   0.356   0.004
 3021SOL    HW2 9963   3.364   0.329   0.019
 3022SOL     OW 9964   4.201   4.766   4.476
 3022SOL    HW1 9965   4.108   4.738   4.451
 3022SOL    HW2 9966   4.265   4.691   4.460
 3023SOL     OW 9967   4.376   0.092   2.729
 3023SOL    HW1 9968   4.331   0.153   2.664
 3023SOL    HW2 9969   4.333   0.102   2.819
 3024SOL     OW 9970   4.296   6.308   5.654
 3024SOL    HW1 9971   4.322   6.306   5.557
 3024SOL    HW2 9972   4.317   6.399   5.692
 3025SOL     OW 9973   3.510   1.444   0.012
 3025SOL    HW1 9974   3.457   1.522   7.000
 3025SOL    HW2 9975   3.606   1.456   7.008
 3026SOL     OW 9976   1.589   1.411   0.735
 3026SOL    HW1 9977   1.545   1.438   0.649
 3026SOL    HW2 9978   1.668   1.354   0.715
 3027SOL     OW 9979   4.227   0.552   2.329
 3027SOL    HW1 9980   4.305   0.585   2.382
 3027SOL    HW2 9981   4.257   0.478   2.268
 3028SOL     OW 9982   1.245   3.882   5.502
 3028SOL    HW1 9983   1.314   3.949   5.530
 3028SOL    HW2 9984   1.288   3.813   5.443
 3029SOL     OW 9985   0.362   3.009   5.063
 3029SOL    HW1 9986   0.364   3.028   4.965
 3029SOL    HW2 9987   0.324   2.918   5.079
 3030SOL     OW 9988   0.949   2.386   5.970
 3030SOL    HW1 9989   0.932   2.291   5.993
 3030SOL    HW2 9990   0.872   2.422   5.916
 3031SOL     OW 9991   0.705   2.841   1.022
 3031SOL    HW1 9992   0.745   2.800   0.939
 3031SOL    HW2 9993   0.617   2.881   0.999
 3032SOL     OW 9994   4.253   6.258   1.872
 3032SOL    HW1 9995   4.292   6.169   1.897
 3032SOL    HW2 9996   4.154   6.256   1.887
 3033SOL     OW 9997   0.125   2.248   1.882
 3033SOL    HW1 9998   0.027   2.258   1.903
 3033SOL    HW2 9999   0.170   2.199   1.956
 3034SOL     OW10000   1.777   5.267   3.419
 3034SOL    HW110001   1.831   5.249   3.501
 3034SOL    HW210002   1.819   5.341   3.366
 3035SOL     OW10003   0.266   3.077   0.520
 3035SOL    HW110004   0.245   3.121   0.433
 3035SOL    HW210005   0.219   2.989   0.526
 3036SOL     OW10006   1.903   2.708   6.895
 3036SOL    HW110007   1.882   2.643   6.822
 3036SOL    HW210008   1.877   2.800   6.866
 3037SOL     OW10009   0.528   5.754   5.001
 3037SOL    HW110010   0.496   5.811   4.926
 3037SOL    HW210011   0.540   5.811   5.083
 3038SOL     OW10012   5.863   5.801   5.927
 3038SOL    HW110013   5.817   5.740   5.863
 3038SOL    HW210014   5.961   5.778   5.931
 3039SOL     OW10015   6.967   4.154   1.210
 3039SOL    HW110016   0.003   4.112   1.282
 3039SOL    HW210017   6.907   4.085   1.170
 3040SOL     OW10018   4.130   3.735   6.119
 3040SOL    HW110019   4.202   3.674   6.087
 3040SOL    HW210020   4.087   3.695   6.201
 3041SOL     OW10021   2.136   3.005   4.650
 3041SOL    HW110022   2.150   2.915   4.609
 3041SOL    HW210023   2.208   3.022   4.717
 3042SOL     OW10024   4.887   6.233   2.205
 3042SOL    HW110025   4.787   6.229   2.205
 3042SOL    HW210026   4.918   6.305   2.142
 3043SOL     OW10027   0.895   5.600   1.817
 3043SOL    HW110028   0.870   5.680   1.762
 3043SOL    HW210029   0.818   5.576   1.877
 3044SOL     OW10030   3.014   3.564   6.162
 3044SOL    HW110031   3.034   3.506   6.240
 3044SOL    HW210032   3.089   3.559   6.096
 3045SOL     OW10033   4.680   1.294   2.908
 3045SOL    HW110034   4.596   1.326   2.863
 3045SOL    HW210035   4.670   1.305   3.007
 3046SOL     OW10036   2.495   1.567   6.656
 3046SOL    HW110037   2.586   1.527   6.665
 3046SOL    HW210038   2.466   1.565   6.561
 3047SOL     OW10039   5.011   0.409   2.494
 3047SOL    HW110040   5.037   0.423   2.398
 3047SOL    HW210041   5.092   0.396   2.550
 3048SOL     OW10042   3.899   2.433   1.715
 3048SOL    HW110043   3.879   2.399   1.623
 3048SOL    HW210044   3.832   2.395   1.780
 3049SOL     OW10045   0.835   6.618   1.560
 3049SOL    HW110046   0.769   6.650   1.628
 3049SOL    HW210047   0.826   6.518   1.550
 3050SOL     OW10048   2.933   0.713   2.311
 3050SOL    HW110049   2.920   0.674   2.220
 3050SOL    HW210050   2.876   0.794   2.322
 3051SOL     OW10051   2.240   3.812   0.252
 3051SOL    HW110052   2.283   3.903   0.259
 3051SOL    HW210053   2.183   3.809   0.170
 3052SOL     OW10054   5.314   6.971   2.468
 3052SOL    HW110055   5.374   6.952   2.546
 3052SOL    HW210056   5.279   0.044   2.474
 3053SOL     OW10057   0.117   1.682   6.921
 3053SOL    HW110058   0.097   1.606   6.983
 3053SOL    HW210059   0.212   1.711   6.933
 3054SOL     OW10060   6.907   2.109   1.722
 3054SOL    HW110061   6.882   2.181   1.657
 3054SOL    HW210062   6.881   2.020   1.685
 3055SOL     OW10063   5.385   6.777   3.959
 3055SOL    HW110064   5.291   6.813   3.957
 3055SOL    HW210065   5.412   6.749   3.867
 3056SOL     OW10066   6.305   1.414   5.294
 3056SOL    HW110067   6.341   1.442   5.383
 3056SOL    HW210068   6.245   1.486   5.259
 3057SOL     OW10069   3.829   6.224   3.592
 3057SOL    HW110070   3.823   6.186   3.499
 3057SOL    HW210071   3.779   6.166   3.655
 3058SOL     OW10072   6.744   5.438   0.774
 3058SOL    HW110073   6.809   5.504   0.736
 3058SOL    HW210074   6.739   5.449   0.873
 3059SOL     OW10075   2.488   2.236   4.559
 3059SOL    HW110076   2.479   2.241   4.460
 3059SOL    HW210077   2.458   2.146   4.591
 3060SOL     OW10078   0.705   5.599   0.270
 3060SOL    HW110079   0.724   5.695   0.291
 3060SOL    HW210080   0.790   5.546   0.276
 3061SOL     OW10081   5.721   0.595   5.465
 3061SOL    HW110082   5.768   0.664   5.409
 3061SOL    HW210083   5.624   0.593   5.440
 3062SOL     OW10084   1.202   6.821   6.703
 3062SOL    HW110085   1.287   6.865   6.731
 3062SOL    HW210086   1.150   6.794   6.785
 3063SOL     OW10087   2.777   5.304   1.572
 3063SOL    HW110088   2.791   5.234   1.643
 3063SOL    HW210089   2.679   5.318   1.558
 3064SOL     OW10090   5.651   3.843   3.372
 3064SOL    HW110091   5.719   3.773   3.394
 3064SOL    HW210092   5.606   3.874   3.456
 3065SOL     OW10093   2.403   0.822   0.302
 3065SOL    HW110094   2.452   0.800   0.218
 3065SOL    HW210095   2.440   0.769   0.378
 3066SOL     OW10096   4.898   5.257   1.051
 3066SOL    HW110097   4.849   5.201   1.118
 3066SOL    HW210098   4.973   5.203   1.012
 3067SOL     OW10099   3.859   2.063   4.819
 3067SOL    HW110100   3.761   2.083   4.832
 3067SOL    HW210101   3.869   1.985   4.758
 3068SOL     OW10102   6.145   6.496   1.555
 3068SOL    HW110103   6.090   6.449   1.486
 3068SOL    HW210104   6.124   6.594   1.553
 3069SOL     OW10105   6.353   6.495   2.220
 3069SOL    HW110106   6.384   6.400   2.215
 3069SOL    HW210107   6.254   6.498   2.216
 3070SOL     OW10108   1.280   1.033   2.006
 3070SOL    HW110109   1.252   1.087   2.086
 3070SOL    HW210110   1.272   1.090   1.924
 3071SOL     OW10111   6.293   5.817   3.163
 3071SOL    HW110112   6.237   5.810   3.246
 3071SOL    HW210113   6.301   5.727   3.120
 3072SOL     OW10114   1.303   0.118   0.203
 3072SOL    HW110115   1.350   0.032   0.182
 3072SOL    HW210116   1.251   0.108   0.287
 3073SOL     OW10117   6.618   2.618   5.017
 3073SOL    HW110118   6.617   2.662   4.927
 3073SOL    HW210119   6.651   2.524   5.007
 3074SOL     OW10120   5.719   3.621   0.718
 3074SOL    HW110121   5.666   3.645   0.800
 3074SOL    HW210122   5.720   3.699   0.656
 3075SOL     OW10123   2.438   6.054   1.671
 3075SOL    HW110124   2.410   6.150   1.671
 3075SOL    HW210125   2.527   6.046   1.626
 3076SOL     OW10126   7.017   1.090   4.264
 3076SOL    HW110127   6.982   0.998   4.279
 3076SOL    HW210128   0.097   1.089   4.267
 3077SOL     OW10129   4.736   5.416   2.742
 3077SOL    HW110130   4.803   5.438   2.813
 3077SOL    HW210131   4.645   5.411   2.782
 3078SOL     OW10132   1.011   3.382   2.011
 3078SOL    HW110133   1.088   3.444   1.995
 3078SOL    HW210134   1.039   3.289   1.987
 3079SOL     OW10135   2.519   2.025   4.344
 3079SOL    HW110136   2.496   1.930   4.366
 3079SOL    HW210137   2.612   2.045   4.377
 3080SOL     OW10138   4.928   3.738   3.269
 3080SOL    HW110139   4.945   3.661   3.207
 3080SOL    HW210140   5.008   3.797   3.272
 3081SOL     OW10141   0.965   2.530   6.242
 3081SOL    HW110142   1.049   2.584   6.246
 3081SOL    HW210143   0.960   2.484   6.154
 3082SOL     OW10144   2.936   0.048   3.866
 3082SOL    HW110145   2.970   0.142   3.868
 3082SOL    HW210146   2.838   0.048   3.888
 3083SOL     OW10147   4.116   6.563   2.949
 3083SOL    HW110148   4.185   6.497   2.977
 3083SOL    HW210149   4.025   6.531   2.976
 3084SOL     OW10150   5.357   4.290   4.690
 3084SOL    HW110151   5.260   4.267   4.700
 3084SOL    HW210152   5.387   4.344   4.769
 3085SOL     OW10153   0.046   4.729   1.605
 3085SOL    HW110154   6.973   4.753   1.632
 3085SOL    HW210155   0.105   4.809   1.615
 3086SOL     OW10156   3.933   2.111   1.993
 3086SOL    HW110157   3.849   2.163   2.008
 3086SOL    HW210158   3.986   2.153   1.920
 3087SOL     OW10159   0.768   5.339   4.002
 3087SOL    HW110160   0.687   5.288   3.974
 3087SOL    HW210161   0.825   5.358   3.922
 3088SOL     OW10162   2.686   4.640   5.852
 3088SOL    HW110163   2.729   4.729   5.861
 3088SOL    HW210164   2.625   4.640   5.772
 3089SOL     OW10165   1.101   3.661   0.164
 3089SOL    HW110166   1.103   3.585   0.229
 3089SOL    HW210167   1.064   3.629   0.077
 3090SOL     OW10168   1.893   1.868   2.254
 3090SOL    HW110169   1.923   1.807   2.328
 3090SOL    HW210170   1.931   1.836   2.167
 3091SOL     OW10171   1.435   0.532   0.877
 3091SOL    HW110172   1.510   0.574   0.929
 3091SOL    HW210173   1.428   0.578   0.788
 3092SOL     OW10174   5.052   6.711   0.645
 3092SOL    HW110175   4.954   6.698   0.630
 3092SOL    HW210176   5.099   6.624   0.634
 3093SOL     OW10177   5.221   6.368   5.807
 3093SOL    HW110178   5.150   6.438   5.813
 3093SOL    HW210179   5.214   6.321   5.719
 3094SOL     OW10180   2.021   6.615   4.104
 3094SOL    HW110181   1.984   6.692   4.053
 3094SOL    HW210182   2.120   6.619   4.106
 3095SOL     OW10183   2.144   5.394   5.418
 3095SOL    HW110184   2.059   5.345   5.399
 3095SOL    HW210185   2.133   5.491   5.395
 3096SOL     OW10186   1.295   6.523   4.901
 3096SOL    HW110187   1.231   6.450   4.875
 3096SOL    HW210188   1.253   6.612   4.882
 3097SOL     OW10189   6.963   2.864   0.738
 3097SOL    HW110190   6.986   2.795   0.806
 3097SOL    HW210191   0.013   2.865   0.666
 3098SOL     OW10192   3.180   2.996   1.030
 3098SOL    HW110193   3.135   3.076   1.070
 3098SOL    HW210194   3.130   2.913   1.055
 3099SOL     OW10195   0.728   6.864   3.383
 3099SOL    HW110196   0.746   6.927   3.308
 3099SOL    HW210197   0.705   6.774   3.346
 3100SOL     OW10198   6.305   6.421   4.619
 3100SOL    HW110199   6.262   6.386   4.702
 3100SOL    HW210200   6.399   6.386   4.612
 3101SOL     OW10201   4.868   6.519   5.728
 3101SOL    HW110202   4.812   6.443   5.696
 3101SOL    HW210203   4.819   6.569   5.800
 3102SOL     OW10204   0.503   4.888   2.377
 3102SOL    HW110205   0.415   4.861   2.416
 3102SOL    HW210206   0.519   4.985   2.394
 3103SOL     OW10207   3.529   0.594   2.129
 3103SOL    HW110208   3.452   0.534   2.107
 3103SOL    HW210209   3.507   0.650   2.208
 3104SOL     OW10210   5.510   6.380   5.000
 3104SOL    HW110211   5.574   6.397   4.926
 3104SOL    HW210212   5.561   6.363   5.085
 3105SOL     OW10213   6.500   4.320   2.086
 3105SOL    HW110214   6.597   4.315   2.062
 3105SOL    HW210215   6.445   4.283   2.011
 3106SOL     OW10216   5.684   1.574   2.693
 3106SOL    HW110217   5.653   1.667   2.711
 3106SOL    HW210218   5.745   1.574   2.614
 3107SOL     OW10219   4.359   1.046   4.435
 3107SOL    HW110220   4.373   0.951   4.463
 3107SOL    HW210221   4.440   1.100   4.456
 3108SOL     OW10222   0.897   0.034   4.481
 3108SOL    HW110223   0.981   0.004   4.435
 3108SOL    HW210224   0.876   6.993   4.557
 3109SOL     OW10225   5.003   6.011   1.954
 3109SOL    HW110226   4.996   6.087   1.890
 3109SOL    HW210227   5.080   6.027   2.016
 3110SOL     OW10228   1.719   1.706   4.036
 3110SOL    HW110229   1.807   1.709   3.989
 3110SOL    HW210230   1.717   1.775   4.108
 3111SOL     OW10231   6.219   6.190   4.080
 3111SOL    HW110232   6.209   6.169   4.178
 3111SOL    HW210233   6.316   6.200   4.058
 3112SOL     OW10234   4.934   2.670   6.251
 3112SOL    HW110235   4.967   2.645   6.160
 3112SOL    HW210236   4.991   2.626   6.320
 3113SOL     OW10237   1.838   6.182   3.949
 3113SOL    HW110238   1.927   6.219   3.976
 3113SOL    HW210239   1.800   6.128   4.024
 3114SOL     OW10240   3.913   2.260   0.031
 3114SOL    HW110241   3.884   2.321   6.977
 3114SOL    HW210242   3.832   2.219   0.073
 3115SOL     OW10243   4.066   3.344   6.300
 3115SOL    HW110244   4.058   3.320   6.397
 3115SOL    HW210245   3.976   3.373   6.265
 3116SOL     OW10246   6.935   3.544   0.186
 3116SOL    HW110247   6.973   3.491   0.261
 3116SOL    HW210248   6.887   3.624   0.222
 3117SOL     OW10249   4.318   3.418   5.323
 3117SOL    HW110250   4.406   3.464   5.320
 3117SOL    HW210251   4.285   3.402   5.230
 3118SOL     OW10252   0.160   4.443   0.855
 3118SOL    HW110253   0.145   4.362   0.911
 3118SOL    HW210254   0.258   4.463   0.850
 3119SOL     OW10255   1.982   3.615   5.673
 3119SOL    HW110256   1.976   3.585   5.578
 3119SOL    HW210257   1.894   3.599   5.718
 3120SOL     OW10258   3.204   6.623   3.985
 3120SOL    HW110259   3.275   6.635   4.055
 3120SOL    HW210260   3.223   6.684   3.908
 3121SOL     OW10261   6.929   1.545   2.876
 3121SOL    HW110262   6.966   1.551   2.783
 3121SOL    HW210263   6.972   1.468   2.923
 3122SOL     OW10264   3.376   6.255   5.953
 3122SOL    HW110265   3.401   6.350   5.975
 3122SOL    HW210266   3.302   6.255   5.885
 3123SOL     OW10267   4.126   1.276   4.079
 3123SOL    HW110268   4.206   1.295   4.135
 3123SOL    HW210269   4.141   1.312   3.987
 3124SOL     OW10270   4.331   6.283   4.608
 3124SOL    HW110271   4.278   6.339   4.671
 3124SOL    HW210272   4.293   6.191   4.605
 3125SOL     OW10273   6.513   2.294   5.200
 3125SOL    HW110274   6.507   2.380   5.250
 3125SOL    HW210275   6.421   2.263   5.177
 3126SOL     OW10276   4.273   4.790   6.320
 3126SOL    HW110277   4.266   4.691   6.317
 3126SOL    HW210278   4.333   4.817   6.395
 3127SOL     OW10279   1.015   3.357   3.718
 3127SOL    HW110280   0.932   3.413   3.722
 3127SOL    HW210281   1.071   3.388   3.641
 3128SOL     OW10282   1.722   0.660   6.498
 3128SOL    HW110283   1.739   0.569   6.460
 3128SOL    HW210284   1.804   0.716   6.488
 3129SOL     OW10285   0.571   4.330   6.461
 3129SOL    HW110286   0.522   4.377   6.388
 3129SOL    HW210287   0.540   4.235   6.467
 3130SOL     OW10288   1.406   4.457   1.793
 3130SOL    HW110289   1.347   4.479   1.871
 3130SOL    HW210290   1.447   4.540   1.757
 3131SOL     OW10291   6.754   2.761   1.913
 3131SOL    HW110292   6.810   2.799   1.987
 3131SOL    HW210293   6.760   2.821   1.833
 3132SOL     OW10294   4.299   5.018   5.909
 3132SOL    HW110295   4.322   5.030   6.005
 3132SOL    HW210296   4.380   5.035   5.853
 3133SOL     OW10297   3.511   1.961   3.928
 3133SOL    HW110298   3.449   1.976   4.005
 3133SOL    HW210299   3.583   1.896   3.955
 3134SOL     OW10300   4.493   4.384   1.320
 3134SOL    HW110301   4.517   4.366   1.415
 3134SOL    HW210302   4.394   4.389   1.310
 3135SOL     OW10303   5.140   0.636   5.373
 3135SOL    HW110304   5.129   0.537   5.382
 3135SOL    HW210305   5.050   0.680   5.381
 3136SOL     OW10306   5.225   0.610   0.267
 3136SOL    HW110307   5.299   0.588   0.204
 3136SOL    HW210308   5.178   0.693   0.236
 3137SOL     OW10309   6.378   0.516   3.334
 3137SOL    HW110310   6.310   0.586   3.309
 3137SOL    HW210311   6.425   0.485   3.252
 3138SOL     OW10312   6.395   2.796   3.906
 3138SOL    HW110313   6.486   2.782   3.867
 3138SOL    HW210314   6.344   2.710   3.903
 3139SOL     OW10315   5.009   0.087   0.185
 3139SOL    HW110316   4.969   0.167   0.229
 3139SOL    HW210317   5.106   0.081   0.210
 3140SOL     OW10318   5.961   6.894   6.662
 3140SOL    HW110319   6.002   6.805   6.639
 3140SOL    HW210320   5.862   6.884   6.669
 3141SOL     OW10321   0.106   5.773   6.153
 3141SOL    HW110322   0.188   5.769   6.210
 3141SOL    HW210323   0.132   5.806   6.062
 3142SOL     OW10324   4.551   6.376   1.417
 3142SOL    HW110325   4.593   6.386   1.327
 3142SOL    HW210326   4.470   6.434   1.423
 3143SOL     OW10327   6.977   1.915   6.879
 3143SOL    HW110328   6.999   1.817   6.876
 3143SOL    HW210329   0.007   1.958   6.954
 3144SOL     OW10330   3.759   3.873   1.053
 3144SOL    HW110331   3.767   3.973   1.056
 3144SOL    HW210332   3.793   3.835   1.139
 3145SOL     OW10333   1.651   5.237   2.162
 3145SOL    HW110334   1.715   5.167   2.131
 3145SOL    HW210335   1.628   5.220   2.258
 3146SOL     OW10336   1.379   0.115   2.789
 3146SOL    HW110337   1.293   0.140   2.746
 3146SOL    HW210338   1.361   0.052   2.865
 3147SOL     OW10339   2.973   5.040   0.256
 3147SOL    HW110340   3.045   5.110   0.261
 3147SOL    HW210341   3.000   4.969   0.191
 3148SOL     OW10342   5.232   5.927   5.075
 3148SOL    HW110343   5.241   5.990   5.152
 3148SOL    HW210344   5.162   5.859   5.094
 3149SOL     OW10345   2.671   0.584   5.172
 3149SOL    HW110346   2.691   0.682   5.171
 3149SOL    HW210347   2.753   0.533   5.147
 3150SOL     OW10348   0.112   6.158   4.372
 3150SOL    HW110349   0.115   6.157   4.272
 3150SOL    HW210350   0.028   6.203   4.403
 3151SOL     OW10351   4.285   1.426   6.387
 3151SOL    HW110352   4.233   1.417   6.472
 3151SOL    HW210353   4.268   1.346   6.329
 3152SOL     OW10354   1.408   5.553   0.995
 3152SOL    HW110355   1.453   5.464   0.983
 3152SOL    HW210356   1.351   5.551   1.078
 3153SOL     OW10357   6.364   4.575   2.101
 3153SOL    HW110358   6.394   4.485   2.069
 3153SOL    HW210359   6.398   4.646   2.039
 3154SOL     OW10360   0.167   1.819   0.414
 3154SOL    HW110361   0.254   1.870   0.414
 3154SOL    HW210362   0.124   1.826   0.504
 3155SOL     OW10363   6.157   4.829   1.311
 3155SOL    HW110364   6.107   4.894   1.368
 3155SOL    HW210365   6.255   4.841   1.325
 3156SOL     OW10366   2.994   3.489   3.574
 3156SOL    HW110367   2.977   3.526   3.483
 3156SOL    HW210368   3.036   3.398   3.566
 3157SOL     OW10369   1.828   2.771   4.786
 3157SOL    HW110370   1.751   2.788   4.848
 3157SOL    HW210371   1.892   2.707   4.828
 3158SOL     OW10372   4.247   6.829   1.946
 3158SOL    HW110373   4.328   6.771   1.932
 3158SOL    HW210374   4.228   6.880   1.862
 3159SOL     OW10375   5.731   1.212   0.419
 3159SOL    HW110376   5.807   1.148   0.432
 3159SOL    HW210377   5.764   1.291   0.367
 3160SOL     OW10378   0.189   6.334   5.177
 3160SOL    HW110379   0.148   6.376   5.258
 3160SOL    HW210380   0.206   6.405   5.109
 3161SOL     OW10381   1.944   1.763   3.893
 3161SOL    HW110382   2.013   1.835   3.889
 3161SOL    HW210383   1.933   1.723   3.802
 3162SOL     OW10384   1.127   6.360   0.697
 3162SOL    HW110385   1.221   6.394   0.708
 3162SOL    HW210386   1.093   6.329   0.786
 3163SOL     OW10387   3.859   2.168   6.678
 3163SOL    HW110388   3.857   2.255   6.727
 3163SOL    HW210389   3.930   2.171   6.607
 3164SOL     OW10390   4.269   4.133   1.447
 3164SOL    HW110391   4.255   4.093   1.538
 3164SOL    HW210392   4.353   4.187   1.447
 3165SOL     OW10393   1.136   5.667   1.281
 3165SOL    HW110394   1.140   5.733   1.206
 3165SOL    HW210395   1.154   5.713   1.368
 3166SOL     OW10396   4.305   0.581   6.190
 3166SOL    HW110397   4.390   0.536   6.162
 3166SOL    HW210398   4.255   0.521   6.252
 3167SOL     OW10399   6.879   4.151   1.603
 3167SOL    HW110400   6.953   4.213   1.577
 3167SOL    HW210401   6.875   4.145   1.703
 3168SOL     OW10402   4.997   2.541   6.832
 3168SOL    HW110403   5.015   2.633   6.795
 3168SOL    HW210404   5.057   2.524   6.910
 3169SOL     OW10405   1.988   2.965   5.164
 3169SOL    HW110406   2.034   2.900   5.104
 3169SOL    HW210407   1.925   2.915   5.224
 3170SOL     OW10408   4.504   1.173   1.148
 3170SOL    HW110409   4.548   1.088   1.120
 3170SOL    HW210410   4.404   1.160   1.151
 3171SOL     OW10411   0.120   6.403   1.377
 3171SOL    HW110412   0.034   6.354   1.391
 3171SOL    HW210413   0.180   6.348   1.318
 3172SOL     OW10414   0.265   5.442   5.958
 3172SOL    HW110415   0.177   5.467   5.999
 3172SOL    HW210416   0.298   5.357   5.999
 3173SOL     OW10417   3.292   1.888   1.031
 3173SOL    HW110418   3.315   1.980   0.999
 3173SOL    HW210419   3.377   1.838   1.051
 3174SOL     OW10420   2.741   2.723   6.370
 3174SOL    HW110421   2.684   2.805   6.369
 3174SOL    HW210422   2.832   2.744   6.335
 3175SOL     OW10423   0.802   6.609   0.487
 3175SOL    HW110424   0.803   6.511   0.465
 3175SOL    HW210425   0.857   6.625   0.569
 3176SOL     OW10426   1.865   5.258   4.658
 3176SOL    HW110427   1.887   5.355   4.668
 3176SOL    HW210428   1.916   5.220   4.581
 3177SOL     OW10429   4.883   4.765   5.011
 3177SOL    HW110430   4.864   4.671   5.040
 3177SOL    HW210431   4.809   4.825   5.042
 3178SOL     OW10432   6.852   2.597   0.505
 3178SOL    HW110433   6.944   2.576   0.539
 3178SOL    HW210434   6.787   2.529   0.540
 3179SOL     OW10435   1.808   2.475   2.312
 3179SOL    HW110436   1.831   2.529   2.231
 3179SOL    HW210437   1.779   2.383   2.284
 3180SOL     OW10438   4.749   0.279   0.104
 3180SOL    HW110439   4.741   0.321   0.195
 3180SOL    HW210440   4.712   0.186   0.107
 3181SOL     OW10441   1.128   1.239   3.064
 3181SOL    HW110442   1.073   1.252   3.146
 3181SOL    HW210443   1.126   1.143   3.037
 3182SOL     OW10444   1.716   1.340   5.560
 3182SOL    HW110445   1.796   1.392   5.591
 3182SOL    HW210446   1.687   1.374   5.470
 3183SOL     OW10447   4.680   4.008   1.294
 3183SOL    HW110448   4.585   4.026   1.267
 3183SOL    HW210449   4.681   3.945   1.371
 3184SOL     OW10450   2.338   2.658   3.112
 3184SOL    HW110451   2.419   2.600   3.114
 3184SOL    HW210452   2.269   2.618   3.052
 3185SOL     OW10453   5.913   0.695   6.474
 3185SOL    HW110454   5.940   0.760   6.403
 3185SOL    HW210455   5.970   0.613   6.467
 3186SOL     OW10456   3.522   1.794   3.046
 3186SOL    HW110457   3.504   1.862   2.975
 3186SOL    HW210458   3.457   1.718   3.038
 3187SOL     OW10459   4.548   4.442   0.537
 3187SOL    HW110460   4.479   4.377   0.505
 3187SOL    HW210461   4.585   4.411   0.625
 3188SOL     OW10462   3.462   6.426   4.375
 3188SOL    HW110463   3.438   6.329   4.376
 3188SOL    HW210464   3.408   6.474   4.445
 3189SOL     OW10465   2.269   0.938   2.414
 3189SOL    HW110466   2.219   1.025   2.418
 3189SOL    HW210467   2.208   0.863   2.441
 3190SOL     OW10468   0.561   6.187   1.666
 3190SOL    HW110469   0.629   6.114   1.666
 3190SOL    HW210470   0.534   6.208   1.760
 3191SOL     OW10471   4.112   6.873   0.739
 3191SOL    HW110472   4.152   6.961   0.764
 3191SOL    HW210473   4.180   6.801   0.754
 3192SOL     OW10474   0.107   2.332   1.089
 3192SOL    HW110475   0.030   2.286   1.046
 3192SOL    HW210476   0.184   2.334   1.025
 3193SOL     OW10477   4.376   1.792   5.826
 3193SOL    HW110478   4.390   1.869   5.764
 3193SOL    HW210479   4.463   1.746   5.843
 3194SOL     OW10480   0.947   2.982   5.965
 3194SOL    HW110481   0.913   2.896   6.002
 3194SOL    HW210482   0.973   2.971   5.869
 3195SOL     OW10483   2.188   2.793   2.519
 3195SOL    HW110484   2.204   2.870   2.457
 3195SOL    HW210485   2.160   2.713   2.466
 3196SOL     OW10486   6.852   0.491   4.893
 3196SOL    HW110487   6.767   0.536   4.865
 3196SOL    HW210488   6.923   0.559   4.907
 3197SOL     OW10489   1.895   5.823   3.499
 3197SOL    HW110490   1.921   5.852   3.591
 3197SOL    HW210491   1.806   5.862   3.476
 3198SOL     OW10492   6.177   2.434   6.179
 3198SOL    HW110493   6.207   2.503   6.244
 3198SOL    HW210494   6.247   2.421   6.110
 3199SOL     OW10495   4.569   2.775   1.797
 3199SOL    HW110496   4.511   2.779   1.716
 3199SOL    HW210497   4.569   2.864   1.842
 3200SOL     OW10498   0.194   1.521   1.961
 3200SOL    HW110499   0.099   1.502   1.936
 3200SOL    HW210500   0.210   1.491   2.056
 3201SOL     OW10501   5.209   4.509   4.831
 3201SOL    HW110502   5.231   4.469   4.919
 3201SOL    HW210503   5.294   4.530   4.782
 3202SOL     OW10504   1.056   4.541   1.733
 3202SOL    HW110505   0.985   4.607   1.709
 3202SOL    HW210506   1.123   4.536   1.659
 3203SOL     OW10507   5.224   1.123   0.871
 3203SOL    HW110508   5.190   1.128   0.965
 3203SOL    HW210509   5.219   1.029   0.839
 3204SOL     OW10510   4.573   5.422   1.978
 3204SOL    HW110511   4.524   5.408   1.892
 3204SOL    HW210512   4.627   5.340   1.999
 3205SOL     OW10513   0.214   3.950   6.471
 3205SOL    HW110514   0.218   3.934   6.570
 3205SOL    HW210515   0.170   3.872   6.427
 3206SOL     OW10516   6.805   6.684   5.941
 3206SOL    HW110517   6.820   6.780   5.918
 3206SOL    HW210518   6.886   6.631   5.917
 3207SOL     OW10519   0.248   1.279   6.438
 3207SOL    HW110520   0.205   1.291   6.528
 3207SOL    HW210521   0.213   1.348   6.375
 3208SOL     OW10522   5.136   6.142   5.978
 3208SOL    HW110523   5.117   6.223   5.922
 3208SOL    HW210524   5.144   6.168   6.074
 3209SOL     OW10525   3.001   5.478   3.742
 3209SOL    HW110526   3.072   5.474   3.672
 3209SOL    HW210527   2.940   5.554   3.723
 3210SOL     OW10528   0.729   4.025   2.121
 3210SOL    HW110529   0.775   4.091   2.061
 3210SOL    HW210530   0.653   4.071   2.167
 3211SOL     OW10531   2.512   3.724   0.994
 3211SOL    HW110532   2.568   3.652   0.953
 3211SOL    HW210533   2.443   3.754   0.928
 3212SOL     OW10534   3.822   1.167   6.480
 3212SOL    HW110535   3.738   1.118   6.461
 3212SOL    HW210536   3.848   1.222   6.401
 3213SOL     OW10537   6.123   5.327   2.818
 3213SOL    HW110538   6.123   5.427   2.820
 3213SOL    HW210539   6.038   5.293   2.858
 3214SOL     OW10540   5.069   5.925   0.349
 3214SOL    HW110541   4.971   5.941   0.358
 3214SOL    HW210542   5.085   5.839   0.299
 3215SOL     OW10543   0.021   3.544   1.408
 3215SOL    HW110544   0.017   3.452   1.370
 3215SOL    HW210545   0.115   3.565   1.435
 3216SOL     OW10546   5.069   5.555   1.932
 3216SOL    HW110547   5.056   5.456   1.924
 3216SOL    HW210548   4.989   5.596   1.975
 3217SOL     OW10549   0.889   5.098   2.387
 3217SOL    HW110550   0.969   5.041   2.366
 3217SOL    HW210551   0.820   5.086   2.317
 3218SOL     OW10552   4.056   6.420   3.662
 3218SOL    HW110553   3.998   6.469   3.727
 3218SOL    HW210554   4.004   6.344   3.623
 3219SOL     OW10555   6.991   1.364   3.205
 3219SOL    HW110556   0.069   1.379   3.218
 3219SOL    HW210557   6.940   1.422   3.268
 3220SOL     OW10558   6.230   5.344   6.045
 3220SOL    HW110559   6.296   5.295   6.102
 3220SOL    HW210560   6.268   5.432   6.017
 3221SOL     OW10561   3.184   6.770   2.319
 3221SOL    HW110562   3.195   6.854   2.265
 3221SOL    HW210563   3.134   6.702   2.265
 3222SOL     OW10564   4.836   2.039   3.612
 3222SOL    HW110565   4.934   2.023   3.623
 3222SOL    HW210566   4.785   1.962   3.651
 3223SOL     OW10567   1.774   5.294   6.399
 3223SOL    HW110568   1.684   5.275   6.361
 3223SOL    HW210569   1.784   5.246   6.487
 3224SOL     OW10570   4.053   4.899   6.212
 3224SOL    HW110571   4.128   4.842   6.245
 3224SOL    HW210572   3.993   4.844   6.154
 3225SOL     OW10573   4.473   2.588   5.530
 3225SOL    HW110574   4.420   2.581   5.614
 3225SOL    HW210575   4.565   2.619   5.551
 3226SOL     OW10576   1.780   1.692   4.635
 3226SOL    HW110577   1.782   1.648   4.546
 3226SOL    HW210578   1.847   1.648   4.696
 3227SOL     OW10579   3.182   2.283   6.387
 3227SOL    HW110580   3.162   2.271   6.485
 3227SOL    HW210581   3.196   2.194   6.345
 3228SOL     OW10582   5.380   3.307   4.299
 3228SOL    HW110583   5.403   3.394   4.255
 3228SOL    HW210584   5.452   3.240   4.280
 3229SOL     OW10585   3.462   1.568   5.833
 3229SOL    HW110586   3.561   1.556   5.825
 3229SOL    HW210587   3.432   1.641   5.771
 3230SOL     OW10588   0.759   2.608   4.034
 3230SOL    HW110589   0.709   2.572   3.955
 3230SOL    HW210590   0.837   2.662   4.002
 3231SOL     OW10591   3.452   6.132   2.403
 3231SOL    HW110592   3.516   6.157   2.331
 3231SOL    HW210593   3.502   6.123   2.490
 3232SOL     OW10594   4.407   5.342   3.945
 3232SOL    HW110595   4.453   5.340   4.034
 3232SOL    HW210596   4.475   5.341   3.872
 3233SOL     OW10597   1.979   3.204   1.095
 3233SOL    HW110598   1.904   3.245   1.043
 3233SOL    HW210599   1.943   3.167   1.181
 3234SOL     OW10600   0.136   2.843   0.498
 3234SOL    HW110601   0.053   2.833   0.443
 3234SOL    HW210602   0.211   2.792   0.455
 3235SOL     OW10603   5.380   5.877   1.776
 3235SOL    HW110604   5.340   5.790   1.805
 3235SOL    HW210605   5.440   5.912   1.848
 3236SOL     OW10606   1.492   3.118   1.544
 3236SOL    HW110607   1.543   3.135   1.460
 3236SOL    HW210608   1.529   3.176   1.617
 3237SOL     OW10609   5.488   1.126   3.788
 3237SOL    HW110610   5.544   1.187   3.845
 3237SOL    HW210611   5.517   1.032   3.802
 3238SOL     OW10612   6.989   4.768   6.747
 3238SOL    HW110613   6.991   4.807   6.654
 3238SOL    HW210614   6.970   4.670   6.742
 3239SOL     OW10615   6.411   1.177   0.375
 3239SOL    HW110616   6.337   1.174   0.442
 3239SOL    HW210617   6.446   1.270   0.368
 3240SOL     OW10618   1.315   6.106   5.009
 3240SOL    HW110619   1.411   6.126   5.029
 3240SOL    HW210620   1.272   6.186   4.967
 3241SOL     OW10621   5.513   1.379   4.620
 3241SOL    HW110622   5.440   1.431   4.577
 3241SOL    HW210623   5.543   1.306   4.558
 3242SOL     OW10624   3.321   4.834   0.848
 3242SOL    HW110625   3.294   4.792   0.761
 3242SOL    HW210626   3.287   4.778   0.924
 3243SOL     OW10627   5.828   5.741   0.688
 3243SOL    HW110628   5.843   5.683   0.767
 3243SOL    HW210629   5.730   5.748   0.669
 3244SOL     OW10630   4.802   5.203   6.696
 3244SOL    HW110631   4.879   5.177   6.753
 3244SOL    HW210632   4.832   5.268   6.626
 3245SOL     OW10633   4.984   2.561   5.751
 3245SOL    HW110634   5.052   2.628   5.721
 3245SOL    HW210635   5.016   2.469   5.729
 3246SOL     OW10636   6.473   0.435   3.096
 3246SOL    HW110637   6.501   0.356   3.042
 3246SOL    HW210638   6.397   0.482   3.050
 3247SOL     OW10639   0.171   5.286   2.713
 3247SOL    HW110640   0.267   5.296   2.737
 3247SOL    HW210641   0.114   5.308   2.792
 3248SOL     OW10642   5.507   3.783   1.624
 3248SOL    HW110643   5.448   3.777   1.543
 3248SOL    HW210644   5.532   3.692   1.654
 3249SOL     OW10645   4.266   4.340   5.579
 3249SOL    HW110646   4.224   4.332   5.670
 3249SOL    HW210647   4.349   4.285   5.576
 3250SOL     OW10648   5.316   0.519   3.251
 3250SOL    HW110649   5.254   0.445   3.225
 3250SOL    HW210650   5.311   0.593   3.184
 3251SOL     OW10651   4.088   0.813   2.603
 3251SOL    HW110652   4.109   0.881   2.673
 3251SOL    HW210653   4.170   0.792   2.550
 3252SOL     OW10654   3.077   0.964   2.065
 3252SOL    HW110655   3.041   1.004   2.149
 3252SOL    HW210656   3.143   1.028   2.025
 3253SOL     OW10657   4.970   3.380   2.503
 3253SOL    HW110658   4.942   3.443   2.576
 3253SOL    HW210659   4.925   3.292   2.515
 3254SOL     OW10660   3.815   4.952   4.935
 3254SOL    HW110661   3.779   4.979   4.845
 3254SOL    HW210662   3.905   4.911   4.923
 3255SOL     OW10663   4.436   5.944   1.504
 3255SOL    HW110664   4.505   6.013   1.485
 3255SOL    HW210665   4.476   5.871   1.559
 3256SOL     OW10666   5.636   0.324   6.854
 3256SOL    HW110667   5.570   0.395   6.878
 3256SOL    HW210668   5.710   0.323   6.921
 3257SOL     OW10669   1.062   2.081   1.217
 3257SOL    HW110670   1.121   2.160   1.230
 3257SOL    HW210671   1.093   2.029   1.138
 3258SOL     OW10672   4.514   5.727   2.595
 3258SOL    HW110673   4.525   5.664   2.518
 3258SOL    HW210674   4.588   5.794   2.593
 3259SOL     OW10675   4.763   5.683   4.323
 3259SOL    HW110676   4.734   5.632   4.404
 3259SOL    HW210677   4.798   5.772   4.352
 3260SOL     OW10678   2.044   2.472   1.349
 3260SOL    HW110679   2.091   2.464   1.261
 3260SOL    HW210680   2.101   2.522   1.414
 3261SOL     OW10681   4.219   6.298   0.295
 3261SOL    HW110682   4.198   6.219   0.238
 3261SOL    HW210683   4.278   6.270   0.371
 3262SOL     OW10684   3.680   1.764   2.553
 3262SOL    HW110685   3.760   1.814   2.519
 3262SOL    HW210686   3.618   1.828   2.599
 3263SOL     OW10687   5.245   0.384   4.001
 3263SOL    HW110688   5.220   0.457   4.065
 3263SOL    HW210689   5.192   0.394   3.917
 3264SOL     OW10690   0.917   4.544   6.783
 3264SOL    HW110691   0.874   4.468   6.734
 3264SOL    HW210692   0.992   4.508   6.839
 3265SOL     OW10693   4.357   2.162   5.818
 3265SOL    HW110694   4.398   2.198   5.903
 3265SOL    HW210695   4.321   2.238   5.764
 3266SOL     OW10696   0.810   2.656   0.374
 3266SOL    HW110697   0.793   2.586   0.304
 3266SOL    HW210698   0.901   2.642   0.414
 3267SOL     OW10699   3.613   2.286   0.993
 3267SOL    HW110700   3.520   2.259   0.968
 3267SOL    HW210701   3.610   2.370   1.047
 3268SOL     OW10702   0.756   3.690   6.654
 3268SOL    HW110703   0.769   3.748   6.734
 3268SOL    HW210704   0.701   3.610   6.679
 3269SOL     OW10705   4.283   4.886   2.051
 3269SOL    HW110706   4.290   4.985   2.063
 3269SOL    HW210707   4.217   4.849   2.116
 3270SOL     OW10708   1.394   5.614   4.857
 3270SOL    HW110709   1.326   5.678   4.893
 3270SOL    HW210710   1.396   5.620   4.757
 3271SOL     OW10711   5.393   3.332   2.537
 3271SOL    HW110712   5.331   3.254   2.530
 3271SOL    HW210713   5.415   3.365   2.446
 3272SOL     OW10714   3.753   4.984   0.536
 3272SOL    HW110715   3.718   5.078   0.535
 3272SOL    HW210716   3.805   4.966   0.453
 3273SOL     OW10717   0.725   6.502   2.289
 3273SOL    HW110718   0.785   6.422   2.281
 3273SOL    HW210719   0.775   6.584   2.261
 3274SOL     OW10720   3.424   2.196   6.763
 3274SOL    HW110721   3.433   2.279   6.817
 3274SOL    HW210722   3.443   2.216   6.667
 3275SOL     OW10723   1.657   0.564   6.810
 3275SOL    HW110724   1.716   0.540   6.733
 3275SOL    HW210725   1.628   0.481   6.857
 3276SOL     OW10726   3.051   4.739   6.387
 3276SOL    HW110727   3.135   4.788   6.409
 3276SOL    HW210728   3.073   4.656   6.335
 3277SOL     OW10729   5.647   0.138   6.174
 3277SOL    HW110730   5.738   0.121   6.211
 3277SOL    HW210731   5.630   0.075   6.098
 3278SOL     OW10732   6.599   0.901   5.853
 3278SOL    HW110733   6.626   0.997   5.848
 3278SOL    HW210734   6.501   0.895   5.871
 3279SOL     OW10735   0.643   0.901   1.110
 3279SOL    HW110736   0.699   0.820   1.128
 3279SOL    HW210737   0.548   0.881   1.133
 3280SOL     OW10738   2.841   5.531   5.971
 3280SOL    HW110739   2.751   5.500   5.941
 3280SOL    HW210740   2.844   5.530   6.071
 3281SOL     OW10741   2.010   5.464   1.145
 3281SOL    HW110742   2.107   5.443   1.144
 3281SOL    HW210743   1.976   5.471   1.051
 3282SOL     OW10744   2.011   5.598   4.380
 3282SOL    HW110745   1.976   5.647   4.300
 3282SOL    HW210746   2.110   5.612   4.386
 3283SOL     OW10747   3.152   1.468   1.869
 3283SOL    HW110748   3.138   1.562   1.900
 3283SOL    HW210749   3.095   1.451   1.788
 3284SOL     OW10750   6.199   6.903   6.382
 3284SOL    HW110751   6.134   6.919   6.308
 3284SOL    HW210752   6.252   6.986   6.400
 3285SOL     OW10753   6.721   2.955   3.333
 3285SOL    HW110754   6.800   2.989   3.282
 3285SOL    HW210755   6.638   2.998   3.296
 3286SOL     OW10756   4.143   3.362   4.021
 3286SOL    HW110757   4.101   3.339   4.109
 3286SOL    HW210758   4.113   3.296   3.952
 3287SOL     OW10759   1.380   5.696   0.330
 3287SOL    HW110760   1.404   5.788   0.298
 3287SOL    HW210761   1.357   5.699   0.427
 3288SOL     OW10762   0.758   5.276   6.535
 3288SOL    HW110763   0.729   5.236   6.622
 3288SOL    HW210764   0.833   5.222   6.497
 3289SOL     OW10765   1.961   6.754   5.702
 3289SOL    HW110766   1.973   6.751   5.801
 3289SOL    HW210767   1.865   6.735   5.680
 3290SOL     OW10768   0.339   6.730   1.953
 3290SOL    HW110769   0.240   6.716   1.945
 3290SOL    HW210770   0.364   6.813   1.903
 3291SOL     OW10771   0.857   6.637   6.628
 3291SOL    HW110772   0.843   6.539   6.621
 3291SOL    HW210773   0.817   6.682   6.547
 3292SOL     OW10774   0.615   1.458   0.245
 3292SOL    HW110775   0.604   1.527   0.173
 3292SOL    HW210776   0.647   1.373   0.205
 3293SOL     OW10777   6.313   2.203   3.280
 3293SOL    HW110778   6.299   2.218   3.378
 3293SOL    HW210779   6.374   2.273   3.244
 3294SOL     OW10780   0.016   0.419   6.104
 3294SOL    HW110781   0.047   0.488   6.169
 3294SOL    HW210782   0.095   0.370   6.068
 3295SOL     OW10783   2.295   2.744   0.932
 3295SOL    HW110784   2.286   2.789   1.021
 3295SOL    HW210785   2.355   2.664   0.941
 3296SOL     OW10786   2.242   6.395   0.969
 3296SOL    HW110787   2.170   6.327   0.958
 3296SOL    HW210788   2.228   6.469   0.904
 3297SOL     OW10789   2.722   1.320   4.466
 3297SOL    HW110790   2.785   1.294   4.392
 3297SOL    HW210791   2.628   1.322   4.430
 3298SOL     OW10792   6.174   2.831   3.063
 3298SOL    HW110793   6.272   2.835   3.082
 3298SOL    HW210794   6.145   2.735   3.061
 3299SOL     OW10795   2.260   6.724   3.555
 3299SOL    HW110796   2.166   6.752   3.532
 3299SOL    HW210797   2.309   6.702   3.471
 3300SOL     OW10798   0.154   0.077   5.908
 3300SOL    HW110799   0.112   0.089   5.998
 3300SOL    HW210800   0.242   0.031   5.918
 3301SOL     OW10801   2.019   4.096   3.495
 3301SOL    HW110802   2.090   4.082   3.426
 3301SOL    HW210803   1.964   4.176   3.471
 3302SOL     OW10804   1.033   5.521   4.578
 3302SOL    HW110805   1.082   5.454   4.523
 3302SOL    HW210806   0.941   5.486   4.599
 3303SOL     OW10807   3.720   2.900   2.082
 3303SOL    HW110808   3.749   2.805   2.069
 3303SOL    HW210809   3.788   2.961   2.040
 3304SOL     OW10810   1.681   4.832   3.181
 3304SOL    HW110811   1.648   4.926   3.187
 3304SOL    HW210812   1.652   4.781   3.262
 3305SOL     OW10813   2.584   2.179   2.785
 3305SOL    HW110814   2.645   2.257   2.788
 3305SOL    HW210815   2.634   2.096   2.811
 3306SOL     OW10816   2.363   4.760   3.889
 3306SOL    HW110817   2.298   4.704   3.940
 3306SOL    HW210818   2.315   4.813   3.819
 3307SOL     OW10819   0.306   5.956   6.615
 3307SOL    HW110820   0.250   5.949   6.532
 3307SOL    HW210821   0.401   5.937   6.592
 3308SOL     OW10822   4.677   6.077   6.479
 3308SOL    HW110823   4.729   6.124   6.550
 3308SOL    HW210824   4.703   5.981   6.475
 3309SOL     OW10825   0.899   5.423   2.684
 3309SOL    HW110826   0.851   5.479   2.752
 3309SOL    HW210827   0.973   5.373   2.730
 3310SOL     OW10828   6.949   3.661   3.380
 3310SOL    HW110829   6.905   3.750   3.376
 3310SOL    HW210830   7.000   3.645   3.295
 3311SOL     OW10831   2.731   5.031   1.271
 3311SOL    HW110832   2.779   4.951   1.235
 3311SOL    HW210833   2.785   5.113   1.253
 3312SOL     OW10834   2.963   3.893   6.386
 3312SOL    HW110835   2.978   3.953   6.464
 3312SOL    HW210836   2.914   3.811   6.415
 3313SOL     OW10837   0.553   5.484   2.685
 3313SOL    HW110838   0.615   5.510   2.610
 3313SOL    HW210839   0.580   5.532   2.768
 3314SOL     OW10840   2.182   2.290   5.253
 3314SOL    HW110841   2.101   2.302   5.195
 3314SOL    HW210842   2.254   2.353   5.224
 3315SOL     OW10843   6.854   2.668   4.184
 3315SOL    HW110844   6.906   2.595   4.227
 3315SOL    HW210845   6.832   2.738   4.251
 3316SOL     OW10846   3.677   1.244   5.684
 3316SOL    HW110847   3.712   1.164   5.636
 3316SOL    HW210848   3.675   1.323   5.622
 3317SOL     OW10849   4.843   2.786   1.884
 3317SOL    HW110850   4.808   2.871   1.923
 3317SOL    HW210851   4.778   2.752   1.815
 3318SOL     OW10852   2.771   0.175   0.451
 3318SOL    HW110853   2.751   0.256   0.506
 3318SOL    HW210854   2.824   0.201   0.371
 3319SOL     OW10855   6.277   6.900   3.427
 3319SOL    HW110856   6.333   6.954   3.489
 3319SOL    HW210857   6.329   6.879   3.344
 3320SOL     OW10858   5.993   1.395   5.758
 3320SOL    HW110859   5.991   1.495   5.747
 3320SOL    HW210860   5.901   1.360   5.771
 3321SOL     OW10861   3.150   2.715   1.625
 3321SOL    HW110862   3.193   2.791   1.576
 3321SOL    HW210863   3.112   2.650   1.560
 3322SOL     OW10864   4.979   2.360   1.944
 3322SOL    HW110865   4.909   2.406   1.999
 3322SOL    HW210866   4.975   2.393   1.850
 3323SOL     OW10867   1.893   3.966   6.503
 3323SOL    HW110868   1.981   3.941   6.545
 3323SOL    HW210869   1.891   4.064   6.487
 3324SOL     OW10870   0.803   3.833   6.864
 3324SOL    HW110871   0.789   3.814   6.961
 3324SOL    HW210872   0.900   3.852   6.848
 3325SOL     OW10873   2.105   3.314   6.926
 3325SOL    HW110874   2.034   3.317   6.856
 3325SOL    HW210875   2.085   3.381   6.997
 3326SOL     OW10876   5.182   1.792   1.703
 3326SOL    HW110877   5.266   1.750   1.669
 3326SOL    HW210878   5.166   1.878   1.655
 3327SOL     OW10879   2.813   6.453   0.767
 3327SOL    HW110880   2.794   6.475   0.671
 3327SOL    HW210881   2.726   6.442   0.815
 3328SOL     OW10882   4.621   1.266   2.616
 3328SOL    HW110883   4.639   1.232   2.708
 3328SOL    HW210884   4.684   1.341   2.595
 3329SOL     OW10885   4.499   0.207   5.392
 3329SOL    HW110886   4.564   0.204   5.316
 3329SOL    HW210887   4.437   0.284   5.380
 3330SOL     OW10888   5.679   6.416   2.308
 3330SOL    HW110889   5.760   6.435   2.363
 3330SOL    HW210890   5.597   6.429   2.364
 3331SOL     OW10891   1.750   3.359   2.389
 3331SOL    HW110892   1.747   3.370   2.489
 3331SOL    HW210893   1.730   3.446   2.346
 3332SOL     OW10894   6.049   3.860   0.146
 3332SOL    HW110895   6.134   3.837   0.098
 3332SOL    HW210896   6.070   3.917   0.225
 3333SOL     OW10897   2.726   3.639   6.871
 3333SOL    HW110898   2.662   3.567   6.844
 3333SOL    HW210899   2.677   3.710   6.920
 3334SOL     OW10900   2.006   3.049   1.903
 3334SOL    HW110901   1.912   3.044   1.869
 3334SOL    HW210902   2.049   3.133   1.871
 3335SOL     OW10903   4.831   5.672   6.116
 3335SOL    HW110904   4.882   5.757   6.132
 3335SOL    HW210905   4.756   5.690   6.053
 3336SOL     OW10906   2.321   0.149   4.175
 3336SOL    HW110907   2.269   0.064   4.182
 3336SOL    HW210908   2.419   0.128   4.176
 3337SOL     OW10909   3.688   3.321   1.995
 3337SOL    HW110910   3.740   3.288   1.917
 3337SOL    HW210911   3.604   3.267   2.005
 3338SOL     OW10912   0.191   2.527   1.719
 3338SOL    HW110913   0.251   2.569   1.787
 3338SOL    HW210914   0.196   2.428   1.726
 3339SOL     OW10915   1.606   0.348   6.114
 3339SOL    HW110916   1.654   0.434   6.131
 3339SOL    HW210917   1.589   0.338   6.016
 3340SOL     OW10918   4.226   0.591   4.125
 3340SOL    HW110919   4.178   0.672   4.158
 3340SOL    HW210920   4.311   0.580   4.175
 3341SOL     OW10921   2.336   4.294   3.788
 3341SOL    HW110922   2.397   4.311   3.865
 3341SOL    HW210923   2.317   4.381   3.742
 3342SOL     OW10924   0.314   0.388   2.377
 3342SOL    HW110925   0.360   0.424   2.296
 3342SOL    HW210926   0.337   0.445   2.456
 3343SOL     OW10927   5.206   5.305   6.097
 3343SOL    HW110928   5.172   5.390   6.056
 3343SOL    HW210929   5.300   5.289   6.069
 3344SOL     OW10930   6.293   2.987   3.352
 3344SOL    HW110931   6.254   2.896   3.333
 3344SOL    HW210932   6.291   3.042   3.268
 3345SOL     OW10933   0.617   4.118   6.135
 3345SOL    HW110934   0.620   4.054   6.058
 3345SOL    HW210935   0.685   4.190   6.122
 3346SOL     OW10936   1.750   1.132   6.846
 3346SOL    HW110937   1.806   1.072   6.789
 3346SOL    HW210938   1.660   1.091   6.858
 3347SOL     OW10939   1.875   2.527   6.716
 3347SOL    HW110940   1.847   2.434   6.692
 3347SOL    HW210941   1.824   2.592   6.660
 3348SOL     OW10942   4.387   3.834   5.328
 3348SOL    HW110943   4.438   3.752   5.302
 3348SOL    HW210944   4.356   3.825   5.423
 3349SOL     OW10945   2.608   5.025   3.834
 3349SOL    HW110946   2.660   5.106   3.809
 3349SOL    HW210947   2.670   4.947   3.844
 3350SOL     OW10948   0.642   3.001   5.900
 3350SOL    HW110949   0.742   2.999   5.903
 3350SOL    HW210950   0.612   3.091   5.868
 3351SOL     OW10951   5.060   1.386   1.352
 3351SOL    HW110952   5.123   1.459   1.327
 3351SOL    HW210953   4.967   1.411   1.325
 3352SOL     OW10954   5.289   2.486   0.692
 3352SOL    HW110955   5.240   2.431   0.761
 3352SOL    HW210956   5.225   2.515   0.621
 3353SOL     OW10957   1.944   6.592   0.307
 3353SOL    HW110958   1.984   6.675   0.345
 3353SOL    HW210959   1.979   6.578   0.214
 3354SOL     OW10960   3.964   2.739   5.292
 3354SOL    HW110961   4.017   2.661   5.259
 3354SOL    HW210962   3.970   2.744   5.392
 3355SOL     OW10963   2.255   1.561   5.758
 3355SOL    HW110964   2.233   1.484   5.698
 3355SOL    HW210965   2.232   1.646   5.712
 3356SOL     OW10966   0.465   6.494   6.420
 3356SOL    HW110967   0.488   6.535   6.333
 3356SOL    HW210968   0.549   6.468   6.468
 3357SOL     OW10969   3.310   3.194   1.916
 3357SOL    HW110970   3.383   3.126   1.905
 3357SOL    HW210971   3.345   3.284   1.892
 3358SOL     OW10972   5.562   1.084   3.493
 3358SOL    HW110973   5.500   1.116   3.422
 3358SOL    HW210974   5.529   1.114   3.583
 3359SOL     OW10975   0.358   5.368   3.462
 3359SOL    HW110976   0.290   5.318   3.515
 3359SOL    HW210977   0.337   5.360   3.365
 3360SOL     OW10978   0.807   2.281   6.341
 3360SOL    HW110979   0.861   2.365   6.333
 3360SOL    HW210980   0.711   2.302   6.319
 3361SOL     OW10981   0.828   0.520   4.365
 3361SOL    HW110982   0.743   0.504   4.314
 3361SOL    HW210983   0.867   0.608   4.338
 3362SOL     OW10984   3.813   1.345   2.963
 3362SOL    HW110985   3.750   1.364   2.887
 3362SOL    HW210986   3.895   1.401   2.954
 3363SOL     OW10987   6.933   3.441   1.644
 3363SOL    HW110988   6.866   3.497   1.694
 3363SOL    HW210989   6.962   3.489   1.562
 3364SOL     OW10990   1.871   4.553   2.859
 3364SOL    HW110991   1.946   4.590   2.803
 3364SOL    HW210992   1.908   4.487   2.924
 3365SOL     OW10993   1.159   2.582   4.470
 3365SOL    HW110994   1.194   2.675   4.485
 3365SOL    HW210995   1.201   2.543   4.388
 3366SOL     OW10996   6.366   4.312   4.000
 3366SOL    HW110997   6.413   4.242   4.054
 3366SOL    HW210998   6.267   4.301   4.010
 3367SOL     OW10999   3.402   3.314   3.498
 3367SOL    HW111000   3.456   3.238   3.536
 3367SOL    HW211001   3.444   3.401   3.525
 3368SOL     OW11002   0.573   5.663   6.450
 3368SOL    HW111003   0.514   5.622   6.520
 3368SOL    HW211004   0.656   5.609   6.439
 3369SOL     OW11005   4.484   1.723   1.655
 3369SOL    HW111006   4.409   1.697   1.716
 3369SOL    HW211007   4.539   1.795   1.699
 3370SOL     OW11008   5.797   6.600   1.663
 3370SOL    HW111009   5.886   6.635   1.691
 3370SOL    HW211010   5.764   6.651   1.583
 3371SOL     OW11011   2.212   3.679   1.739
 3371SOL    HW111012   2.230   3.607   1.805
 3371SOL    HW211013   2.148   3.745   1.778
 3372SOL     OW11014   6.832   2.317   0.104
 3372SOL    HW111015   6.875   2.255   0.170
 3372SOL    HW211016   6.896   2.335   0.029
 3373SOL     OW11017   0.707   2.188   3.330
 3373SOL    HW111018   0.623   2.234   3.304
 3373SOL    HW211019   0.687   2.093   3.355
 3374SOL     OW11020   1.390   0.451   3.942
 3374SOL    HW111021   1.377   0.373   4.003
 3374SOL    HW211022   1.349   0.430   3.853
 3375SOL     OW11023   6.500   4.517   0.596
 3375SOL    HW111024   6.469   4.450   0.664
 3375SOL    HW211025   6.471   4.486   0.505
 3376SOL     OW11026   3.090   3.431   5.038
 3376SOL    HW111027   3.033   3.355   5.007
 3376SOL    HW211028   3.180   3.397   5.064
 3377SOL     OW11029   6.624   4.572   4.422
 3377SOL    HW111030   6.668   4.599   4.507
 3377SOL    HW211031   6.671   4.491   4.384
 3378SOL     OW11032   0.646   0.055   0.021
 3378SOL    HW111033   0.732   0.014   0.052
 3378SOL    HW211034   0.638   0.045   6.942
 3379SOL     OW11035   1.142   3.065   4.718
 3379SOL    HW111036   1.137   2.975   4.674
 3379SOL    HW211037   1.229   3.109   4.694
 3380SOL     OW11038   4.218   5.601   5.294
 3380SOL    HW111039   4.142   5.652   5.335
 3380SOL    HW211040   4.301   5.657   5.297
 3381SOL     OW11041   6.804   3.159   1.616
 3381SOL    HW111042   6.786   3.131   1.522
 3381SOL    HW211043   6.846   3.250   1.616
 3382SOL     OW11044   0.126   3.045   0.982
 3382SOL    HW111045   0.145   3.114   1.051
 3382SOL    HW211046   0.197   3.048   0.911
 3383SOL     OW11047   3.673   5.246   0.487
 3383SOL    HW111048   3.601   5.290   0.542
 3383SOL    HW211049   3.653   5.261   0.390
 3384SOL     OW11050   2.953   4.666   0.940
 3384SOL    HW111051   3.047   4.663   0.974
 3384SOL    HW211052   2.893   4.620   1.005
 3385SOL     OW11053   6.620   3.166   3.779
 3385SOL    HW111054   6.586   3.248   3.732
 3385SOL    HW211055   6.570   3.086   3.746
 3386SOL     OW11056   6.291   4.501   0.017
 3386SOL    HW111057   6.270   4.551   6.953
 3386SOL    HW211058   6.335   4.414   7.014
 3387SOL     OW11059   5.211   0.325   3.004
 3387SOL    HW111060   5.133   0.372   3.045
 3387SOL    HW211061   5.243   0.375   2.924
 3388SOL     OW11062   5.134   4.292   2.394
 3388SOL    HW111063   5.233   4.283   2.388
 3388SOL    HW211064   5.108   4.384   2.364
 3389SOL     OW11065   6.703   5.476   6.507
 3389SOL    HW111066   6.627   5.460   6.444
 3389SOL    HW211067   6.713   5.574   6.523
 3390SOL     OW11068   4.467   6.577   6.564
 3390SOL    HW111069   4.466   6.660   6.619
 3390SOL    HW211070   4.472   6.497   6.624
 3391SOL     OW11071   5.200   2.147   3.334
 3391SOL    HW111072   5.235   2.103   3.252
 3391SOL    HW211073   5.101   2.158   3.327
 3392SOL     OW11074   3.218   6.973   3.790
 3392SOL    HW111075   3.139   6.981   3.851
 3392SOL    HW211076   3.289   0.017   3.819
 3393SOL     OW11077   5.575   6.775   0.177
 3393SOL    HW111078   5.618   6.863   0.199
 3393SOL    HW211079   5.570   6.763   0.078
 3394SOL     OW11080   4.201   4.468   0.554
 3394SOL    HW111081   4.241   4.385   0.593
 3394SOL    HW211082   4.102   4.458   0.547
 3395SOL     OW11083   4.824   1.672   3.171
 3395SOL    HW111084   4.821   1.581   3.129
 3395SOL    HW211085   4.815   1.741   3.099
 3396SOL     OW11086   5.323   1.487   4.068
 3396SOL    HW111087   5.337   1.533   3.980
 3396SOL    HW211088   5.401   1.505   4.127
 3397SOL     OW11089   3.241   5.391   6.238
 3397SOL    HW111090   3.156   5.359   6.280
 3397SOL    HW211091   3.237   5.377   6.139
 3398SOL     OW11092   0.763   0.008   5.410
 3398SOL    HW111093   0.698   0.040   5.479
 3398SOL    HW211094   0.853   0.045   5.430
 3399SOL     OW11095   6.565   5.008   3.002
 3399SOL    HW111096   6.535   4.945   3.074
 3399SOL    HW211097   6.490   5.069   2.978
 3400SOL     OW11098   6.318   3.512   6.786
 3400SOL    HW111099   6.383   3.446   6.750
 3400SOL    HW211100   6.291   3.486   6.878
 3401SOL     OW11101   6.329   3.607   6.037
 3401SOL    HW111102   6.359   3.565   5.951
 3401SOL    HW211103   6.233   3.634   6.030
 3402SOL     OW11104   6.249   5.482   0.614
 3402SOL    HW111105   6.332   5.479   0.670
 3402SOL    HW211106   6.204   5.393   0.616
 3403SOL     OW11107   5.409   5.415   6.327
 3403SOL    HW111108   5.469   5.365   6.389
 3403SOL    HW211109   5.335   5.355   6.295
 3404SOL     OW11110   4.880   3.006   6.980
 3404SOL    HW111111   4.883   3.057   6.894
 3404SOL    HW211112   4.971   3.002   0.000
 3405SOL     OW11113   5.400   4.846   6.074
 3405SOL    HW111114   5.383   4.748   6.081
 3405SOL    HW211115   5.457   4.876   6.151
 3406SOL     OW11116   2.018   3.468   2.399
 3406SOL    HW111117   2.002   3.541   2.466
 3406SOL    HW211118   1.936   3.412   2.391
 3407SOL     OW11119   3.073   4.565   0.457
 3407SOL    HW111120   3.035   4.482   0.417
 3407SOL    HW211121   3.007   4.604   0.522
 3408SOL     OW11122   4.548   2.520   4.724
 3408SOL    HW111123   4.483   2.460   4.771
 3408SOL    HW211124   4.526   2.523   4.627
 3409SOL     OW11125   3.437   6.223   0.551
 3409SOL    HW111126   3.368   6.172   0.602
 3409SOL    HW211127   3.509   6.160   0.521
 3410SOL     OW11128   5.747   6.259   2.847
 3410SOL    HW111129   5.719   6.355   2.850
 3410SOL    HW211130   5.689   6.205   2.908
 3411SOL     OW11131   6.973   2.889   0.149
 3411SOL    HW111132   7.001   2.984   0.137
 3411SOL    HW211133   6.987   2.838   0.064
 3412SOL     OW11134   4.920   3.711   1.316
 3412SOL    HW111135   4.857   3.783   1.346
 3412SOL    HW211136   5.001   3.711   1.374
 3413SOL     OW11137   6.392   2.216   6.926
 3413SOL    HW111138   6.368   2.304   6.885
 3413SOL    HW211139   6.374   2.218   0.004
 3414SOL     OW11140   3.656   1.866   5.439
 3414SOL    HW111141   3.600   1.940   5.478
 3414SOL    HW211142   3.732   1.846   5.500
 3415SOL     OW11143   2.460   2.599   4.062
 3415SOL    HW111144   2.555   2.568   4.063
 3415SOL    HW211145   2.457   2.697   4.080
 3416SOL     OW11146   5.736   0.170   6.654
 3416SOL    HW111147   5.826   0.131   6.678
 3416SOL    HW211148   5.701   0.222   6.732
 3417SOL     OW11149   0.004   6.678   2.721
 3417SOL    HW111150   7.012   6.603   2.656
 3417SOL    HW211151   0.098   6.713   2.713
 3418SOL     OW11152   3.709   6.123   3.826
 3418SOL    HW111153   3.609   6.121   3.830
 3418SOL    HW211154   3.743   6.204   3.873
 3419SOL     OW11155   3.797   5.582   6.081
 3419SOL    HW111156   3.818   5.521   6.005
 3419SOL    HW211157   3.824   5.676   6.057
 3420SOL     OW11158   5.496   2.929   4.305
 3420SOL    HW111159   5.544   2.841   4.309
 3420SOL    HW211160   5.421   2.929   4.371
 3421SOL     OW11161   5.652   1.842   3.028
 3421SOL    HW111162   5.607   1.931   3.023
 3421SOL    HW211163   5.707   1.827   2.946
 3422SOL     OW11164   2.650   0.854   0.624
 3422SOL    HW111165   2.731   0.858   0.565
 3422SOL    HW211166   2.601   0.768   0.606
 3423SOL     OW11167   0.308   4.291   5.944
 3423SOL    HW111168   0.345   4.276   6.035
 3423SOL    HW211169   0.237   4.223   5.925
 3424SOL     OW11170   3.408   0.413   1.237
 3424SOL    HW111171   3.419   0.330   1.181
 3424SOL    HW211172   3.411   0.494   1.177
 3425SOL     OW11173   4.690   4.731   2.274
 3425SOL    HW111174   4.759   4.709   2.343
 3425SOL    HW211175   4.631   4.653   2.260
 3426SOL     OW11176   4.855   2.914   0.267
 3426SOL    HW111177   4.864   3.013   0.255
 3426SOL    HW211178   4.814   2.874   0.185
 3427SOL     OW11179   0.630   2.115   1.808
 3427SOL    HW111180   0.564   2.142   1.738
 3427SOL    HW211181   0.680   2.195   1.840
 3428SOL     OW11182   4.402   4.794   6.555
 3428SOL    HW111183   4.462   4.871   6.578
 3428SOL    HW211184   4.458   4.717   6.525
 3429SOL     OW11185   0.609   1.307   1.178
 3429SOL    HW111186   0.510   1.305   1.166
 3429SOL    HW211187   0.645   1.396   1.151
 3430SOL     OW11188   2.244   5.174   6.071
 3430SOL    HW111189   2.295   5.094   6.102
 3430SOL    HW211190   2.208   5.157   5.979
 3431SOL     OW11191   2.106   6.728   2.210
 3431SOL    HW111192   2.032   6.665   2.233
 3431SOL    HW211193   2.068   6.811   2.169
 3432SOL     OW11194   2.385   4.697   6.656
 3432SOL    HW111195   2.294   4.664   6.631
 3432SOL    HW211196   2.448   4.619   6.662
 3433SOL     OW11197   1.698   1.052   6.113
 3433SOL    HW111198   1.702   1.067   6.212
 3433SOL    HW211199   1.662   1.133   6.068
 3434SOL     OW11200   3.271   1.840   1.756
 3434SOL    HW111201   3.238   1.812   1.846
 3434SOL    HW211202   3.344   1.907   1.767
 3435SOL     OW11203   2.871   1.189   0.153
 3435SOL    HW111204   2.879   1.289   0.156
 3435SOL    HW211205   2.787   1.164   0.105
 3436SOL     OW11206   3.722   5.659   0.125
 3436SOL    HW111207   3.716   5.636   0.222
 3436SOL    HW211208   3.788   5.733   0.112
 3437SOL     OW11209   2.015   6.804   6.019
 3437SOL    HW111210   2.025   6.874   5.948
 3437SOL    HW211211   1.953   6.838   6.090
 3438SOL     OW11212   0.557   4.219   1.174
 3438SOL    HW111213   0.612   4.135   1.178
 3438SOL    HW211214   0.504   4.228   1.258
 3439SOL     OW11215   3.099   5.860   3.527
 3439SOL    HW111216   3.045   5.777   3.540
 3439SOL    HW211217   3.049   5.938   3.563
 3440SOL     OW11218   4.144   3.350   3.264
 3440SOL    HW111219   4.077   3.406   3.312
 3440SOL    HW211220   4.167   3.393   3.177
 3441SOL     OW11221   0.720   6.196   6.723
 3441SOL    HW111222   0.662   6.116   6.738
 3441SOL    HW211223   0.815   6.173   6.746
 3442SOL     OW11224   2.977   3.781   0.851
 3442SOL    HW111225   3.027   3.700   0.882
 3442SOL    HW211226   2.885   3.754   0.821
 3443SOL     OW11227   3.661   5.632   2.268
 3443SOL    HW111228   3.577   5.669   2.310
 3443SOL    HW211229   3.655   5.533   2.263
 3444SOL     OW11230   5.083   4.796   1.731
 3444SOL    HW111231   5.044   4.867   1.671
 3444SOL    HW211232   5.016   4.723   1.744
 3445SOL     OW11233   0.550   5.214   3.933
 3445SOL    HW111234   0.471   5.200   3.992
 3445SOL    HW211235   0.521   5.260   3.849
 3446SOL     OW11236   5.735   0.404   1.270
 3446SOL    HW111237   5.767   0.477   1.209
 3446SOL    HW211238   5.635   0.401   1.269
 3447SOL     OW11239   5.124   0.748   6.993
 3447SOL    HW111240   5.157   0.839   6.967
 3447SOL    HW211241   5.071   0.755   0.057
 3448SOL     OW11242   2.855   6.280   6.178
 3448SOL    HW111243   2.801   6.302   6.259
 3448SOL    HW211244   2.938   6.232   6.206
 3449SOL     OW11245   6.071   5.170   4.961
 3449SOL    HW111246   6.044   5.189   5.055
 3449SOL    HW211247   6.049   5.074   4.939
 3450SOL     OW11248   1.512   1.172   6.534
 3450SOL    HW111249   1.447   1.153   6.461
 3450SOL    HW211250   1.513   1.096   6.599
 3451SOL     OW11251   1.712   5.932   0.371
 3451SOL    HW111252   1.668   5.878   0.442
 3451SOL    HW211253   1.770   5.873   0.314
 3452SOL     OW11254   5.901   0.811   5.628
 3452SOL    HW111255   5.839   0.736   5.604
 3452SOL    HW211256   5.874   0.848   5.717
 3453SOL     OW11257   5.565   5.949   6.174
 3453SOL    HW111258   5.483   5.972   6.121
 3453SOL    HW211259   5.545   5.953   6.271
 3454SOL     OW11260   1.261   3.545   4.173
 3454SOL    HW111261   1.164   3.559   4.190
 3454SOL    HW211262   1.302   3.497   4.250
 3455SOL     OW11263   2.711   1.527   4.921
 3455SOL    HW111264   2.663   1.514   4.834
 3455SOL    HW211265   2.806   1.497   4.911
 3456SOL     OW11266   4.483   4.571   2.098
 3456SOL    HW111267   4.479   4.482   2.053
 3456SOL    HW211268   4.390   4.604   2.114
 3457SOL     OW11269   4.288   5.189   4.669
 3457SOL    HW111270   4.189   5.197   4.683
 3457SOL    HW211271   4.314   5.093   4.665
 3458SOL     OW11272   4.539   1.801   2.092
 3458SOL    HW111273   4.453   1.771   2.133
 3458SOL    HW211274   4.522   1.879   2.032
 3459SOL     OW11275   5.125   2.019   3.601
 3459SOL    HW111276   5.169   2.098   3.559
 3459SOL    HW211277   5.096   1.955   3.530
 3460SOL     OW11278   3.151   1.790   5.738
 3460SOL    HW111279   3.164   1.874   5.685
 3460SOL    HW211280   3.208   1.794   5.820
 3461SOL     OW11281   5.915   4.588   6.868
 3461SOL    HW111282   5.859   4.655   6.820
 3461SOL    HW211283   5.922   4.612   6.964
 3462SOL     OW11284   0.978   3.558   5.651
 3462SOL    HW111285   1.014   3.650   5.668
 3462SOL    HW211286   0.987   3.503   5.734
 3463SOL     OW11287   0.828   4.095   0.938
 3463SOL    HW111288   0.917   4.141   0.938
 3463SOL    HW211289   0.756   4.163   0.926
 3464SOL     OW11290   0.223   4.211   6.365
 3464SOL    HW111291   0.256   4.241   6.276
 3464SOL    HW211292   0.245   4.115   6.378
 3465SOL     OW11293   2.365   1.673   1.984
 3465SOL    HW111294   2.440   1.692   1.920
 3465SOL    HW211295   2.279   1.666   1.934
 3466SOL     OW11296   6.902   5.462   6.298
 3466SOL    HW111297   6.818   5.507   6.268
 3466SOL    HW211298   6.884   5.409   6.381
 3467SOL     OW11299   1.722   1.566   6.939
 3467SOL    HW111300   1.782   1.493   6.971
 3467SOL    HW211301   1.629   1.531   6.929
 3468SOL     OW11302   3.427   5.091   2.897
 3468SOL    HW111303   3.413   5.059   2.803
 3468SOL    HW211304   3.339   5.111   2.939
 3469SOL     OW11305   6.345   2.209   3.915
 3469SOL    HW111306   6.340   2.158   3.829
 3469SOL    HW211307   6.254   2.240   3.940
 3470SOL     OW11308   0.332   5.180   0.870
 3470SOL    HW111309   0.375   5.100   0.912
 3470SOL    HW211310   0.371   5.263   0.909
 3471SOL     OW11311   4.485   5.101   5.216
 3471SOL    HW111312   4.471   5.164   5.291
 3471SOL    HW211313   4.447   5.140   5.132
 3472SOL     OW11314   2.729   0.924   3.633
 3472SOL    HW111315   2.791   0.993   3.596
 3472SOL    HW211316   2.637   0.962   3.640
 3473SOL     OW11317   5.600   1.684   6.102
 3473SOL    HW111318   5.533   1.664   6.173
 3473SOL    HW211319   5.554   1.720   6.021
 3474SOL     OW11320   2.898   5.032   1.523
 3474SOL    HW111321   2.985   5.046   1.570
 3474SOL    HW211322   2.873   5.114   1.472
 3475SOL     OW11323   1.034   6.358   4.034
 3475SOL    HW111324   0.996   6.314   4.115
 3475SOL    HW211325   1.125   6.395   4.055
 3476SOL     OW11326   3.639   0.215   4.211
 3476SOL    HW111327   3.660   0.280   4.284
 3476SOL    HW211328   3.657   0.122   4.243
 3477SOL     OW11329   3.070   5.397   1.323
 3477SOL    HW111330   3.158   5.439   1.303
 3477SOL    HW211331   3.019   5.454   1.387
 3478SOL     OW11332   2.471   6.212   6.003
 3478SOL    HW111333   2.520   6.292   6.037
 3478SOL    HW211334   2.533   6.156   5.948
 3479SOL     OW11335   0.793   6.852   3.113
 3479SOL    HW111336   0.838   6.762   3.116
 3479SOL    HW211337   0.863   6.923   3.110
 3480SOL     OW11338   6.748   1.448   4.157
 3480SOL    HW111339   6.657   1.420   4.127
 3480SOL    HW211340   6.808   1.457   4.077
 3481SOL     OW11341   4.508   6.814   6.681
 3481SOL    HW111342   4.597   6.847   6.649
 3481SOL    HW211343   4.435   6.868   6.639
 3482SOL     OW11344   5.505   1.471   1.106
 3482SOL    HW111345   5.502   1.425   1.018
 3482SOL    HW211346   5.545   1.562   1.095
 3483SOL     OW11347   3.156   0.622   0.634
 3483SOL    HW111348   3.111   0.534   0.648
 3483SOL    HW211349   3.206   0.621   0.547
 3484SOL     OW11350   2.908   3.245   2.793
 3484SOL    HW111351   2.842   3.310   2.756
 3484SOL    HW211352   2.944   3.187   2.720
 3485SOL     OW11353   1.419   0.822   4.975
 3485SOL    HW111354   1.393   0.767   5.054
 3485SOL    HW211355   1.425   0.919   5.002
 3486SOL     OW11356   3.866   1.268   2.091
 3486SOL    HW111357   3.768   1.271   2.070
 3486SOL    HW211358   3.898   1.360   2.110
 3487SOL     OW11359   5.394   1.551   6.680
 3487SOL    HW111360   5.407   1.605   6.763
 3487SOL    HW211361   5.482   1.537   6.634
 3488SOL     OW11362   5.779   3.297   4.377
 3488SOL    HW111363   5.769   3.353   4.459
 3488SOL    HW211364   5.843   3.222   4.397
 3489SOL     OW11365   3.370   6.638   0.515
 3489SOL    HW111366   3.412   6.701   0.449
 3489SOL    HW211367   3.405   6.658   0.606
 3490SOL     OW11368   4.536   4.621   0.305
 3490SOL    HW111369   4.500   4.571   0.383
 3490SOL    HW211370   4.529   4.719   0.322
 3491SOL     OW11371   6.874   2.836   6.021
 3491SOL    HW111372   6.901   2.929   5.994
 3491SOL    HW211373   6.774   2.830   6.021
 3492SOL     OW11374   0.980   5.464   0.291
 3492SOL    HW111375   0.971   5.396   0.364
 3492SOL    HW211376   1.037   5.426   0.218
 3493SOL     OW11377   5.871   5.117   0.188
 3493SOL    HW111378   5.943   5.098   0.122
 3493SOL    HW211379   5.877   5.213   0.217
 3494SOL     OW11380   4.443   6.977   0.612
 3494SOL    HW111381   4.448   0.030   0.544
 3494SOL    HW211382   4.352   6.976   0.654
 3495SOL     OW11383   4.392   4.542   2.682
 3495SOL    HW111384   4.401   4.635   2.646
 3495SOL    HW211385   4.404   4.476   2.607
 3496SOL     OW11386   1.098   3.082   1.240
 3496SOL    HW111387   1.165   3.153   1.221
 3496SOL    HW211388   1.034   3.115   1.310
 3497SOL     OW11389   4.201   0.445   2.788
 3497SOL    HW111390   4.151   0.385   2.850
 3497SOL    HW211391   4.146   0.460   2.705
 3498SOL     OW11392   3.610   1.639   0.833
 3498SOL    HW111393   3.511   1.642   0.818
 3498SOL    HW211394   3.652   1.720   0.792
 3499SOL     OW11395   6.613   3.365   4.713
 3499SOL    HW111396   6.580   3.389   4.804
 3499SOL    HW211397   6.562   3.416   4.643
 3500SOL     OW11398   6.616   4.648   6.227
 3500SOL    HW111399   6.668   4.729   6.197
 3500SOL    HW211400   6.629   4.574   6.161
 3501SOL     OW11401   0.165   4.907   4.601
 3501SOL    HW111402   0.099   4.982   4.595
 3501SOL    HW211403   0.256   4.944   4.618
 3502SOL     OW11404   0.483   1.968   1.963
 3502SOL    HW111405   0.483   1.874   1.929
 3502SOL    HW211406   0.555   2.020   1.916
 3503SOL     OW11407   5.019   5.758   5.097
 3503SOL    HW111408   4.953   5.824   5.060
 3503SOL    HW211409   4.974   5.700   5.165
 3504SOL     OW11410   2.930   3.072   1.139
 3504SOL    HW111411   2.916   3.101   1.044
 3504SOL    HW211412   2.895   3.142   1.201
 3505SOL     OW11413   5.275   5.378   5.038
 3505SOL    HW111414   5.308   5.472   5.044
 3505SOL    HW211415   5.177   5.378   5.016
 3506SOL     OW11416   4.182   5.625   4.944
 3506SOL    HW111417   4.189   5.583   5.034
 3506SOL    HW211418   4.273   5.632   4.902
 3507SOL     OW11419   1.453   0.652   6.605
 3507SOL    HW111420   1.511   0.652   6.523
 3507SOL    HW211421   1.509   0.675   6.685
 3508SOL     OW11422   4.459   2.473   6.575
 3508SOL    HW111423   4.386   2.410   6.601
 3508SOL    HW211424   4.520   2.487   6.653
 3509SOL     OW11425   5.773   5.831   6.831
 3509SOL    HW111426   5.846   5.802   6.770
 3509SOL    HW211427   5.810   5.845   6.923
 3510SOL     OW11428   1.584   2.449   2.060
 3510SOL    HW111429   1.490   2.414   2.060
 3510SOL    HW211430   1.646   2.376   2.088
 3511SOL     OW11431   1.615   3.153   6.699
 3511SOL    HW111432   1.648   3.181   6.609
 3511SOL    HW211433   1.555   3.224   6.736
 3512SOL     OW11434   0.964   4.285   0.271
 3512SOL    HW111435   0.929   4.379   0.279
 3512SOL    HW211436   1.062   4.285   0.285
 3513SOL     OW11437   6.119   4.534   0.587
 3513SOL    HW111438   6.131   4.613   0.646
 3513SOL    HW211439   6.024   4.530   0.555
 3514SOL     OW11440   0.408   6.937   1.777
 3514SOL    HW111441   0.354   6.915   1.695
 3514SOL    HW211442   0.431   0.014   1.777
 3515SOL     OW11443   3.346   5.866   2.739
 3515SOL    HW111444   3.283   5.944   2.738
 3515SOL    HW211445   3.303   5.788   2.693
 3516SOL     OW11446   3.707   0.722   0.867
 3516SOL    HW111447   3.632   0.759   0.922
 3516SOL    HW211448   3.717   0.624   0.886
 3517SOL     OW11449   0.530   0.921   0.314
 3517SOL    HW111450   0.602   0.878   0.259
 3517SOL    HW211451   0.456   0.951   0.254
 3518SOL     OW11452   5.128   3.898   6.054
 3518SOL    HW111453   5.176   3.835   5.992
 3518SOL    HW211454   5.033   3.908   6.024
 3519SOL     OW11455   1.146   0.438   6.549
 3519SOL    HW111456   1.188   0.521   6.512
 3519SOL    HW211457   1.218   0.375   6.581
 3520SOL     OW11458   3.617   4.630   1.436
 3520SOL    HW111459   3.656   4.721   1.448
 3520SOL    HW211460   3.631   4.576   1.519
 3521SOL     OW11461   5.405   3.012   1.284
 3521SOL    HW111462   5.385   3.078   1.212
 3521SOL    HW211463   5.499   2.979   1.273
 3522SOL     OW11464   3.193   5.241   2.085
 3522SOL    HW111465   3.114   5.217   2.029
 3522SOL    HW211466   3.238   5.322   2.048
 3523SOL     OW11467   3.160   4.563   5.301
 3523SOL    HW111468   3.074   4.534   5.259
 3523SOL    HW211469   3.174   4.661   5.284
 3524SOL     OW11470   2.659   0.940   1.001
 3524SOL    HW111471   2.567   0.903   1.011
 3524SOL    HW211472   2.660   1.011   0.931
 3525SOL     OW11473   0.570   3.184   1.980
 3525SOL    HW111474   0.626   3.221   2.054
 3525SOL    HW211475   0.623   3.182   1.895
 3526SOL     OW11476   1.482   0.693   3.854
 3526SOL    HW111477   1.438   0.605   3.872
 3526SOL    HW211478   1.424   0.747   3.794
 3527SOL     OW11479   4.974   2.954   6.072
 3527SOL    HW111480   4.985   2.958   5.973
 3527SOL    HW211481   5.037   3.018   6.115
 3528SOL     OW11482   0.961   6.192   3.140
 3528SOL    HW111483   0.931   6.162   3.231
 3528SOL    HW211484   0.918   6.280   3.119
 3529SOL     OW11485   4.152   6.735   5.663
 3529SOL    HW111486   4.190   6.658   5.613
 3529SOL    HW211487   4.164   6.819   5.611
 3530SOL     OW11488   2.621   5.966   2.875
 3530SOL    HW111489   2.558   5.898   2.914
 3530SOL    HW211490   2.697   5.919   2.831
 3531SOL     OW11491   5.793   4.011   0.385
 3531SOL    HW111492   5.871   4.072   0.374
 3531SOL    HW211493   5.710   4.064   0.400
 3532SOL     OW11494   2.562   0.720   0.058
 3532SOL    HW111495   2.641   0.739   0.116
 3532SOL    HW211496   2.584   0.647   7.013
 3533SOL     OW11497   1.329   2.172   3.386
 3533SOL    HW111498   1.346   2.223   3.470
 3533SOL    HW211499   1.230   2.171   3.368
 3534SOL     OW11500   5.749   1.905   5.366
 3534SOL    HW111501   5.676   1.939   5.426
 3534SOL    HW211502   5.762   1.970   5.291
 3535SOL     OW11503   6.820   5.986   0.142
 3535SOL    HW111504   6.860   5.899   0.116
 3535SOL    HW211505   6.797   6.038   0.060
 3536SOL     OW11506   1.675   3.305   3.351
 3536SOL    HW111507   1.604   3.249   3.393
 3536SOL    HW211508   1.672   3.397   3.390
 3537SOL     OW11509   2.449   4.771   1.078
 3537SOL    HW111510   2.434   4.868   1.060
 3537SOL    HW211511   2.486   4.727   0.997
 3538SOL     OW11512   3.517   0.902   4.106
 3538SOL    HW111513   3.615   0.915   4.120
 3538SOL    HW211514   3.469   0.988   4.124
 3539SOL     OW11515   6.226   3.517   5.470
 3539SOL    HW111516   6.249   3.523   5.373
 3539SOL    HW211517   6.305   3.482   5.521
 3540SOL     OW11518   1.905   3.325   6.736
 3540SOL    HW111519   1.947   3.321   6.645
 3540SOL    HW211520   1.816   3.371   6.730
 3541SOL     OW11521   2.807   2.776   0.499
 3541SOL    HW111522   2.770   2.867   0.517
 3541SOL    HW211523   2.851   2.776   0.409
 3542SOL     OW11524   5.689   2.364   0.284
 3542SOL    HW111525   5.741   2.373   0.369
 3542SOL    HW211526   5.626   2.441   0.275
 3543SOL     OW11527   1.370   3.621   3.225
 3543SOL    HW111528   1.411   3.590   3.311
 3543SOL    HW211529   1.272   3.603   3.227
 3544SOL     OW11530   3.096   4.557   0.073
 3544SOL    HW111531   3.026   4.512   0.127
 3544SOL    HW211532   3.102   4.514   7.002
 3545SOL     OW11533   3.978   5.162   0.384
 3545SOL    HW111534   3.927   5.100   0.324
 3545SOL    HW211535   4.059   5.115   0.419
 3546SOL     OW11536   6.728   4.354   3.284
 3546SOL    HW111537   6.772   4.360   3.194
 3546SOL    HW211538   6.651   4.418   3.288
 3547SOL     OW11539   6.731   2.890   4.329
 3547SOL    HW111540   6.742   2.964   4.263
 3547SOL    HW211541   6.635   2.860   4.329
 3548SOL     OW11542   5.010   1.292   5.828
 3548SOL    HW111543   4.976   1.324   5.739
 3548SOL    HW211544   4.981   1.355   5.900
 3549SOL     OW11545   2.230   5.165   6.681
 3549SOL    HW111546   2.295   5.090   6.695
 3549SOL    HW211547   2.240   5.232   6.755
 3550SOL     OW11548   5.520   2.554   5.073
 3550SOL    HW111549   5.509   2.511   4.984
 3550SOL    HW211550   5.546   2.485   5.141
 3551SOL     OW11551   3.455   1.745   5.195
 3551SOL    HW111552   3.450   1.685   5.274
 3551SOL    HW211553   3.409   1.831   5.215
 3552SOL     OW11554   6.321   5.664   1.929
 3552SOL    HW111555   6.390   5.596   1.905
 3552SOL    HW211556   6.278   5.639   2.016
 3553SOL     OW11557   3.046   5.728   6.452
 3553SOL    HW111558   3.077   5.709   6.359
 3553SOL    HW211559   2.962   5.782   6.448
 3554SOL     OW11560   3.585   3.685   0.918
 3554SOL    HW111561   3.621   3.771   0.954
 3554SOL    HW211562   3.647   3.650   0.849
 3555SOL     OW11563   2.191   2.368   4.554
 3555SOL    HW111564   2.156   2.460   4.537
 3555SOL    HW211565   2.245   2.338   4.476
 3556SOL     OW11566   3.815   1.017   4.820
 3556SOL    HW111567   3.873   1.098   4.812
 3556SOL    HW211568   3.873   0.935   4.822
 3557SOL     OW11569   0.604   0.328   2.587
 3557SOL    HW111570   0.536   0.265   2.547
 3557SOL    HW211571   0.604   0.414   2.535
 3558SOL     OW11572   2.428   5.886   0.817
 3558SOL    HW111573   2.369   5.830   0.874
 3558SOL    HW211574   2.391   5.892   0.725
 3559SOL     OW11575   2.944   6.939   4.824
 3559SOL    HW111576   2.904   6.904   4.908
 3559SOL    HW211577   2.884   6.917   4.747
 3560SOL     OW11578   1.542   4.927   4.196
 3560SOL    HW111579   1.546   4.998   4.266
 3560SOL    HW211580   1.517   4.839   4.237
 3561SOL     OW11581   5.894   4.301   5.576
 3561SOL    HW111582   5.818   4.339   5.629
 3561SOL    HW211583   5.859   4.231   5.513
 3562SOL     OW11584   3.582   1.580   4.229
 3562SOL    HW111585   3.600   1.485   4.202
 3562SOL    HW211586   3.629   1.599   4.316
 3563SOL     OW11587   5.946   2.429   6.342
 3563SOL    HW111588   5.991   2.396   6.426
 3563SOL    HW211589   6.012   2.426   6.267
 3564SOL     OW11590   0.396   4.970   2.671
 3564SOL    HW111591   0.451   5.028   2.732
 3564SOL    HW211592   0.312   4.945   2.718
 3565SOL     OW11593   3.669   4.892   2.929
 3565SOL    HW111594   3.629   4.803   2.910
 3565SOL    HW211595   3.735   4.884   3.004
 3566SOL     OW11596   6.770   0.759   5.560
 3566SOL    HW111597   6.770   0.703   5.478
 3566SOL    HW211598   6.696   0.826   5.555
 3567SOL     OW11599   0.289   3.190   6.185
 3567SOL    HW111600   0.299   3.106   6.131
 3567SOL    HW211601   0.306   3.170   6.281
 3568SOL     OW11602   6.888   4.085   5.651
 3568SOL    HW111603   6.790   4.103   5.656
 3568SOL    HW211604   6.904   3.986   5.651
 3569SOL     OW11605   2.095   1.773   5.382
 3569SOL    HW111606   2.152   1.750   5.303
 3569SOL    HW211607   2.006   1.729   5.371
 3570SOL     OW11608   5.048   0.249   5.789
 3570SOL    HW111609   5.105   0.187   5.734
 3570SOL    HW211610   5.007   0.198   5.865
 3571SOL     OW11611   0.288   5.592   6.925
 3571SOL    HW111612   0.200   5.544   6.933
 3571SOL    HW211613   0.333   5.595   7.014
 3572SOL     OW11614   5.609   3.962   3.982
 3572SOL    HW111615   5.680   4.026   4.009
 3572SOL    HW211616   5.611   3.881   4.042
 3573SOL     OW11617   0.892   4.287   4.189
 3573SOL    HW111618   0.990   4.303   4.191
 3573SOL    HW211619   0.864   4.243   4.274
 3574SOL     OW11620   0.561   4.544   6.971
 3574SOL    HW111621   0.638   4.588   7.018
 3574SOL    HW211622   0.593   4.462   6.924
 3575SOL     OW11623   5.398   4.969   3.423
 3575SOL    HW111624   5.306   4.983   3.459
 3575SOL    HW211625   5.464   5.019   3.479
 3576SOL     OW11626   1.680   1.776   5.834
 3576SOL    HW111627   1.702   1.838   5.759
 3576SOL    HW211628   1.582   1.756   5.833
 3577SOL     OW11629   1.325   2.553   6.654
 3577SOL    HW111630   1.327   2.602   6.567
 3577SOL    HW211631   1.411   2.567   6.702
 3578SOL     OW11632   3.651   3.439   6.853
 3578SOL    HW111633   3.646   3.537   6.833
 3578SOL    HW211634   3.704   3.393   6.781
 3579SOL     OW11635   0.273   3.755   4.641
 3579SOL    HW111636   0.220   3.683   4.596
 3579SOL    HW211637   0.250   3.758   4.738
 3580SOL     OW11638   6.142   1.802   1.337
 3580SOL    HW111639   6.060   1.764   1.381
 3580SOL    HW211640   6.223   1.756   1.373
 3581SOL     OW11641   6.412   0.724   3.733
 3581SOL    HW111642   6.477   0.654   3.764
 3581SOL    HW211643   6.320   0.700   3.763
 3582SOL     OW11644   0.577   2.763   6.563
 3582SOL    HW111645   0.602   2.826   6.489
 3582SOL    HW211646   0.659   2.716   6.596
 3583SOL     OW11647   0.550   3.946   6.778
 3583SOL    HW111648   0.552   3.929   6.680
 3583SOL    HW211649   0.639   3.924   6.818
 3584SOL     OW11650   6.340   6.055   6.321
 3584SOL    HW111651   6.329   6.151   6.348
 3584SOL    HW211652   6.259   6.025   6.271
 3585SOL     OW11653   3.476   5.274   5.454
 3585SOL    HW111654   3.446   5.178   5.459
 3585SOL    HW211655   3.480   5.313   5.546
 3586SOL     OW11656   6.813   2.363   5.523
 3586SOL    HW111657   6.759   2.445   5.536
 3586SOL    HW211658   6.898   2.386   5.475
 3587SOL     OW11659   2.598   5.598   0.361
 3587SOL    HW111660   2.693   5.603   0.393
 3587SOL    HW211661   2.580   5.505   0.327
 3588SOL     OW11662   1.005   2.953   5.704
 3588SOL    HW111663   0.975   2.858   5.689
 3588SOL    HW211664   1.074   2.976   5.636
 3589SOL     OW11665   3.771   0.961   4.172
 3589SOL    HW111666   3.806   0.879   4.217
 3589SOL    HW211667   3.807   1.042   4.218
 3590SOL     OW11668   6.968   4.194   6.347
 3590SOL    HW111669   0.043   4.201   6.375
 3590SOL    HW211670   6.909   4.182   6.427
 3591SOL     OW11671   4.889   3.714   6.630
 3591SOL    HW111672   4.794   3.696   6.655
 3591SOL    HW211673   4.943   3.631   6.645
 3592SOL     OW11674   5.540   3.675   3.189
 3592SOL    HW111675   5.600   3.732   3.246
 3592SOL    HW211676   5.448   3.675   3.228
 3593SOL     OW11677   2.192   6.499   4.485
 3593SOL    HW111678   2.194   6.408   4.528
 3593SOL    HW211679   2.284   6.536   4.482
 3594SOL     OW11680   3.901   0.661   2.289
 3594SOL    HW111681   3.868   0.642   2.197
 3594SOL    HW211682   4.000   0.646   2.293
 3595SOL     OW11683   1.956   6.200   6.396
 3595SOL    HW111684   2.035   6.160   6.349
 3595SOL    HW211685   1.872   6.164   6.355
 3596SOL     OW11686   0.009   1.847   2.980
 3596SOL    HW111687   7.017   1.749   2.997
 3596SOL    HW211688   6.942   1.894   2.990
 3597SOL     OW11689   2.827   6.545   5.107
 3597SOL    HW111690   2.901   6.532   5.172
 3597SOL    HW211691   2.765   6.617   5.140
 3598SOL     OW11692   1.249   0.563   5.619
 3598SOL    HW111693   1.294   0.510   5.691
 3598SOL    HW211694   1.190   0.631   5.661
 3599SOL     OW11695   0.856   1.885   5.452
 3599SOL    HW111696   0.866   1.788   5.428
 3599SOL    HW211697   0.772   1.921   5.411
 3600SOL     OW11698   6.859   3.512   0.928
 3600SOL    HW111699   6.950   3.513   0.969
 3600SOL    HW211700   6.791   3.487   0.997
 3601SOL     OW11701   6.465   4.173   0.485
 3601SOL    HW111702   6.463   4.153   0.387
 3601SOL    HW211703   6.534   4.242   0.504
 3602SOL     OW11704   1.868   1.364   1.413
 3602SOL    HW111705   1.928   1.292   1.379
 3602SOL    HW211706   1.917   1.451   1.415
 3603SOL     OW11707   3.588   6.479   3.814
 3603SOL    HW111708   3.580   6.422   3.733
 3603SOL    HW211709   3.589   6.575   3.787
 3604SOL     OW11710   6.374   4.570   3.900
 3604SOL    HW111711   6.371   4.479   3.943
 3604SOL    HW211712   6.317   4.569   3.818
 3605SOL     OW11713   6.047   4.687   6.061
 3605SOL    HW111714   6.058   4.664   5.964
 3605SOL    HW211715   5.975   4.630   6.101
 3606SOL     OW11716   6.513   5.040   5.569
 3606SOL    HW111717   6.612   5.050   5.561
 3606SOL    HW211718   6.472   5.126   5.601
 3607SOL     OW11719   5.271   6.553   0.803
 3607SOL    HW111720   5.338   6.627   0.798
 3607SOL    HW211721   5.272   6.514   0.895
 3608SOL     OW11722   6.821   1.894   1.999
 3608SOL    HW111723   6.834   1.871   1.903
 3608SOL    HW211724   6.854   1.818   2.056
 3609SOL     OW11725   0.338   0.355   4.323
 3609SOL    HW111726   0.366   0.260   4.338
 3609SOL    HW211727   0.340   0.404   4.410
 3610SOL     OW11728   0.628   0.338   5.405
 3610SOL    HW111729   0.658   0.378   5.319
 3610SOL    HW211730   0.686   0.371   5.479
 3611SOL     OW11731   3.875   4.914   5.486
 3611SOL    HW111732   3.806   4.874   5.425
 3611SOL    HW211733   3.950   4.849   5.497
 3612SOL     OW11734   6.248   0.040   5.519
 3612SOL    HW111735   6.204   7.003   5.588
 3612SOL    HW211736   6.310   7.004   5.464
 3613SOL     OW11737   5.627   5.139   1.365
 3613SOL    HW111738   5.567   5.129   1.285
 3613SOL    HW211739   5.678   5.224   1.358
 3614SOL     OW11740   3.803   3.598   3.643
 3614SOL    HW111741   3.797   3.606   3.543
 3614SOL    HW211742   3.849   3.679   3.680
 3615SOL     OW11743   5.915   6.409   6.006
 3615SOL    HW111744   5.968   6.414   6.090
 3615SOL    HW211745   5.832   6.355   6.021
 3616SOL     OW11746   6.885   1.425   6.278
 3616SOL    HW111747   6.836   1.338   6.278
 3616SOL    HW211748   6.861   1.477   6.359
 3617SOL     OW11749   5.155   1.338   6.657
 3617SOL    HW111750   5.167   1.272   6.584
 3617SOL    HW211751   5.230   1.404   6.655
 3618SOL     OW11752   1.744   1.998   5.656
 3618SOL    HW111753   1.758   2.094   5.632
 3618SOL    HW211754   1.754   1.941   5.574
 3619SOL     OW11755   5.877   2.488   4.001
 3619SOL    HW111756   5.950   2.548   4.035
 3619SOL    HW211757   5.851   2.516   3.909
 3620SOL     OW11758   6.024   5.441   5.671
 3620SOL    HW111759   6.085   5.418   5.596
 3620SOL    HW211760   6.015   5.363   5.733
 3621SOL     OW11761   2.886   2.027   5.897
 3621SOL    HW111762   2.833   2.110   5.879
 3621SOL    HW211763   2.969   2.028   5.841
 3622SOL     OW11764   2.802   2.138   3.261
 3622SOL    HW111765   2.792   2.128   3.360
 3622SOL    HW211766   2.810   2.048   3.219
 3623SOL     OW11767   5.795   6.016   3.981
 3623SOL    HW111768   5.798   6.113   3.955
 3623SOL    HW211769   5.867   5.966   3.933
 3624SOL     OW11770   2.061   0.099   2.504
 3624SOL    HW111771   2.036   0.051   2.587
 3624SOL    HW211772   2.036   0.195   2.512
 3625SOL     OW11773   6.003   3.196   6.889
 3625SOL    HW111774   5.998   3.257   6.809
 3625SOL    HW211775   6.091   3.208   6.934
 3626SOL     OW11776   1.744   3.697   5.403
 3626SOL    HW111777   1.812   3.759   5.364
 3626SOL    HW211778   1.789   3.611   5.428
 3627SOL     OW11779   3.855   3.097   3.552
 3627SOL    HW111780   3.912   3.169   3.591
 3627SOL    HW211781   3.845   3.113   3.453
 3628SOL     OW11782   1.784   6.894   1.390
 3628SOL    HW111783   1.770   6.972   1.451
 3628SOL    HW211784   1.697   6.866   1.350
 3629SOL     OW11785   6.614   2.214   3.981
 3629SOL    HW111786   6.514   2.220   3.976
 3629SOL    HW211787   6.650   2.183   3.892
 3630SOL     OW11788   5.637   3.026   3.367
 3630SOL    HW111789   5.574   3.103   3.373
 3630SOL    HW211790   5.724   3.057   3.329
 3631SOL     OW11791   1.993   6.813   3.893
 3631SOL    HW111792   1.909   6.820   3.947
 3631SOL    HW211793   2.056   6.886   3.919
 3632SOL     OW11794   5.355   0.566   0.549
 3632SOL    HW111795   5.325   0.611   0.464
 3632SOL    HW211796   5.403   0.632   0.606
 3633SOL     OW11797   3.291   1.335   5.885
 3633SOL    HW111798   3.330   1.427   5.885
 3633SOL    HW211799   3.335   1.280   5.956
 3634SOL     OW11800   0.670   5.201   5.274
 3634SOL    HW111801   0.766   5.200   5.245
 3634SOL    HW211802   0.652   5.285   5.325
 3635SOL     OW11803   2.627   0.373   5.963
 3635SOL    HW111804   2.573   0.423   6.030
 3635SOL    HW211805   2.590   0.281   5.951
 3636SOL     OW11806   1.091   5.800   6.434
 3636SOL    HW111807   1.051   5.709   6.444
 3636SOL    HW211808   1.048   5.848   6.358
 3637SOL     OW11809   6.499   2.248   1.311
 3637SOL    HW111810   6.516   2.339   1.349
 3637SOL    HW211811   6.448   2.257   1.225
 3638SOL     OW11812   0.177   4.346   4.245
 3638SOL    HW111813   0.102   4.409   4.266
 3638SOL    HW211814   0.166   4.262   4.299
 3639SOL     OW11815   3.770   3.607   0.712
 3639SOL    HW111816   3.821   3.525   0.687
 3639SOL    HW211817   3.834   3.679   0.739
 3640SOL     OW11818   3.752   0.082   6.769
 3640SOL    HW111819   3.801   0.042   6.692
 3640SOL    HW211820   3.670   0.027   6.789
 3641SOL     OW11821   4.807   3.073   3.960
 3641SOL    HW111822   4.834   3.040   3.870
 3641SOL    HW211823   4.717   3.036   3.984
 3642SOL     OW11824   4.978   0.799   0.192
 3642SOL    HW111825   4.903   0.737   0.217
 3642SOL    HW211826   4.941   0.879   0.145
 3643SOL     OW11827   2.829   5.686   5.105
 3643SOL    HW111828   2.739   5.712   5.138
 3643SOL    HW211829   2.821   5.604   5.048
 3644SOL     OW11830   6.815   1.246   1.387
 3644SOL    HW111831   6.863   1.257   1.301
 3644SOL    HW211832   6.807   1.335   1.433
 3645SOL     OW11833   6.503   1.583   3.882
 3645SOL    HW111834   6.537   1.677   3.890
 3645SOL    HW211835   6.405   1.585   3.861
 3646SOL     OW11836   6.499   4.485   6.417
 3646SOL    HW111837   6.543   4.395   6.418
 3646SOL    HW211838   6.534   4.538   6.339
 3647SOL     OW11839   2.506   3.754   0.427
 3647SOL    HW111840   2.539   3.690   0.357
 3647SOL    HW211841   2.457   3.829   0.383
 3648SOL     OW11842   3.146   5.301   3.277
 3648SOL    HW111843   3.232   5.254   3.294
 3648SOL    HW211844   3.152   5.351   3.190
 3649SOL     OW11845   4.645   3.034   1.600
 3649SOL    HW111846   4.616   3.037   1.696
 3649SOL    HW211847   4.565   3.038   1.541
 3650SOL     OW11848   0.123   4.775   6.982
 3650SOL    HW111849   0.139   4.871   7.003
 3650SOL    HW211850   0.061   4.767   6.905
 3651SOL     OW11851   0.350   6.118   3.214
 3651SOL    HW111852   0.353   6.086   3.309
 3651SOL    HW211853   0.428   6.081   3.164
 3652SOL     OW11854   5.922   6.288   3.252
 3652SOL    HW111855   5.976   6.242   3.181
 3652SOL    HW211856   5.980   6.351   3.303
 3653SOL     OW11857   0.076   0.652   3.671
 3653SOL    HW111858   0.073   0.752   3.667
 3653SOL    HW211859   0.172   0.622   3.671
 3654SOL     OW11860   1.947   6.390   0.507
 3654SOL    HW111861   1.969   6.477   0.464
 3654SOL    HW211862   1.946   6.317   0.438
 3655SOL     OW11863   1.392   0.075   3.570
 3655SOL    HW111864   1.434   0.143   3.629
 3655SOL    HW211865   1.460   0.007   3.542
 3656SOL     OW11866   1.432   3.583   1.860
 3656SOL    HW111867   1.340   3.616   1.841
 3656SOL    HW211868   1.485   3.655   1.906
 3657SOL     OW11869   5.229   5.709   6.223
 3657SOL    HW111870   5.146   5.758   6.197
 3657SOL    HW211871   5.297   5.717   6.149
 3658SOL     OW11872   1.712   6.002   3.809
 3658SOL    HW111873   1.756   6.082   3.848
 3658SOL    HW211874   1.779   5.928   3.800
 3659SOL     OW11875   2.308   3.273   5.889
 3659SOL    HW111876   2.295   3.372   5.891
 3659SOL    HW211877   2.361   3.248   5.809
 3660SOL     OW11878   4.924   0.053   3.033
 3660SOL    HW111879   4.935   0.059   3.132
 3660SOL    HW211880   4.835   0.090   3.006
 3661SOL     OW11881   4.952   1.941   5.515
 3661SOL    HW111882   4.889   1.877   5.470
 3661SOL    HW211883   4.912   1.972   5.602
 3662SOL     OW11884   4.385   0.784   3.300
 3662SOL    HW111885   4.298   0.797   3.251
 3662SOL    HW211886   4.385   0.695   3.344
 3663SOL     OW11887   2.335   1.865   0.590
 3663SOL    HW111888   2.339   1.891   0.687
 3663SOL    HW211889   2.267   1.921   0.543
 3664SOL     OW11890   4.327   1.986   1.549
 3664SOL    HW111891   4.295   1.967   1.456
 3664SOL    HW211892   4.418   1.945   1.562
 3665SOL     OW11893   1.254   6.278   5.725
 3665SOL    HW111894   1.240   6.182   5.702
 3665SOL    HW211895   1.333   6.287   5.786
 3666SOL     OW11896   2.135   3.871   2.832
 3666SOL    HW111897   2.104   3.900   2.923
 3666SOL    HW211898   2.183   3.946   2.787
 3667SOL     OW11899   6.891   0.840   0.631
 3667SOL    HW111900   6.946   0.922   0.650
 3667SOL    HW211901   6.876   0.790   0.716
 3668SOL     OW11902   1.740   0.887   2.409
 3668SOL    HW111903   1.758   0.901   2.312
 3668SOL    HW211904   1.709   0.972   2.450
 3669SOL     OW11905   6.192   1.047   3.782
 3669SOL    HW111906   6.099   1.013   3.784
 3669SOL    HW211907   6.251   0.988   3.838
 3670SOL     OW11908   2.512   4.215   0.481
 3670SOL    HW111909   2.440   4.260   0.534
 3670SOL    HW211910   2.564   4.285   0.431
 3671SOL     OW11911   6.423   0.474   3.924
 3671SOL    HW111912   6.466   0.384   3.926
 3671SOL    HW211913   6.332   0.468   3.963
 3672SOL     OW11914   5.292   2.228   1.722
 3672SOL    HW111915   5.196   2.252   1.703
 3672SOL    HW211916   5.323   2.278   1.802
 3673SOL     OW11917   3.436   0.069   6.063
 3673SOL    HW111918   3.361   0.003   6.057
 3673SOL    HW211919   3.522   0.020   6.074
 3674SOL     OW11920   0.234   0.165   4.737
 3674SOL    HW111921   0.257   0.243   4.795
 3674SOL    HW211922   0.135   0.152   4.737
 3675SOL     OW11923   1.699   3.093   5.011
 3675SOL    HW111924   1.732   3.126   5.100
 3675SOL    HW211925   1.740   3.148   4.938
 3676SOL     OW11926   4.708   4.681   4.796
 3676SOL    HW111927   4.740   4.749   4.863
 3676SOL    HW211928   4.651   4.613   4.843
 3677SOL     OW11929   1.711   6.524   3.300
 3677SOL    HW111930   1.697   6.590   3.226
 3677SOL    HW211931   1.801   6.539   3.341
 3678SOL     OW11932   1.100   3.782   3.913
 3678SOL    HW111933   1.040   3.702   3.908
 3678SOL    HW211934   1.059   3.851   3.973
 3679SOL     OW11935   2.069   0.413   3.321
 3679SOL    HW111936   2.104   0.382   3.410
 3679SOL    HW211937   2.065   0.335   3.258
 3680SOL     OW11938   5.677   2.274   3.115
 3680SOL    HW111939   5.658   2.366   3.148
 3680SOL    HW211940   5.760   2.239   3.160
 3681SOL     OW11941   0.761   0.803   5.044
 3681SOL    HW111942   0.838   0.867   5.038
 3681SOL    HW211943   0.716   0.813   5.133
 3682SOL     OW11944   5.075   2.336   0.024
 3682SOL    HW111945   5.081   2.254   6.988
 3682SOL    HW211946   4.980   2.353   0.048
 3683SOL     OW11947   6.744   6.882   3.474
 3683SOL    HW111948   6.794   6.966   3.454
 3683SOL    HW211949   6.808   6.811   3.504
 3684SOL     OW11950   1.228   4.007   6.987
 3684SOL    HW111951   1.301   4.032   6.924
 3684SOL    HW211952   1.242   4.054   0.055
 3685SOL     OW11953   6.652   6.626   6.523
 3685SOL    HW111954   6.671   6.722   6.500
 3685SOL    HW211955   6.725   6.592   6.582
 3686SOL     OW11956   6.359   6.142   3.480
 3686SOL    HW111957   6.340   6.193   3.564
 3686SOL    HW211958   6.389   6.205   3.409
 3687SOL     OW11959   3.764   6.403   5.723
 3687SOL    HW111960   3.835   6.410   5.792
 3687SOL    HW211961   3.684   6.357   5.761
 3688SOL     OW11962   0.480   3.426   6.164
 3688SOL    HW111963   0.443   3.333   6.167
 3688SOL    HW211964   0.547   3.434   6.091
 3689SOL     OW11965   1.733   0.782   6.937
 3689SOL    HW111966   1.699   0.697   6.898
 3689SOL    HW211967   1.781   0.764   0.003
 3690SOL     OW11968   4.226   0.021   6.385
 3690SOL    HW111969   4.318   0.045   6.415
 3690SOL    HW211970   4.161   0.033   6.460
 3691SOL     OW11971   2.720   2.394   0.060
 3691SOL    HW111972   2.625   2.413   0.082
 3691SOL    HW211973   2.779   2.428   0.134
 3692SOL     OW11974   0.636   6.155   4.986
 3692SOL    HW111975   0.736   6.152   4.982
 3692SOL    HW211976   0.598   6.086   4.924
 3693SOL     OW11977   2.342   2.756   2.769
 3693SOL    HW111978   2.380   2.665   2.786
 3693SOL    HW211979   2.305   2.761   2.676
 3694SOL     OW11980   1.723   5.382   2.723
 3694SOL    HW111981   1.742   5.376   2.821
 3694SOL    HW211982   1.631   5.347   2.706
 3695SOL     OW11983   6.167   2.625   2.658
 3695SOL    HW111984   6.157   2.585   2.567
 3695SOL    HW211985   6.078   2.630   2.703
 3696SOL     OW11986   2.929   5.934   5.229
 3696SOL    HW111987   2.934   5.859   5.162
 3696SOL    HW211988   2.879   6.011   5.188
 3697SOL     OW11989   0.422   6.026   3.506
 3697SOL    HW111990   0.405   6.101   3.570
 3697SOL    HW211991   0.517   5.995   3.515
 3698SOL     OW11992   2.839   6.898   5.057
 3698SOL    HW111993   2.781   6.978   5.074
 3698SOL    HW211994   2.805   6.821   5.111
 3699SOL     OW11995   0.144   3.188   3.265
 3699SOL    HW111996   0.063   3.220   3.216
 3699SOL    HW211997   0.176   3.102   3.225
 3700SOL     OW11998   0.040   0.574   4.474
 3700SOL    HW111999   6.986   0.507   4.487
 3700SOL    HW212000   0.077   0.601   4.563
 3701SOL     OW12001   0.723   0.677   3.575
 3701SOL    HW112002   0.648   0.743   3.583
 3701SOL    HW212003   0.691   0.598   3.522
 3702SOL     OW12004   5.423   6.498   2.438
 3702SOL    HW112005   5.402   6.457   2.527
 3702SOL    HW212006   5.358   6.571   2.418
 3703SOL     OW12007   4.528   1.815   6.292
 3703SOL    HW112008   4.447   1.783   6.341
 3703SOL    HW212009   4.560   1.900   6.333
 3704SOL     OW12010   3.346   1.245   1.129
 3704SOL    HW112011   3.425   1.284   1.176
 3704SOL    HW212012   3.266   1.249   1.189
 3705SOL     OW12013   5.308   5.508   3.873
 3705SOL    HW112014   5.280   5.529   3.779
 3705SOL    HW212015   5.378   5.574   3.902
 3706SOL     OW12016   1.366   3.541   4.948
 3706SOL    HW112017   1.335   3.618   4.892
 3706SOL    HW212018   1.314   3.538   5.034
 3707SOL     OW12019   6.254   3.778   5.263
 3707SOL    HW112020   6.223   3.807   5.354
 3707SOL    HW212021   6.341   3.729   5.271
 3708SOL     OW12022   6.356   0.621   5.819
 3708SOL    HW112023   6.455   0.624   5.803
 3708SOL    HW212024   6.332   0.682   5.895
 3709SOL     OW12025   3.840   0.636   0.510
 3709SOL    HW112026   3.892   0.625   0.595
 3709SOL    HW212027   3.746   0.607   0.525
 3710SOL     OW12028   7.010   5.945   0.373
 3710SOL    HW112029   0.062   5.982   0.314
 3710SOL    HW212030   6.931   5.921   0.317
 3711SOL     OW12031   6.804   6.777   2.152
 3711SOL    HW112032   6.721   6.724   2.171
 3711SOL    HW212033   6.868   6.766   2.228
 3712SOL     OW12034   6.939   6.380   0.068
 3712SOL    HW112035   6.956   6.313   7.016
 3712SOL    HW212036   6.857   6.433   0.045
 3713SOL     OW12037   1.857   6.312   4.578
 3713SOL    HW112038   1.795   6.249   4.625
 3713SOL    HW212039   1.861   6.288   4.481
 3714SOL     OW12040   4.572   5.304   5.434
 3714SOL    HW112041   4.644   5.339   5.373
 3714SOL    HW212042   4.483   5.314   5.390
 3715SOL     OW12043   6.056   3.829   3.244
 3715SOL    HW112044   6.045   3.917   3.289
 3715SOL    HW212045   6.125   3.775   3.292
 3716SOL     OW12046   6.318   6.358   5.298
 3716SOL    HW112047   6.258   6.372   5.220
 3716SOL    HW212048   6.409   6.329   5.266
 3717SOL     OW12049   5.776   5.472   6.083
 3717SOL    HW112050   5.860   5.521   6.058
 3717SOL    HW212051   5.725   5.526   6.150
 3718SOL     OW12052   2.067   0.599   6.437
 3718SOL    HW112053   2.112   0.536   6.373
 3718SOL    HW212054   2.093   0.693   6.416
 3719SOL     OW12055   5.568   4.532   0.914
 3719SOL    HW112056   5.557   4.450   0.858
 3719SOL    HW212057   5.661   4.536   0.948
 3720SOL     OW12058   6.222   2.034   5.532
 3720SOL    HW112059   6.294   1.965   5.524
 3720SOL    HW212060   6.136   1.997   5.495
 3721SOL     OW12061   5.282   4.857   1.364
 3721SOL    HW112062   5.311   4.764   1.342
 3721SOL    HW212063   5.182   4.862   1.365
 3722SOL     OW12064   5.874   6.906   1.906
 3722SOL    HW112065   5.885   6.918   1.808
 3722SOL    HW212066   5.778   6.895   1.929
 3723SOL     OW12067   6.096   6.455   1.849
 3723SOL    HW112068   6.003   6.484   1.875
 3723SOL    HW212069   6.105   6.457   1.750
 3724SOL     OW12070   1.817   5.132   5.585
 3724SOL    HW112071   1.746   5.074   5.545
 3724SOL    HW212072   1.836   5.102   5.678
 3725SOL     OW12073   5.533   6.066   0.605
 3725SOL    HW112074   5.476   6.006   0.549
 3725SOL    HW212075   5.497   6.159   0.602
 3726SOL     OW12076   6.444   5.730   0.660
 3726SOL    HW112077   6.381   5.790   0.708
 3726SOL    HW212078   6.440   5.638   0.701
 3727SOL     OW12079   6.722   2.571   6.176
 3727SOL    HW112080   6.815   2.537   6.161
 3727SOL    HW212081   6.661   2.532   6.107
 3728SOL     OW12082   1.742   3.911   0.415
 3728SOL    HW112083   1.795   3.904   0.330
 3728SOL    HW212084   1.708   4.004   0.426
 3729SOL     OW12085   1.375   2.385   3.922
 3729SOL    HW112086   1.313   2.461   3.943
 3729SOL    HW212087   1.407   2.344   4.007
 3730SOL     OW12088   2.546   5.383   6.260
 3730SOL    HW112089   2.507   5.467   6.223
 3730SOL    HW212090   2.600   5.338   6.189
 3731SOL     OW12091   4.281   0.158   1.183
 3731SOL    HW112092   4.281   0.237   1.122
 3731SOL    HW212093   4.281   0.189   1.278
 3732SOL     OW12094   1.422   2.193   6.474
 3732SOL    HW112095   1.468   2.161   6.557
 3732SOL    HW212096   1.471   2.159   6.393
 3733SOL     OW12097   1.507   3.499   1.578
 3733SOL    HW112098   1.465   3.552   1.504
 3733SOL    HW212099   1.472   3.530   1.666
 3734SOL     OW12100   4.600   1.227   1.848
 3734SOL    HW112101   4.679   1.267   1.801
 3734SOL    HW212102   4.592   1.266   1.939
 3735SOL     OW12103   2.001   0.860   3.354
 3735SOL    HW112104   2.062   0.807   3.414
 3735SOL    HW212105   1.942   0.797   3.303
 3736SOL     OW12106   6.513   2.556   1.047
 3736SOL    HW112107   6.428   2.514   1.081
 3736SOL    HW212108   6.502   2.655   1.042
 3737SOL     OW12109   4.972   0.795   3.577
 3737SOL    HW112110   4.880   0.788   3.616
 3737SOL    HW212111   4.997   0.709   3.533
 3738SOL     OW12112   0.017   5.743   2.230
 3738SOL    HW112113   0.044   5.655   2.191
 3738SOL    HW212114   0.055   5.751   2.323
 3739SOL     OW12115   2.170   4.604   1.334
 3739SOL    HW112116   2.183   4.669   1.259
 3739SOL    HW212117   2.254   4.551   1.346
 3740SOL     OW12118   5.249   0.130   0.388
 3740SOL    HW112119   5.181   0.203   0.384
 3740SOL    HW212120   5.209   0.049   0.432
 3741SOL     OW12121   4.669   3.156   1.307
 3741SOL    HW112122   4.681   3.235   1.246
 3741SOL    HW212123   4.754   3.139   1.357
 3742SOL     OW12124   2.374   2.134   6.351
 3742SOL    HW112125   2.462   2.173   6.323
 3742SOL    HW212126   2.387   2.082   6.436
 3743SOL     OW12127   5.130   4.231   1.159
 3743SOL    HW112128   5.128   4.167   1.082
 3743SOL    HW212129   5.111   4.323   1.126
 3744SOL     OW12130   0.289   5.952   2.858
 3744SOL    HW112131   0.327   5.865   2.825
 3744SOL    HW212132   0.362   6.005   2.902
 3745SOL     OW12133   3.508   4.899   2.660
 3745SOL    HW112134   3.559   4.978   2.624
 3745SOL    HW212135   3.547   4.871   2.747
 3746SOL     OW12136   5.008   1.740   2.815
 3746SOL    HW112137   4.994   1.641   2.809
 3746SOL    HW212138   5.074   1.759   2.888
 3747SOL     OW12139   3.086   6.956   5.679
 3747SOL    HW112140   3.039   0.008   5.627
 3747SOL    HW212141   3.184   6.961   5.663
 3748SOL     OW12142   5.219   0.634   1.520
 3748SOL    HW112143   5.170   0.664   1.601
 3748SOL    HW212144   5.310   0.602   1.546
 3749SOL     OW12145   1.584   6.652   4.218
 3749SOL    HW112146   1.505   6.714   4.223
 3749SOL    HW212147   1.605   6.618   4.309
 3750SOL     OW12148   1.592   3.771   0.972
 3750SOL    HW112149   1.613   3.837   0.900
 3750SOL    HW212150   1.667   3.706   0.981
 3751SOL     OW12151   6.510   3.370   2.381
 3751SOL    HW112152   6.539   3.276   2.400
 3751SOL    HW212153   6.558   3.403   2.300
 3752SOL     OW12154   5.132   0.602   6.583
 3752SOL    HW112155   5.141   0.683   6.525
 3752SOL    HW212156   5.201   0.534   6.557
 3753SOL     OW12157   6.294   0.652   5.150
 3753SOL    HW112158   6.228   0.649   5.224
 3753SOL    HW212159   6.336   0.743   5.146
 3754SOL     OW12160   2.547   0.523   1.733
 3754SOL    HW112161   2.557   0.424   1.725
 3754SOL    HW212162   2.495   0.545   1.815
 3755SOL     OW12163   4.096   5.165   5.001
 3755SOL    HW112164   4.107   5.229   4.925
 3755SOL    HW212165   4.009   5.182   5.046
 3756SOL     OW12166   2.287   5.590   6.924
 3756SOL    HW112167   2.376   5.630   6.946
 3756SOL    HW212168   2.224   5.605   7.000
 3757SOL     OW12169   6.144   5.184   1.960
 3757SOL    HW112170   6.083   5.260   1.940
 3757SOL    HW212171   6.090   5.103   1.983
 3758SOL     OW12172   2.115   1.041   4.177
 3758SOL    HW112173   2.023   1.015   4.149
 3758SOL    HW212174   2.131   1.010   4.271
 3759SOL     OW12175   4.670   0.320   5.097
 3759SOL    HW112176   4.685   0.241   5.157
 3759SOL    HW212177   4.756   0.343   5.051
 3760SOL     OW12178   0.851   1.729   3.723
 3760SOL    HW112179   0.799   1.713   3.807
 3760SOL    HW212180   0.943   1.691   3.734
 3761SOL     OW12181   6.403   1.061   4.946
 3761SOL    HW112182   6.413   1.145   4.893
 3761SOL    HW212183   6.367   1.082   5.037
 3762SOL     OW12184   1.758   4.084   1.411
 3762SOL    HW112185   1.726   4.076   1.505
 3762SOL    HW212186   1.704   4.025   1.352
 3763SOL     OW12187   6.683   3.972   0.629
 3763SOL    HW112188   6.689   3.951   0.727
 3763SOL    HW212189   6.650   4.066   0.616
 3764SOL     OW12190   1.848   6.641   2.686
 3764SOL    HW112191   1.895   6.660   2.600
 3764SOL    HW212192   1.901   6.575   2.739
 3765SOL     OW12193   6.272   1.406   0.730
 3765SOL    HW112194   6.326   1.486   0.707
 3765SOL    HW212195   6.233   1.417   0.822
 3766SOL     OW12196   2.213   2.544   4.160
 3766SOL    HW112197   2.146   2.600   4.111
 3766SOL    HW212198   2.304   2.562   4.124
 3767SOL     OW12199   3.207   3.844   6.274
 3767SOL    HW112200   3.109   3.859   6.289
 3767SOL    HW212201   3.232   3.753   6.305
 3768SOL     OW12202   0.565   0.287   5.095
 3768SOL    HW112203   0.576   0.219   5.167
 3768SOL    HW212204   0.479   0.271   5.047
 3769SOL     OW12205   6.524   5.450   5.021
 3769SOL    HW112206   6.502   5.382   4.951
 3769SOL    HW212207   6.463   5.528   5.012
 3770SOL     OW12208   1.173   1.004   0.143
 3770SOL    HW112209   1.150   0.907   0.138
 3770SOL    HW212210   1.217   1.024   0.230
 3771SOL     OW12211   5.697   4.457   6.598
 3771SOL    HW112212   5.790   4.494   6.610
 3771SOL    HW212213   5.664   4.423   6.685
 3772SOL     OW12214   0.463   0.520   0.080
 3772SOL    HW112215   0.414   0.551   0.161
 3772SOL    HW212216   0.427   0.569   7.020
 3773SOL     OW12217   6.917   3.113   5.489
 3773SOL    HW112218   6.819   3.112   5.508
 3773SOL    HW212219   6.935   3.064   5.404
 3774SOL     OW12220   5.537   5.459   1.873
 3774SOL    HW112221   5.613   5.524   1.878
 3774SOL    HW212222   5.457   5.504   1.834
 3775SOL     OW12223   4.106   5.019   3.801
 3775SOL    HW112224   4.052   4.992   3.880
 3775SOL    HW212225   4.196   4.976   3.806
 3776SOL     OW12226   3.953   2.547   6.528
 3776SOL    HW112227   3.947   2.589   6.438
 3776SOL    HW212228   3.897   2.599   6.593
 3777SOL     OW12229   2.306   5.854   4.061
 3777SOL    HW112230   2.370   5.837   4.135
 3777SOL    HW212231   2.281   5.767   4.017
 3778SOL     OW12232   2.299   5.767   3.617
 3778SOL    HW112233   2.319   5.853   3.568
 3778SOL    HW212234   2.280   5.696   3.550
 3779SOL     OW12235   0.627   5.154   0.894
 3779SOL    HW112236   0.719   5.130   0.923
 3779SOL    HW212237   0.599   5.239   0.940
 3780SOL     OW12238   6.764   3.845   4.132
 3780SOL    HW112239   6.706   3.764   4.138
 3780SOL    HW212240   6.813   3.858   4.218
 3781SOL     OW12241   0.653   0.330   4.047
 3781SOL    HW112242   0.696   0.392   3.981
 3781SOL    HW212243   0.625   0.382   4.127
 3782SOL     OW12244   3.445   6.923   2.410
 3782SOL    HW112245   3.473   6.852   2.346
 3782SOL    HW212246   3.356   6.960   2.383
 3783SOL     OW12247   6.725   5.955   3.840
 3783SOL    HW112248   6.824   5.949   3.849
 3783SOL    HW212249   6.700   5.961   3.743
 3784SOL     OW12250   5.400   2.746   2.603
 3784SOL    HW112251   5.316   2.798   2.585
 3784SOL    HW212252   5.453   2.738   2.519
 3785SOL     OW12253   1.525   3.364   4.762
 3785SOL    HW112254   1.468   3.437   4.799
 3785SOL    HW212255   1.606   3.352   4.820
 3786SOL     OW12256   2.122   4.139   3.236
 3786SOL    HW112257   2.082   4.067   3.180
 3786SOL    HW212258   2.196   4.184   3.185
 3787SOL     OW12259   5.458   0.706   2.470
 3787SOL    HW112260   5.545   0.698   2.420
 3787SOL    HW212261   5.415   0.793   2.448
 3788SOL     OW12262   5.988   4.254   5.003
 3788SOL    HW112263   6.027   4.318   4.936
 3788SOL    HW212264   5.975   4.165   4.959
 3789SOL     OW12265   0.204   3.581   3.252
 3789SOL    HW112266   0.194   3.651   3.324
 3789SOL    HW212267   0.271   3.513   3.281
 3790SOL     OW12268   0.561   4.643   6.354
 3790SOL    HW112269   0.534   4.732   6.391
 3790SOL    HW212270   0.521   4.631   6.263
 3791SOL     OW12271   5.437   2.025   6.741
 3791SOL    HW112272   5.494   1.942   6.735
 3791SOL    HW212273   5.348   2.001   6.780
 3792SOL     OW12274   1.143   1.867   4.458
 3792SOL    HW112275   1.168   1.782   4.413
 3792SOL    HW212276   1.051   1.859   4.497
 3793SOL     OW12277   5.153   6.329   1.783
 3793SOL    HW112278   5.185   6.355   1.875
 3793SOL    HW212279   5.157   6.409   1.723
 3794SOL     OW12280   2.833   3.228   1.664
 3794SOL    HW112281   2.854   3.133   1.687
 3794SOL    HW212282   2.736   3.245   1.678
 3795SOL     OW12283   3.715   5.287   1.243
 3795SOL    HW112284   3.675   5.202   1.209
 3795SOL    HW212285   3.682   5.305   1.336
 3796SOL     OW12286   4.245   1.715   1.791
 3796SOL    HW112287   4.181   1.761   1.853
 3796SOL    HW212288   4.198   1.693   1.705
 3797SOL     OW12289   0.946   3.474   2.976
 3797SOL    HW112290   0.885   3.402   2.941
 3797SOL    HW212291   0.942   3.553   2.915
 3798SOL     OW12292   3.024   6.424   2.337
 3798SOL    HW112293   3.109   6.374   2.322
 3798SOL    HW212294   3.021   6.503   2.276
 3799SOL     OW12295   0.315   2.455   3.633
 3799SOL    HW112296   0.405   2.466   3.591
 3799SOL    HW212297   0.259   2.393   3.578
 3800SOL     OW12298   5.053   2.081   3.879
 3800SOL    HW112299   5.090   2.056   3.790
 3800SOL    HW212300   5.118   2.056   3.951
 3801SOL     OW12301   5.601   6.586   2.108
 3801SOL    HW112302   5.647   6.512   2.158
 3801SOL    HW212303   5.505   6.590   2.136
 3802SOL     OW12304   0.611   1.374   2.342
 3802SOL    HW112305   0.664   1.457   2.357
 3802SOL    HW212306   0.668   1.294   2.362
 3803SOL     OW12307   4.009   3.520   3.424
 3803SOL    HW112308   3.914   3.511   3.395
 3803SOL    HW212309   4.032   3.617   3.434
 3804SOL     OW12310   4.073   1.407   3.630
 3804SOL    HW112311   4.050   1.496   3.590
 3804SOL    HW212312   3.991   1.368   3.673
 3805SOL     OW12313   1.759   2.440   1.830
 3805SOL    HW112314   1.790   2.508   1.763
 3805SOL    HW212315   1.659   2.430   1.823
 3806SOL     OW12316   3.340   3.791   5.691
 3806SOL    HW112317   3.340   3.890   5.675
 3806SOL    HW212318   3.397   3.746   5.622
 3807SOL     OW12319   2.178   5.230   3.778
 3807SOL    HW112320   2.170   5.193   3.871
 3807SOL    HW212321   2.268   5.271   3.766
 3808SOL     OW12322   4.302   1.149   6.996
 3808SOL    HW112323   4.288   1.214   0.051
 3808SOL    HW212324   4.218   1.142   6.942
 3809SOL     OW12325   5.277   2.771   1.386
 3809SOL    HW112326   5.348   2.702   1.397
 3809SOL    HW212327   5.319   2.862   1.379
 3810SOL     OW12328   5.994   2.604   3.461
 3810SOL    HW112329   6.091   2.594   3.440
 3810SOL    HW212330   5.982   2.675   3.530
 3811SOL     OW12331   0.203   6.497   4.716
 3811SOL    HW112332   0.181   6.400   4.710
 3811SOL    HW212333   0.247   6.527   4.632
 3812SOL     OW12334   3.353   4.429   5.705
 3812SOL    HW112335   3.255   4.451   5.702
 3812SOL    HW212336   3.405   4.503   5.663
 3813SOL     OW12337   5.733   3.879   0.624
 3813SOL    HW112338   5.783   3.919   0.547
 3813SOL    HW212339   5.648   3.931   0.639
 3814SOL     OW12340   6.906   6.788   4.565
 3814SOL    HW112341   6.830   6.852   4.575
 3814SOL    HW212342   6.984   6.836   4.525
 3815SOL     OW12343   3.886   3.250   1.000
 3815SOL    HW112344   3.970   3.237   0.948
 3815SOL    HW212345   3.814   3.283   0.939
 3816SOL     OW12346   1.014   5.161   6.164
 3816SOL    HW112347   1.008   5.135   6.260
 3816SOL    HW212348   1.045   5.083   6.110
 3817SOL     OW12349   5.159   4.029   2.445
 3817SOL    HW112350   5.152   4.119   2.401
 3817SOL    HW212351   5.164   3.958   2.376
 3818SOL     OW12352   6.666   1.135   0.960
 3818SOL    HW112353   6.651   1.067   0.888
 3818SOL    HW212354   6.727   1.207   0.926
 3819SOL     OW12355   6.172   4.727   2.863
 3819SOL    HW112356   6.129   4.804   2.815
 3819SOL    HW212357   6.160   4.644   2.809
 3820SOL     OW12358   5.763   0.011   3.807
 3820SOL    HW112359   5.753   0.004   3.708
 3820SOL    HW212360   5.701   0.082   3.842
 3821SOL     OW12361   1.621   0.878   1.781
 3821SOL    HW112362   1.550   0.815   1.811
 3821SOL    HW212363   1.672   0.910   1.861
 3822SOL     OW12364   1.874   6.819   0.027
 3822SOL    HW112365   1.950   6.755   0.020
 3822SOL    HW212366   1.873   6.880   6.968
 3823SOL     OW12367   3.814   3.403   6.220
 3823SOL    HW112368   3.735   3.387   6.280
 3823SOL    HW212369   3.788   3.467   6.148
 3824SOL     OW12370   1.067   2.385   0.617
 3824SOL    HW112371   1.069   2.422   0.710
 3824SOL    HW212372   1.026   2.451   0.555
 3825SOL     OW12373   0.760   4.647   0.090
 3825SOL    HW112374   0.823   4.596   0.148
 3825SOL    HW212375   0.812   4.701   0.024
 3826SOL     OW12376   0.019   3.766   1.259
 3826SOL    HW112377   7.002   3.781   1.167
 3826SOL    HW212378   0.014   3.669   1.281
 3827SOL     OW12379   1.122   1.209   1.616
 3827SOL    HW112380   1.121   1.152   1.534
 3827SOL    HW212381   1.035   1.199   1.665
 3828SOL     OW12382   3.449   3.850   3.964
 3828SOL    HW112383   3.359   3.854   4.007
 3828SOL    HW212384   3.492   3.940   3.966
 3829SOL     OW12385   0.455   4.757   1.749
 3829SOL    HW112386   0.362   4.730   1.726
 3829SOL    HW212387   0.520   4.691   1.710
 3830SOL     OW12388   0.706   1.250   5.615
 3830SOL    HW112389   0.779   1.211   5.670
 3830SOL    HW212390   0.674   1.335   5.657
 3831SOL     OW12391   4.379   2.406   2.303
 3831SOL    HW112392   4.337   2.497   2.309
 3831SOL    HW212393   4.460   2.402   2.361
 3832SOL     OW12394   6.874   0.437   2.291
 3832SOL    HW112395   6.903   0.528   2.261
 3832SOL    HW212396   6.892   0.427   2.389
 3833SOL     OW12397   0.302   5.737   6.348
 3833SOL    HW112398   0.397   5.751   6.375
 3833SOL    HW212399   0.252   5.823   6.358
 3834SOL     OW12400   3.706   4.658   0.393
 3834SOL    HW112401   3.656   4.701   0.468
 3834SOL    HW212402   3.650   4.659   0.311
 3835SOL     OW12403   4.080   6.225   5.291
 3835SOL    HW112404   4.158   6.245   5.350
 3835SOL    HW212405   4.024   6.154   5.333
 3836SOL     OW12406   6.868   5.316   5.843
 3836SOL    HW112407   6.799   5.273   5.901
 3836SOL    HW212408   6.912   5.390   5.893
 3837SOL     OW12409   4.720   4.669   5.654
 3837SOL    HW112410   4.668   4.668   5.568
 3837SOL    HW212411   4.686   4.596   5.713
 3838SOL     OW12412   0.981   2.764   3.958
 3838SOL    HW112413   0.991   2.773   3.859
 3838SOL    HW212414   1.027   2.840   4.004
 3839SOL     OW12415   5.289   1.692   2.608
 3839SOL    HW112416   5.329   1.769   2.657
 3839SOL    HW212417   5.255   1.624   2.673
 3840SOL     OW12418   2.819   1.201   6.299
 3840SOL    HW112419   2.802   1.299   6.300
 3840SOL    HW212420   2.756   1.157   6.234
 3841SOL     OW12421   0.188   3.262   4.178
 3841SOL    HW112422   0.118   3.196   4.208
 3841SOL    HW212423   0.266   3.256   4.240
 3842SOL     OW12424   2.068   2.717   3.265
 3842SOL    HW112425   2.057   2.721   3.365
 3842SOL    HW212426   2.027   2.633   3.230
 3843SOL     OW12427   5.183   3.619   2.469
 3843SOL    HW112428   5.193   3.532   2.420
 3843SOL    HW212429   5.196   3.695   2.404
 3844SOL     OW12430   1.222   2.951   5.519
 3844SOL    HW112431   1.298   2.979   5.577
 3844SOL    HW212432   1.238   2.982   5.426
 3845SOL     OW12433   3.081   4.443   5.963
 3845SOL    HW112434   3.113   4.367   6.019
 3845SOL    HW212435   2.983   4.434   5.946
 3846SOL     OW12436   1.106   4.458   3.467
 3846SOL    HW112437   1.018   4.420   3.494
 3846SOL    HW212438   1.179   4.398   3.498
 3847SOL     OW12439   5.241   2.938   4.437
 3847SOL    HW112440   5.168   3.004   4.456
 3847SOL    HW212441   5.224   2.855   4.491
 3848SOL     OW12442   4.689   4.673   3.255
 3848SOL    HW112443   4.686   4.765   3.216
 3848SOL    HW212444   4.596   4.645   3.282
 3849SOL     OW12445   0.701   1.678   6.334
 3849SOL    HW112446   0.766   1.644   6.402
 3849SOL    HW212447   0.733   1.764   6.297
 3850SOL     OW12448   3.133   3.276   1.701
 3850SOL    HW112449   3.040   3.255   1.733
 3850SOL    HW212450   3.200   3.233   1.762
 3851SOL     OW12451   0.427   4.002   3.253
 3851SOL    HW112452   0.479   3.938   3.196
 3851SOL    HW212453   0.335   4.012   3.215
 3852SOL     OW12454   4.329   6.398   3.799
 3852SOL    HW112455   4.407   6.457   3.776
 3852SOL    HW212456   4.249   6.427   3.747
 3853SOL     OW12457   0.884   3.996   3.294
 3853SOL    HW112458   0.973   3.963   3.264
 3853SOL    HW212459   0.861   4.080   3.244
 3854SOL     OW12460   1.672   2.290   2.825
 3854SOL    HW112461   1.674   2.375   2.878
 3854SOL    HW212462   1.720   2.304   2.739
 3855SOL     OW12463   4.778   6.576   6.521
 3855SOL    HW112464   4.680   6.593   6.527
 3855SOL    HW212465   4.814   6.618   6.438
 3856SOL     OW12466   6.856   0.309   5.625
 3856SOL    HW112467   6.800   0.290   5.705
 3856SOL    HW212468   6.817   0.262   5.545
 3857SOL     OW12469   0.575   6.120   6.405
 3857SOL    HW112470   0.533   6.108   6.315
 3857SOL    HW212471   0.656   6.178   6.397
 3858SOL     OW12472   2.303   0.712   5.539
 3858SOL    HW112473   2.276   0.630   5.489
 3858SOL    HW212474   2.236   0.785   5.522
 3859SOL     OW12475   6.201   1.315   1.419
 3859SOL    HW112476   6.184   1.333   1.516
 3859SOL    HW212477   6.290   1.271   1.409
 3860SOL     OW12478   1.764   1.870   4.267
 3860SOL    HW112479   1.692   1.939   4.271
 3860SOL    HW212480   1.847   1.911   4.229
 3861SOL     OW12481   4.252   5.579   3.931
 3861SOL    HW112482   4.310   5.498   3.940
 3861SOL    HW212483   4.192   5.568   3.852
 3862SOL     OW12484   0.608   0.881   4.594
 3862SOL    HW112485   0.614   0.783   4.580
 3862SOL    HW212486   0.699   0.918   4.614
 3863SOL     OW12487   5.863   2.349   6.987
 3863SOL    HW112488   5.787   2.285   6.971
 3863SOL    HW212489   5.879   2.403   6.905
 3864SOL     OW12490   2.459   0.970   5.395
 3864SOL    HW112491   2.417   0.957   5.485
 3864SOL    HW212492   2.557   0.988   5.407
 3865SOL     OW12493   4.189   1.026   0.818
 3865SOL    HW112494   4.272   0.975   0.801
 3865SOL    HW212495   4.171   1.088   0.742
 3866SOL     OW12496   4.054   0.215   0.308
 3866SOL    HW112497   4.039   0.297   0.364
 3866SOL    HW212498   4.081   0.139   0.367
 3867SOL     OW12499   0.438   6.246   3.978
 3867SOL    HW112500   0.390   6.322   4.022
 3867SOL    HW212501   0.518   6.222   4.031
 3868SOL     OW12502   3.090   0.418   0.378
 3868SOL    HW112503   3.138   0.333   0.398
 3868SOL    HW212504   3.007   0.423   0.434
 3869SOL     OW12505   6.099   3.408   4.366
 3869SOL    HW112506   6.050   3.436   4.284
 3869SOL    HW212507   6.183   3.359   4.339
 3870SOL     OW12508   6.596   6.857   0.347
 3870SOL    HW112509   6.680   6.910   0.344
 3870SOL    HW212510   6.518   6.918   0.332
 3871SOL     OW12511   3.856   1.209   3.425
 3871SOL    HW112512   3.791   1.270   3.380
 3871SOL    HW212513   3.948   1.230   3.395
 3872SOL     OW12514   3.691   2.917   3.961
 3872SOL    HW112515   3.615   2.907   4.024
 3872SOL    HW212516   3.778   2.919   4.011
 3873SOL     OW12517   6.468   3.840   1.388
 3873SOL    HW112518   6.560   3.866   1.417
 3873SOL    HW212519   6.468   3.821   1.290
 3874SOL     OW12520   4.796   6.247   6.661
 3874SOL    HW112521   4.787   6.165   6.718
 3874SOL    HW212522   4.806   6.327   6.720
 3875SOL     OW12523   2.184   3.068   2.357
 3875SOL    HW112524   2.210   3.030   2.268
 3875SOL    HW212525   2.238   3.149   2.376
 3876SOL     OW12526   4.009   5.932   1.051
 3876SOL    HW112527   4.071   5.862   1.087
 3876SOL    HW212528   4.048   5.972   0.968
 3877SOL     OW12529   5.840   2.414   0.520
 3877SOL    HW112530   5.758   2.423   0.577
 3877SOL    HW212531   5.889   2.501   0.518
 3878SOL     OW12532   3.878   6.639   4.679
 3878SOL    HW112533   3.943   6.623   4.604
 3878SOL    HW212534   3.785   6.618   4.647
 3879SOL     OW12535   5.801   5.075   0.883
 3879SOL    HW112536   5.833   4.982   0.905
 3879SOL    HW212537   5.877   5.127   0.843
 3880SOL     OW12538   5.798   4.762   4.448
 3880SOL    HW112539   5.784   4.808   4.360
 3880SOL    HW212540   5.825   4.830   4.517
 3881SOL     OW12541   1.596   3.290   1.771
 3881SOL    HW112542   1.534   3.312   1.846
 3881SOL    HW212543   1.596   3.365   1.704
 3882SOL     OW12544   1.310   1.096   5.623
 3882SOL    HW112545   1.270   1.079   5.713
 3882SOL    HW212546   1.281   1.025   5.559
 3883SOL     OW12547   4.646   0.916   3.042
 3883SOL    HW112548   4.710   0.992   3.026
 3883SOL    HW212549   4.626   0.909   3.140
 3884SOL     OW12550   0.727   5.562   2.498
 3884SOL    HW112551   0.748   5.657   2.474
 3884SOL    HW212552   0.809   5.517   2.534
 3885SOL     OW12553   5.396   6.459   2.702
 3885SOL    HW112554   5.305   6.484   2.734
 3885SOL    HW212555   5.461   6.465   2.778
 3886SOL     OW12556   5.880   5.354   4.896
 3886SOL    HW112557   5.934   5.273   4.920
 3886SOL    HW212558   5.861   5.407   4.979
 3887SOL     OW12559   0.408   0.640   6.847
 3887SOL    HW112560   0.501   0.603   6.839
 3887SOL    HW212561   0.377   0.670   6.757
 3888SOL     OW12562   6.601   0.585   4.892
 3888SOL    HW112563   6.574   0.681   4.899
 3888SOL    HW212564   6.600   0.543   4.983
 3889SOL     OW12565   0.120   3.918   0.594
 3889SOL    HW112566   0.083   3.885   0.507
 3889SOL    HW212567   0.095   4.014   0.605
 3890SOL     OW12568   6.007   5.836   3.886
 3890SOL    HW112569   6.095   5.797   3.911
 3890SOL    HW212570   5.949   5.765   3.846
 3891SOL     OW12571   6.227   4.787   4.767
 3891SOL    HW112572   6.158   4.787   4.695
 3891SOL    HW212573   6.183   4.807   4.855
 3892SOL     OW12574   6.850   2.368   1.887
 3892SOL    HW112575   6.870   2.280   1.930
 3892SOL    HW212576   6.759   2.366   1.847
 3893SOL     OW12577   4.467   4.869   0.373
 3893SOL    HW112578   4.437   4.921   0.293
 3893SOL    HW212579   4.523   4.928   0.432
 3894SOL     OW12580   3.916   1.531   0.694
 3894SOL    HW112581   3.960   1.545   0.605
 3894SOL    HW212582   3.848   1.458   0.686
 3895SOL     OW12583   1.529   0.402   5.288
 3895SOL    HW112584   1.544   0.488   5.337
 3895SOL    HW212585   1.445   0.359   5.322
 3896SOL     OW12586   6.716   0.530   6.078
 3896SOL    HW112587   6.622   0.540   6.045
 3896SOL    HW212588   6.725   0.443   6.127
 3897SOL     OW12589   3.530   5.477   2.655
 3897SOL    HW112590   3.554   5.539   2.729
 3897SOL    HW212591   3.447   5.427   2.678
 3898SOL     OW12592   2.830   3.822   5.162
 3898SOL    HW112593   2.883   3.904   5.183
 3898SOL    HW212594   2.743   3.824   5.211
 3899SOL     OW12595   5.603   6.738   4.964
 3899SOL    HW112596   5.661   6.795   5.023
 3899SOL    HW212597   5.520   6.714   5.012
 3900SOL     OW12598   4.993   3.573   3.798
 3900SOL    HW112599   4.941   3.552   3.715
 3900SOL    HW212600   5.090   3.560   3.781
 3901SOL     OW12601   2.906   0.666   5.975
 3901SOL    HW112602   2.902   0.754   5.928
 3901SOL    HW212603   2.852   0.599   5.925
 3902SOL     OW12604   5.403   3.517   2.019
 3902SOL    HW112605   5.425   3.552   2.110
 3902SOL    HW212606   5.427   3.586   1.950
 3903SOL     OW12607   3.769   6.062   6.623
 3903SOL    HW112608   3.821   6.006   6.559
 3903SOL    HW212609   3.686   6.013   6.651
 3904SOL     OW12610   2.345   1.212   4.715
 3904SOL    HW112611   2.432   1.224   4.763
 3904SOL    HW212612   2.316   1.117   4.722
 3905SOL     OW12613   0.020   0.290   6.407
 3905SOL    HW112614   0.041   0.252   6.317
 3905SOL    HW212615   6.954   0.251   6.441
 3906SOL     OW12616   4.244   5.089   6.168
 3906SOL    HW112617   4.204   5.179   6.157
 3906SOL    HW212618   4.171   5.022   6.184
 3907SOL     OW12619   5.536   6.963   4.865
 3907SOL    HW112620   5.502   0.006   4.934
 3907SOL    HW212621   5.569   6.879   4.909
 3908SOL     OW12622   1.068   1.867   1.018
 3908SOL    HW112623   1.004   1.822   0.956
 3908SOL    HW212624   1.144   1.806   1.037
 3909SOL     OW12625   0.386   5.103   5.398
 3909SOL    HW112626   0.480   5.087   5.367
 3909SOL    HW212627   0.326   5.037   5.353
 3910SOL     OW12628   3.587   3.822   1.981
 3910SOL    HW112629   3.658   3.761   2.017
 3910SOL    HW212630   3.499   3.775   1.983
 3911SOL     OW12631   4.824   0.977   7.018
 3911SOL    HW112632   4.815   0.884   6.983
 3911SOL    HW212633   4.737   1.005   0.040
 3912SOL     OW12634   4.244   0.020   6.110
 3912SOL    HW112635   4.303   0.091   6.073
 3912SOL    HW212636   4.222   0.041   6.205
 3913SOL     OW12637   2.348   0.087   6.166
 3913SOL    HW112638   2.312   0.095   6.259
 3913SOL    HW212639   2.275   0.061   6.104
 3914SOL     OW12640   4.182   1.190   0.580
 3914SOL    HW112641   4.169   1.289   0.571
 3914SOL    HW212642   4.250   1.160   0.514
 3915SOL     OW12643   3.468   5.805   2.396
 3915SOL    HW112644   3.426   5.895   2.395
 3915SOL    HW212645   3.419   5.745   2.459
 3916SOL     OW12646   1.693   5.924   4.092
 3916SOL    HW112647   1.705   5.958   3.999
 3916SOL    HW212648   1.604   5.879   4.100
 3917SOL     OW12649   0.990   4.810   6.715
 3917SOL    HW112650   0.968   4.725   6.762
 3917SOL    HW212651   1.088   4.816   6.699
 3918SOL     OW12652   4.602   0.048   2.338
 3918SOL    HW112653   4.635   6.983   2.379
 3918SOL    HW212654   4.502   0.048   2.335
 3919SOL     OW12655   2.268   5.977   6.396
 3919SOL    HW112656   2.343   5.952   6.336
 3919SOL    HW212657   2.182   5.976   6.345
 3920SOL     OW12658   2.959   2.764   0.275
 3920SOL    HW112659   3.037   2.818   0.308
 3920SOL    HW212660   2.956   2.768   0.175
 3921SOL     OW12661   6.750   3.097   1.313
 3921SOL    HW112662   6.655   3.102   1.343
 3921SOL    HW212663   6.772   3.003   1.287
 3922SOL     OW12664   6.068   4.096   1.421
 3922SOL    HW112665   6.143   4.074   1.482
 3922SOL    HW212666   6.059   4.195   1.413
 3923SOL     OW12667   6.870   1.562   6.914
 3923SOL    HW112668   6.913   1.649   6.890
 3923SOL    HW212669   6.828   1.569   7.004
 3924SOL     OW12670   0.754   4.990   2.946
 3924SOL    HW112671   0.689   4.914   2.953
 3924SOL    HW212672   0.776   5.005   2.850
 3925SOL     OW12673   3.926   4.540   0.602
 3925SOL    HW112674   3.867   4.511   0.526
 3925SOL    HW212675   3.882   4.616   0.651
 3926SOL     OW12676   6.690   5.363   3.124
 3926SOL    HW112677   6.680   5.349   3.026
 3926SOL    HW212678   6.605   5.336   3.171
 3927SOL     OW12679   6.589   3.377   3.243
 3927SOL    HW112680   6.499   3.415   3.265
 3927SOL    HW212681   6.628   3.334   3.325
 3928SOL     OW12682   3.048   5.558   5.795
 3928SOL    HW112683   3.052   5.656   5.778
 3928SOL    HW212684   2.957   5.534   5.829
 3929SOL     OW12685   0.789   1.939   5.761
 3929SOL    HW112686   0.765   1.914   5.667
 3929SOL    HW212687   0.882   1.910   5.781
 3930SOL     OW12688   2.485   1.628   4.159
 3930SOL    HW112689   2.469   1.691   4.235
 3930SOL    HW212690   2.534   1.547   4.192
 3931SOL     OW12691   1.693   2.010   2.673
 3931SOL    HW112692   1.763   2.070   2.711
 3931SOL    HW212693   1.662   2.046   2.585
 3932SOL     OW12694   1.941   4.142   2.672
 3932SOL    HW112695   1.930   4.206   2.595
 3932SOL    HW212696   1.867   4.075   2.670
 3933SOL     OW12697   1.650   6.686   7.011
 3933SOL    HW112698   1.740   6.730   7.010
 3933SOL    HW212699   1.639   6.630   6.929
 3934SOL     OW12700   6.856   0.741   0.902
 3934SOL    HW112701   6.956   0.732   0.908
 3934SOL    HW212702   6.825   0.810   0.967
 3935SOL     OW12703   2.314   6.936   0.077
 3935SOL    HW112704   2.408   6.964   0.099
 3935SOL    HW212705   2.250   6.996   0.126
 3936SOL     OW12706   6.778   5.119   5.547
 3936SOL    HW112707   6.827   5.097   5.632
 3936SOL    HW212708   6.829   5.083   5.469
 3937SOL     OW12709   6.910   0.216   1.934
 3937SOL    HW112710   6.826   0.167   1.911
 3937SOL    HW212711   6.921   0.219   2.033
 3938SOL     OW12712   0.077   2.057   3.418
 3938SOL    HW112713   0.101   1.979   3.360
 3938SOL    HW212714   7.003   2.048   3.450
 3939SOL     OW12715   2.943   1.828   1.886
 3939SOL    HW112716   2.971   1.922   1.907
 3939SOL    HW212717   2.892   1.791   1.964
 3940SOL     OW12718   4.127   5.217   2.274
 3940SOL    HW112719   4.087   5.298   2.317
 3940SOL    HW212720   4.055   5.158   2.240
 3941SOL     OW12721   5.022   1.537   6.292
 3941SOL    HW112722   5.109   1.576   6.261
 3941SOL    HW212723   5.013   1.445   6.254
 3942SOL     OW12724   0.463   0.419   6.386
 3942SOL    HW112725   0.409   0.340   6.415
 3942SOL    HW212726   0.560   0.395   6.388
 3943SOL     OW12727   0.902   3.931   2.721
 3943SOL    HW112728   0.810   3.959   2.748
 3943SOL    HW212729   0.969   3.985   2.772
 3944SOL     OW12730   5.737   3.467   5.379
 3944SOL    HW112731   5.822   3.417   5.365
 3944SOL    HW212732   5.691   3.432   5.461
 3945SOL     OW12733   0.760   2.332   1.899
 3945SOL    HW112734   0.688   2.386   1.855
 3945SOL    HW212735   0.816   2.391   1.956
 3946SOL     OW12736   5.638   5.631   5.797
 3946SOL    HW112737   5.579   5.643   5.717
 3946SOL    HW212738   5.587   5.659   5.879
 3947SOL     OW12739   6.200   5.342   1.325
 3947SOL    HW112740   6.103   5.332   1.347
 3947SOL    HW212741   6.228   5.268   1.264
 3948SOL     OW12742   1.074   5.436   1.689
 3948SOL    HW112743   1.067   5.345   1.729
 3948SOL    HW212744   1.021   5.501   1.744
 3949SOL     OW12745   6.243   0.583   3.023
 3949SOL    HW112746   6.225   0.641   3.102
 3949SOL    HW212747   6.237   0.638   2.939
 3950SOL     OW12748   2.968   3.986   1.822
 3950SOL    HW112749   2.913   3.944   1.750
 3950SOL    HW212750   2.926   4.073   1.848
 3951SOL     OW12751   0.026   6.991   1.092
 3951SOL    HW112752   0.002   0.056   1.046
 3951SOL    HW212753   0.041   6.919   1.024
 3952SOL     OW12754   6.640   4.080   3.001
 3952SOL    HW112755   6.636   4.167   2.950
 3952SOL    HW212756   6.590   4.010   2.951
 3953SOL     OW12757   3.925   4.221   0.578
 3953SOL    HW112758   3.880   4.262   0.498
 3953SOL    HW212759   3.868   4.146   0.613
 3954SOL     OW12760   5.778   5.538   5.119
 3954SOL    HW112761   5.730   5.455   5.149
 3954SOL    HW212762   5.718   5.617   5.131
 3955SOL     OW12763   3.219   5.352   5.793
 3955SOL    HW112764   3.316   5.376   5.801
 3955SOL    HW212765   3.163   5.434   5.806
 3956SOL     OW12766   0.132   0.902   2.872
 3956SOL    HW112767   0.216   0.927   2.918
 3956SOL    HW212768   0.139   0.925   2.775
 3957SOL     OW12769   4.684   6.781   3.544
 3957SOL    HW112770   4.618   6.817   3.609
 3957SOL    HW212771   4.644   6.703   3.496
 3958SOL     OW12772   5.685   0.965   6.211
 3958SOL    HW112773   5.647   1.001   6.126
 3958SOL    HW212774   5.620   0.903   6.254
 3959SOL     OW12775   3.916   6.086   1.281
 3959SOL    HW112776   3.974   6.028   1.224
 3959SOL    HW212777   3.944   6.182   1.268
 3960SOL     OW12778   4.154   1.369   6.609
 3960SOL    HW112779   4.062   1.398   6.636
 3960SOL    HW212780   4.217   1.383   6.686
 3961SOL     OW12781   5.745   2.310   1.490
 3961SOL    HW112782   5.759   2.244   1.564
 3961SOL    HW212783   5.647   2.320   1.471
 3962SOL     OW12784   2.623   4.679   6.908
 3962SOL    HW112785   2.622   4.704   6.811
 3962SOL    HW212786   2.684   4.741   6.958
 3963SOL     OW12787   4.645   4.384   4.446
 3963SOL    HW112788   4.601   4.470   4.423
 3963SOL    HW212789   4.744   4.394   4.438
 3964SOL     OW12790   4.043   4.975   3.521
 3964SOL    HW112791   4.080   5.033   3.593
 3964SOL    HW212792   4.109   4.903   3.499
 3965SOL     OW12793   4.529   3.396   5.781
 3965SOL    HW112794   4.442   3.444   5.774
 3965SOL    HW212795   4.544   3.366   5.875
 3966SOL     OW12796   5.604   5.948   0.916
 3966SOL    HW112797   5.519   5.995   0.941
 3966SOL    HW212798   5.601   5.923   0.819
 3967SOL     OW12799   1.423   3.987   2.533
 3967SOL    HW112800   1.469   4.063   2.578
 3967SOL    HW212801   1.411   4.009   2.436
 3968SOL     OW12802   5.422   6.991   0.983
 3968SOL    HW112803   5.468   0.051   0.946
 3968SOL    HW212804   5.487   6.936   1.035
 3969SOL     OW12805   1.858   3.613   2.591
 3969SOL    HW112806   1.822   3.534   2.639
 3969SOL    HW212807   1.797   3.691   2.605
 3970SOL     OW12808   5.564   5.714   3.681
 3970SOL    HW112809   5.488   5.653   3.657
 3970SOL    HW212810   5.598   5.759   3.599
 3971SOL     OW12811   2.637   5.059   1.898
 3971SOL    HW112812   2.694   5.012   1.966
 3971SOL    HW212813   2.646   5.013   1.810
 3972SOL     OW12814   1.006   5.360   0.693
 3972SOL    HW112815   0.988   5.286   0.627
 3972SOL    HW212816   1.077   5.421   0.656
 3973SOL     OW12817   1.073   4.685   6.016
 3973SOL    HW112818   0.996   4.700   5.954
 3973SOL    HW212819   1.122   4.771   6.030
 3974SOL     OW12820   1.114   0.988   4.685
 3974SOL    HW112821   1.023   1.028   4.687
 3974SOL    HW212822   1.178   1.047   4.732
 3975SOL     OW12823   5.124   0.600   5.831
 3975SOL    HW112824   5.118   0.500   5.827
 3975SOL    HW212825   5.173   0.628   5.913
 3976SOL     OW12826   1.197   6.033   2.013
 3976SOL    HW112827   1.221   5.999   1.922
 3976SOL    HW212828   1.125   5.977   2.052
 3977SOL     OW12829   2.804   4.469   5.623
 3977SOL    HW112830   2.763   4.513   5.543
 3977SOL    HW212831   2.790   4.525   5.704
 3978SOL     OW12832   6.077   6.333   5.125
 3978SOL    HW112833   6.068   6.290   5.035
 3978SOL    HW212834   6.008   6.295   5.186
 3979SOL     OW12835   2.904   5.719   0.885
 3979SOL    HW112836   2.828   5.781   0.864
 3979SOL    HW212837   2.990   5.762   0.857
 3980SOL     OW12838   0.665   5.629   0.008
 3980SOL    HW112839   0.588   5.688   7.005
 3980SOL    HW212840   0.690   5.642   0.104
 3981SOL     OW12841   2.051   1.540   0.605
 3981SOL    HW112842   2.124   1.593   0.648
 3981SOL    HW212843   2.007   1.596   0.535
 3982SOL     OW12844   2.037   0.293   4.200
 3982SOL    HW112845   1.964   0.333   4.145
 3982SOL    HW212846   2.021   0.314   4.297
 3983SOL     OW12847   5.021   5.322   4.645
 3983SOL    HW112848   5.111   5.290   4.676
 3983SOL    HW212849   4.986   5.261   4.575
 3984SOL     OW12850   6.955   0.780   2.528
 3984SOL    HW112851   7.015   0.700   2.518
 3984SOL    HW212852   6.875   0.755   2.582
 3985SOL     OW12853   3.275   4.873   6.429
 3985SOL    HW112854   3.346   4.803   6.434
 3985SOL    HW212855   3.306   4.948   6.370
 3986SOL     OW12856   6.154   1.748   2.908
 3986SOL    HW112857   6.089   1.680   2.942
 3986SOL    HW212858   6.201   1.791   2.985
 3987SOL     OW12859   2.863   5.267   4.257
 3987SOL    HW112860   2.828   5.227   4.342
 3987SOL    HW212861   2.923   5.202   4.211
 3988SOL     OW12862   3.967   3.524   6.806
 3988SOL    HW112863   3.964   3.545   6.904
 3988SOL    HW212864   3.924   3.598   6.755
 3989SOL     OW12865   6.676   2.402   6.747
 3989SOL    HW112866   6.708   2.313   6.778
 3989SOL    HW212867   6.663   2.463   6.825
 3990SOL     OW12868   5.273   2.167   3.081
 3990SOL    HW112869   5.177   2.156   3.057
 3990SOL    HW212870   5.308   2.251   3.040
 3991SOL     OW12871   6.089   0.897   1.879
 3991SOL    HW112872   6.073   0.837   1.956
 3991SOL    HW212873   6.006   0.904   1.824
 3992SOL     OW12874   3.083   2.383   6.869
 3992SOL    HW112875   3.180   2.387   6.844
 3992SOL    HW212876   3.067   2.303   6.926
 3993SOL     OW12877   1.102   2.119   3.146
 3993SOL    HW112878   1.168   2.115   3.071
 3993SOL    HW212879   1.057   2.029   3.155
 3994SOL     OW12880   0.481   0.865   6.516
 3994SOL    HW112881   0.448   0.772   6.497
 3994SOL    HW212882   0.446   0.927   6.446
 3995SOL     OW12883   1.941   3.810   4.968
 3995SOL    HW112884   2.023   3.753   4.972
 3995SOL    HW212885   1.912   3.820   4.873
 3996SOL     OW12886   1.105   1.173   4.206
 3996SOL    HW112887   1.104   1.238   4.130
 3996SOL    HW212888   1.124   1.222   4.291
 3997SOL     OW12889   4.841   1.349   3.582
 3997SOL    HW112890   4.822   1.400   3.666
 3997SOL    HW212891   4.935   1.366   3.552
 3998SOL     OW12892   4.342   1.192   3.126
 3998SOL    HW112893   4.282   1.120   3.162
 3998SOL    HW212894   4.405   1.222   3.198
 3999SOL     OW12895   5.864   3.547   3.984
 3999SOL    HW112896   5.948   3.567   4.033
 3999SOL    HW212897   5.825   3.461   4.018
 4000SOL     OW12898   3.248   5.631   3.160
 4000SOL    HW112899   3.299   5.712   3.131
 4000SOL    HW212900   3.151   5.653   3.170
 4001SOL     OW12901   2.721   2.344   4.076
 4001SOL    HW112902   2.647   2.314   4.015
 4001SOL    HW212903   2.809   2.331   4.030
 4002SOL     OW12904   2.677   2.763   1.049
 4002SOL    HW112905   2.764   2.724   1.079
 4002SOL    HW212906   2.683   2.789   0.953
 4003SOL     OW12907   3.408   5.742   4.650
 4003SOL    HW112908   3.410   5.656   4.598
 4003SOL    HW212909   3.313   5.770   4.664
 4004SOL     OW12910   5.438   2.132   3.618
 4004SOL    HW112911   5.467   2.141   3.523
 4004SOL    HW212912   5.387   2.214   3.645
 4005SOL     OW12913   5.000   5.908   0.679
 4005SOL    HW112914   5.009   5.817   0.638
 4005SOL    HW212915   5.077   5.965   0.649
 4006SOL     OW12916   3.743   5.587   3.370
 4006SOL    HW112917   3.774   5.537   3.290
 4006SOL    HW212918   3.645   5.604   3.364
 4007SOL     OW12919   0.912   2.461   1.622
 4007SOL    HW112920   0.995   2.479   1.675
 4007SOL    HW212921   0.839   2.432   1.684
 4008SOL     OW12922   3.368   1.828   3.725
 4008SOL    HW112923   3.420   1.750   3.693
 4008SOL    HW212924   3.422   1.878   3.794
 4009SOL     OW12925   5.716   3.271   0.810
 4009SOL    HW112926   5.745   3.289   0.716
 4009SOL    HW212927   5.620   3.295   0.820
 4010SOL     OW12928   2.442   2.568   1.913
 4010SOL    HW112929   2.387   2.556   1.830
 4010SOL    HW212930   2.508   2.492   1.920
 4011SOL     OW12931   0.344   0.686   1.852
 4011SOL    HW112932   0.256   0.735   1.855
 4011SOL    HW212933   0.414   0.742   1.896
 4012SOL     OW12934   4.006   5.717   1.419
 4012SOL    HW112935   4.041   5.724   1.326
 4012SOL    HW212936   4.067   5.767   1.481
 4013SOL     OW12937   2.968   6.653   0.024
 4013SOL    HW112938   2.919   6.720   6.988
 4013SOL    HW212939   3.049   6.621   6.994
 4014SOL     OW12940   4.044   6.133   3.334
 4014SOL    HW112941   4.115   6.075   3.375
 4014SOL    HW212942   4.083   6.222   3.310
 4015SOL     OW12943   4.928   5.398   6.552
 4015SOL    HW112944   4.890   5.443   6.470
 4015SOL    HW212945   5.020   5.365   6.531
 4016SOL     OW12946   2.063   5.863   6.771
 4016SOL    HW112947   2.031   5.948   6.811
 4016SOL    HW212948   2.052   5.788   6.837
 4017SOL     OW12949   0.335   6.357   1.001
 4017SOL    HW112950   0.399   6.308   0.941
 4017SOL    HW212951   0.323   6.305   1.086
 4018SOL     OW12952   5.159   6.141   3.136
 4018SOL    HW112953   5.152   6.235   3.169
 4018SOL    HW212954   5.080   6.120   3.078
 4019SOL     OW12955   5.925   3.977   3.015
 4019SOL    HW112956   5.969   3.925   3.089
 4019SOL    HW212957   5.980   4.057   2.993
 4020SOL     OW12958   5.400   2.155   6.096
 4020SOL    HW112959   5.350   2.242   6.101
 4020SOL    HW212960   5.360   2.098   6.025
 4021SOL     OW12961   3.705   3.817   6.180
 4021SOL    HW112962   3.720   3.911   6.150
 4021SOL    HW212963   3.736   3.754   6.110
 4022SOL     OW12964   4.197   0.223   0.060
 4022SOL    HW112965   4.162   0.299   0.114
 4022SOL    HW212966   4.121   0.165   0.031
 4023SOL     OW12967   5.949   2.346   5.269
 4023SOL    HW112968   5.997   2.410   5.209
 4023SOL    HW212969   5.852   2.369   5.271
 4024SOL     OW12970   3.802   6.515   3.994
 4024SOL    HW112971   3.727   6.492   3.932
 4024SOL    HW212972   3.834   6.432   4.039
 4025SOL     OW12973   0.944   5.975   4.133
 4025SOL    HW112974   0.917   5.974   4.037
 4025SOL    HW212975   1.035   5.934   4.142
 4026SOL     OW12976   6.559   6.025   4.580
 4026SOL    HW112977   6.566   6.123   4.602
 4026SOL    HW212978   6.492   6.011   4.508
 4027SOL     OW12979   3.529   4.227   1.895
 4027SOL    HW112980   3.611   4.172   1.876
 4027SOL    HW212981   3.556   4.317   1.929
 4028SOL     OW12982   1.108   2.519   4.005
 4028SOL    HW112983   1.040   2.592   4.008
 4028SOL    HW212984   1.138   2.506   3.911
 4029SOL     OW12985   1.549   4.144   6.327
 4029SOL    HW112986   1.510   4.091   6.402
 4029SOL    HW212987   1.477   4.166   6.261
 4030SOL     OW12988   1.374   2.040   6.066
 4030SOL    HW112989   1.442   2.045   6.139
 4030SOL    HW212990   1.421   2.037   5.978
 4031SOL     OW12991   4.947   6.145   2.970
 4031SOL    HW112992   4.936   6.244   2.971
 4031SOL    HW212993   4.919   6.108   2.882
 4032SOL     OW12994   5.855   0.337   3.098
 4032SOL    HW112995   5.824   0.257   3.150
 4032SOL    HW212996   5.948   0.361   3.125
 4033SOL     OW12997   3.635   2.905   3.160
 4033SOL    HW112998   3.549   2.909   3.108
 4033SOL    HW212999   3.616   2.871   3.252
 4034SOL     OW13000   5.369   1.907   5.137
 4034SOL    HW113001   5.373   2.005   5.154
 4034SOL    HW213002   5.323   1.890   5.050
 4035SOL     OW13003   6.396   4.233   1.359
 4035SOL    HW113004   6.367   4.313   1.307
 4035SOL    HW213005   6.495   4.237   1.375
 4036SOL     OW13006   5.329   6.437   2.986
 4036SOL    HW113007   5.311   6.416   3.082
 4036SOL    HW213008   5.428   6.444   2.971
 4037SOL     OW13009   1.783   2.417   0.836
 4037SOL    HW113010   1.763   2.327   0.873
 4037SOL    HW213011   1.875   2.418   0.797
 4038SOL     OW13012   4.960   4.936   2.320
 4038SOL    HW113013   4.905   4.921   2.403
 4038SOL    HW213014   4.995   4.849   2.287
 4039SOL     OW13015   5.295   5.132   1.469
 4039SOL    HW113016   5.304   5.057   1.404
 4039SOL    HW213017   5.340   5.213   1.434
 4040SOL     OW13018   2.764   6.555   0.164
 4040SOL    HW113019   2.831   6.608   0.112
 4040SOL    HW213020   2.804   6.528   0.251
 4041SOL     OW13021   1.726   5.559   2.341
 4041SOL    HW113022   1.689   5.473   2.306
 4041SOL    HW213023   1.794   5.595   2.278
 4042SOL     OW13024   6.356   4.423   2.676
 4042SOL    HW113025   6.288   4.355   2.646
 4042SOL    HW213026   6.407   4.386   2.754
 4043SOL     OW13027   5.488   2.358   4.190
 4043SOL    HW113028   5.436   2.336   4.273
 4043SOL    HW213029   5.581   2.324   4.199
 4044SOL     OW13030   5.171   0.730   4.848
 4044SOL    HW113031   5.241   0.764   4.785
 4044SOL    HW213032   5.214   0.676   4.920
 4045SOL     OW13033   3.023   4.149   6.545
 4045SOL    HW113034   2.932   4.154   6.586
 4045SOL    HW213035   3.092   4.151   6.617
 4046SOL     OW13036   0.921   1.824   3.354
 4046SOL    HW113037   0.825   1.844   3.334
 4046SOL    HW213038   0.952   1.882   3.429
 4047SOL     OW13039   2.347   2.878   0.719
 4047SOL    HW113040   2.353   2.837   0.810
 4047SOL    HW213041   2.365   2.976   0.725
 4048SOL     OW13042   5.883   0.946   1.722
 4048SOL    HW113043   5.886   1.028   1.665
 4048SOL    HW213044   5.847   0.869   1.669
 4049SOL     OW13045   6.331   6.333   6.432
 4049SOL    HW113046   6.318   6.426   6.466
 4049SOL    HW213047   6.318   6.268   6.507
 4050SOL     OW13048   0.835   7.008   0.280
 4050SOL    HW113049   0.815   6.910   0.280
 4050SOL    HW213050   0.816   0.026   0.371
 4051SOL     OW13051   2.907   3.242   0.040
 4051SOL    HW113052   2.938   3.246   6.965
 4051SOL    HW213053   2.849   3.321   0.059
 4052SOL     OW13054   0.971   0.179   1.358
 4052SOL    HW113055   0.964   0.193   1.260
 4052SOL    HW213056   0.983   0.267   1.404
 4053SOL     OW13057   3.236   4.940   4.167
 4053SOL    HW113058   3.204   4.902   4.254
 4053SOL    HW213059   3.336   4.947   4.168
 4054SOL     OW13060   2.068   3.319   0.442
 4054SOL    HW113061   2.148   3.291   0.390
 4054SOL    HW213062   2.094   3.390   0.507
 4055SOL     OW13063   2.771   3.208   5.513
 4055SOL    HW113064   2.725   3.288   5.476
 4055SOL    HW213065   2.744   3.127   5.461
 4056SOL     OW13066   4.304   3.240   6.522
 4056SOL    HW113067   4.220   3.188   6.505
 4056SOL    HW213068   4.367   3.184   6.577
 4057SOL     OW13069   4.864   3.194   0.247
 4057SOL    HW113070   4.924   3.233   0.177
 4057SOL    HW213071   4.813   3.267   0.292
 4058SOL     OW13072   1.514   1.542   4.350
 4058SOL    HW113073   1.456   1.576   4.424
 4058SOL    HW213074   1.479   1.575   4.263
 4059SOL     OW13075   2.274   2.327   3.318
 4059SOL    HW113076   2.370   2.302   3.307
 4059SOL    HW213077   2.234   2.277   3.395
 4060SOL     OW13078   3.794   4.825   5.184
 4060SOL    HW113079   3.890   4.850   5.196
 4060SOL    HW213080   3.767   4.846   5.090
 4061SOL     OW13081   3.240   4.523   1.677
 4061SOL    HW113082   3.152   4.571   1.672
 4061SOL    HW213083   3.227   4.426   1.661
 4062SOL     OW13084   4.013   1.657   3.194
 4062SOL    HW113085   4.008   1.595   3.116
 4062SOL    HW213086   4.096   1.637   3.247
 4063SOL     OW13087   4.128   6.050   5.658
 4063SOL    HW113088   4.081   6.045   5.570
 4063SOL    HW213089   4.171   6.140   5.667
 4064SOL     OW13090   2.261   6.580   2.792
 4064SOL    HW113091   2.223   6.653   2.735
 4064SOL    HW213092   2.300   6.509   2.733
 4065SOL     OW13093   1.117   0.144   0.415
 4065SOL    HW113094   1.074   0.218   0.363
 4065SOL    HW213095   1.089   0.150   0.511
 4066SOL     OW13096   5.345   4.787   2.338
 4066SOL    HW113097   5.312   4.868   2.289
 4066SOL    HW213098   5.444   4.780   2.327
 4067SOL     OW13099   5.788   2.052   2.737
 4067SOL    HW113100   5.756   2.136   2.780
 4067SOL    HW213101   5.710   1.999   2.703
 4068SOL     OW13102   4.787   0.172   4.548
 4068SOL    HW113103   4.849   0.189   4.471
 4068SOL    HW213104   4.784   0.074   4.568
 4069SOL     OW13105   4.493   3.425   0.105
 4069SOL    HW113106   4.417   3.440   0.042
 4069SOL    HW213107   4.476   3.474   0.190
 4070SOL     OW13108   1.668   3.266   2.684
 4070SOL    HW113109   1.605   3.304   2.752
 4070SOL    HW213110   1.762   3.277   2.715
 4071SOL     OW13111   1.864   1.403   5.095
 4071SOL    HW113112   1.958   1.372   5.078
 4071SOL    HW213113   1.816   1.413   5.008
 4072SOL     OW13114   2.125   6.722   4.399
 4072SOL    HW113115   2.150   6.628   4.424
 4072SOL    HW213116   2.029   6.737   4.420
 4073SOL     OW13117   2.593   5.498   5.885
 4073SOL    HW113118   2.575   5.595   5.904
 4073SOL    HW213119   2.506   5.450   5.874
 4074SOL     OW13120   0.753   3.180   1.729
 4074SOL    HW113121   0.738   3.186   1.631
 4074SOL    HW213122   0.755   3.272   1.768
 4075SOL     OW13123   4.957   1.983   2.652
 4075SOL    HW113124   4.993   1.913   2.713
 4075SOL    HW213125   4.877   1.947   2.603
 4076SOL     OW13126   2.539   4.207   5.315
 4076SOL    HW113127   2.631   4.185   5.346
 4076SOL    HW213128   2.500   4.128   5.268
 4077SOL     OW13129   2.693   6.138   0.997
 4077SOL    HW113130   2.757   6.149   1.073
 4077SOL    HW213131   2.713   6.054   0.947
 4078SOL     OW13132   5.889   5.348   2.091
 4078SOL    HW113133   5.947   5.420   2.054
 4078SOL    HW213134   5.921   5.323   2.183
 4079SOL     OW13135   1.470   0.510   3.474
 4079SOL    HW113136   1.534   0.586   3.476
 4079SOL    HW213137   1.511   0.432   3.428
 4080SOL     OW13138   2.971   3.865   6.987
 4080SOL    HW113139   2.959   3.866   6.888
 4080SOL    HW213140   3.048   3.806   7.011
 4081SOL     OW13141   1.927   1.040   4.478
 4081SOL    HW113142   1.837   1.040   4.435
 4081SOL    HW213143   1.917   1.031   4.577
 4082SOL     OW13144   1.642   1.831   6.752
 4082SOL    HW113145   1.597   1.745   6.730
 4082SOL    HW213146   1.742   1.819   6.748
 4083SOL     OW13147   5.763   4.189   3.674
 4083SOL    HW113148   5.827   4.184   3.597
 4083SOL    HW213149   5.689   4.252   3.651
 4084SOL     OW13150   4.810   2.805   3.234
 4084SOL    HW113151   4.775   2.768   3.320
 4084SOL    HW213152   4.822   2.904   3.244
 4085SOL     OW13153   2.444   5.045   1.302
 4085SOL    HW113154   2.395   5.066   1.387
 4085SOL    HW213155   2.541   5.032   1.321
 4086SOL     OW13156   7.001   5.075   0.321
 4086SOL    HW113157   0.076   5.100   0.305
 4086SOL    HW213158   6.992   5.040   0.414
 4087SOL     OW13159   2.639   1.141   2.677
 4087SOL    HW113160   2.691   1.143   2.591
 4087SOL    HW213161   2.633   1.047   2.710
 4088SOL     OW13162   6.379   1.056   5.549
 4088SOL    HW113163   6.315   1.009   5.489
 4088SOL    HW213164   6.329   1.108   5.618
 4089SOL     OW13165   0.176   5.676   4.362
 4089SOL    HW113166   0.098   5.732   4.334
 4089SOL    HW213167   0.144   5.584   4.385
 4090SOL     OW13168   1.912   6.247   5.427
 4090SOL    HW113169   1.854   6.298   5.364
 4090SOL    HW213170   1.932   6.156   5.388
 4091SOL     OW13171   1.109   5.345   0.071
 4091SOL    HW113172   1.076   5.375   7.002
 4091SOL    HW213173   1.091   5.247   0.082
 4092SOL     OW13174   5.027   3.147   4.578
 4092SOL    HW113175   4.983   3.212   4.515
 4092SOL    HW213176   4.957   3.091   4.622
 4093SOL     OW13177   5.720   5.668   1.811
 4093SOL    HW113178   5.681   5.730   1.879
 4093SOL    HW213179   5.797   5.713   1.766
 4094SOL     OW13180   1.197   4.626   6.549
 4094SOL    HW113181   1.257   4.696   6.589
 4094SOL    HW213182   1.107   4.666   6.534
 4095SOL     OW13183   0.674   3.297   0.447
 4095SOL    HW113184   0.727   3.377   0.418
 4095SOL    HW213185   0.593   3.288   0.388
 4096SOL     OW13186   2.204   1.184   6.176
 4096SOL    HW113187   2.116   1.139   6.163
 4096SOL    HW213188   2.240   1.213   6.088
 4097SOL     OW13189   6.117   4.424   5.450
 4097SOL    HW113190   6.193   4.452   5.509
 4097SOL    HW213191   6.045   4.384   5.506
 4098SOL     OW13192   1.994   2.798   1.654
 4098SOL    HW113193   1.899   2.773   1.639
 4098SOL    HW213194   2.010   2.891   1.621
 4099SOL     OW13195   3.627   5.036   0.062
 4099SOL    HW113196   3.529   5.014   0.063
 4099SOL    HW213197   3.640   5.129   0.027
 4100SOL     OW13198   0.985   0.723   3.955
 4100SOL    HW113199   1.008   0.631   3.986
 4100SOL    HW213200   1.065   0.782   3.965
 4101SOL     OW13201   6.604   1.025   6.296
 4101SOL    HW113202   6.646   1.079   6.224
 4101SOL    HW213203   6.652   1.041   6.383
 4102SOL     OW13204   2.210   0.739   0.717
 4102SOL    HW113205   2.271   0.818   0.721
 4102SOL    HW213206   2.119   0.769   0.687
 4103SOL     OW13207   6.975   0.211   2.193
 4103SOL    HW113208   0.006   0.187   2.276
 4103SOL    HW213209   6.930   0.299   2.206
 4104SOL     OW13210   0.315   5.041   3.122
 4104SOL    HW113211   0.392   5.082   3.172
 4104SOL    HW213212   0.230   5.059   3.171
 4105SOL     OW13213   5.012   1.271   1.940
 4105SOL    HW113214   5.007   1.353   1.997
 4105SOL    HW213215   4.953   1.200   1.979
 4106SOL     OW13216   0.193   2.027   3.717
 4106SOL    HW113217   0.109   2.007   3.667
 4106SOL    HW213218   0.200   2.125   3.732
 4107SOL     OW13219   0.572   5.907   6.581
 4107SOL    HW113220   0.596   5.828   6.525
 4107SOL    HW213221   0.591   5.991   6.530
 4108SOL     OW13222   0.674   5.785   3.999
 4108SOL    HW113223   0.642   5.809   4.091
 4108SOL    HW213224   0.717   5.865   3.957
 4109SOL     OW13225   5.720   5.817   3.477
 4109SOL    HW113226   5.640   5.835   3.420
 4109SOL    HW213227   5.766   5.902   3.499
 4110SOL     OW13228   3.857   3.084   6.412
 4110SOL    HW113229   3.942   3.071   6.462
 4110SOL    HW213230   3.875   3.076   6.314
 4111SOL     OW13231   5.743   5.219   6.344
 4111SOL    HW113232   5.690   5.216   6.259
 4111SOL    HW213233   5.707   5.151   6.408
 4112SOL     OW13234   5.291   6.890   4.740
 4112SOL    HW113235   5.390   6.904   4.740
 4112SOL    HW213236   5.245   6.975   4.717
 4113SOL     OW13237   4.565   5.020   4.795
 4113SOL    HW113238   4.508   4.968   4.733
 4113SOL    HW213239   4.651   5.044   4.749
 4114SOL     OW13240   6.209   1.320   2.991
 4114SOL    HW113241   6.293   1.356   3.032
 4114SOL    HW213242   6.233   1.260   2.914
 4115SOL     OW13243   2.536   4.668   3.695
 4115SOL    HW113244   2.481   4.716   3.763
 4115SOL    HW213245   2.618   4.630   3.739
 4116SOL     OW13246   5.281   2.840   3.656
 4116SOL    HW113247   5.222   2.763   3.631
 4116SOL    HW213248   5.349   2.854   3.585
 4117SOL     OW13249   1.440   2.060   2.774
 4117SOL    HW113250   1.412   2.155   2.760
 4117SOL    HW213251   1.539   2.055   2.782
 4118SOL     OW13252   6.509   6.813   6.283
 4118SOL    HW113253   6.411   6.820   6.300
 4118SOL    HW213254   6.552   6.901   6.306
 4119SOL     OW13255   3.180   0.897   3.390
 4119SOL    HW113256   3.251   0.827   3.383
 4119SOL    HW213257   3.141   0.914   3.299
 4120SOL     OW13258   4.308   1.669   6.316
 4120SOL    HW113259   4.309   1.679   6.217
 4120SOL    HW213260   4.325   1.573   6.340
 4121SOL     OW13261   6.562   6.655   2.278
 4121SOL    HW113262   6.494   6.581   2.271
 4121SOL    HW213263   6.517   6.740   2.303
 4122SOL     OW13264   0.945   6.580   4.903
 4122SOL    HW113265   0.902   6.533   4.979
 4122SOL    HW213266   0.985   6.666   4.935
 4123SOL     OW13267   4.512   5.331   4.191
 4123SOL    HW113268   4.518   5.235   4.218
 4123SOL    HW213269   4.490   5.387   4.271
 4124SOL     OW13270   6.699   6.718   1.091
 4124SOL    HW113271   6.762   6.778   1.040
 4124SOL    HW213272   6.605   6.745   1.071
 4125SOL     OW13273   4.702   2.751   2.580
 4125SOL    HW113274   4.714   2.824   2.647
 4125SOL    HW213275   4.763   2.675   2.602
 4126SOL     OW13276   1.559   3.003   2.043
 4126SOL    HW113277   1.602   3.052   2.119
 4126SOL    HW213278   1.566   2.905   2.060
 4127SOL     OW13279   4.693   2.649   4.929
 4127SOL    HW113280   4.653   2.692   4.848
 4127SOL    HW213281   4.656   2.557   4.940
 4128SOL     OW13282   0.586   2.894   1.650
 4128SOL    HW113283   0.653   2.832   1.609
 4128SOL    HW213284   0.523   2.926   1.579
 4129SOL     OW13285   3.628   1.460   0.305
 4129SOL    HW113286   3.566   1.483   0.231
 4129SOL    HW213287   3.667   1.544   0.343
 4130SOL     OW13288   6.122   2.424   0.741
 4130SOL    HW113289   6.089   2.480   0.818
 4130SOL    HW213290   6.084   2.332   0.748
 4131SOL     OW13291   6.682   0.697   2.549
 4131SOL    HW113292   6.713   0.688   2.455
 4131SOL    HW213293   6.600   0.755   2.551
 4132SOL     OW13294   5.933   3.908   4.212
 4132SOL    HW113295   5.966   3.999   4.239
 4132SOL    HW213296   5.856   3.883   4.270
 4133SOL     OW13297   4.537   6.366   1.088
 4133SOL    HW113298   4.576   6.276   1.109
 4133SOL    HW213299   4.594   6.413   1.020
 4134SOL     OW13300   2.466   3.420   0.592
 4134SOL    HW113301   2.564   3.423   0.571
 4134SOL    HW213302   2.436   3.512   0.620
 4135SOL     OW13303   0.216   2.273   2.604
 4135SOL    HW113304   0.261   2.231   2.682
 4135SOL    HW213305   0.145   2.212   2.568
 4136SOL     OW13306   1.121   3.626   1.868
 4136SOL    HW113307   1.104   3.629   1.769
 4136SOL    HW213308   1.115   3.718   1.906
 4137SOL     OW13309   1.165   2.792   0.287
 4137SOL    HW113310   1.153   2.796   0.188
 4137SOL    HW213311   1.260   2.813   0.310
 4138SOL     OW13312   4.065   4.967   1.243
 4138SOL    HW113313   4.161   4.939   1.242
 4138SOL    HW213314   4.019   4.926   1.322
 4139SOL     OW13315   1.363   2.130   4.106
 4139SOL    HW113316   1.296   2.145   4.032
 4139SOL    HW213317   1.317   2.139   4.194
 4140SOL     OW13318   3.321   1.984   4.111
 4140SOL    HW113319   3.321   1.893   4.152
 4140SOL    HW213320   3.313   2.053   4.183
 4141SOL     OW13321   4.993   0.416   0.085
 4141SOL    HW113322   4.903   0.378   0.065
 4141SOL    HW213323   5.000   0.509   0.048
 4142SOL     OW13324   6.986   4.180   1.865
 4142SOL    HW113325   6.954   4.111   1.929
 4142SOL    HW213326   0.054   4.216   1.896
 4143SOL     OW13327   5.348   3.419   0.584
 4143SOL    HW113328   5.400   3.333   0.589
 4143SOL    HW213329   5.267   3.405   0.527
 4144SOL     OW13330   5.186   1.638   0.330
 4144SOL    HW113331   5.186   1.635   0.430
 4144SOL    HW213332   5.147   1.553   0.294
 4145SOL     OW13333   1.373   5.961   0.730
 4145SOL    HW113334   1.296   6.008   0.686
 4145SOL    HW213335   1.338   5.898   0.800
 4146SOL     OW13336   6.722   0.778   3.919
 4146SOL    HW113337   6.685   0.764   4.011
 4146SOL    HW213338   6.704   0.696   3.864
 4147SOL     OW13339   5.391   4.557   6.165
 4147SOL    HW113340   5.398   4.597   6.257
 4147SOL    HW213341   5.312   4.496   6.161
 4148SOL     OW13342   2.657   0.458   5.417
 4148SOL    HW113343   2.619   0.532   5.473
 4148SOL    HW213344   2.680   0.494   5.327
 4149SOL     OW13345   0.234   3.632   1.737
 4149SOL    HW113346   0.208   3.548   1.785
 4149SOL    HW213347   0.181   3.709   1.773
 4150SOL     OW13348   6.881   1.901   5.400
 4150SOL    HW113349   6.952   1.932   5.337
 4150SOL    HW213350   6.805   1.861   5.349
 4151SOL     OW13351   1.852   0.133   5.527
 4151SOL    HW113352   1.788   0.210   5.527
 4151SOL    HW213353   1.930   0.156   5.585
 4152SOL     OW13354   4.164   5.560   1.973
 4152SOL    HW113355   4.083   5.585   2.027
 4152SOL    HW213356   4.135   5.516   1.888
 4153SOL     OW13357   6.372   5.032   1.815
 4153SOL    HW113358   6.277   5.050   1.841
 4153SOL    HW213359   6.409   5.111   1.767
 4154SOL     OW13360   0.590   5.741   3.644
 4154SOL    HW113361   0.490   5.731   3.645
 4154SOL    HW213362   0.616   5.794   3.563
 4155SOL     OW13363   6.969   1.936   1.099
 4155SOL    HW113364   0.046   1.935   1.074
 4155SOL    HW213365   6.927   2.020   1.066
 4156SOL     OW13366   6.864   5.202   4.890
 4156SOL    HW113367   6.783   5.150   4.917
 4156SOL    HW213368   6.853   5.297   4.917
 4157SOL     OW13369   5.752   6.049   3.105
 4157SOL    HW113370   5.829   5.995   3.139
 4157SOL    HW213371   5.717   6.007   3.022
 4158SOL     OW13372   1.933   2.543   2.037
 4158SOL    HW113373   1.993   2.463   2.049
 4158SOL    HW213374   1.870   2.527   1.961
 4159SOL     OW13375   3.080   2.174   3.569
 4159SOL    HW113376   3.174   2.195   3.596
 4159SOL    HW213377   3.016   2.226   3.627
 4160SOL     OW13378   5.770   0.088   7.011
 4160SOL    HW113379   5.835   0.164   7.015
 4160SOL    HW213380   5.716   0.085   0.075
 4161SOL     OW13381   1.593   1.980   1.713
 4161SOL    HW113382   1.580   2.078   1.704
 4161SOL    HW213383   1.660   1.948   1.646
 4162SOL     OW13384   6.201   5.613   1.471
 4162SOL    HW113385   6.283   5.670   1.474
 4162SOL    HW213386   6.226   5.519   1.449
 4163SOL     OW13387   5.788   1.383   3.288
 4163SOL    HW113388   5.868   1.352   3.237
 4163SOL    HW213389   5.752   1.467   3.247
 4164SOL     OW13390   0.912   6.818   5.647
 4164SOL    HW113391   0.815   6.792   5.646
 4164SOL    HW213392   0.951   6.803   5.557
 4165SOL     OW13393   4.779   6.982   6.244
 4165SOL    HW113394   4.746   0.052   6.273
 4165SOL    HW213395   4.705   6.931   6.201
 4166SOL     OW13396   5.587   1.246   1.555
 4166SOL    HW113397   5.569   1.284   1.464
 4166SOL    HW213398   5.543   1.157   1.563
 4167SOL     OW13399   2.970   5.252   6.126
 4167SOL    HW113400   3.060   5.224   6.092
 4167SOL    HW213401   2.981   5.309   6.207
 4168SOL     OW13402   6.949   4.119   0.793
 4168SOL    HW113403   6.873   4.098   0.854
 4168SOL    HW213404   6.921   4.189   0.727
 4169SOL     OW13405   5.941   3.886   5.177
 4169SOL    HW113406   5.958   3.911   5.082
 4169SOL    HW213407   6.026   3.891   5.229
 4170SOL     OW13408   4.786   2.718   5.195
 4170SOL    HW113409   4.714   2.719   5.126
 4170SOL    HW213410   4.816   2.812   5.213
 4171SOL     OW13411   0.786   5.529   1.085
 4171SOL    HW113412   0.732   5.490   1.160
 4171SOL    HW213413   0.754   5.493   0.998
 4172SOL     OW13414   2.424   2.917   0.431
 4172SOL    HW113415   2.416   2.833   0.483
 4172SOL    HW213416   2.491   2.978   0.474
 4173SOL     OW13417   5.126   3.296   5.336
 4173SOL    HW113418   5.073   3.368   5.291
 4173SOL    HW213419   5.156   3.328   5.426
 4174SOL     OW13420   5.154   1.434   2.277
 4174SOL    HW113421   5.233   1.408   2.221
 4174SOL    HW213422   5.186   1.483   2.358
 4175SOL     OW13423   1.501   4.637   4.828
 4175SOL    HW113424   1.525   4.546   4.795
 4175SOL    HW213425   1.578   4.674   4.880
 4176SOL     OW13426   4.077   6.993   1.478
 4176SOL    HW113427   4.163   6.955   1.445
 4176SOL    HW213428   4.012   7.001   1.403
 4177SOL     OW13429   5.436   4.724   5.036
 4177SOL    HW113430   5.400   4.713   4.943
 4177SOL    HW213431   5.460   4.635   5.073
 4178SOL     OW13432   4.306   0.389   3.220
 4178SOL    HW113433   4.324   0.404   3.317
 4178SOL    HW213434   4.215   0.423   3.197
 4179SOL     OW13435   5.446   3.985   3.243
 4179SOL    HW113436   5.517   3.939   3.296
 4179SOL    HW213437   5.428   3.933   3.159
 4180SOL     OW13438   4.700   2.931   0.948
 4180SOL    HW113439   4.704   2.848   1.002
 4180SOL    HW213440   4.624   2.988   0.978
 4181SOL     OW13441   4.672   0.757   6.663
 4181SOL    HW113442   4.651   0.660   6.673
 4181SOL    HW213443   4.769   0.773   6.680
 4182SOL     OW13444   0.407   5.258   2.958
 4182SOL    HW113445   0.349   5.191   3.004
 4182SOL    HW213446   0.469   5.212   2.895
 4183SOL     OW13447   2.867   1.091   0.411
 4183SOL    HW113448   2.853   1.118   0.316
 4183SOL    HW213449   2.946   1.139   0.449
 4184SOL     OW13450   3.660   0.281   2.369
 4184SOL    HW113451   3.757   0.266   2.390
 4184SOL    HW213452   3.642   0.255   2.274
 4185SOL     OW13453   0.842   4.267   3.245
 4185SOL    HW113454   0.867   4.273   3.342
 4185SOL    HW213455   0.918   4.301   3.189
 4186SOL     OW13456   2.308   5.847   6.634
 4186SOL    HW113457   2.278   5.901   6.555
 4186SOL    HW213458   2.233   5.841   6.700
 4187SOL     OW13459   2.484   3.007   6.197
 4187SOL    HW113460   2.530   2.929   6.155
 4187SOL    HW213461   2.385   3.000   6.181
 4188SOL     OW13462   5.275   0.737   5.126
 4188SOL    HW113463   5.241   0.830   5.132
 4188SOL    HW213464   5.229   0.680   5.193
 4189SOL     OW13465   3.780   5.069   4.267
 4189SOL    HW113466   3.687   5.033   4.262
 4189SOL    HW213467   3.834   5.033   4.192
 4190SOL     OW13468   1.054   0.245   1.077
 4190SOL    HW113469   0.980   0.209   1.021
 4190SOL    HW213470   1.096   0.323   1.031
 4191SOL     OW13471   5.731   4.034   4.806
 4191SOL    HW113472   5.724   3.934   4.799
 4191SOL    HW213473   5.722   4.060   4.902
 4192SOL     OW13474   1.098   1.506   2.725
 4192SOL    HW113475   1.124   1.503   2.822
 4192SOL    HW213476   1.059   1.595   2.704
 4193SOL     OW13477   5.464   0.744   0.740
 4193SOL    HW113478   5.378   0.769   0.785
 4193SOL    HW213479   5.508   0.670   0.792
 4194SOL     OW13480   4.771   0.199   4.037
 4194SOL    HW113481   4.725   0.111   4.042
 4194SOL    HW213482   4.867   0.189   4.063
 4195SOL     OW13483   4.168   5.175   1.663
 4195SOL    HW113484   4.197   5.110   1.594
 4195SOL    HW213485   4.235   5.178   1.737
 4196SOL     OW13486   6.679   2.385   2.802
 4196SOL    HW113487   6.767   2.378   2.848
 4196SOL    HW213488   6.606   2.350   2.861
 4197SOL     OW13489   4.538   5.381   5.710
 4197SOL    HW113490   4.575   5.347   5.623
 4197SOL    HW213491   4.444   5.414   5.695
 4198SOL     OW13492   6.737   2.019   1.245
 4198SOL    HW113493   6.740   2.119   1.236
 4198SOL    HW213494   6.820   1.980   1.204
 4199SOL     OW13495   0.991   2.085   5.249
 4199SOL    HW113496   0.966   1.989   5.233
 4199SOL    HW213497   0.937   2.122   5.325
 4200SOL     OW13498   3.017   0.376   6.876
 4200SOL    HW113499   3.026   0.470   6.911
 4200SOL    HW213500   2.964   0.321   6.940
 4201SOL     OW13501   6.400   0.200   3.676
 4201SOL    HW113502   6.459   0.221   3.754
 4201SOL    HW213503   6.429   0.114   3.634
 4202SOL     OW13504   2.427   5.618   6.158
 4202SOL    HW113505   2.356   5.558   6.121
 4202SOL    HW213506   2.389   5.710   6.172
 4203SOL     OW13507   4.915   4.312   0.606
 4203SOL    HW113508   4.932   4.238   0.541
 4203SOL    HW213509   4.866   4.386   0.560
 4204SOL     OW13510   4.039   3.648   4.663
 4204SOL    HW113511   3.955   3.602   4.632
 4204SOL    HW213512   4.093   3.675   4.583
 4205SOL     OW13513   4.306   5.988   4.669
 4205SOL    HW113514   4.325   6.003   4.766
 4205SOL    HW213515   4.228   5.926   4.659
 4206SOL     OW13516   6.320   1.619   4.996
 4206SOL    HW113517   6.246   1.599   4.932
 4206SOL    HW213518   6.353   1.713   4.981
 4207SOL     OW13519   2.058   2.763   1.935
 4207SOL    HW113520   2.036   2.782   1.840
 4207SOL    HW213521   2.011   2.679   1.964
 4208SOL     OW13522   0.127   3.280   5.379
 4208SOL    HW113523   0.106   3.375   5.400
 4208SOL    HW213524   0.068   3.220   5.434
 4209SOL     OW13525   6.951   6.101   3.557
 4209SOL    HW113526   7.012   6.034   3.515
 4209SOL    HW213527   6.999   6.147   3.631
 4210SOL     OW13528   3.242   3.238   2.658
 4210SOL    HW113529   3.278   3.331   2.650
 4210SOL    HW213530   3.312   3.172   2.632
 4211SOL     OW13531   3.738   0.498   5.563
 4211SOL    HW113532   3.696   0.516   5.651
 4211SOL    HW213533   3.802   0.422   5.572
 4212SOL     OW13534   6.268   2.067   3.026
 4212SOL    HW113535   6.294   2.073   3.122
 4212SOL    HW213536   6.169   2.061   3.018
 4213SOL     OW13537   2.812   0.485   2.385
 4213SOL    HW113538   2.866   0.547   2.329
 4213SOL    HW213539   2.756   0.538   2.450
 4214SOL     OW13540   0.251   5.480   5.672
 4214SOL    HW113541   0.234   5.459   5.768
 4214SOL    HW213542   0.198   5.560   5.645
 4215SOL     OW13543   4.908   6.979   5.386
 4215SOL    HW113544   4.895   6.883   5.362
 4215SOL    HW213545   4.997   7.010   5.354
 4216SOL     OW13546   1.587   0.931   2.974
 4216SOL    HW113547   1.640   0.978   3.044
 4216SOL    HW213548   1.501   0.898   3.014
 4217SOL     OW13549   1.313   1.095   2.835
 4217SOL    HW113550   1.316   1.137   2.926
 4217SOL    HW213551   1.276   1.003   2.842
 4218SOL     OW13552   3.344   0.777   1.312
 4218SOL    HW113553   3.432   0.751   1.273
 4218SOL    HW213554   3.356   0.858   1.370
 4219SOL     OW13555   4.493   5.522   4.383
 4219SOL    HW113556   4.466   5.503   4.478
 4219SOL    HW213557   4.441   5.600   4.349
 4220SOL     OW13558   6.554   3.204   2.686
 4220SOL    HW113559   6.590   3.297   2.674
 4220SOL    HW213560   6.552   3.157   2.598
 4221SOL     OW13561   5.612   4.566   6.002
 4221SOL    HW113562   5.540   4.550   6.069
 4221SOL    HW213563   5.677   4.490   6.005
 4222SOL     OW13564   6.873   1.642   2.097
 4222SOL    HW113565   6.955   1.661   2.152
 4222SOL    HW213566   6.810   1.586   2.150
 4223SOL     OW13567   2.933   3.705   1.120
 4223SOL    HW113568   2.910   3.775   1.052
 4223SOL    HW213569   2.868   3.629   1.113
 4224SOL     OW13570   5.630   5.083   4.332
 4224SOL    HW113571   5.617   5.154   4.262
 4224SOL    HW213572   5.718   5.038   4.317
 4225SOL     OW13573   2.126   2.721   5.041
 4225SOL    HW113574   2.185   2.665   5.100
 4225SOL    HW213575   2.182   2.779   4.982
 4226SOL     OW13576   0.915   6.606   2.916
 4226SOL    HW113577   0.999   6.560   2.943
 4226SOL    HW213578   0.922   6.637   2.821
 4227SOL     OW13579   3.601   5.411   1.886
 4227SOL    HW113580   3.679   5.349   1.896
 4227SOL    HW213581   3.611   5.463   1.800
 4228SOL     OW13582   0.844   6.148   5.636
 4228SOL    HW113583   0.765   6.209   5.631
 4228SOL    HW213584   0.897   6.155   5.552
 4229SOL     OW13585   4.517   5.980   5.866
 4229SOL    HW113586   4.531   5.982   5.767
 4229SOL    HW213587   4.567   6.055   5.908
 4230SOL     OW13588   1.568   5.733   2.879
 4230SOL    HW113589   1.611   5.675   2.949
 4230SOL    HW213590   1.564   5.827   2.912
 4231SOL     OW13591   5.085   6.646   5.753
 4231SOL    HW113592   5.097   6.653   5.852
 4231SOL    HW213593   5.006   6.589   5.733
 4232SOL     OW13594   1.323   4.668   3.157
 4232SOL    HW113595   1.394   4.647   3.225
 4232SOL    HW213596   1.348   4.628   3.069
 4233SOL     OW13597   6.190   0.609   4.879
 4233SOL    HW113598   6.180   0.510   4.892
 4233SOL    HW213599   6.197   0.654   4.968
 4234SOL     OW13600   2.064   5.002   5.290
 4234SOL    HW113601   2.107   5.038   5.373
 4234SOL    HW213602   2.022   5.078   5.239
 4235SOL     OW13603   5.872   4.126   5.974
 4235SOL    HW113604   5.927   4.078   6.042
 4235SOL    HW213605   5.776   4.126   6.002
 4236SOL     OW13606   6.200   3.702   2.123
 4236SOL    HW113607   6.299   3.700   2.109
 4236SOL    HW213608   6.154   3.654   2.049
 4237SOL     OW13609   5.972   5.181   3.913
 4237SOL    HW113610   6.059   5.141   3.942
 4237SOL    HW213611   5.975   5.280   3.923
 4238SOL     OW13612   1.811   6.466   2.950
 4238SOL    HW113613   1.822   6.410   2.869
 4238SOL    HW213614   1.895   6.517   2.968
 4239SOL     OW13615   5.072   1.208   2.845
 4239SOL    HW113616   5.052   1.158   2.761
 4239SOL    HW213617   5.050   1.305   2.832
 4240SOL     OW13618   2.127   5.673   0.407
 4240SOL    HW113619   2.187   5.652   0.484
 4240SOL    HW213620   2.038   5.631   0.421
 4241SOL     OW13621   5.726   1.132   0.901
 4241SOL    HW113622   5.651   1.132   0.835
 4241SOL    HW213623   5.747   1.227   0.927
 4242SOL     OW13624   3.195   2.140   4.512
 4242SOL    HW113625   3.207   2.157   4.610
 4242SOL    HW213626   3.101   2.163   4.485
 4243SOL     OW13627   5.912   2.646   2.753
 4243SOL    HW113628   5.870   2.657   2.663
 4243SOL    HW213629   5.911   2.549   2.779
 4244SOL     OW13630   4.003   4.289   1.613
 4244SOL    HW113631   4.014   4.345   1.531
 4244SOL    HW213632   4.087   4.238   1.631
 4245SOL     OW13633   6.558   1.500   6.405
 4245SOL    HW113634   6.629   1.556   6.448
 4245SOL    HW213635   6.472   1.511   6.454
 4246SOL     OW13636   6.848   3.908   3.033
 4246SOL    HW113637   6.864   3.881   2.938
 4246SOL    HW213638   6.771   3.972   3.037
 4247SOL     OW13639   2.813   6.100   3.546
 4247SOL    HW113640   2.741   6.038   3.577
 4247SOL    HW213641   2.773   6.187   3.518
 4248SOL     OW13642   3.447   1.324   3.671
 4248SOL    HW113643   3.509   1.252   3.639
 4248SOL    HW213644   3.353   1.296   3.653
 4249SOL     OW13645   6.623   2.837   4.814
 4249SOL    HW113646   6.687   2.841   4.738
 4249SOL    HW213647   6.649   2.904   4.884
 4250SOL     OW13648   6.563   4.314   2.864
 4250SOL    HW113649   6.563   4.370   2.947
 4250SOL    HW213650   6.634   4.347   2.801
 4251SOL     OW13651   5.751   4.397   0.748
 4251SOL    HW113652   5.829   4.354   0.794
 4251SOL    HW213653   5.704   4.328   0.692
 4252SOL     OW13654   5.902   6.243   5.306
 4252SOL    HW113655   5.805   6.266   5.292
 4252SOL    HW213656   5.917   6.220   5.402
 4253SOL     OW13657   3.305   6.408   0.764
 4253SOL    HW113658   3.327   6.322   0.720
 4253SOL    HW213659   3.206   6.412   0.782
 4254SOL     OW13660   0.892   2.490   2.315
 4254SOL    HW113661   0.819   2.427   2.286
 4254SOL    HW213662   0.942   2.449   2.392
 4255SOL     OW13663   5.810   3.660   3.469
 4255SOL    HW113664   5.833   3.572   3.428
 4255SOL    HW213665   5.828   3.656   3.568
 4256SOL     OW13666   1.649   0.203   0.654
 4256SOL    HW113667   1.565   0.203   0.601
 4256SOL    HW213668   1.633   0.246   0.743
 4257SOL     OW13669   3.383   0.525   3.829
 4257SOL    HW113670   3.308   0.587   3.805
 4257SOL    HW213671   3.354   0.464   3.902
 4258SOL     OW13672   5.387   6.087   1.125
 4258SOL    HW113673   5.322   6.052   1.192
 4258SOL    HW213674   5.343   6.157   1.069
 4259SOL     OW13675   2.768   0.774   0.201
 4259SOL    HW113676   2.788   0.777   0.299
 4259SOL    HW213677   2.835   0.830   0.152
 4260SOL     OW13678   5.077   6.953   6.435
 4260SOL    HW113679   5.021   6.971   6.516
 4260SOL    HW213680   5.130   6.870   6.450
 4261SOL     OW13681   1.917   0.198   1.764
 4261SOL    HW113682   1.829   0.206   1.811
 4261SOL    HW213683   1.978   0.271   1.796
 4262SOL     OW13684   0.394   3.972   5.033
 4262SOL    HW113685   0.465   3.912   5.071
 4262SOL    HW213686   0.374   4.044   5.099
 4263SOL     OW13687   2.720   6.690   3.473
 4263SOL    HW113688   2.813   6.714   3.447
 4263SOL    HW213689   2.666   6.671   3.391
 4264SOL     OW13690   0.304   2.608   2.758
 4264SOL    HW113691   0.344   2.551   2.686
 4264SOL    HW213692   0.352   2.695   2.763
 4265SOL     OW13693   5.434   1.301   0.839
 4265SOL    HW113694   5.347   1.257   0.862
 4265SOL    HW213695   5.472   1.258   0.758
 4266SOL     OW13696   1.983   4.984   0.501
 4266SOL    HW113697   1.971   5.018   0.408
 4266SOL    HW213698   2.081   4.976   0.521
 4267SOL     OW13699   1.817   3.605   4.633
 4267SOL    HW113700   1.906   3.606   4.677
 4267SOL    HW213701   1.748   3.639   4.697
 4268SOL     OW13702   1.513   5.962   6.456
 4268SOL    HW113703   1.426   5.945   6.503
 4268SOL    HW213704   1.521   5.899   6.379
 4269SOL     OW13705   2.658   1.173   1.885
 4269SOL    HW113706   2.699   1.196   1.973
 4269SOL    HW213707   2.595   1.246   1.857
 4270SOL     OW13708   3.959   3.722   3.891
 4270SOL    HW113709   3.979   3.804   3.837
 4270SOL    HW213710   3.863   3.724   3.920
 4271SOL     OW13711   0.378   1.363   6.984
 4271SOL    HW113712   0.364   1.380   6.887
 4271SOL    HW213713   0.296   1.390   0.015
 4272SOL     OW13714   0.210   2.758   5.034
 4272SOL    HW113715   0.112   2.755   5.054
 4272SOL    HW213716   0.259   2.698   5.097
 4273SOL     OW13717   4.732   6.044   5.221
 4273SOL    HW113718   4.746   5.961   5.166
 4273SOL    HW213719   4.807   6.108   5.203
 4274SOL     OW13720   1.879   6.793   1.858
 4274SOL    HW113721   1.942   6.846   1.801
 4274SOL    HW213722   1.836   6.852   1.925
 4275SOL     OW13723   6.447   1.309   4.819
 4275SOL    HW113724   6.532   1.273   4.779
 4275SOL    HW213725   6.468   1.354   4.906
 4276SOL     OW13726   1.965   4.854   3.791
 4276SOL    HW113727   2.061   4.839   3.771
 4276SOL    HW213728   1.926   4.916   3.722
 4277SOL     OW13729   6.422   4.596   4.205
 4277SOL    HW113730   6.502   4.627   4.256
 4277SOL    HW213731   6.435   4.613   4.107
 4278SOL     OW13732   0.371   0.750   4.419
 4278SOL    HW113733   0.347   0.673   4.478
 4278SOL    HW213734   0.356   0.836   4.468
 4279SOL     OW13735   3.609   0.189   5.187
 4279SOL    HW113736   3.674   0.259   5.217
 4279SOL    HW213737   3.598   0.193   5.088
 4280SOL     OW13738   5.303   0.248   6.021
 4280SOL    HW113739   5.256   0.275   6.105
 4280SOL    HW213740   5.398   0.277   6.025
 4281SOL     OW13741   1.086   5.247   3.943
 4281SOL    HW113742   1.116   5.310   3.872
 4281SOL    HW213743   1.146   5.255   4.022
 4282SOL     OW13744   3.414   3.779   6.673
 4282SOL    HW113745   3.406   3.844   6.597
 4282SOL    HW213746   3.480   3.708   6.649
 4283SOL     OW13747   1.936   0.584   3.479
 4283SOL    HW113748   1.999   0.645   3.526
 4283SOL    HW213749   1.984   0.538   3.404
 4284SOL     OW13750   4.345   4.915   1.235
 4284SOL    HW113751   4.347   4.818   1.260
 4284SOL    HW213752   4.428   4.938   1.184
 4285SOL     OW13753   0.332   0.727   5.972
 4285SOL    HW113754   0.328   0.760   6.066
 4285SOL    HW213755   0.239   0.709   5.939
 4286SOL     OW13756   4.923   5.910   6.222
 4286SOL    HW113757   4.872   5.996   6.233
 4286SOL    HW213758   5.000   5.925   6.161
 4287SOL     OW13759   5.497   1.715   6.937
 4287SOL    HW113760   5.551   1.775   6.996
 4287SOL    HW213761   5.419   1.680   6.987
 4288SOL     OW13762   1.574   5.873   3.532
 4288SOL    HW113763   1.577   5.778   3.561
 4288SOL    HW213764   1.596   5.932   3.610
 4289SOL     OW13765   6.559   3.393   0.901
 4289SOL    HW113766   6.618   3.324   0.943
 4289SOL    HW213767   6.534   3.362   0.809
 4290SOL     OW13768   1.986   6.992   2.735
 4290SOL    HW113769   1.891   6.962   2.746
 4290SOL    HW213770   2.017   0.014   2.820
 4291SOL     OW13771   3.898   3.645   1.189
 4291SOL    HW113772   3.911   3.720   1.253
 4291SOL    HW213773   3.857   3.567   1.236
 4292SOL     OW13774   6.292   4.683   6.333
 4292SOL    HW113775   6.390   4.663   6.334
 4292SOL    HW213776   6.276   4.766   6.280
 4293SOL     OW13777   0.938   3.421   0.705
 4293SOL    HW113778   0.959   3.372   0.620
 4293SOL    HW213779   0.968   3.366   0.783
 4294SOL     OW13780   3.016   2.874   7.013
 4294SOL    HW113781   2.949   2.877   6.939
 4294SOL    HW213782   2.997   2.947   0.058
 4295SOL     OW13783   4.001   5.805   4.434
 4295SOL    HW113784   3.932   5.734   4.448
 4295SOL    HW213785   4.012   5.858   4.518
 4296SOL     OW13786   4.530   0.711   0.623
 4296SOL    HW113787   4.437   0.681   0.646
 4296SOL    HW213788   4.527   0.763   0.537
 4297SOL     OW13789   5.399   0.951   6.643
 4297SOL    HW113790   5.480   1.009   6.642
 4297SOL    HW213791   5.419   0.867   6.694
 4298SOL     OW13792   3.393   5.279   6.843
 4298SOL    HW113793   3.315   5.332   6.875
 4298SOL    HW213794   3.411   5.301   6.747
 4299SOL     OW13795   1.235   2.799   7.005
 4299SOL    HW113796   1.171   2.848   6.946
 4299SOL    HW213797   1.319   2.779   6.954
 4300SOL     OW13798   3.934   0.679   0.048
 4300SOL    HW113799   3.875   0.644   0.120
 4300SOL    HW213800   3.894   0.661   6.979
 4301SOL     OW13801   3.815   1.830   1.039
 4301SOL    HW113802   3.753   1.759   1.072
 4301SOL    HW213803   3.848   1.883   1.117
 4302SOL     OW13804   1.376   6.696   5.473
 4302SOL    HW113805   1.455   6.636   5.468
 4302SOL    HW213806   1.371   6.739   5.563
 4303SOL     OW13807   6.093   4.652   4.491
 4303SOL    HW113808   6.144   4.641   4.406
 4303SOL    HW213809   5.997   4.673   4.470
 4304SOL     OW13810   3.169   3.902   3.183
 4304SOL    HW113811   3.246   3.933   3.129
 4304SOL    HW213812   3.088   3.894   3.125
 4305SOL     OW13813   6.568   0.680   4.562
 4305SOL    HW113814   6.590   0.723   4.649
 4305SOL    HW213815   6.643   0.695   4.497
 4306SOL     OW13816   6.604   3.437   6.964
 4306SOL    HW113817   6.568   3.357   6.914
 4306SOL    HW213818   6.704   3.435   6.961
 4307SOL     OW13819   4.330   3.549   5.926
 4307SOL    HW113820   4.310   3.497   6.009
 4307SOL    HW213821   4.426   3.579   5.928
 4308SOL     OW13822   5.939   5.616   6.608
 4308SOL    HW113823   5.915   5.519   6.620
 4308SOL    HW213824   5.881   5.655   6.537
 4309SOL     OW13825   1.269   1.439   0.465
 4309SOL    HW113826   1.235   1.414   0.374
 4309SOL    HW213827   1.199   1.492   0.513
 4310SOL     OW13828   1.731   2.783   3.253
 4310SOL    HW113829   1.754   2.753   3.346
 4310SOL    HW213830   1.657   2.850   3.257
 4311SOL     OW13831   1.893   5.821   3.771
 4311SOL    HW113832   1.985   5.858   3.764
 4311SOL    HW213833   1.896   5.734   3.821
 4312SOL     OW13834   1.341   4.881   0.564
 4312SOL    HW113835   1.285   4.939   0.504
 4312SOL    HW213836   1.303   4.882   0.656
 4313SOL     OW13837   4.744   1.944   1.255
 4313SOL    HW113838   4.673   1.995   1.205
 4313SOL    HW213839   4.710   1.853   1.277
 4314SOL     OW13840   5.750   1.545   4.604
 4314SOL    HW113841   5.672   1.495   4.642
 4314SOL    HW213842   5.835   1.506   4.640
 4315SOL     OW13843   2.604   6.926   2.113
 4315SOL    HW113844   2.535   6.867   2.072
 4315SOL    HW213845   2.561   6.987   2.180
 4316SOL     OW13846   4.926   6.937   1.282
 4316SOL    HW113847   4.947   6.868   1.213
 4316SOL    HW213848   4.944   6.899   1.373
 4317SOL     OW13849   4.137   1.470   5.154
 4317SOL    HW113850   4.065   1.448   5.087
 4317SOL    HW213851   4.182   1.555   5.127
 4318SOL     OW13852   0.779   3.506   3.747
 4318SOL    HW113853   0.776   3.587   3.688
 4318SOL    HW213854   0.686   3.480   3.773
 4319SOL     OW13855   2.137   2.660   0.206
 4319SOL    HW113856   2.183   2.747   0.220
 4319SOL    HW213857   2.040   2.669   0.227
 4320SOL     OW13858   5.894   6.327   2.117
 4320SOL    HW113859   5.851   6.285   2.037
 4320SOL    HW213860   5.824   6.359   2.180
 4321SOL     OW13861   6.927   6.613   4.960
 4321SOL    HW113862   6.917   6.565   4.873
 4321SOL    HW213863   6.954   6.548   5.031
 4322SOL     OW13864   6.580   2.128   6.660
 4322SOL    HW113865   6.547   2.223   6.658
 4322SOL    HW213866   6.668   2.125   6.707
 4323SOL     OW13867   4.930   4.135   1.348
 4323SOL    HW113868   4.980   4.180   1.275
 4323SOL    HW213869   4.845   4.096   1.312
 4324SOL     OW13870   5.454   4.170   6.329
 4324SOL    HW113871   5.410   4.104   6.390
 4324SOL    HW213872   5.398   4.183   6.248
 4325SOL     OW13873   2.716   1.137   1.425
 4325SOL    HW113874   2.719   1.186   1.338
 4325SOL    HW213875   2.807   1.134   1.465
 4326SOL     OW13876   5.450   3.872   5.260
 4326SOL    HW113877   5.361   3.826   5.255
 4326SOL    HW213878   5.512   3.818   5.318
 4327SOL     OW13879   6.099   5.563   2.139
 4327SOL    HW113880   6.079   5.659   2.154
 4327SOL    HW213881   6.143   5.525   2.221
 4328SOL     OW13882   4.140   3.635   5.729
 4328SOL    HW113883   4.199   3.613   5.807
 4328SOL    HW213884   4.144   3.560   5.663
 4329SOL     OW13885   4.038   2.008   5.595
 4329SOL    HW113886   4.024   1.913   5.566
 4329SOL    HW213887   4.135   2.025   5.608
 4330SOL     OW13888   2.903   0.479   5.074
 4330SOL    HW113889   2.992   0.495   5.032
 4330SOL    HW213890   2.859   0.401   5.030
 4331SOL     OW13891   5.300   2.883   0.494
 4331SOL    HW113892   5.241   2.857   0.417
 4331SOL    HW213893   5.319   2.802   0.550
 4332SOL     OW13894   5.136   4.614   2.443
 4332SOL    HW113895   5.200   4.667   2.388
 4332SOL    HW213896   5.051   4.665   2.456
 4333SOL     OW13897   3.964   0.627   5.101
 4333SOL    HW113898   4.051   0.664   5.068
 4333SOL    HW213899   3.918   0.696   5.158
 4334SOL     OW13900   1.932   2.061   2.806
 4334SOL    HW113901   1.987   2.091   2.728
 4334SOL    HW213902   1.990   2.012   2.871
 4335SOL     OW13903   3.636   3.735   2.870
 4335SOL    HW113904   3.652   3.832   2.851
 4335SOL    HW213905   3.689   3.680   2.806
 4336SOL     OW13906   1.352   6.718   6.462
 4336SOL    HW113907   1.377   6.797   6.518
 4336SOL    HW213908   1.266   6.679   6.494
 4337SOL     OW13909   0.727   4.789   0.654
 4337SOL    HW113910   0.817   4.793   0.696
 4337SOL    HW213911   0.735   4.798   0.555
 4338SOL     OW13912   5.120   5.693   4.583
 4338SOL    HW113913   5.106   5.650   4.672
 4338SOL    HW213914   5.115   5.624   4.512
 4339SOL     OW13915   6.422   2.935   5.330
 4339SOL    HW113916   6.419   2.972   5.237
 4339SOL    HW213917   6.336   2.886   5.348
 4340SOL     OW13918   6.432   4.158   1.632
 4340SOL    HW113919   6.384   4.071   1.625
 4340SOL    HW213920   6.427   4.206   1.544
 4341SOL     OW13921   0.312   6.010   2.249
 4341SOL    HW113922   0.288   5.959   2.166
 4341SOL    HW213923   0.266   6.098   2.248
 4342SOL     OW13924   6.320   3.542   4.056
 4342SOL    HW113925   6.241   3.513   4.110
 4342SOL    HW213926   6.371   3.462   4.025
 4343SOL     OW13927   2.745   6.002   6.120
 4343SOL    HW113928   2.744   6.102   6.127
 4343SOL    HW213929   2.818   5.974   6.059
 4344SOL     OW13930   1.599   5.534   3.080
 4344SOL    HW113931   1.650   5.536   3.166
 4344SOL    HW213932   1.523   5.469   3.088
 4345SOL     OW13933   2.464   2.756   5.255
 4345SOL    HW113934   2.551   2.709   5.272
 4345SOL    HW213935   2.481   2.853   5.237
 4346SOL     OW13936   1.826   3.251   2.027
 4346SOL    HW113937   1.864   3.342   2.010
 4346SOL    HW213938   1.779   3.219   1.945
 4347SOL     OW13939   5.926   6.738   2.929
 4347SOL    HW113940   5.834   6.717   2.961
 4347SOL    HW213941   5.921   6.799   2.850
 4348SOL     OW13942   6.903   4.195   2.830
 4348SOL    HW113943   6.853   4.111   2.812
 4348SOL    HW213944   7.000   4.175   2.841
 4349SOL     OW13945   6.925   1.784   2.333
 4349SOL    HW113946   6.840   1.834   2.346
 4349SOL    HW213947   7.003   1.845   2.349
 4350SOL     OW13948   5.351   2.234   3.968
 4350SOL    HW113949   5.290   2.312   3.954
 4350SOL    HW213950   5.412   2.252   4.045
 4351SOL     OW13951   1.832   6.568   0.963
 4351SOL    HW113952   1.851   6.507   0.886
 4351SOL    HW213953   1.857   6.522   1.048
 4352SOL     OW13954   0.870   3.084   2.334
 4352SOL    HW113955   0.939   3.132   2.388
 4352SOL    HW213956   0.914   3.033   2.261
 4353SOL     OW13957   3.574   3.274   0.027
 4353SOL    HW113958   3.569   3.202   6.978
 4353SOL    HW213959   3.612   3.357   7.005
 4354SOL     OW13960   2.519   0.115   5.963
 4354SOL    HW113961   2.469   0.057   5.899
 4354SOL    HW213962   2.466   0.125   6.047
 4355SOL     OW13963   3.276   0.339   2.356
 4355SOL    HW113964   3.330   0.265   2.397
 4355SOL    HW213965   3.323   0.373   2.275
 4356SOL     OW13966   4.859   4.253   1.013
 4356SOL    HW113967   4.823   4.160   1.021
 4356SOL    HW213968   4.807   4.315   1.072
 4357SOL     OW13969   6.100   0.414   0.207
 4357SOL    HW113970   6.075   0.500   0.161
 4357SOL    HW213971   6.180   0.374   0.161
 4358SOL     OW13972   0.196   6.418   0.154
 4358SOL    HW113973   0.244   6.338   0.190
 4358SOL    HW213974   0.116   6.389   0.102
 4359SOL     OW13975   2.053   1.970   6.599
 4359SOL    HW113976   2.067   2.069   6.597
 4359SOL    HW213977   2.033   1.937   6.507
 4360SOL     OW13978   1.267   2.518   4.234
 4360SOL    HW113979   1.342   2.558   4.182
 4360SOL    HW213980   1.191   2.494   4.173
 4361SOL     OW13981   2.837   3.239   1.331
 4361SOL    HW113982   2.925   3.227   1.376
 4361SOL    HW213983   2.790   3.318   1.370
 4362SOL     OW13984   6.290   5.132   2.959
 4362SOL    HW113985   6.236   5.207   2.922
 4362SOL    HW213986   6.274   5.049   2.905
 4363SOL     OW13987   4.869   2.729   0.055
 4363SOL    HW113988   4.960   2.696   0.081
 4363SOL    HW213989   4.878   2.812   7.020
 4364SOL     OW13990   3.409   3.592   5.153
 4364SOL    HW113991   3.332   3.620   5.096
 4364SOL    HW213992   3.489   3.576   5.096
 4365SOL     OW13993   2.194   2.231   1.860
 4365SOL    HW113994   2.197   2.275   1.770
 4365SOL    HW213995   2.286   2.208   1.890
 4366SOL     OW13996   6.034   6.644   0.292
 4366SOL    HW113997   6.067   6.609   0.380
 4366SOL    HW213998   5.936   6.628   0.285
 4367SOL     OW13999   2.326   4.478   4.879
 4367SOL    HW114000   2.401   4.525   4.831
 4367SOL    HW214001   2.361   4.433   4.960
 4368SOL     OW14002   4.136   4.228   0.774
 4368SOL    HW114003   4.191   4.146   0.791
 4368SOL    HW214004   4.059   4.206   0.715
 4369SOL     OW14005   3.416   5.664   4.149
 4369SOL    HW114006   3.376   5.693   4.062
 4369SOL    HW214007   3.495   5.722   4.170
 4370SOL     OW14008   5.259   5.117   2.839
 4370SOL    HW114009   5.352   5.153   2.845
 4370SOL    HW214010   5.247   5.045   2.908
 4371SOL     OW14011   0.649   1.449   1.436
 4371SOL    HW114012   0.608   1.539   1.420
 4371SOL    HW214013   0.641   1.394   1.354
 4372SOL     OW14014   3.889   1.118   3.102
 4372SOL    HW114015   3.816   1.102   3.169
 4372SOL    HW214016   3.864   1.194   3.043
 4373SOL     OW14017   6.983   2.224   6.579
 4373SOL    HW114018   6.971   2.212   6.480
 4373SOL    HW214019   6.961   2.317   6.605
 4374SOL     OW14020   1.075   1.848   2.536
 4374SOL    HW114021   1.127   1.881   2.615
 4374SOL    HW214022   0.979   1.838   2.561
 4375SOL     OW14023   3.621   0.302   3.357
 4375SOL    HW114024   3.524   0.278   3.361
 4375SOL    HW214025   3.654   0.294   3.263
 4376SOL     OW14026   6.272   6.796   2.573
 4376SOL    HW114027   6.338   6.836   2.509
 4376SOL    HW214028   6.264   6.698   2.556
 4377SOL     OW14029   5.284   4.254   0.682
 4377SOL    HW114030   5.197   4.229   0.723
 4377SOL    HW214031   5.277   4.345   0.640
 4378SOL     OW14032   2.212   1.422   2.944
 4378SOL    HW114033   2.266   1.505   2.956
 4378SOL    HW214034   2.167   1.398   3.030
 4379SOL     OW14035   2.049   0.976   2.636
 4379SOL    HW114036   2.083   0.888   2.602
 4379SOL    HW214037   2.071   1.048   2.570
 4380SOL     OW14038   1.716   6.841   2.790
 4380SOL    HW114039   1.629   6.864   2.746
 4380SOL    HW214040   1.763   6.772   2.735
 4381SOL     OW14041   0.723   5.925   5.552
 4381SOL    HW114042   0.750   6.014   5.588
 4381SOL    HW214043   0.670   5.876   5.622
 4382SOL     OW14044   0.977   3.813   5.291
 4382SOL    HW114045   0.985   3.857   5.202
 4382SOL    HW214046   0.883   3.819   5.323
 4383SOL     OW14047   0.227   3.424   0.073
 4383SOL    HW114048   0.132   3.408   0.100
 4383SOL    HW214049   0.266   3.496   0.131
 4384SOL     OW14050   6.038   0.234   4.425
 4384SOL    HW114051   6.034   0.254   4.523
 4384SOL    HW214052   6.050   0.320   4.375
 4385SOL     OW14053   5.157   2.824   4.845
 4385SOL    HW114054   5.063   2.794   4.860
 4385SOL    HW214055   5.213   2.800   4.924
 4386SOL     OW14056   1.673   3.411   6.020
 4386SOL    HW114057   1.683   3.314   5.999
 4386SOL    HW214058   1.693   3.465   5.938
 4387SOL     OW14059   6.610   2.571   1.680
 4387SOL    HW114060   6.522   2.589   1.724
 4387SOL    HW214061   6.685   2.599   1.740
 4388SOL     OW14062   4.231   2.346   5.670
 4388SOL    HW114063   4.140   2.381   5.653
 4388SOL    HW214064   4.277   2.325   5.584
 4389SOL     OW14065   5.867   3.164   1.261
 4389SOL    HW114066   5.844   3.123   1.173
 4389SOL    HW214067   5.957   3.130   1.291
 4390SOL     OW14068   3.483   6.787   1.708
 4390SOL    HW114069   3.403   6.729   1.693
 4390SOL    HW214070   3.455   6.873   1.750
 4391SOL     OW14071   2.176   5.870   0.096
 4391SOL    HW114072   2.117   5.933   0.045
 4391SOL    HW214073   2.173   5.779   0.054
 4392SOL     OW14074   0.343   2.778   5.336
 4392SOL    HW114075   0.431   2.801   5.376
 4392SOL    HW214076   0.337   2.680   5.320
 4393SOL     OW14077   6.222   1.078   1.723
 4393SOL    HW114078   6.182   1.017   1.791
 4393SOL    HW214079   6.317   1.054   1.707
 4394SOL     OW14080   6.744   5.604   2.300
 4394SOL    HW114081   6.711   5.562   2.385
 4394SOL    HW214082   6.759   5.702   2.314
 4395SOL     OW14083   2.166   0.239   1.985
 4395SOL    HW114084   2.070   0.267   1.991
 4395SOL    HW214085   2.201   0.256   1.893
 4396SOL     OW14086   1.789   1.427   4.003
 4396SOL    HW114087   1.744   1.506   4.044
 4396SOL    HW214088   1.869   1.402   4.058
 4397SOL     OW14089   1.931   2.516   3.820
 4397SOL    HW114090   1.835   2.538   3.834
 4397SOL    HW214091   1.963   2.458   3.895
 4398SOL     OW14092   1.007   3.463   5.928
 4398SOL    HW114093   0.942   3.527   5.967
 4398SOL    HW214094   1.013   3.381   5.986
 4399SOL     OW14095   3.630   6.187   2.612
 4399SOL    HW114096   3.611   6.149   2.703
 4399SOL    HW214097   3.600   6.283   2.609
 4400SOL     OW14098   2.191   6.600   4.990
 4400SOL    HW114099   2.133   6.663   5.042
 4400SOL    HW214100   2.276   6.584   5.040
 4401SOL     OW14101   2.746   6.871   5.749
 4401SOL    HW114102   2.691   6.845   5.829
 4401SOL    HW214103   2.740   6.970   5.736
 4402SOL     OW14104   1.654   0.435   2.623
 4402SOL    HW114105   1.574   0.489   2.597
 4402SOL    HW214106   1.736   0.480   2.588
 4403SOL     OW14107   0.848   0.440   0.564
 4403SOL    HW114108   0.859   0.531   0.604
 4403SOL    HW214109   0.900   0.435   0.478
 4404SOL     OW14110   1.864   6.486   5.889
 4404SOL    HW114111   1.841   6.401   5.841
 4404SOL    HW214112   1.797   6.557   5.865
 4405SOL     OW14113   1.847   4.357   1.671
 4405SOL    HW114114   1.849   4.404   1.583
 4405SOL    HW214115   1.808   4.266   1.659
 4406SOL     OW14116   0.813   2.767   0.762
 4406SOL    HW114117   0.763   2.792   0.679
 4406SOL    HW214118   0.909   2.794   0.753
 4407SOL     OW14119   6.657   5.700   1.315
 4407SOL    HW114120   6.669   5.627   1.248
 4407SOL    HW214121   6.734   5.701   1.379
 4408SOL     OW14122   2.254   0.090   0.685
 4408SOL    HW114123   2.164   0.076   0.726
 4408SOL    HW214124   2.304   0.160   0.737
 4409SOL     OW14125   4.251   1.234   2.074
 4409SOL    HW114126   4.179   1.180   2.118
 4409SOL    HW214127   4.214   1.280   1.993
 4410SOL     OW14128   0.477   4.653   0.442
 4410SOL    HW114129   0.405   4.585   0.455
 4410SOL    HW214130   0.443   4.743   0.469
 4411SOL     OW14131   3.892   4.102   5.077
 4411SOL    HW114132   3.841   4.183   5.104
 4411SOL    HW214133   3.950   4.123   4.999
 4412SOL     OW14134   4.846   6.177   3.924
 4412SOL    HW114135   4.887   6.112   3.988
 4412SOL    HW214136   4.865   6.149   3.830
 4413SOL     OW14137   5.933   4.677   4.142
 4413SOL    HW114138   5.999   4.630   4.201
 4413SOL    HW214139   5.874   4.609   4.098
 4414SOL     OW14140   3.371   5.805   1.160
 4414SOL    HW114141   3.391   5.755   1.076
 4414SOL    HW214142   3.376   5.903   1.142
 4415SOL     OW14143   4.511   2.672   6.976
 4415SOL    HW114144   4.548   2.763   6.957
 4415SOL    HW214145   4.465   2.672   0.045
 4416SOL     OW14146   4.298   1.845   3.959
 4416SOL    HW114147   4.347   1.822   4.043
 4416SOL    HW214148   4.203   1.814   3.967
 4417SOL     OW14149   6.202   3.890   4.107
 4417SOL    HW114150   6.109   3.895   4.145
 4417SOL    HW214151   6.207   3.944   4.023
 4418SOL     OW14152   6.289   1.562   2.779
 4418SOL    HW114153   6.229   1.517   2.712
 4418SOL    HW214154   6.246   1.646   2.811
 4419SOL     OW14155   6.045   0.227   5.472
 4419SOL    HW114156   5.989   0.227   5.555
 4419SOL    HW214157   6.116   0.156   5.481
 4420SOL     OW14158   3.992   1.021   1.879
 4420SOL    HW114159   3.940   1.093   1.925
 4420SOL    HW214160   3.932   0.943   1.862
 4421SOL     OW14161   2.118   1.897   4.621
 4421SOL    HW114162   2.064   1.956   4.680
 4421SOL    HW214163   2.152   1.950   4.543
 4422SOL     OW14164   1.369   4.405   6.652
 4422SOL    HW114165   1.310   4.469   6.603
 4422SOL    HW214166   1.324   4.375   6.736
 4423SOL     OW14167   0.081   3.549   5.417
 4423SOL    HW114168   0.119   3.601   5.494
 4423SOL    HW214169   0.070   3.609   5.338
 4424SOL     OW14170   5.194   0.589   4.175
 4424SOL    HW114171   5.122   0.630   4.230
 4424SOL    HW214172   5.282   0.604   4.219
 4425SOL     OW14173   3.366   4.913   0.333
 4425SOL    HW114174   3.375   5.011   0.315
 4425SOL    HW214175   3.273   4.893   0.365
 4426SOL     OW14176   1.095   1.160   3.782
 4426SOL    HW114177   1.053   1.227   3.720
 4426SOL    HW214178   1.045   1.074   3.776
 4427SOL     OW14179   5.930   6.808   2.659
 4427SOL    HW114180   5.966   6.717   2.640
 4427SOL    HW214181   5.889   6.846   2.577
 4428SOL     OW14182   4.118   0.589   3.571
 4428SOL    HW114183   4.038   0.545   3.530
 4428SOL    HW214184   4.123   0.565   3.668
 4429SOL     OW14185   3.076   0.079   1.973
 4429SOL    HW114186   3.083   0.176   1.950
 4429SOL    HW214187   2.998   0.065   2.033
 4430SOL     OW14188   5.128   4.954   5.043
 4430SOL    HW114189   5.059   4.894   5.084
 4430SOL    HW214190   5.174   4.907   4.968
 4431SOL     OW14191   2.383   0.764   2.755
 4431SOL    HW114192   2.348   0.853   2.786
 4431SOL    HW214193   2.426   0.716   2.831
 4432SOL     OW14194   2.622   3.224   6.220
 4432SOL    HW114195   2.581   3.291   6.159
 4432SOL    HW214196   2.577   3.135   6.207
 4433SOL     OW14197   6.228   2.219   4.254
 4433SOL    HW114198   6.214   2.312   4.288
 4433SOL    HW214199   6.303   2.219   4.188
 4434SOL     OW14200   5.665   1.592   3.110
 4434SOL    HW114201   5.651   1.689   3.090
 4434SOL    HW214202   5.720   1.551   3.037
 4435SOL     OW14203   4.298   3.721   1.251
 4435SOL    HW114204   4.354   3.676   1.321
 4435SOL    HW214205   4.219   3.664   1.230
 4436SOL     OW14206   4.511   0.976   1.788
 4436SOL    HW114207   4.531   1.068   1.820
 4436SOL    HW214208   4.597   0.927   1.772
 4437SOL     OW14209   1.291   2.937   2.745
 4437SOL    HW114210   1.310   2.852   2.793
 4437SOL    HW214211   1.203   2.931   2.698
 4438SOL     OW14212   4.716   6.899   6.501
 4438SOL    HW114213   4.743   6.939   6.414
 4438SOL    HW214214   4.794   6.901   6.565
 4439SOL     OW14215   0.253   4.333   1.638
 4439SOL    HW114216   0.216   4.330   1.731
 4439SOL    HW214217   0.190   4.384   1.580
 4440SOL     OW14218   3.042   5.070   0.930
 4440SOL    HW114219   2.959   5.125   0.922
 4440SOL    HW214220   3.106   5.115   0.992
 4441SOL     OW14221   0.302   1.591   1.720
 4441SOL    HW114222   0.242   1.565   1.645
 4441SOL    HW214223   0.269   1.549   1.805
 4442SOL     OW14224   1.600   5.166   4.391
 4442SOL    HW114225   1.566   5.145   4.483
 4442SOL    HW214226   1.648   5.254   4.393
 4443SOL     OW14227   1.561   3.458   5.615
 4443SOL    HW114228   1.510   3.469   5.530
 4443SOL    HW214229   1.610   3.371   5.614
 4444SOL     OW14230   3.530   3.959   0.048
 4444SOL    HW114231   3.556   4.055   0.058
 4444SOL    HW214232   3.437   3.954   0.011
 4445SOL     OW14233   1.325   6.489   0.256
 4445SOL    HW114234   1.355   6.463   0.165
 4445SOL    HW214235   1.287   6.581   0.255
 4446SOL     OW14236   5.111   2.161   0.935
 4446SOL    HW114237   5.137   2.254   0.911
 4446SOL    HW214238   5.063   2.162   1.023
 4447SOL     OW14239   6.059   4.010   5.435
 4447SOL    HW114240   5.985   3.993   5.500
 4447SOL    HW214241   6.044   4.097   5.389
 4448SOL     OW14242   2.509   5.343   1.585
 4448SOL    HW114243   2.434   5.410   1.586
 4448SOL    HW214244   2.473   5.255   1.555
 4449SOL     OW14245   5.357   1.065   5.976
 4449SOL    HW114246   5.310   0.977   5.983
 4449SOL    HW214247   5.330   1.110   5.891
 4450SOL     OW14248   3.507   2.222   6.067
 4450SOL    HW114249   3.504   2.288   6.142
 4450SOL    HW214250   3.566   2.145   6.093
 4451SOL     OW14251   5.220   4.878   4.173
 4451SOL    HW114252   5.147   4.933   4.133
 4451SOL    HW214253   5.223   4.894   4.272
 4452SOL     OW14254   5.689   5.857   4.186
 4452SOL    HW114255   5.739   5.921   4.128
 4452SOL    HW214256   5.658   5.780   4.131
 4453SOL     OW14257   1.446   2.947   1.776
 4453SOL    HW114258   1.455   3.017   1.706
 4453SOL    HW214259   1.475   2.984   1.864
 4454SOL     OW14260   1.326   1.688   0.006
 4454SOL    HW114261   1.240   1.688   6.974
 4454SOL    HW214262   1.381   1.610   6.999
 4455SOL     OW14263   5.414   5.496   5.533
 4455SOL    HW114264   5.510   5.523   5.522
 4455SOL    HW214265   5.370   5.491   5.444
 4456SOL     OW14266   2.562   6.233   3.281
 4456SOL    HW114267   2.512   6.314   3.250
 4456SOL    HW214268   2.621   6.200   3.207
 4457SOL     OW14269   3.473   1.596   3.312
 4457SOL    HW114270   3.440   1.545   3.233
 4457SOL    HW214271   3.449   1.692   3.303
 4458SOL     OW14272   2.520   3.381   0.946
 4458SOL    HW114273   2.479   3.380   0.855
 4458SOL    HW214274   2.449   3.392   1.015
 4459SOL     OW14275   4.194   2.222   4.584
 4459SOL    HW114276   4.163   2.215   4.678
 4459SOL    HW214277   4.218   2.131   4.550
 4460SOL     OW14278   1.058   2.968   0.529
 4460SOL    HW114279   1.106   2.919   0.602
 4460SOL    HW214280   1.075   2.923   0.442
 4461SOL     OW14281   1.950   0.713   0.880
 4461SOL    HW114282   2.030   0.703   0.940
 4461SOL    HW214283   1.926   0.810   0.872
 4462SOL     OW14284   5.874   4.699   2.299
 4462SOL    HW114285   5.934   4.757   2.243
 4462SOL    HW214286   5.852   4.616   2.248
 4463SOL     OW14287   4.673   1.330   0.860
 4463SOL    HW114288   4.632   1.385   0.933
 4463SOL    HW214289   4.601   1.281   0.811
 4464SOL     OW14290   0.378   5.902   0.403
 4464SOL    HW114291   0.436   5.955   0.465
 4464SOL    HW214292   0.296   5.954   0.380
 4465SOL     OW14293   3.516   5.258   0.917
 4465SOL    HW114294   3.611   5.228   0.908
 4465SOL    HW214295   3.456   5.193   0.871
 4466SOL     OW14296   1.042   2.192   3.409
 4466SOL    HW114297   1.042   2.175   3.310
 4466SOL    HW214298   1.051   2.291   3.425
 4467SOL     OW14299   2.022   5.108   3.219
 4467SOL    HW114300   1.998   5.202   3.197
 4467SOL    HW214301   1.999   5.049   3.142
 4468SOL     OW14302   1.636   3.953   0.771
 4468SOL    HW114303   1.597   3.891   0.703
 4468SOL    HW214304   1.727   3.981   0.741
 4469SOL     OW14305   3.497   0.901   0.918
 4469SOL    HW114306   3.556   0.953   0.980
 4469SOL    HW214307   3.408   0.887   0.961
 4470SOL     OW14308   0.514   1.758   2.671
 4470SOL    HW114309   0.520   1.690   2.745
 4470SOL    HW214310   0.418   1.783   2.658
 4471SOL     OW14311   0.736   2.895   0.023
 4471SOL    HW114312   0.822   2.903   6.993
 4471SOL    HW214313   0.673   2.967   7.015
 4472SOL     OW14314   0.016   2.769   1.635
 4472SOL    HW114315   0.030   2.671   1.627
 4472SOL    HW214316   0.058   2.801   1.720
 4473SOL     OW14317   6.019   3.099   4.305
 4473SOL    HW114318   6.061   3.172   4.357
 4473SOL    HW214319   6.026   3.013   4.355
 4474SOL     OW14320   3.269   6.497   1.996
 4474SOL    HW114321   3.306   6.492   2.088
 4474SOL    HW214322   3.273   6.407   1.953
 4475SOL     OW14323   1.328   3.870   1.913
 4475SOL    HW114324   1.303   3.939   1.844
 4475SOL    HW214325   1.427   3.866   1.921
 4476SOL     OW14326   6.260   1.231   3.365
 4476SOL    HW114327   6.312   1.213   3.449
 4476SOL    HW214328   6.178   1.175   3.363
 4477SOL     OW14329   1.712   0.492   5.090
 4477SOL    HW114330   1.785   0.430   5.060
 4477SOL    HW214331   1.658   0.448   5.161
 4478SOL     OW14332   2.814   6.750   2.590
 4478SOL    HW114333   2.789   6.828   2.648
 4478SOL    HW214334   2.904   6.767   2.549
 4479SOL     OW14335   0.181   2.109   1.641
 4479SOL    HW114336   0.144   2.154   1.722
 4479SOL    HW214337   0.137   2.020   1.629
 4480SOL     OW14338   7.017   3.903   4.857
 4480SOL    HW114339   0.002   3.999   4.884
 4480SOL    HW214340   0.076   3.854   4.895
 4481SOL     OW14341   2.275   5.244   5.130
 4481SOL    HW114342   2.292   5.338   5.160
 4481SOL    HW214343   2.179   5.233   5.105
 4482SOL     OW14344   2.012   3.085   5.565
 4482SOL    HW114345   1.950   3.022   5.612
 4482SOL    HW214346   2.105   3.048   5.568
 4483SOL     OW14347   6.809   2.174   2.330
 4483SOL    HW114348   6.857   2.155   2.245
 4483SOL    HW214349   6.782   2.087   2.373
 4484SOL     OW14350   3.151   2.157   6.632
 4484SOL    HW114351   3.090   2.078   6.624
 4484SOL    HW214352   3.137   2.201   6.721
 4485SOL     OW14353   5.775   2.493   4.695
 4485SOL    HW114354   5.724   2.452   4.620
 4485SOL    HW214355   5.798   2.423   4.762
 4486SOL     OW14356   6.283   5.425   4.576
 4486SOL    HW114357   6.271   5.338   4.528
 4486SOL    HW214358   6.204   5.442   4.635
 4487SOL     OW14359   2.704   2.641   6.949
 4487SOL    HW114360   2.622   2.612   6.999
 4487SOL    HW214361   2.747   2.562   6.906
 4488SOL     OW14362   1.194   3.478   5.146
 4488SOL    HW114363   1.192   3.496   5.244
 4488SOL    HW214364   1.166   3.384   5.128
 4489SOL     OW14365   4.733   5.273   4.741
 4489SOL    HW114366   4.798   5.332   4.788
 4489SOL    HW214367   4.657   5.328   4.705
 4490SOL     OW14368   5.211   2.034   1.248
 4490SOL    HW114369   5.127   2.029   1.194
 4490SOL    HW214370   5.196   1.990   1.337
 4491SOL     OW14371   0.222   3.544   3.703
 4491SOL    HW114372   0.163   3.589   3.636
 4491SOL    HW214373   0.250   3.610   3.772
 4492SOL     OW14374   6.059   3.477   1.958
 4492SOL    HW114375   5.960   3.482   1.960
 4492SOL    HW214376   6.092   3.446   2.047
 4493SOL     OW14377   5.319   6.022   4.821
 4493SOL    HW114378   5.322   5.961   4.742
 4493SOL    HW214379   5.283   5.973   4.901
 4494SOL     OW14380   0.061   0.728   5.881
 4494SOL    HW114381   7.020   0.684   5.815
 4494SOL    HW214382   0.029   0.708   5.973
 4495SOL     OW14383   4.578   0.387   3.963
 4495SOL    HW114384   4.580   0.459   4.032
 4495SOL    HW214385   4.634   0.310   3.993
 4496SOL     OW14386   5.361   6.249   0.729
 4496SOL    HW114387   5.422   6.286   0.799
 4496SOL    HW214388   5.339   6.320   0.663
 4497SOL     OW14389   4.171   1.963   6.301
 4497SOL    HW114390   4.228   1.949   6.220
 4497SOL    HW214391   4.209   1.913   6.378
 4498SOL     OW14392   6.729   4.560   6.663
 4498SOL    HW114393   6.634   4.529   6.668
 4498SOL    HW214394   6.774   4.517   6.585
 4499SOL     OW14395   6.109   3.255   3.536
 4499SOL    HW114396   6.197   3.290   3.506
 4499SOL    HW214397   6.055   3.329   3.576
 4500SOL     OW14398   3.781   4.045   6.042
 4500SOL    HW114399   3.691   4.089   6.041
 4500SOL    HW214400   3.821   4.049   5.950
 4501SOL     OW14401   6.719   3.631   2.943
 4501SOL    HW114402   6.738   3.534   2.960
 4501SOL    HW214403   6.805   3.682   2.937
 4502SOL     OW14404   0.863   3.485   0.108
 4502SOL    HW114405   0.855   3.481   0.208
 4502SOL    HW214406   0.821   3.404   0.068
 4503SOL     OW14407   3.631   6.673   1.482
 4503SOL    HW114408   3.575   6.648   1.561
 4503SOL    HW214409   3.728   6.656   1.504
 4504SOL     OW14410   0.742   1.316   4.342
 4504SOL    HW114411   0.793   1.234   4.369
 4504SOL    HW214412   0.795   1.397   4.364
 4505SOL     OW14413   6.413   4.751   1.888
 4505SOL    HW114414   6.398   4.837   1.839
 4505SOL    HW214415   6.489   4.702   1.847
 4506SOL     OW14416   5.149   3.089   3.419
 4506SOL    HW114417   5.130   3.001   3.377
 4506SOL    HW214418   5.109   3.092   3.510
 4507SOL     OW14419   6.761   3.272   3.428
 4507SOL    HW114420   6.794   3.335   3.498
 4507SOL    HW214421   6.813   3.187   3.433
 4508SOL     OW14422   1.529   5.054   6.787
 4508SOL    HW114423   1.557   4.966   6.748
 4508SOL    HW214424   1.509   5.119   6.714
 4509SOL     OW14425   4.931   2.172   3.325
 4509SOL    HW114426   4.898   2.149   3.416
 4509SOL    HW214427   4.856   2.166   3.259
 4510SOL     OW14428   4.265   1.579   4.355
 4510SOL    HW114429   4.294   1.574   4.450
 4510SOL    HW214430   4.286   1.492   4.309
 4511SOL     OW14431   6.096   3.531   6.471
 4511SOL    HW114432   6.050   3.616   6.446
 4511SOL    HW214433   6.194   3.540   6.454
 4512SOL     OW14434   3.189   0.653   6.032
 4512SOL    HW114435   3.157   0.746   6.052
 4512SOL    HW214436   3.113   0.600   5.995
 4513SOL     OW14437   0.967   5.111   6.452
 4513SOL    HW114438   0.912   5.032   6.481
 4513SOL    HW214439   1.037   5.129   6.520
 4514SOL     OW14440   3.243   2.683   5.890
 4514SOL    HW114441   3.156   2.711   5.849
 4514SOL    HW214442   3.255   2.584   5.876
 4515SOL     OW14443   5.669   2.358   5.217
 4515SOL    HW114444   5.598   2.373   5.286
 4515SOL    HW214445   5.663   2.264   5.183
 4516SOL     OW14446   2.502   0.394   0.117
 4516SOL    HW114447   2.473   0.420   0.025
 4516SOL    HW214448   2.425   0.358   0.168
 4517SOL     OW14449   5.165   6.684   6.411
 4517SOL    HW114450   5.180   6.611   6.477
 4517SOL    HW214451   5.071   6.678   6.375
 4518SOL     OW14452   0.237   6.626   2.415
 4518SOL    HW114453   0.241   6.725   2.432
 4518SOL    HW214454   0.292   6.604   2.334
 4519SOL     OW14455   5.473   6.751   0.790
 4519SOL    HW114456   5.518   6.801   0.716
 4519SOL    HW214457   5.484   6.801   0.875
 4520SOL     OW14458   4.528   5.976   6.174
 4520SOL    HW114459   4.596   6.010   6.109
 4520SOL    HW214460   4.550   5.882   6.198
 4521SOL     OW14461   5.689   2.329   5.737
 4521SOL    HW114462   5.756   2.338   5.663
 4521SOL    HW214463   5.726   2.272   5.810
 4522SOL     OW14464   5.727   4.715   3.555
 4522SOL    HW114465   5.637   4.692   3.516
 4522SOL    HW214466   5.773   4.781   3.496
 4523SOL     OW14467   1.475   4.472   0.069
 4523SOL    HW114468   1.515   4.446   0.157
 4523SOL    HW214469   1.379   4.496   0.083
 4524SOL     OW14470   6.240   3.351   2.434
 4524SOL    HW114471   6.215   3.254   2.439
 4524SOL    HW214472   6.335   3.360   2.404
 4525SOL     OW14473   3.987   2.116   5.347
 4525SOL    HW114474   3.920   2.052   5.308
 4525SOL    HW214475   3.995   2.101   5.445
 4526SOL     OW14476   6.523   0.193   6.776
 4526SOL    HW114477   6.552   0.134   6.701
 4526SOL    HW214478   6.445   0.152   6.823
 4527SOL     OW14479   6.618   0.010   2.798
 4527SOL    HW114480   6.716   0.014   2.819
 4527SOL    HW214481   6.570   6.978   2.868
 4528SOL     OW14482   4.353   0.578   6.619
 4528SOL    HW114483   4.296   0.655   6.646
 4528SOL    HW214484   4.424   0.609   6.556
 4529SOL     OW14485   2.356   0.783   5.219
 4529SOL    HW114486   2.352   0.689   5.253
 4529SOL    HW214487   2.388   0.844   5.292
 4530SOL     OW14488   2.626   5.489   3.298
 4530SOL    HW114489   2.656   5.455   3.387
 4530SOL    HW214490   2.569   5.420   3.253
 4531SOL     OW14491   0.584   2.965   6.367
 4531SOL    HW114492   0.658   3.021   6.402
 4531SOL    HW214493   0.611   2.925   6.279
 4532SOL     OW14494   6.512   1.196   2.537
 4532SOL    HW114495   6.589   1.133   2.539
 4532SOL    HW214496   6.544   1.289   2.555
 4533SOL     OW14497   1.979   0.932   2.887
 4533SOL    HW114498   2.033   0.851   2.909
 4533SOL    HW214499   1.996   0.960   2.793
 4534SOL     OW14500   5.454   3.542   5.231
 4534SOL    HW114501   5.428   3.554   5.326
 4534SOL    HW214502   5.462   3.444   5.211
 4535SOL     OW14503   3.841   0.781   1.852
 4535SOL    HW114504   3.873   0.729   1.931
 4535SOL    HW214505   3.903   0.764   1.775
 4536SOL     OW14506   3.698   1.650   4.819
 4536SOL    HW114507   3.661   1.712   4.887
 4536SOL    HW214508   3.797   1.661   4.813
 4537SOL     OW14509   4.345   3.273   1.162
 4537SOL    HW114510   4.415   3.338   1.131
 4537SOL    HW214511   4.311   3.302   1.252
 4538SOL     OW14512   2.822   0.645   2.066
 4538SOL    HW114513   2.825   0.739   2.033
 4538SOL    HW214514   2.810   0.583   1.988
 4539SOL     OW14515   3.092   5.612   5.274
 4539SOL    HW114516   3.131   5.702   5.257
 4539SOL    HW214517   3.008   5.621   5.328
 4540SOL     OW14518   2.341   1.309   0.339
 4540SOL    HW114519   2.365   1.219   0.374
 4540SOL    HW214520   2.246   1.330   0.364
 4541SOL     OW14521   5.170   1.692   6.570
 4541SOL    HW114522   5.124   1.656   6.488
 4541SOL    HW214523   5.256   1.644   6.583
 4542SOL     OW14524   0.183   2.832   2.125
 4542SOL    HW114525   0.159   2.739   2.153
 4542SOL    HW214526   0.281   2.846   2.141
 4543SOL     OW14527   4.955   2.442   1.109
 4543SOL    HW114528   4.978   2.528   1.064
 4543SOL    HW214529   4.865   2.411   1.078
 4544SOL     OW14530   3.498   5.569   0.017
 4544SOL    HW114531   3.579   5.615   0.052
 4544SOL    HW214532   3.521   5.519   6.954
 4545SOL     OW14533   6.705   3.006   5.010
 4545SOL    HW114534   6.782   3.069   5.019
 4545SOL    HW214535   6.620   3.054   5.033
 4546SOL     OW14536   3.009   6.731   4.192
 4546SOL    HW114537   3.076   6.690   4.131
 4546SOL    HW214538   2.918   6.724   4.151
 4547SOL     OW14539   6.588   1.581   0.598
 4547SOL    HW114540   6.504   1.581   0.544
 4547SOL    HW214541   6.565   1.572   0.695
 4548SOL     OW14542   2.660   2.419   3.674
 4548SOL    HW114543   2.607   2.489   3.721
 4548SOL    HW214544   2.669   2.443   3.577
 4549SOL     OW14545   5.543   3.713   2.275
 4549SOL    HW114546   5.587   3.655   2.343
 4549SOL    HW214547   5.475   3.771   2.320
 4550SOL     OW14548   1.128   4.241   2.588
 4550SOL    HW114549   1.156   4.246   2.492
 4550SOL    HW214550   1.063   4.315   2.606
 4551SOL     OW14551   0.671   3.699   4.545
 4551SOL    HW114552   0.718   3.649   4.618
 4551SOL    HW214553   0.617   3.773   4.584
 4552SOL     OW14554   5.355   2.275   1.167
 4552SOL    HW114555   5.315   2.322   1.089
 4552SOL    HW214556   5.307   2.190   1.184
 4553SOL     OW14557   4.921   3.449   0.110
 4553SOL    HW114558   5.013   3.429   0.078
 4553SOL    HW214559   4.860   3.462   0.031
 4554SOL     OW14560   6.766   0.363   1.594
 4554SOL    HW114561   6.840   0.312   1.551
 4554SOL    HW214562   6.723   0.424   1.527
 4555SOL     OW14563   1.706   0.972   5.685
 4555SOL    HW114564   1.690   0.938   5.592
 4555SOL    HW214565   1.632   1.033   5.711
 4556SOL     OW14566   6.002   3.423   4.613
 4556SOL    HW114567   5.902   3.418   4.612
 4556SOL    HW214568   6.037   3.415   4.520
 4557SOL     OW14569   5.082   5.322   4.151
 4557SOL    HW114570   4.994   5.366   4.134
 4557SOL    HW214571   5.070   5.249   4.218
 4558SOL     OW14572   0.095   3.942   4.584
 4558SOL    HW114573   0.179   3.892   4.563
 4558SOL    HW214574   0.061   3.913   4.674
 4559SOL     OW14575   0.082   3.189   2.667
 4559SOL    HW114576   0.089   3.276   2.618
 4559SOL    HW214577   7.005   3.169   2.686
 4560SOL     OW14578   5.765   3.632   1.438
 4560SOL    HW114579   5.859   3.651   1.409
 4560SOL    HW214580   5.760   3.540   1.476
 4561SOL     OW14581   3.622   2.159   3.482
 4561SOL    HW114582   3.618   2.065   3.448
 4561SOL    HW214583   3.608   2.223   3.406
 4562SOL     OW14584   1.424   0.235   0.487
 4562SOL    HW114585   1.351   0.296   0.517
 4562SOL    HW214586   1.388   0.142   0.479
 4563SOL     OW14587   6.950   3.295   1.331
 4563SOL    HW114588   6.877   3.233   1.302
 4563SOL    HW214589   7.007   3.250   1.399
 4564SOL     OW14590   6.623   6.164   2.000
 4564SOL    HW114591   6.714   6.200   2.020
 4564SOL    HW214592   6.627   6.064   2.001
 4565SOL     OW14593   1.563   0.840   4.093
 4565SOL    HW114594   1.528   0.780   4.165
 4565SOL    HW214595   1.547   0.797   4.004
 4566SOL     OW14596   6.778   3.640   1.454
 4566SOL    HW114597   6.873   3.616   1.437
 4566SOL    HW214598   6.767   3.739   1.453
 4567SOL     OW14599   0.130   1.448   6.188
 4567SOL    HW114600   0.036   1.416   6.200
 4567SOL    HW214601   0.173   1.399   6.112
 4568SOL     OW14602   1.744   3.551   5.806
 4568SOL    HW114603   1.719   3.636   5.852
 4568SOL    HW214604   1.669   3.521   5.747
 4569SOL     OW14605   2.396   0.446   3.311
 4569SOL    HW114606   2.302   0.429   3.339
 4569SOL    HW214607   2.404   0.434   3.212
 4570SOL     OW14608   6.267   6.526   2.503
 4570SOL    HW114609   6.365   6.506   2.508
 4570SOL    HW214610   6.239   6.529   2.407
 4571SOL     OW14611   4.804   3.148   6.430
 4571SOL    HW114612   4.726   3.198   6.467
 4571SOL    HW214613   4.868   3.212   6.387
 4572SOL     OW14614   2.406   1.074   6.320
 4572SOL    HW114615   2.366   0.985   6.343
 4572SOL    HW214616   2.333   1.136   6.289
 4573SOL     OW14617   0.263   6.961   0.431
 4573SOL    HW114618   0.314   6.904   0.367
 4573SOL    HW214619   0.230   0.022   0.383
 4574SOL     OW14620   5.520   4.171   0.268
 4574SOL    HW114621   5.489   4.126   0.352
 4574SOL    HW214622   5.450   4.236   0.237
 4575SOL     OW14623   5.304   0.451   5.171
 4575SOL    HW114624   5.229   0.479   5.111
 4575SOL    HW214625   5.345   0.367   5.136
 4576SOL     OW14626   3.153   5.139   5.251
 4576SOL    HW114627   3.060   5.138   5.213
 4576SOL    HW214628   3.216   5.176   5.183
 4577SOL     OW14629   1.079   2.987   4.061
 4577SOL    HW114630   1.070   3.073   4.112
 4577SOL    HW214631   1.172   2.977   4.028
 4578SOL     OW14632   1.091   1.727   4.971
 4578SOL    HW114633   1.097   1.647   4.912
 4578SOL    HW214634   1.158   1.796   4.941
 4579SOL     OW14635   4.467   0.990   2.672
 4579SOL    HW114636   4.473   1.054   2.749
 4579SOL    HW214637   4.530   1.018   2.600
 4580SOL     OW14638   5.461   3.898   0.676
 4580SOL    HW114639   5.439   3.886   0.773
 4580SOL    HW214640   5.482   3.809   0.635
 4581SOL     OW14641   2.487   6.029   2.648
 4581SOL    HW114642   2.515   6.124   2.636
 4581SOL    HW214643   2.509   5.998   2.740
 4582SOL     OW14644   4.751   0.831   3.846
 4582SOL    HW114645   4.811   0.848   3.924
 4582SOL    HW214646   4.729   0.917   3.800
 4583SOL     OW14647   2.766   1.504   6.701
 4583SOL    HW114648   2.820   1.429   6.740
 4583SOL    HW214649   2.819   1.550   6.630
 4584SOL     OW14650   1.197   5.051   5.227
 4584SOL    HW114651   1.168   5.129   5.284
 4584SOL    HW214652   1.242   4.983   5.285
 4585SOL     OW14653   2.388   4.760   3.241
 4585SOL    HW114654   2.435   4.816   3.309
 4585SOL    HW214655   2.402   4.663   3.261
 4586SOL     OW14656   3.951   3.932   0.845
 4586SOL    HW114657   3.883   3.877   0.894
 4586SOL    HW214658   3.915   3.956   0.755
 4587SOL     OW14659   3.516   3.587   3.656
 4587SOL    HW114660   3.614   3.574   3.669
 4587SOL    HW214661   3.501   3.660   3.589
 4588SOL     OW14662   2.929   2.834   6.009
 4588SOL    HW114663   2.968   2.925   6.019
 4588SOL    HW214664   2.874   2.830   5.925
 4589SOL     OW14665   5.700   0.565   1.922
 4589SOL    HW114666   5.759   0.545   1.844
 4589SOL    HW214667   5.673   0.479   1.966
 4590SOL     OW14668   3.907   5.030   1.044
 4590SOL    HW114669   3.969   4.996   0.973
 4590SOL    HW214670   3.949   5.017   1.134
 4591SOL     OW14671   1.936   0.307   5.046
 4591SOL    HW114672   2.007   0.267   4.988
 4591SOL    HW214673   1.850   0.258   5.031
 4592SOL     OW14674   3.425   0.861   3.101
 4592SOL    HW114675   3.406   0.774   3.147
 4592SOL    HW214676   3.340   0.913   3.093
 4593SOL     OW14677   6.068   6.471   2.274
 4593SOL    HW114678   6.018   6.457   2.359
 4593SOL    HW214679   6.005   6.469   2.197
 4594SOL     OW14680   3.229   0.390   3.201
 4594SOL    HW114681   3.132   0.376   3.221
 4594SOL    HW214682   3.259   0.323   3.133
 4595SOL     OW14683   4.691   3.191   5.690
 4595SOL    HW114684   4.654   3.276   5.727
 4595SOL    HW214685   4.627   3.116   5.707
 4596SOL     OW14686   6.516   0.278   2.865
 4596SOL    HW114687   6.555   0.192   2.832
 4596SOL    HW214688   6.551   0.354   2.810
 4597SOL     OW14689   2.842   5.599   6.670
 4597SOL    HW114690   2.785   5.545   6.609
 4597SOL    HW214691   2.938   5.577   6.655
 4598SOL     OW14692   1.335   5.477   1.270
 4598SOL    HW114693   1.258   5.541   1.274
 4598SOL    HW214694   1.380   5.473   1.359
 4599SOL     OW14695   1.054   4.790   1.307
 4599SOL    HW114696   1.043   4.853   1.383
 4599SOL    HW214697   1.151   4.774   1.291
 4600SOL     OW14698   0.582   6.281   5.641
 4600SOL    HW114699   0.546   6.212   5.704
 4600SOL    HW214700   0.538   6.369   5.659
 4601SOL     OW14701   0.918   1.429   5.190
 4601SOL    HW114702   0.885   1.468   5.104
 4601SOL    HW214703   0.884   1.335   5.199
 4602SOL     OW14704   3.129   6.336   0.507
 4602SOL    HW114705   3.052   6.272   0.513
 4602SOL    HW214706   3.211   6.288   0.477
 4603SOL     OW14707   3.627   6.041   0.508
 4603SOL    HW114708   3.611   5.948   0.477
 4603SOL    HW214709   3.668   6.040   0.599
 4604SOL     OW14710   4.494   7.002   6.970
 4604SOL    HW114711   4.472   6.905   6.987
 4604SOL    HW214712   4.527   0.023   0.035
 4605SOL     OW14713   1.931   6.659   1.433
 4605SOL    HW114714   1.848   6.708   1.406
 4605SOL    HW214715   2.011   6.704   1.393
 4606SOL     OW14716   0.477   6.586   2.731
 4606SOL    HW114717   0.543   6.556   2.661
 4606SOL    HW214718   0.488   6.530   2.813
 4607SOL     OW14719   1.883   3.052   3.406
 4607SOL    HW114720   1.807   3.050   3.341
 4607SOL    HW214721   1.968   3.028   3.359
 4608SOL     OW14722   0.013   4.559   3.968
 4608SOL    HW114723   0.055   4.499   3.899
 4608SOL    HW214724   0.061   4.647   3.968
 4609SOL     OW14725   5.028   4.851   6.776
 4609SOL    HW114726   5.035   4.951   6.785
 4609SOL    HW214727   5.117   4.810   6.793
 4610SOL     OW14728   4.226   1.827   0.093
 4610SOL    HW114729   4.196   1.912   0.049
 4610SOL    HW214730   4.201   1.749   0.036
 4611SOL     OW14731   0.622   6.966   6.210
 4611SOL    HW114732   0.703   6.931   6.163
 4611SOL    HW214733   0.650   0.009   6.282
 4612SOL     OW14734   2.381   6.856   0.577
 4612SOL    HW114735   2.319   6.930   0.605
 4612SOL    HW214736   2.403   6.799   0.656
 4613SOL     OW14737   1.762   5.843   2.389
 4613SOL    HW114738   1.750   5.790   2.473
 4613SOL    HW214739   1.723   5.934   2.401
 4614SOL     OW14740   5.895   3.397   3.401
 4614SOL    HW114741   5.873   3.339   3.480
 4614SOL    HW214742   5.976   3.361   3.355
 4615SOL     OW14743   0.893   1.503   0.462
 4615SOL    HW114744   0.799   1.533   0.481
 4615SOL    HW214745   0.892   1.408   0.433
 4616SOL     OW14746   5.438   1.625   4.346
 4616SOL    HW114747   5.400   1.718   4.344
 4616SOL    HW214748   5.537   1.629   4.331
 4617SOL     OW14749   1.630   2.164   2.427
 4617SOL    HW114750   1.536   2.192   2.407
 4617SOL    HW214751   1.661   2.102   2.355
 4618SOL     OW14752   2.030   4.048   5.515
 4618SOL    HW114753   2.092   3.994   5.459
 4618SOL    HW214754   1.959   4.087   5.457
 4619SOL     OW14755   3.012   6.161   3.967
 4619SOL    HW114756   2.952   6.154   3.887
 4619SOL    HW214757   3.089   6.220   3.945
 4620SOL     OW14758   0.933   4.810   1.058
 4620SOL    HW114759   0.899   4.904   1.052
 4620SOL    HW214760   0.984   4.798   1.143
 4621SOL     OW14761   4.885   0.957   2.324
 4621SOL    HW114762   4.889   1.057   2.331
 4621SOL    HW214763   4.943   0.916   2.394
 4622SOL     OW14764   3.789   4.752   0.720
 4622SOL    HW114765   3.751   4.826   0.664
 4622SOL    HW214766   3.749   4.756   0.812
 4623SOL     OW14767   4.690   5.718   1.243
 4623SOL    HW114768   4.781   5.701   1.281
 4623SOL    HW214769   4.637   5.634   1.246
 4624SOL     OW14770   3.428   0.323   2.743
 4624SOL    HW114771   3.408   0.282   2.654
 4624SOL    HW214772   3.524   0.352   2.746
 4625SOL     OW14773   1.622   5.362   1.908
 4625SOL    HW114774   1.524   5.370   1.927
 4625SOL    HW214775   1.666   5.313   1.982
 4626SOL     OW14776   4.704   4.395   1.841
 4626SOL    HW114777   4.652   4.338   1.905
 4626SOL    HW214778   4.646   4.419   1.764
 4627SOL     OW14779   1.037   5.036   5.004
 4627SOL    HW114780   1.092   5.034   5.088
 4627SOL    HW214781   0.982   5.119   5.003
 4628SOL     OW14782   4.624   4.470   4.927
 4628SOL    HW114783   4.529   4.469   4.955
 4628SOL    HW214784   4.637   4.411   4.847
 4629SOL     OW14785   2.224   4.828   5.077
 4629SOL    HW114786   2.276   4.914   5.083
 4629SOL    HW214787   2.133   4.842   5.118
 4630SOL     OW14788   1.916   5.187   1.908
 4630SOL    HW114789   2.000   5.182   1.854
 4630SOL    HW214790   1.926   5.255   1.981
 4631SOL     OW14791   1.244   6.309   3.404
 4631SOL    HW114792   1.206   6.217   3.403
 4631SOL    HW214793   1.281   6.328   3.495
 4632SOL     OW14794   2.524   4.519   2.936
 4632SOL    HW114795   2.504   4.423   2.920
 4632SOL    HW214796   2.439   4.571   2.937
 4633SOL     OW14797   5.970   1.334   4.514
 4633SOL    HW114798   5.969   1.275   4.432
 4633SOL    HW214799   5.958   1.277   4.595
 4634SOL     OW14800   2.612   3.862   5.301
 4634SOL    HW114801   2.565   3.821   5.380
 4634SOL    HW214802   2.550   3.924   5.254
 4635SOL     OW14803   4.276   4.456   1.714
 4635SOL    HW114804   4.316   4.366   1.734
 4635SOL    HW214805   4.306   4.522   1.782
 4636SOL     OW14806   1.866   4.096   0.666
 4636SOL    HW114807   1.907   4.167   0.723
 4636SOL    HW214808   1.934   4.065   0.599
 4637SOL     OW14809   0.875   6.961   1.430
 4637SOL    HW114810   0.949   6.895   1.439
 4637SOL    HW214811   0.910   0.024   1.386
 4638SOL     OW14812   3.768   6.075   6.918
 4638SOL    HW114813   3.672   6.052   6.934
 4638SOL    HW214814   3.787   6.073   6.820
 4639SOL     OW14815   3.019   2.768   6.293
 4639SOL    HW114816   3.072   2.839   6.340
 4639SOL    HW214817   3.008   2.795   6.197
 4640SOL     OW14818   5.799   3.770   4.460
 4640SOL    HW114819   5.785   3.869   4.468
 4640SOL    HW214820   5.869   3.741   4.526
 4641SOL     OW14821   2.502   0.421   4.130
 4641SOL    HW114822   2.551   0.507   4.142
 4641SOL    HW214823   2.554   0.362   4.069
 4642SOL     OW14824   1.605   6.383   2.720
 4642SOL    HW114825   1.508   6.369   2.700
 4642SOL    HW214826   1.646   6.437   2.646
 4643SOL     OW14827   6.745   1.643   0.157
 4643SOL    HW114828   6.824   1.698   0.184
 4643SOL    HW214829   6.718   1.582   0.232
 4644SOL     OW14830   6.757   0.537   5.368
 4644SOL    HW114831   6.817   0.464   5.336
 4644SOL    HW214832   6.671   0.498   5.401
 4645SOL     OW14833   1.799   0.682   4.208
 4645SOL    HW114834   1.806   0.761   4.148
 4645SOL    HW214835   1.718   0.691   4.266
 4646SOL     OW14836   2.586   5.896   3.655
 4646SOL    HW114837   2.502   5.849   3.683
 4646SOL    HW214838   2.625   5.850   3.576
 4647SOL     OW14839   1.966   0.407   2.541
 4647SOL    HW114840   2.064   0.411   2.559
 4647SOL    HW214841   1.916   0.454   2.614
 4648SOL     OW14842   3.783   1.052   3.882
 4648SOL    HW114843   3.800   1.022   3.975
 4648SOL    HW214844   3.775   0.973   3.822
 4649SOL     OW14845   6.648   0.904   0.790
 4649SOL    HW114846   6.678   0.812   0.815
 4649SOL    HW214847   6.631   0.908   0.692
 4650SOL     OW14848   4.707   5.190   2.025
 4650SOL    HW114849   4.780   5.142   1.976
 4650SOL    HW214850   4.700   5.154   2.118
 4651SOL     OW14851   7.005   3.168   6.797
 4651SOL    HW114852   6.917   3.212   6.818
 4651SOL    HW214853   0.047   3.235   6.757
 4652SOL     OW14854   6.477   5.978   5.276
 4652SOL    HW114855   6.572   6.009   5.279
 4652SOL    HW214856   6.457   5.926   5.359
 4653SOL     OW14857   5.035   5.944   0.958
 4653SOL    HW114858   4.942   5.949   0.993
 4653SOL    HW214859   5.033   5.928   0.859
 4654SOL     OW14860   0.632   5.800   6.191
 4654SOL    HW114861   0.690   5.753   6.257
 4654SOL    HW214862   0.585   5.733   6.133
 4655SOL     OW14863   5.738   3.893   1.261
 4655SOL    HW114864   5.649   3.931   1.237
 4655SOL    HW214865   5.726   3.819   1.327
 4656SOL     OW14866   1.359   1.180   1.771
 4656SOL    HW114867   1.446   1.157   1.727
 4656SOL    HW214868   1.284   1.167   1.705
 4657SOL     OW14869   4.357   5.437   1.637
 4657SOL    HW114870   4.313   5.383   1.708
 4657SOL    HW214871   4.290   5.466   1.569
 4658SOL     OW14872   3.214   1.557   4.817
 4658SOL    HW114873   3.211   1.474   4.761
 4658SOL    HW214874   3.309   1.576   4.843
 4659SOL     OW14875   2.806   4.071   6.661
 4659SOL    HW114876   2.861   4.000   6.705
 4659SOL    HW214877   2.765   4.035   6.577
 4660SOL     OW14878   1.297   6.106   4.615
 4660SOL    HW114879   1.390   6.141   4.625
 4660SOL    HW214880   1.240   6.174   4.570
 4661SOL     OW14881   2.821   4.883   5.871
 4661SOL    HW114882   2.841   4.981   5.868
 4661SOL    HW214883   2.907   4.831   5.871
 4662SOL     OW14884   2.886   0.365   5.532
 4662SOL    HW114885   2.805   0.403   5.489
 4662SOL    HW214886   2.932   0.436   5.586
 4663SOL     OW14887   0.502   0.647   0.834
 4663SOL    HW114888   0.526   0.656   0.737
 4663SOL    HW214889   0.585   0.645   0.889
 4664SOL     OW14890   0.621   0.558   0.358
 4664SOL    HW114891   0.665   0.473   0.387
 4664SOL    HW214892   0.679   0.603   0.290
 4665SOL     OW14893   2.746   6.917   6.373
 4665SOL    HW114894   2.698   6.832   6.352
 4665SOL    HW214895   2.781   6.957   6.288
 4666SOL     OW14896   1.799   2.212   0.045
 4666SOL    HW114897   1.804   2.302   0.002
 4666SOL    HW214898   1.703   2.185   0.056
 4667SOL     OW14899   6.182   3.958   1.648
 4667SOL    HW114900   6.208   3.861   1.650
 4667SOL    HW214901   6.120   3.977   1.725
 4668SOL     OW14902   4.530   1.563   4.123
 4668SOL    HW114903   4.494   1.558   4.030
 4668SOL    HW214904   4.629   1.556   4.121
 4669SOL     OW14905   5.380   6.389   6.329
 4669SOL    HW114906   5.386   6.474   6.381
 4669SOL    HW214907   5.370   6.409   6.232
 4670SOL     OW14908   0.981   2.857   6.864
 4670SOL    HW114909   1.015   2.949   6.887
 4670SOL    HW214910   0.968   2.850   6.766
 4671SOL     OW14911   0.163   3.498   6.677
 4671SOL    HW114912   0.219   3.535   6.602
 4671SOL    HW214913   0.102   3.570   6.711
 4672SOL     OW14914   3.572   4.690   6.296
 4672SOL    HW114915   3.515   4.662   6.219
 4672SOL    HW214916   3.526   4.667   6.382
 4673SOL     OW14917   4.690   0.131   1.247
 4673SOL    HW114918   4.636   0.152   1.165
 4673SOL    HW214919   4.762   0.065   1.223
 4674SOL     OW14920   5.541   1.549   0.419
 4674SOL    HW114921   5.534   1.459   0.377
 4674SOL    HW214922   5.503   1.546   0.511
 4675SOL     OW14923   3.686   0.323   0.056
 4675SOL    HW114924   3.761   0.287   0.002
 4675SOL    HW214925   3.712   0.410   0.097
 4676SOL     OW14926   0.194   6.465   4.377
 4676SOL    HW114927   0.111   6.477   4.323
 4676SOL    HW214928   0.215   6.549   4.427
 4677SOL     OW14929   2.864   0.812   0.459
 4677SOL    HW114930   2.882   0.909   0.442
 4677SOL    HW214931   2.905   0.785   0.546
 4678SOL     OW14932   1.846   4.465   2.381
 4678SOL    HW114933   1.829   4.490   2.286
 4678SOL    HW214934   1.942   4.482   2.403
 4679SOL     OW14935   3.829   1.107   6.773
 4679SOL    HW114936   3.844   1.152   6.684
 4679SOL    HW214937   3.754   1.042   6.764
 4680SOL     OW14938   1.924   0.380   2.014
 4680SOL    HW114939   1.893   0.469   1.978
 4680SOL    HW214940   1.892   0.370   2.109
 4681SOL     OW14941   5.912   5.632   5.514
 4681SOL    HW114942   5.967   5.602   5.436
 4681SOL    HW214943   5.935   5.577   5.594
 4682SOL     OW14944   4.612   4.268   6.820
 4682SOL    HW114945   4.584   4.336   6.753
 4682SOL    HW214946   4.664   4.313   6.893
 4683SOL     OW14947   4.937   4.737   2.846
 4683SOL    HW114948   4.850   4.741   2.894
 4683SOL    HW214949   4.950   4.645   2.808
 4684SOL     OW14950   0.024   1.595   4.214
 4684SOL    HW114951   7.000   1.616   4.127
 4684SOL    HW214952   0.031   1.495   4.224
 4685SOL     OW14953   0.425   6.331   4.891
 4685SOL    HW114954   0.503   6.273   4.915
 4685SOL    HW214955   0.362   6.281   4.833
 4686SOL     OW14956   5.394   5.911   0.110
 4686SOL    HW114957   5.455   5.978   0.068
 4686SOL    HW214958   5.448   5.834   0.144
 4687SOL     OW14959   6.977   4.933   4.900
 4687SOL    HW114960   7.016   4.983   4.977
 4687SOL    HW214961   6.974   4.993   4.820
 4688SOL     OW14962   0.135   3.526   6.039
 4688SOL    HW114963   0.047   3.536   5.991
 4688SOL    HW214964   0.174   3.617   6.056
 4689SOL     OW14965   5.923   0.321   6.978
 4689SOL    HW114966   5.989   0.354   0.025
 4689SOL    HW214967   5.961   0.330   6.886
 4690SOL     OW14968   1.234   1.445   0.194
 4690SOL    HW114969   1.135   1.442   0.186
 4690SOL    HW214970   1.276   1.420   0.107
 4691SOL     OW14971   3.038   4.685   1.683
 4691SOL    HW114972   2.988   4.617   1.737
 4691SOL    HW214973   2.995   4.693   1.593
 4692SOL     OW14974   6.834   5.641   2.639
 4692SOL    HW114975   6.805   5.736   2.633
 4692SOL    HW214976   6.768   5.582   2.593
 4693SOL     OW14977   0.882   0.790   4.256
 4693SOL    HW114978   0.938   0.801   4.339
 4693SOL    HW214979   0.939   0.802   4.175
 4694SOL     OW14980   3.040   0.503   0.129
 4694SOL    HW114981   3.030   0.483   0.227
 4694SOL    HW214982   3.126   0.550   0.113
 4695SOL     OW14983   2.539   3.296   1.717
 4695SOL    HW114984   2.489   3.351   1.785
 4695SOL    HW214985   2.506   3.319   1.626
 4696SOL     OW14986   0.410   4.129   5.264
 4696SOL    HW114987   0.372   4.171   5.347
 4696SOL    HW214988   0.465   4.050   5.288
 4697SOL     OW14989   1.445   2.803   0.707
 4697SOL    HW114990   1.521   2.868   0.706
 4697SOL    HW214991   1.471   2.720   0.659
 4698SOL     OW14992   4.127   5.818   3.182
 4698SOL    HW114993   4.121   5.845   3.279
 4698SOL    HW214994   4.139   5.719   3.176
 4699SOL     OW14995   1.218   6.699   1.962
 4699SOL    HW114996   1.237   6.628   2.029
 4699SOL    HW214997   1.157   6.663   1.891
 4700SOL     OW14998   6.092   1.578   2.347
 4700SOL    HW114999   6.131   1.669   2.333
 4700SOL    HW215000   6.070   1.537   2.258
 4701SOL     OW15001   1.324   2.141   0.903
 4701SOL    HW115002   1.389   2.158   0.829
 4701SOL    HW215003   1.366   2.163   0.991
 4702SOL     OW15004   6.121   5.021   6.586
 4702SOL    HW115005   6.170   4.937   6.610
 4702SOL    HW215006   6.183   5.083   6.539
 4703SOL     OW15007   1.494   2.560   1.743
 4703SOL    HW115008   1.479   2.623   1.666
 4703SOL    HW215009   1.433   2.584   1.818
 4704SOL     OW15010   0.628   6.657   6.826
 4704SOL    HW115011   0.717   6.655   6.780
 4704SOL    HW215012   0.572   6.581   6.793
 4705SOL     OW15013   3.809   3.295   2.796
 4705SOL    HW115014   3.730   3.239   2.772
 4705SOL    HW215015   3.893   3.252   2.763
 4706SOL     OW15016   3.533   6.261   6.453
 4706SOL    HW115017   3.586   6.322   6.394
 4706SOL    HW215018   3.545   6.289   6.548
 4707SOL     OW15019   2.292   5.734   1.003
 4707SOL    HW115020   2.269   5.727   1.100
 4707SOL    HW215021   2.253   5.658   0.952
 4708SOL     OW15022   1.494   2.075   6.702
 4708SOL    HW115023   1.528   1.983   6.724
 4708SOL    HW215024   1.506   2.134   6.781
 4709SOL     OW15025   3.903   5.168   5.425
 4709SOL    HW115026   3.904   5.157   5.325
 4709SOL    HW215027   3.876   5.083   5.469
 4710SOL     OW15028   3.836   1.009   5.355
 4710SOL    HW115029   3.762   1.074   5.342
 4710SOL    HW215030   3.831   0.971   5.447
 4711SOL     OW15031   5.456   0.434   2.089
 4711SOL    HW115032   5.552   0.431   2.115
 4711SOL    HW215033   5.425   0.343   2.062
 4712SOL     OW15034   3.262   4.608   0.644
 4712SOL    HW115035   3.197   4.580   0.573
 4712SOL    HW215036   3.354   4.614   0.604
 4713SOL     OW15037   2.618   3.915   1.278
 4713SOL    HW115038   2.533   3.885   1.236
 4713SOL    HW215039   2.667   3.975   1.215
 4714SOL     OW15040   1.845   1.797   0.013
 4714SOL    HW115041   1.802   1.712   7.002
 4714SOL    HW215042   1.804   1.825   0.100
 4715SOL     OW15043   6.646   3.668   1.848
 4715SOL    HW115044   6.673   3.572   1.849
 4715SOL    HW215045   6.549   3.675   1.825
 4716SOL     OW15046   4.184   6.009   6.689
 4716SOL    HW115047   4.119   5.969   6.625
 4716SOL    HW215048   4.273   6.020   6.643
 4717SOL     OW15049   0.289   6.533   3.209
 4717SOL    HW115050   0.271   6.445   3.166
 4717SOL    HW215051   0.384   6.535   3.241
 4718SOL     OW15052   5.756   2.053   6.852
 4718SOL    HW115053   5.721   1.959   6.843
 4718SOL    HW215054   5.776   2.089   6.761
 4719SOL     OW15055   4.902   3.108   2.549
 4719SOL    HW115056   4.848   3.061   2.619
 4719SOL    HW215057   4.900   3.055   2.464
 4720SOL     OW15058   2.389   5.839   5.476
 4720SOL    HW115059   2.401   5.932   5.510
 4720SOL    HW215060   2.316   5.794   5.528
 4721SOL     OW15061   6.561   2.516   1.370
 4721SOL    HW115062   6.580   2.557   1.459
 4721SOL    HW215063   6.643   2.520   1.313
 4722SOL     OW15064   1.285   5.840   6.858
 4722SOL    HW115065   1.265   5.742   6.860
 4722SOL    HW215066   1.218   5.889   6.914
 4723SOL     OW15067   1.895   4.966   6.038
 4723SOL    HW115068   1.964   4.895   6.057
 4723SOL    HW215069   1.890   5.028   6.116
 4724SOL     OW15070   4.866   5.761   2.875
 4724SOL    HW115071   4.805   5.799   2.805
 4724SOL    HW215072   4.945   5.718   2.831
 4725SOL     OW15073   6.050   6.547   2.661
 4725SOL    HW115074   6.128   6.498   2.623
 4725SOL    HW215075   6.062   6.557   2.760
 4726SOL     OW15076   1.764   3.175   6.475
 4726SOL    HW115077   1.745   3.132   6.387
 4726SOL    HW215078   1.853   3.145   6.508
 4727SOL     OW15079   0.265   6.573   0.389
 4727SOL    HW115080   0.239   6.523   0.306
 4727SOL    HW215081   0.192   6.636   0.415
 4728SOL     OW15082   4.594   1.851   0.952
 4728SOL    HW115083   4.561   1.876   0.861
 4728SOL    HW215084   4.596   1.932   1.010
 4729SOL     OW15085   2.616   1.346   2.414
 4729SOL    HW115086   2.536   1.345   2.473
 4729SOL    HW215087   2.593   1.386   2.326
 4730SOL     OW15088   2.206   5.665   5.361
 4730SOL    HW115089   2.111   5.676   5.392
 4730SOL    HW215090   2.240   5.752   5.327
 4731SOL     OW15091   4.452   0.390   6.413
 4731SOL    HW115092   4.468   0.423   6.506
 4731SOL    HW215093   4.353   0.380   6.397
 4732SOL     OW15094   6.844   3.752   5.928
 4732SOL    HW115095   6.888   3.821   5.987
 4732SOL    HW215096   6.787   3.693   5.984
 4733SOL     OW15097   1.077   4.349   2.974
 4733SOL    HW115098   1.005   4.313   2.915
 4733SOL    HW215099   1.099   4.443   2.947
 4734SOL     OW15100   4.717   3.334   6.717
 4734SOL    HW115101   4.793   3.269   6.711
 4734SOL    HW215102   4.726   3.389   6.800
 4735SOL     OW15103   0.845   5.449   4.253
 4735SOL    HW115104   0.845   5.549   4.247
 4735SOL    HW215105   0.826   5.410   4.163
 4736SOL     OW15106   0.056   1.697   6.653
 4736SOL    HW115107   0.120   1.651   6.591
 4736SOL    HW215108   0.099   1.708   6.743
 4737SOL     OW15109   1.161   5.161   2.214
 4737SOL    HW115110   1.250   5.117   2.226
 4737SOL    HW215111   1.108   5.111   2.146
 4738SOL     OW15112   6.791   5.840   2.987
 4738SOL    HW115113   6.871   5.849   3.045
 4738SOL    HW215114   6.726   5.776   3.029
 4739SOL     OW15115   4.378   6.716   3.212
 4739SOL    HW115116   4.292   6.696   3.259
 4739SOL    HW215117   4.359   6.738   3.116
 4740SOL     OW15118   0.483   1.139   1.553
 4740SOL    HW115119   0.519   1.205   1.619
 4740SOL    HW215120   0.532   1.149   1.466
 4741SOL     OW15121   3.407   2.348   1.549
 4741SOL    HW115122   3.372   2.352   1.456
 4741SOL    HW215123   3.331   2.335   1.613
 4742SOL     OW15124   1.876   6.776   5.430
 4742SOL    HW115125   1.868   6.867   5.388
 4742SOL    HW215126   1.955   6.774   5.491
 4743SOL     OW15127   2.088   3.578   2.837
 4743SOL    HW115128   2.122   3.671   2.828
 4743SOL    HW215129   1.994   3.580   2.870
 4744SOL     OW15130   2.145   5.139   0.922
 4744SOL    HW115131   2.078   5.206   0.892
 4744SOL    HW215132   2.189   5.171   1.006
 4745SOL     OW15133   3.291   3.916   6.911
 4745SOL    HW115134   3.337   3.895   6.825
 4745SOL    HW215135   3.253   3.832   6.950
 4746SOL     OW15136   4.658   6.372   3.661
 4746SOL    HW115137   4.668   6.454   3.717
 4746SOL    HW215138   4.746   6.351   3.617
 4747SOL     OW15139   0.491   4.344   0.593
 4747SOL    HW115140   0.589   4.330   0.579
 4747SOL    HW215141   0.456   4.274   0.656
 4748SOL     OW15142   1.760   6.102   1.378
 4748SOL    HW115143   1.715   6.028   1.428
 4748SOL    HW215144   1.704   6.185   1.384
 4749SOL     OW15145   1.800   6.990   6.502
 4749SOL    HW115146   1.832   6.963   6.411
 4749SOL    HW215147   1.808   0.069   6.512
 4750SOL     OW15148   6.628   3.211   5.495
 4750SOL    HW115149   6.620   3.253   5.405
 4750SOL    HW215150   6.635   3.282   5.565
 4751SOL     OW15151   4.541   2.562   2.880
 4751SOL    HW115152   4.483   2.563   2.962
 4751SOL    HW215153   4.489   2.524   2.803
 4752SOL     OW15154   4.735   0.379   0.377
 4752SOL    HW115155   4.656   0.440   0.390
 4752SOL    HW215156   4.739   0.314   0.453
 4753SOL     OW15157   0.727   6.786   3.686
 4753SOL    HW115158   0.826   6.801   3.686
 4753SOL    HW215159   0.695   6.778   3.781
 4754SOL     OW15160   5.027   3.789   5.093
 4754SOL    HW115161   4.951   3.737   5.054
 4754SOL    HW215162   5.111   3.735   5.089
 4755SOL     OW15163   2.767   0.698   0.910
 4755SOL    HW115164   2.720   0.784   0.932
 4755SOL    HW215165   2.854   0.718   0.866
 4756SOL     OW15166   6.359   3.815   5.716
 4756SOL    HW115167   6.272   3.816   5.764
 4756SOL    HW215168   6.356   3.880   5.640
 4757SOL     OW15169   1.586   2.556   1.360
 4757SOL    HW115170   1.510   2.616   1.386
 4757SOL    HW215171   1.575   2.528   1.265
 4758SOL     OW15172   1.282   6.656   3.461
 4758SOL    HW115173   1.262   6.604   3.378
 4758SOL    HW215174   1.379   6.646   3.484
 4759SOL     OW15175   0.856   5.413   6.109
 4759SOL    HW115176   0.804   5.445   6.030
 4759SOL    HW215177   0.862   5.313   6.106
 4760SOL     OW15178   1.976   1.340   0.809
 4760SOL    HW115179   2.044   1.276   0.774
 4760SOL    HW215180   2.004   1.434   0.789
 4761SOL     OW15181   1.436   0.843   0.916
 4761SOL    HW115182   1.451   0.783   0.838
 4761SOL    HW215183   1.524   0.869   0.955
 4762SOL     OW15184   1.745   5.997   1.984
 4762SOL    HW115185   1.745   5.966   1.889
 4762SOL    HW215186   1.689   5.936   2.039
 4763SOL     OW15187   4.803   0.580   2.638
 4763SOL    HW115188   4.821   0.572   2.736
 4763SOL    HW215189   4.881   0.545   2.587
 4764SOL     OW15190   4.554   3.594   5.319
 4764SOL    HW115191   4.615   3.585   5.241
 4764SOL    HW215192   4.596   3.551   5.400
 4765SOL     OW15193   3.794   0.887   5.628
 4765SOL    HW115194   3.872   0.884   5.691
 4765SOL    HW215195   3.739   0.804   5.640
 4766SOL     OW15196   6.289   6.472   4.030
 4766SOL    HW115197   6.280   6.447   4.126
 4766SOL    HW215198   6.374   6.436   3.993
 4767SOL     OW15199   3.024   4.892   5.425
 4767SOL    HW115200   3.042   4.987   5.450
 4767SOL    HW215201   2.981   4.889   5.335
 4768SOL     OW15202   3.447   2.920   5.851
 4768SOL    HW115203   3.464   2.825   5.824
 4768SOL    HW215204   3.433   2.975   5.769
 4769SOL     OW15205   3.749   6.009   0.962
 4769SOL    HW115206   3.793   5.974   1.045
 4769SOL    HW215207   3.783   5.959   0.882
 4770SOL     OW15208   0.373   1.911   4.650
 4770SOL    HW115209   0.378   1.937   4.554
 4770SOL    HW215210   0.287   1.862   4.667
 4771SOL     OW15211   2.359   6.636   6.235
 4771SOL    HW115212   2.405   6.697   6.300
 4771SOL    HW215213   2.362   6.542   6.269
 4772SOL     OW15214   3.251   4.657   1.037
 4772SOL    HW115215   3.249   4.737   1.096
 4772SOL    HW215216   3.283   4.578   1.089
 4773SOL     OW15217   0.643   5.948   5.222
 4773SOL    HW115218   0.668   6.044   5.211
 4773SOL    HW215219   0.708   5.903   5.283
 4774SOL     OW15220   1.219   3.990   1.275
 4774SOL    HW115221   1.222   3.927   1.197
 4774SOL    HW215222   1.212   3.938   1.360
 4775SOL     OW15223   5.033   0.184   4.065
 4775SOL    HW115224   5.119   0.229   4.089
 4775SOL    HW215225   5.043   0.137   3.977
 4776SOL     OW15226   1.033   0.872   5.207
 4776SOL    HW115227   1.042   0.775   5.182
 4776SOL    HW215228   1.063   0.929   5.130
 4777SOL     OW15229   1.901   5.705   1.046
 4777SOL    HW115230   1.969   5.658   1.102
 4777SOL    HW215231   1.812   5.702   1.092
 4778SOL     OW15232   6.809   2.819   4.594
 4778SOL    HW115233   6.815   2.722   4.569
 4778SOL    HW215234   6.786   2.873   4.513
 4779SOL     OW15235   5.535   6.956   3.536
 4779SOL    HW115236   5.611   6.891   3.536
 4779SOL    HW215237   5.571   0.029   3.542
 4780SOL     OW15238   5.658   2.620   6.685
 4780SOL    HW115239   5.677   2.590   6.592
 4780SOL    HW215240   5.587   2.562   6.725
 4781SOL     OW15241   2.890   5.276   2.060
 4781SOL    HW115242   2.804   5.227   2.074
 4781SOL    HW215243   2.952   5.220   2.004
 4782SOL     OW15244   6.414   5.711   6.520
 4782SOL    HW115245   6.483   5.783   6.526
 4782SOL    HW215246   6.323   5.752   6.521
 4783SOL     OW15247   5.720   3.816   6.964
 4783SOL    HW115248   5.637   3.865   6.935
 4783SOL    HW215249   5.797   3.879   6.964
 4784SOL     OW15250   6.142   2.024   6.242
 4784SOL    HW115251   6.116   2.014   6.145
 4784SOL    HW215252   6.124   1.938   6.290
 4785SOL     OW15253   0.213   6.768   3.138
 4785SOL    HW115254   0.288   6.834   3.136
 4785SOL    HW215255   0.240   6.688   3.192
 4786SOL     OW15256   2.249   6.753   6.681
 4786SOL    HW115257   2.242   6.654   6.675
 4786SOL    HW215258   2.218   6.784   6.771
 4787SOL     OW15259   3.803   1.797   3.502
 4787SOL    HW115260   3.728   1.842   3.453
 4787SOL    HW215261   3.778   1.786   3.598
 4788SOL     OW15262   6.764   6.068   0.888
 4788SOL    HW115263   6.738   6.070   0.791
 4788SOL    HW215264   6.724   5.988   0.932
 4789SOL     OW15265   4.917   1.934   1.737
 4789SOL    HW115266   4.967   1.859   1.779
 4789SOL    HW215267   4.921   1.926   1.637
 4790SOL     OW15268   5.675   2.163   5.997
 4790SOL    HW115269   5.761   2.139   6.042
 4790SOL    HW215270   5.599   2.117   6.043
 4791SOL     OW15271   6.982   3.080   1.955
 4791SOL    HW115272   7.004   3.053   2.049
 4791SOL    HW215273   0.039   3.058   1.895
 4792SOL     OW15274   2.160   4.301   4.516
 4792SOL    HW115275   2.129   4.310   4.611
 4792SOL    HW215276   2.260   4.310   4.513
 4793SOL     OW15277   1.933   3.860   5.268
 4793SOL    HW115278   2.030   3.862   5.291
 4793SOL    HW215279   1.921   3.828   5.174
 4794SOL     OW15280   4.453   6.702   4.425
 4794SOL    HW115281   4.422   6.619   4.378
 4794SOL    HW215282   4.542   6.685   4.468
 4795SOL     OW15283   6.546   1.842   4.212
 4795SOL    HW115284   6.544   1.847   4.112
 4795SOL    HW215285   6.639   1.855   4.245
 4796SOL     OW15286   3.795   7.015   6.290
 4796SOL    HW115287   3.855   6.935   6.296
 4796SOL    HW215288   3.794   0.029   6.196
 4797SOL     OW15289   0.676   6.150   4.393
 4797SOL    HW115290   0.651   6.184   4.484
 4797SOL    HW215291   0.633   6.061   4.378
 4798SOL     OW15292   5.937   5.223   5.196
 4798SOL    HW115293   5.949   5.148   5.260
 4798SOL    HW215294   5.869   5.287   5.232
 4799SOL     OW15295   4.013   1.357   0.231
 4799SOL    HW115296   3.999   1.273   0.179
 4799SOL    HW215297   4.109   1.385   0.224
 4800SOL     OW15298   1.512   4.018   6.828
 4800SOL    HW115299   1.589   3.989   6.885
 4800SOL    HW215300   1.534   4.106   6.786
 4801SOL     OW15301   3.712   2.612   6.760
 4801SOL    HW115302   3.674   2.703   6.745
 4801SOL    HW215303   3.647   2.543   6.728
 4802SOL     OW15304   6.522   6.588   1.851
 4802SOL    HW115305   6.517   6.496   1.814
 4802SOL    HW215306   6.488   6.588   1.945
 4803SOL     OW15307   6.454   4.749   0.695
 4803SOL    HW115308   6.461   4.657   0.657
 4803SOL    HW215309   6.531   4.765   0.756
 4804SOL     OW15310   5.840   6.942   0.955
 4804SOL    HW115311   5.840   6.948   0.855
 4804SOL    HW215312   5.934   6.932   0.988
 4805SOL     OW15313   6.369   1.182   2.198
 4805SOL    HW115314   6.395   1.107   2.259
 4805SOL    HW215315   6.447   1.207   2.141
 4806SOL     OW15316   0.917   3.576   2.503
 4806SOL    HW115317   0.858   3.648   2.465
 4806SOL    HW215318   0.867   3.490   2.504
 4807SOL     OW15319   1.293   3.677   6.751
 4807SOL    HW115320   1.270   3.597   6.695
 4807SOL    HW215321   1.383   3.711   6.724
 4808SOL     OW15322   4.495   5.181   0.515
 4808SOL    HW115323   4.400   5.149   0.516
 4808SOL    HW215324   4.521   5.210   0.607
 4809SOL     OW15325   3.789   4.464   1.317
 4809SOL    HW115326   3.767   4.368   1.337
 4809SOL    HW215327   3.713   4.522   1.345
 4810SOL     OW15328   1.556   4.647   3.364
 4810SOL    HW115329   1.498   4.713   3.411
 4810SOL    HW215330   1.629   4.617   3.425
 4811SOL     OW15331   3.959   3.873   3.650
 4811SOL    HW115332   4.059   3.868   3.651
 4811SOL    HW215333   3.927   3.878   3.555
 4812SOL     OW15334   0.326   0.008   2.359
 4812SOL    HW115335   0.288   7.014   2.268
 4812SOL    HW215336   0.424   0.025   2.352
 4813SOL     OW15337   6.457   1.839   6.503
 4813SOL    HW115338   6.551   1.866   6.482
 4813SOL    HW215339   6.434   1.868   6.596
 4814SOL     OW15340   6.739   3.396   1.890
 4814SOL    HW115341   6.694   3.315   1.851
 4814SOL    HW215342   6.830   3.371   1.923
 4815SOL     OW15343   5.394   4.653   2.971
 4815SOL    HW115344   5.484   4.664   2.930
 4815SOL    HW215345   5.332   4.724   2.936
 4816SOL     OW15346   2.029   5.108   1.470
 4816SOL    HW115347   1.993   5.195   1.503
 4816SOL    HW215348   1.963   5.065   1.409
 4817SOL     OW15349   3.230   1.093   1.628
 4817SOL    HW115350   3.276   1.168   1.674
 4817SOL    HW215351   3.285   1.063   1.549
 4818SOL     OW15352   0.776   1.752   3.994
 4818SOL    HW115353   0.855   1.693   3.978
 4818SOL    HW215354   0.740   1.735   4.086
 4819SOL     OW15355   3.308   1.980   1.303
 4819SOL    HW115356   3.232   1.947   1.358
 4819SOL    HW215357   3.287   1.969   1.206
 4820SOL     OW15358   6.262   2.544   0.540
 4820SOL    HW115359   6.200   2.556   0.462
 4820SOL    HW215360   6.209   2.515   0.620
 4821SOL     OW15361   6.893   6.988   1.406
 4821SOL    HW115362   6.990   6.981   1.382
 4821SOL    HW215363   6.838   6.964   1.326
 4822SOL     OW15364   1.840   3.081   3.845
 4822SOL    HW115365   1.803   3.163   3.801
 4822SOL    HW215366   1.892   3.028   3.779
 4823SOL     OW15367   0.152   1.438   3.801
 4823SOL    HW115368   0.226   1.500   3.826
 4823SOL    HW215369   0.190   1.350   3.774
 4824SOL     OW15370   5.878   1.893   3.773
 4824SOL    HW115371   5.828   1.822   3.723
 4824SOL    HW215372   5.826   1.978   3.768
 4825SOL     OW15373   2.074   2.598   4.439
 4825SOL    HW115374   2.108   2.606   4.346
 4825SOL    HW215375   2.127   2.658   4.499
 4826SOL     OW15376   0.720   0.732   6.942
 4826SOL    HW115377   0.755   0.794   6.872
 4826SOL    HW215378   0.734   0.637   6.914
 4827SOL     OW15379   6.203   0.645   1.782
 4827SOL    HW115380   6.302   0.644   1.772
 4827SOL    HW215381   6.177   0.713   1.850
 4828SOL     OW15382   5.457   3.380   0.830
 4828SOL    HW115383   5.453   3.460   0.891
 4828SOL    HW215384   5.413   3.402   0.744
 4829SOL     OW15385   3.590   6.438   6.707
 4829SOL    HW115386   3.540   6.508   6.756
 4829SOL    HW215387   3.681   6.427   6.747
 4830SOL     OW15388   5.514   6.120   3.943
 4830SOL    HW115389   5.441   6.164   3.995
 4830SOL    HW215390   5.587   6.091   4.005
 4831SOL     OW15391   6.650   5.482   6.185
 4831SOL    HW115392   6.569   5.478   6.243
 4831SOL    HW215393   6.655   5.399   6.128
 4832SOL     OW15394   2.496   2.573   5.927
 4832SOL    HW115395   2.406   2.532   5.915
 4832SOL    HW215396   2.567   2.503   5.919
 4833SOL     OW15397   5.313   1.087   2.938
 4833SOL    HW115398   5.311   0.987   2.941
 4833SOL    HW215399   5.221   1.122   2.920
 4834SOL     OW15400   3.758   0.570   0.230
 4834SOL    HW115401   3.810   0.580   0.315
 4834SOL    HW215402   3.664   0.599   0.246
 4835SOL     OW15403   1.153   0.915   6.376
 4835SOL    HW115404   1.068   0.968   6.383
 4835SOL    HW215405   1.227   0.976   6.349
 4836SOL     OW15406   4.548   2.552   3.430
 4836SOL    HW115407   4.510   2.478   3.485
 4836SOL    HW215408   4.510   2.547   3.337
 4837SOL     OW15409   4.393   3.411   1.636
 4837SOL    HW115410   4.303   3.447   1.611
 4837SOL    HW215411   4.385   3.316   1.664
 4838SOL     OW15412   2.255   5.034   1.840
 4838SOL    HW115413   2.314   4.963   1.801
 4838SOL    HW215414   2.205   4.996   1.918
 4839SOL     OW15415   1.630   3.988   5.748
 4839SOL    HW115416   1.550   3.985   5.808
 4839SOL    HW215417   1.607   3.952   5.658
 4840SOL     OW15418   0.886   6.685   5.889
 4840SOL    HW115419   0.842   6.762   5.934
 4840SOL    HW215420   0.926   6.716   5.802
 4841SOL     OW15421   3.098   5.951   1.608
 4841SOL    HW115422   3.028   5.905   1.552
 4841SOL    HW215423   3.103   6.048   1.582
 4842SOL     OW15424   3.337   4.866   1.887
 4842SOL    HW115425   3.336   4.924   1.968
 4842SOL    HW215426   3.418   4.807   1.889
 4843SOL     OW15427   5.956   4.164   0.714
 4843SOL    HW115428   6.040   4.213   0.689
 4843SOL    HW215429   5.979   4.072   0.744
 4844SOL     OW15430   6.754   3.257   5.833
 4844SOL    HW115431   6.809   3.176   5.853
 4844SOL    HW215432   6.679   3.264   5.900
 4845SOL     OW15433   6.836   5.925   4.543
 4845SOL    HW115434   6.918   5.978   4.566
 4845SOL    HW215435   6.755   5.984   4.547
 4846SOL     OW15436   6.636   3.027   2.896
 4846SOL    HW115437   6.648   3.094   2.824
 4846SOL    HW215438   6.602   2.941   2.856
 4847SOL     OW15439   3.783   1.800   5.665
 4847SOL    HW115440   3.883   1.802   5.660
 4847SOL    HW215441   3.755   1.758   5.752
 4848SOL     OW15442   1.761   0.672   3.822
 4848SOL    HW115443   1.784   0.715   3.734
 4848SOL    HW215444   1.664   0.685   3.841
 4849SOL     OW15445   1.058   0.098   6.814
 4849SOL    HW115446   1.139   0.040   6.813
 4849SOL    HW215447   1.038   0.126   6.908
 4850SOL     OW15448   4.022   1.204   2.639
 4850SOL    HW115449   4.067   1.269   2.578
 4850SOL    HW215450   4.008   1.117   2.592
 4851SOL     OW15451   3.086   5.385   4.670
 4851SOL    HW115452   3.049   5.314   4.610
 4851SOL    HW215453   3.174   5.355   4.706
 4852SOL     OW15454   0.930   0.532   5.778
 4852SOL    HW115455   0.859   0.486   5.830
 4852SOL    HW215456   1.020   0.507   5.814
 4853SOL     OW15457   2.779   1.118   2.429
 4853SOL    HW115458   2.695   1.167   2.403
 4853SOL    HW215459   2.784   1.032   2.379
 4854SOL     OW15460   4.762   6.521   2.539
 4854SOL    HW115461   4.749   6.470   2.624
 4854SOL    HW215462   4.715   6.474   2.464
 4855SOL     OW15463   5.572   2.489   2.438
 4855SOL    HW115464   5.543   2.505   2.344
 4855SOL    HW215465   5.658   2.438   2.438
 4856SOL     OW15466   2.350   4.287   2.826
 4856SOL    HW115467   2.363   4.370   2.773
 4856SOL    HW215468   2.317   4.214   2.767
 4857SOL     OW15469   2.070   2.547   5.623
 4857SOL    HW115470   2.075   2.590   5.533
 4857SOL    HW215471   1.981   2.567   5.665
 4858SOL     OW15472   1.619   1.283   4.391
 4858SOL    HW115473   1.573   1.371   4.377
 4858SOL    HW215474   1.666   1.285   4.480
 4859SOL     OW15475   1.446   0.321   4.372
 4859SOL    HW115476   1.544   0.305   4.362
 4859SOL    HW215477   1.420   0.403   4.321
 4860SOL     OW15478   3.582   5.065   1.963
 4860SOL    HW115479   3.503   5.080   2.022
 4860SOL    HW215480   3.602   4.967   1.958
 4861SOL     OW15481   5.291   5.370   0.491
 4861SOL    HW115482   5.268   5.298   0.426
 4861SOL    HW215483   5.248   5.350   0.579
 4862SOL     OW15484   2.983   4.868   4.949
 4862SOL    HW115485   2.965   4.773   4.975
 4862SOL    HW215486   2.940   4.930   5.014
 4863SOL     OW15487   5.978   4.266   1.790
 4863SOL    HW115488   5.981   4.279   1.691
 4863SOL    HW215489   5.980   4.168   1.810
 4864SOL     OW15490   3.860   1.269   3.713
 4864SOL    HW115491   3.827   1.203   3.780
 4864SOL    HW215492   3.863   1.226   3.622
 4865SOL     OW15493   2.159   0.036   5.982
 4865SOL    HW115494   2.095   0.114   5.982
 4865SOL    HW215495   2.202   0.030   5.892
 4866SOL     OW15496   6.711   2.770   0.790
 4866SOL    HW115497   6.715   2.682   0.744
 4866SOL    HW215498   6.795   2.822   0.772
 4867SOL     OW15499   3.628   5.603   3.720
 4867SOL    HW115500   3.546   5.584   3.774
 4867SOL    HW215501   3.633   5.541   3.642
 4868SOL     OW15502   0.067   5.141   2.522
 4868SOL    HW115503   0.108   5.191   2.598
 4868SOL    HW215504   7.018   5.078   2.557
 4869SOL     OW15505   1.470   1.714   2.289
 4869SOL    HW115506   1.392   1.714   2.226
 4869SOL    HW215507   1.438   1.697   2.382
 4870SOL     OW15508   0.529   6.335   2.184
 4870SOL    HW115509   0.585   6.391   2.245
 4870SOL    HW215510   0.535   6.239   2.213
 4871SOL     OW15511   1.297   0.813   3.678
 4871SOL    HW115512   1.338   0.904   3.666
 4871SOL    HW215513   1.260   0.782   3.590
 4872SOL     OW15514   5.785   0.161   3.366
 4872SOL    HW115515   5.828   0.079   3.403
 4872SOL    HW215516   5.825   0.242   3.409
 4873SOL     OW15517   6.338   5.228   4.192
 4873SOL    HW115518   6.254   5.281   4.193
 4873SOL    HW215519   6.352   5.185   4.281
 4874SOL     OW15520   5.598   3.961   2.497
 4874SOL    HW115521   5.683   3.944   2.449
 4874SOL    HW215522   5.574   4.058   2.491
 4875SOL     OW15523   6.392   1.660   0.384
 4875SOL    HW115524   6.441   1.590   0.331
 4875SOL    HW215525   6.334   1.714   0.323
 4876SOL     OW15526   6.548   2.039   3.380
 4876SOL    HW115527   6.554   2.000   3.288
 4876SOL    HW215528   6.455   2.071   3.397
 4877SOL     OW15529   1.072   1.553   5.663
 4877SOL    HW115530   1.081   1.455   5.649
 4877SOL    HW215531   0.994   1.587   5.610
 4878SOL     OW15532   6.320   1.614   1.655
 4878SOL    HW115533   6.295   1.520   1.676
 4878SOL    HW215534   6.345   1.622   1.559
 4879SOL     OW15535   4.267   1.713   2.124
 4879SOL    HW115536   4.259   1.732   2.026
 4879SOL    HW215537   4.238   1.794   2.175
 4880SOL     OW15538   5.703   3.760   0.212
 4880SOL    HW115539   5.701   3.789   0.117
 4880SOL    HW215540   5.745   3.832   0.268
 4881SOL     OW15541   1.494   1.586   0.199
 4881SOL    HW115542   1.442   1.670   0.186
 4881SOL    HW215543   1.431   1.508   0.203
 4882SOL     OW15544   4.842   0.693   5.062
 4882SOL    HW115545   4.856   0.784   5.100
 4882SOL    HW215546   4.926   0.639   5.073
 4883SOL     OW15547   4.674   4.607   1.584
 4883SOL    HW115548   4.698   4.516   1.548
 4883SOL    HW215549   4.734   4.629   1.660
 4884SOL     OW15550   3.008   5.873   1.852
 4884SOL    HW115551   3.020   5.934   1.930
 4884SOL    HW215552   3.038   5.920   1.768
 4885SOL     OW15553   2.579   5.252   1.069
 4885SOL    HW115554   2.612   5.187   1.000
 4885SOL    HW215555   2.577   5.207   1.158
 4886SOL     OW15556   2.093   6.216   1.800
 4886SOL    HW115557   2.191   6.227   1.817
 4886SOL    HW215558   2.059   6.293   1.747
 4887SOL     OW15559   0.021   6.755   1.292
 4887SOL    HW115560   7.013   6.813   1.216
 4887SOL    HW215561   7.016   6.661   1.273
 4888SOL     OW15562   3.112   0.360   4.427
 4888SOL    HW115563   3.176   0.339   4.353
 4888SOL    HW215564   3.022   0.325   4.403
 4889SOL     OW15565   6.996   1.110   5.166
 4889SOL    HW115566   6.911   1.129   5.216
 4889SOL    HW215567   0.054   1.140   5.221
 4890SOL     OW15568   6.727   1.190   6.109
 4890SOL    HW115569   6.810   1.138   6.130
 4890SOL    HW215570   6.710   1.187   6.011
 4891SOL     OW15571   2.098   4.728   0.445
 4891SOL    HW115572   2.021   4.789   0.428
 4891SOL    HW215573   2.106   4.710   0.543
 4892SOL     OW15574   3.997   5.419   2.365
 4892SOL    HW115575   4.067   5.477   2.407
 4892SOL    HW215576   3.919   5.411   2.428
 4893SOL     OW15577   5.858   2.899   1.564
 4893SOL    HW115578   5.794   2.840   1.612
 4893SOL    HW215579   5.926   2.843   1.516
 4894SOL     OW15580   3.721   0.984   2.789
 4894SOL    HW115581   3.738   1.040   2.708
 4894SOL    HW215582   3.648   1.026   2.844
 4895SOL     OW15583   0.419   4.912   4.115
 4895SOL    HW115584   0.363   4.838   4.153
 4895SOL    HW215585   0.433   4.897   4.018
 4896SOL     OW15586   2.319   4.355   2.193
 4896SOL    HW115587   2.249   4.331   2.126
 4896SOL    HW215588   2.409   4.355   2.148
 4897SOL     OW15589   1.385   5.150   5.460
 4897SOL    HW115590   1.425   5.234   5.496
 4897SOL    HW215591   1.456   5.097   5.413
 4898SOL     OW15592   4.603   1.330   5.126
 4898SOL    HW115593   4.559   1.259   5.181
 4898SOL    HW215594   4.697   1.304   5.105
 4899SOL     OW15595   5.793   5.308   2.913
 4899SOL    HW115596   5.706   5.274   2.877
 4899SOL    HW215597   5.779   5.347   3.004
 4900SOL     OW15598   3.692   6.505   5.005
 4900SOL    HW115599   3.764   6.518   5.072
 4900SOL    HW215600   3.666   6.409   5.002
 4901SOL     OW15601   2.413   1.118   5.167
 4901SOL    HW115602   2.486   1.186   5.171
 4901SOL    HW215603   2.417   1.059   5.247
 4902SOL     OW15604   1.715   1.666   5.040
 4902SOL    HW115605   1.706   1.756   4.998
 4902SOL    HW215606   1.789   1.668   5.107
 4903SOL     OW15607   4.060   5.848   6.880
 4903SOL    HW115608   4.044   5.878   6.974
 4903SOL    HW215609   4.046   5.925   6.818
 4904SOL     OW15610   2.008   0.008   5.283
 4904SOL    HW115611   1.956   0.065   5.347
 4904SOL    HW215612   2.106   0.027   5.293
 4905SOL     OW15613   3.364   0.639   3.270
 4905SOL    HW115614   3.302   0.565   3.245
 4905SOL    HW215615   3.442   0.602   3.321
 4906SOL     OW15616   5.049   1.914   6.278
 4906SOL    HW115617   4.992   1.835   6.298
 4906SOL    HW215618   5.066   1.966   6.362
 4907SOL     OW15619   4.482   6.543   2.065
 4907SOL    HW115620   4.526   6.543   1.975
 4907SOL    HW215621   4.390   6.505   2.056
 4908SOL     OW15622   5.824   6.374   6.620
 4908SOL    HW115623   5.823   6.302   6.689
 4908SOL    HW215624   5.885   6.447   6.649
 4909SOL     OW15625   0.314   5.671   3.576
 4909SOL    HW115626   0.349   5.622   3.496
 4909SOL    HW215627   0.214   5.675   3.572
 4910SOL     OW15628   5.152   1.163   4.238
 4910SOL    HW115629   5.196   1.130   4.154
 4910SOL    HW215630   5.216   1.157   4.314
 4911SOL     OW15631   1.671   4.348   2.919
 4911SOL    HW115632   1.707   4.441   2.925
 4911SOL    HW215633   1.595   4.337   2.983
 4912SOL     OW15634   5.886   1.397   6.228
 4912SOL    HW115635   5.971   1.446   6.210
 4912SOL    HW215636   5.880   1.376   6.325
 4913SOL     OW15637   3.883   3.158   5.030
 4913SOL    HW115638   3.939   3.200   5.101
 4913SOL    HW215639   3.845   3.072   5.064
 4914SOL     OW15640   4.580   6.826   5.238
 4914SOL    HW115641   4.499   6.834   5.179
 4914SOL    HW215642   4.567   6.881   5.320
 4915SOL     OW15643   2.819   5.818   5.878
 4915SOL    HW115644   2.845   5.725   5.901
 4915SOL    HW215645   2.736   5.844   5.928
 4916SOL     OW15646   0.796   0.925   3.949
 4916SOL    HW115647   0.810   0.988   3.873
 4916SOL    HW215648   0.832   0.835   3.925
 4917SOL     OW15649   2.653   5.632   1.744
 4917SOL    HW115650   2.727   5.607   1.807
 4917SOL    HW215651   2.635   5.555   1.683
 4918SOL     OW15652   5.225   6.027   2.108
 4918SOL    HW115653   5.305   6.016   2.049
 4918SOL    HW215654   5.237   6.107   2.166
 4919SOL     OW15655   3.028   2.895   0.790
 4919SOL    HW115656   3.021   2.978   0.846
 4919SOL    HW215657   2.949   2.889   0.729
 4920SOL     OW15658   5.193   0.121   4.662
 4920SOL    HW115659   5.094   0.135   4.658
 4920SOL    HW215660   5.233   0.137   4.572
 4921SOL     OW15661   0.825   5.899   0.008
 4921SOL    HW115662   0.769   5.867   6.952
 4921SOL    HW215663   0.766   5.933   0.081
 4922SOL     OW15664   2.721   2.324   4.953
 4922SOL    HW115665   2.700   2.412   4.911
 4922SOL    HW215666   2.653   2.256   4.925
 4923SOL     OW15667   3.078   1.077   2.545
 4923SOL    HW115668   3.098   0.979   2.559
 4923SOL    HW215669   3.164   1.126   2.530
 4924SOL     OW15670   3.646   1.276   4.512
 4924SOL    HW115671   3.551   1.292   4.486
 4924SOL    HW215672   3.700   1.359   4.498
 4925SOL     OW15673   5.881   0.227   2.539
 4925SOL    HW115674   5.927   0.285   2.472
 4925SOL    HW215675   5.949   0.192   2.604
 4926SOL     OW15676   5.540   1.943   1.494
 4926SOL    HW115677   5.574   1.888   1.570
 4926SOL    HW215678   5.617   1.967   1.433
 4927SOL     OW15679   2.973   3.678   4.499
 4927SOL    HW115680   2.936   3.585   4.497
 4927SOL    HW215681   2.938   3.726   4.579
 4928SOL     OW15682   1.475   0.869   0.011
 4928SOL    HW115683   1.457   0.853   0.108
 4928SOL    HW215684   1.574   0.863   7.015
 4929SOL     OW15685   6.321   6.863   4.823
 4929SOL    HW115686   6.331   6.948   4.771
 4929SOL    HW215687   6.224   6.839   4.828
 4930SOL     OW15688   5.879   0.610   3.150
 4930SOL    HW115689   5.857   0.515   3.127
 4930SOL    HW215690   5.883   0.665   3.067
 4931SOL     OW15691   6.604   6.625   1.379
 4931SOL    HW115692   6.635   6.648   1.287
 4931SOL    HW215693   6.673   6.567   1.424
 4932SOL     OW15694   4.077   3.215   2.725
 4932SOL    HW115695   4.105   3.180   2.814
 4932SOL    HW215696   4.053   3.139   2.665
 4933SOL     OW15697   2.333   6.733   2.350
 4933SOL    HW115698   2.333   6.818   2.403
 4933SOL    HW215699   2.244   6.722   2.305
 4934SOL     OW15700   3.424   5.720   3.522
 4934SOL    HW115701   3.495   5.700   3.589
 4934SOL    HW215702   3.386   5.811   3.540
 4935SOL     OW15703   1.594   2.031   6.221
 4935SOL    HW115704   1.621   1.939   6.196
 4935SOL    HW215705   1.635   2.055   6.309
 4936SOL     OW15706   3.434   5.274   1.338
 4936SOL    HW115707   3.505   5.301   1.402
 4936SOL    HW215708   3.405   5.354   1.284
 4937SOL     OW15709   5.886   3.136   5.950
 4937SOL    HW115710   5.970   3.163   5.904
 4937SOL    HW215711   5.889   3.166   6.046
 4938SOL     OW15712   1.856   5.420   5.660
 4938SOL    HW115713   1.773   5.447   5.709
 4938SOL    HW215714   1.856   5.321   5.647
 4939SOL     OW15715   5.567   2.100   4.923
 4939SOL    HW115716   5.473   2.132   4.925
 4939SOL    HW215717   5.580   2.040   4.844
 4940SOL     OW15718   0.755   1.495   4.693
 4940SOL    HW115719   0.720   1.401   4.698
 4940SOL    HW215720   0.682   1.557   4.666
 4941SOL     OW15721   4.799   1.862   5.795
 4941SOL    HW115722   4.790   1.946   5.848
 4941SOL    HW215723   4.737   1.867   5.716
 4942SOL     OW15724   5.667   2.948   6.052
 4942SOL    HW115725   5.756   2.958   6.008
 4942SOL    HW215726   5.602   2.905   5.989
 4943SOL     OW15727   4.041   3.606   0.324
 4943SOL    HW115728   4.096   3.642   0.399
 4943SOL    HW215729   4.028   3.508   0.335
 4944SOL     OW15730   2.339   4.468   2.616
 4944SOL    HW115731   2.395   4.409   2.557
 4944SOL    HW215732   2.369   4.563   2.606
 4945SOL     OW15733   1.133   1.328   3.973
 4945SOL    HW115734   1.221   1.367   3.946
 4945SOL    HW215735   1.100   1.268   3.900
 4946SOL     OW15736   0.282   3.203   1.159
 4946SOL    HW115737   0.248   3.219   1.251
 4946SOL    HW215738   0.363   3.259   1.142
 4947SOL     OW15739   1.698   0.925   1.034
 4947SOL    HW115740   1.757   0.996   0.995
 4947SOL    HW215741   1.636   0.966   1.101
 4948SOL     OW15742   1.906   0.479   2.843
 4948SOL    HW115743   1.831   0.522   2.894
 4948SOL    HW215744   1.981   0.457   2.905
 4949SOL     OW15745   4.555   6.933   5.815
 4949SOL    HW115746   4.521   7.000   5.750
 4949SOL    HW215747   4.501   6.849   5.808
 4950SOL     OW15748   2.731   5.621   4.077
 4950SOL    HW115749   2.664   5.548   4.070
 4950SOL    HW215750   2.726   5.663   4.167
 4951SOL     OW15751   5.159   1.600   4.817
 4951SOL    HW115752   5.244   1.565   4.856
 4951SOL    HW215753   5.135   1.548   4.735
 4952SOL     OW15754   0.522   0.856   4.916
 4952SOL    HW115755   0.516   0.814   4.825
 4952SOL    HW215756   0.607   0.827   4.960
 4953SOL     OW15757   1.819   6.759   2.423
 4953SOL    HW115758   1.824   6.681   2.360
 4953SOL    HW215759   1.889   6.826   2.399
 4954SOL     OW15760   4.636   3.916   6.978
 4954SOL    HW115761   4.552   3.970   6.985
 4954SOL    HW215762   4.649   3.863   0.042
 4955SOL     OW15763   1.742   6.643   6.291
 4955SOL    HW115764   1.685   6.664   6.370
 4955SOL    HW215765   1.830   6.606   6.322
 4956SOL     OW15766   2.505   0.005   4.583
 4956SOL    HW115767   2.522   0.048   4.672
 4956SOL    HW215768   2.409   6.995   4.579
 4957SOL     OW15769   0.085   1.452   3.528
 4957SOL    HW115770   0.055   1.448   3.623
 4957SOL    HW215771   0.102   1.360   3.495
 4958SOL     OW15772   0.383   5.947   5.534
 4958SOL    HW115773   0.287   5.958   5.513
 4958SOL    HW215774   0.439   5.969   5.454
 4959SOL     OW15775   6.977   1.146   6.440
 4959SOL    HW115776   6.878   1.159   6.451
 4959SOL    HW215777   0.004   1.228   6.472
 4960SOL     OW15778   3.124   5.867   3.948
 4960SOL    HW115779   3.123   5.930   4.026
 4960SOL    HW215780   3.185   5.903   3.877
 4961SOL     OW15781   5.273   1.665   5.601
 4961SOL    HW115782   5.208   1.642   5.674
 4961SOL    HW215783   5.254   1.609   5.521
 4962SOL     OW15784   6.078   3.005   0.957
 4962SOL    HW115785   6.123   2.950   0.887
 4962SOL    HW215786   6.043   2.946   1.029
 4963SOL     OW15787   6.135   6.258   0.429
 4963SOL    HW115788   6.048   6.208   0.427
 4963SOL    HW215789   6.180   6.248   0.340
 4964SOL     OW15790   3.860   6.386   3.226
 4964SOL    HW115791   3.846   6.446   3.305
 4964SOL    HW215792   3.955   6.357   3.222
 4965SOL     OW15793   0.212   0.346   3.717
 4965SOL    HW115794   0.229   0.409   3.793
 4965SOL    HW215795   0.262   0.261   3.734
 4966SOL     OW15796   2.147   0.188   4.898
 4966SOL    HW115797   2.196   0.249   4.837
 4966SOL    HW215798   2.188   0.097   4.896
 4967SOL     OW15799   4.004   3.311   5.947
 4967SOL    HW115800   4.095   3.273   5.955
 4967SOL    HW215801   3.980   3.359   6.032
 4968SOL     OW15802   5.538   3.083   2.889
 4968SOL    HW115803   5.470   3.091   2.962
 4968SOL    HW215804   5.572   3.174   2.864
 4969SOL     OW15805   2.173   1.089   1.861
 4969SOL    HW115806   2.154   1.164   1.797
 4969SOL    HW215807   2.269   1.062   1.852
 4970SOL     OW15808   1.625   2.201   4.548
 4970SOL    HW115809   1.647   2.261   4.624
 4970SOL    HW215810   1.585   2.255   4.474
 4971SOL     OW15811   6.102   6.108   3.841
 4971SOL    HW115812   6.141   6.145   3.925
 4971SOL    HW215813   6.109   6.008   3.842
 4972SOL     OW15814   1.570   3.138   0.493
 4972SOL    HW115815   1.480   3.169   0.522
 4972SOL    HW215816   1.600   3.062   0.552
 4973SOL     OW15817   6.509   6.965   1.968
 4973SOL    HW115818   6.547   6.923   1.886
 4973SOL    HW215819   6.582   6.982   2.034
 4974SOL     OW15820   5.654   4.186   0.613
 4974SOL    HW115821   5.591   4.187   0.691
 4974SOL    HW215822   5.741   4.143   0.641
 4975SOL     OW15823   5.559   5.992   6.470
 4975SOL    HW115824   5.529   6.085   6.490
 4975SOL    HW215825   5.480   5.931   6.469
 4976SOL     OW15826   3.373   0.218   4.648
 4976SOL    HW115827   3.410   0.231   4.556
 4976SOL    HW215828   3.318   0.298   4.673
 4977SOL     OW15829   4.671   4.058   0.635
 4977SOL    HW115830   4.766   4.087   0.650
 4977SOL    HW215831   4.632   4.025   0.721
 4978SOL     OW15832   6.948   3.491   5.869
 4978SOL    HW115833   6.886   3.552   5.918
 4978SOL    HW215834   6.905   3.401   5.858
 4979SOL     OW15835   6.906   1.368   5.074
 4979SOL    HW115836   6.945   1.277   5.084
 4979SOL    HW215837   6.810   1.367   5.103
 4980SOL     OW15838   4.708   0.189   3.456
 4980SOL    HW115839   4.772   0.218   3.384
 4980SOL    HW215840   4.657   0.109   3.425
 4981SOL     OW15841   5.007   5.527   6.314
 4981SOL    HW115842   4.932   5.575   6.268
 4981SOL    HW215843   5.062   5.479   6.247
 4982SOL     OW15844   2.056   1.568   6.944
 4982SOL    HW115845   2.134   1.524   6.901
 4982SOL    HW215846   2.081   1.662   6.970
 4983SOL     OW15847   5.101   2.750   4.237
 4983SOL    HW115848   5.061   2.737   4.328
 4983SOL    HW215849   5.201   2.746   4.244
 4984SOL     OW15850   5.660   3.757   4.155
 4984SOL    HW115851   5.628   3.728   4.246
 4984SOL    HW215852   5.737   3.699   4.128
 4985SOL     OW15853   6.789   5.978   3.263
 4985SOL    HW115854   6.690   5.973   3.248
 4985SOL    HW215855   6.821   6.070   3.244
 4986SOL     OW15856   6.868   4.374   3.019
 4986SOL    HW115857   6.902   4.464   2.991
 4986SOL    HW215858   6.883   4.308   2.946
 4987SOL     OW15859   0.482   2.419   1.487
 4987SOL    HW115860   0.434   2.504   1.466
 4987SOL    HW215861   0.515   2.377   1.402
 4988SOL     OW15862   6.654   1.892   3.606
 4988SOL    HW115863   6.618   1.940   3.525
 4988SOL    HW215864   6.608   1.804   3.615
 4989SOL     OW15865   5.308   1.038   1.192
 4989SOL    HW115866   5.294   1.127   1.235
 4989SOL    HW215867   5.396   1.001   1.223
 4990SOL     OW15868   1.187   1.481   6.245
 4990SOL    HW115869   1.246   1.554   6.211
 4990SOL    HW215870   1.237   1.395   6.247
 4991SOL     OW15871   0.979   4.043   3.801
 4991SOL    HW115872   0.904   4.032   3.735
 4991SOL    HW215873   1.042   3.966   3.792
 4992SOL     OW15874   4.937   0.933   4.045
 4992SOL    HW115875   5.024   0.883   4.050
 4992SOL    HW215876   4.952   1.022   4.003
 4993SOL     OW15877   3.103   5.207   4.145
 4993SOL    HW115878   3.154   5.122   4.159
 4993SOL    HW215879   3.133   5.276   4.210
 4994SOL     OW15880   1.375   0.338   2.261
 4994SOL    HW115881   1.387   0.364   2.357
 4994SOL    HW215882   1.369   0.421   2.205
 4995SOL     OW15883   6.594   2.902   6.004
 4995SOL    HW115884   6.520   2.940   6.059
 4995SOL    HW215885   6.587   2.937   5.910
 4996SOL     OW15886   1.600   0.965   2.689
 4996SOL    HW115887   1.678   0.912   2.723
 4996SOL    HW215888   1.560   1.017   2.764
 4997SOL     OW15889   5.998   2.065   2.939
 4997SOL    HW115890   5.936   2.073   2.862
 4997SOL    HW215891   5.955   2.105   3.021
 4998SOL     OW15892   2.199   3.715   4.979
 4998SOL    HW115893   2.255   3.796   4.960
 4998SOL    HW215894   2.239   3.664   5.055
 4999SOL     OW15895   5.373   5.655   1.361
 4999SOL    HW115896   5.295   5.717   1.355
 4999SOL    HW215897   5.444   5.697   1.418
 5000SOL     OW15898   1.108   0.214   4.316
 5000SOL    HW115899   1.057   0.252   4.393
 5000SOL    HW215900   1.185   0.161   4.349
 5001SOL     OW15901   1.391   3.961   5.934
 5001SOL    HW115902   1.350   3.870   5.948
 5001SOL    HW215903   1.373   4.018   6.014
 5002SOL     OW15904   1.358   3.248   3.098
 5002SOL    HW115905   1.341   3.346   3.095
 5002SOL    HW215906   1.404   3.219   3.014
 5003SOL     OW15907   1.496   6.149   3.258
 5003SOL    HW115908   1.494   6.147   3.358
 5003SOL    HW215909   1.498   6.244   3.227
 5004SOL     OW15910   2.787   5.248   5.347
 5004SOL    HW115911   2.850   5.261   5.424
 5004SOL    HW215912   2.700   5.295   5.367
 5005SOL     OW15913   3.577   2.621   0.974
 5005SOL    HW115914   3.490   2.635   0.926
 5005SOL    HW215915   3.646   2.685   0.938
 5006SOL     OW15916   5.436   6.828   6.574
 5006SOL    HW115917   5.439   6.928   6.581
 5006SOL    HW215918   5.444   6.801   6.478
 5007SOL     OW15919   2.535   0.272   6.388
 5007SOL    HW115920   2.515   0.296   6.293
 5007SOL    HW215921   2.598   0.340   6.427
 5008SOL     OW15922   0.012   0.126   4.024
 5008SOL    HW115923   0.038   0.185   4.101
 5008SOL    HW215924   0.082   0.132   3.953
 5009SOL     OW15925   2.055   6.566   1.880
 5009SOL    HW115926   2.106   6.573   1.794
 5009SOL    HW215927   2.002   6.650   1.894
 5010SOL     OW15928   3.002   3.272   3.883
 5010SOL    HW115929   3.002   3.368   3.912
 5010SOL    HW215930   3.035   3.265   3.789
 5011SOL     OW15931   2.133   3.663   2.167
 5011SOL    HW115932   2.096   3.613   2.246
 5011SOL    HW215933   2.170   3.598   2.101
 5012SOL     OW15934   4.934   3.132   6.670
 5012SOL    HW115935   5.029   3.104   6.685
 5012SOL    HW215936   4.903   3.095   6.582
 5013SOL     OW15937   5.350   1.145   0.091
 5013SOL    HW115938   5.434   1.091   0.091
 5013SOL    HW215939   5.367   1.231   0.139
 5014SOL     OW15940   5.543   5.769   0.688
 5014SOL    HW115941   5.563   5.677   0.654
 5014SOL    HW215942   5.452   5.771   0.728
 5015SOL     OW15943   4.287   1.789   3.559
 5015SOL    HW115944   4.350   1.750   3.626
 5015SOL    HW215945   4.194   1.792   3.597
 5016SOL     OW15946   2.559   1.758   1.802
 5016SOL    HW115947   2.622   1.827   1.769
 5016SOL    HW215948   2.495   1.734   1.729
 5017SOL     OW15949   1.920   1.901   0.673
 5017SOL    HW115950   1.987   1.946   0.615
 5017SOL    HW215951   1.965   1.866   0.756
 5018SOL     OW15952   0.801   5.061   1.101
 5018SOL    HW115953   0.863   5.129   1.138
 5018SOL    HW215954   0.722   5.051   1.162
 5019SOL     OW15955   2.589   4.535   0.497
 5019SOL    HW115956   2.520   4.565   0.431
 5019SOL    HW215957   2.659   4.480   0.451
 5020SOL     OW15958   4.849   6.682   5.413
 5020SOL    HW115959   4.845   6.597   5.361
 5020SOL    HW215960   4.758   6.722   5.419
 5021SOL     OW15961   1.590   2.730   5.617
 5021SOL    HW115962   1.516   2.671   5.650
 5021SOL    HW215963   1.593   2.728   5.517
 5022SOL     OW15964   2.147   0.677   1.048
 5022SOL    HW115965   2.167   0.703   1.142
 5022SOL    HW215966   2.166   0.580   1.035
 5023SOL     OW15967   6.505   3.318   1.330
 5023SOL    HW115968   6.508   3.223   1.362
 5023SOL    HW215969   6.411   3.340   1.303
 5024SOL     OW15970   6.748   4.331   2.645
 5024SOL    HW115971   6.832   4.280   2.663
 5024SOL    HW215972   6.727   4.327   2.547
 5025SOL     OW15973   4.171   1.920   1.949
 5025SOL    HW115974   4.095   1.980   1.976
 5025SOL    HW215975   4.249   1.975   1.921
 5026SOL     OW15976   6.149   5.811   6.515
 5026SOL    HW115977   6.087   5.752   6.567
 5026SOL    HW215978   6.107   5.835   6.427
 5027SOL     OW15979   0.612   0.009   2.316
 5027SOL    HW115980   0.621   6.957   2.385
 5027SOL    HW215981   0.702   0.040   2.288
 5028SOL     OW15982   0.150   6.895   2.545
 5028SOL    HW115983   0.198   6.831   2.605
 5028SOL    HW215984   0.215   6.940   2.485
 5029SOL     OW15985   6.532   3.051   3.171
 5029SOL    HW115986   6.495   3.144   3.176
 5029SOL    HW215987   6.578   3.038   3.083
 5030SOL     OW15988   6.282   0.414   6.959
 5030SOL    HW115989   6.357   0.380   7.015
 5030SOL    HW215990   6.283   0.514   6.959
 5031SOL     OW15991   5.585   1.304   4.883
 5031SOL    HW115992   5.666   1.355   4.856
 5031SOL    HW215993   5.524   1.292   4.804
 5032SOL     OW15994   0.927   4.310   1.459
 5032SOL    HW115995   0.880   4.346   1.378
 5032SOL    HW215996   1.026   4.310   1.443
 5033SOL     OW15997   2.123   4.605   0.011
 5033SOL    HW115998   2.110   4.704   7.018
 5033SOL    HW215999   2.117   4.585   0.109
 5034SOL     OW16000   6.802   3.135   2.243
 5034SOL    HW116001   6.883   3.077   2.247
 5034SOL    HW216002   6.760   3.127   2.152
 5035SOL     OW16003   6.040   4.693   0.920
 5035SOL    HW116004   6.048   4.749   0.838
 5035SOL    HW216005   5.943   4.681   0.942
 5036SOL     OW16006   0.461   5.220   6.875
 5036SOL    HW116007   0.504   5.155   6.812
 5036SOL    HW216008   0.531   5.281   6.913
 5037SOL     OW16009   4.548   2.545   2.474
 5037SOL    HW116010   4.582   2.626   2.522
 5037SOL    HW216011   4.625   2.489   2.444
 5038SOL     OW16012   1.567   4.874   5.550
 5038SOL    HW116013   1.640   4.806   5.548
 5038SOL    HW216014   1.540   4.891   5.645
 5039SOL     OW16015   2.264   3.640   5.304
 5039SOL    HW116016   2.324   3.598   5.372
 5039SOL    HW216017   2.214   3.569   5.254
 5040SOL     OW16018   2.290   4.099   6.591
 5040SOL    HW116019   2.339   4.184   6.610
 5040SOL    HW216020   2.279   4.088   6.492
 5041SOL     OW16021   0.679   3.603   1.149
 5041SOL    HW116022   0.671   3.662   1.230
 5041SOL    HW216023   0.775   3.598   1.121
 5042SOL     OW16024   7.007   3.165   0.055
 5042SOL    HW116025   7.012   3.143   6.977
 5042SOL    HW216026   6.918   3.204   0.076
 5043SOL     OW16027   3.399   0.990   5.442
 5043SOL    HW116028   3.420   0.924   5.514
 5043SOL    HW216029   3.337   1.060   5.477
 5044SOL     OW16030   5.997   6.951   3.402
 5044SOL    HW116031   6.079   6.942   3.458
 5044SOL    HW216032   6.023   6.949   3.305
 5045SOL     OW16033   5.331   3.358   0.260
 5045SOL    HW116034   5.422   3.389   0.288
 5045SOL    HW216035   5.303   3.280   0.316
 5046SOL     OW16036   3.842   2.951   4.768
 5046SOL    HW116037   3.923   2.907   4.730
 5046SOL    HW216038   3.868   3.011   4.844
 5047SOL     OW16039   6.502   2.030   2.882
 5047SOL    HW116040   6.520   2.047   2.785
 5047SOL    HW216041   6.407   2.052   2.903
 5048SOL     OW16042   6.367   2.710   1.301
 5048SOL    HW116043   6.447   2.650   1.307
 5048SOL    HW216044   6.327   2.720   1.392
 5049SOL     OW16045   6.870   1.086   3.311
 5049SOL    HW116046   6.787   1.105   3.364
 5049SOL    HW216047   6.845   1.048   3.222
 5050SOL     OW16048   0.784   1.094   2.154
 5050SOL    HW116049   0.812   1.119   2.247
 5050SOL    HW216050   0.780   1.176   2.097
 5051SOL     OW16051   3.894   3.388   0.638
 5051SOL    HW116052   3.814   3.349   0.683
 5051SOL    HW216053   3.976   3.338   0.666
 5052SOL     OW16054   2.356   4.794   6.072
 5052SOL    HW116055   2.324   4.813   6.164
 5052SOL    HW216056   2.443   4.843   6.057
 5053SOL     OW16057   2.019   3.932   3.082
 5053SOL    HW116058   1.928   3.973   3.070
 5053SOL    HW216059   2.013   3.858   3.149
 5054SOL     OW16060   3.542   5.686   5.049
 5054SOL    HW116061   3.568   5.674   5.144
 5054SOL    HW216062   3.454   5.643   5.032
 5055SOL     OW16063   6.789   1.705   4.295
 5055SOL    HW116064   6.879   1.661   4.298
 5055SOL    HW216065   6.717   1.636   4.304
 5056SOL     OW16066   6.080   4.038   6.153
 5056SOL    HW116067   6.161   4.096   6.165
 5056SOL    HW216068   6.015   4.056   6.226
 5057SOL     OW16069   1.576   5.628   3.620
 5057SOL    HW116070   1.554   5.535   3.590
 5057SOL    HW216071   1.523   5.650   3.702
 5058SOL     OW16072   3.170   3.674   6.993
 5058SOL    HW116073   3.241   3.618   6.951
 5058SOL    HW216074   3.112   3.617   0.031
 5059SOL     OW16075   5.282   3.459   4.797
 5059SOL    HW116076   5.287   3.547   4.750
 5059SOL    HW216077   5.188   3.444   4.830
 5060SOL     OW16078   0.321   2.527   5.196
 5060SOL    HW116079   0.409   2.488   5.169
 5060SOL    HW216080   0.247   2.470   5.158
 5061SOL     OW16081   2.945   3.666   3.769
 5061SOL    HW116082   2.940   3.591   3.703
 5061SOL    HW216083   2.969   3.750   3.721
 5062SOL     OW16084   6.106   0.691   2.059
 5062SOL    HW116085   6.042   0.615   2.072
 5062SOL    HW216086   6.197   0.663   2.087
 5063SOL     OW16087   0.954   6.010   1.619
 5063SOL    HW116088   0.865   5.966   1.632
 5063SOL    HW216089   0.979   6.059   1.702
 5064SOL     OW16090   4.962   5.670   0.968
 5064SOL    HW116091   5.000   5.762   0.967
 5064SOL    HW216092   4.873   5.670   0.921
 5065SOL     OW16093   1.439   0.551   2.807
 5065SOL    HW116094   1.417   0.647   2.794
 5065SOL    HW216095   1.529   0.531   2.767
 5066SOL     OW16096   2.614   4.152   1.722
 5066SOL    HW116097   2.686   4.215   1.696
 5066SOL    HW216098   2.612   4.074   1.659
 5067SOL     OW16099   4.418   1.528   2.245
 5067SOL    HW116100   4.343   1.582   2.208
 5067SOL    HW216101   4.387   1.434   2.259
 5068SOL     OW16102   3.082   5.637   0.038
 5068SOL    HW116103   3.168   5.660   7.013
 5068SOL    HW216104   3.026   5.719   0.047
 5069SOL     OW16105   2.030   3.152   5.910
 5069SOL    HW116106   2.102   3.216   5.882
 5069SOL    HW216107   2.052   3.114   6.000
 5070SOL     OW16108   6.008   4.024   4.617
 5070SOL    HW116109   6.086   4.007   4.557
 5070SOL    HW216110   5.926   4.036   4.563
 5071SOL     OW16111   4.129   2.281   3.467
 5071SOL    HW116112   4.199   2.216   3.498
 5071SOL    HW216113   4.060   2.291   3.539
 5072SOL     OW16114   1.927   1.618   1.692
 5072SOL    HW116115   1.968   1.612   1.601
 5072SOL    HW216116   1.980   1.680   1.749
 5073SOL     OW16117   1.673   5.168   1.406
 5073SOL    HW116118   1.574   5.157   1.420
 5073SOL    HW216119   1.712   5.221   1.482
 5074SOL     OW16120   4.029   2.124   1.563
 5074SOL    HW116121   4.044   2.137   1.661
 5074SOL    HW216122   4.028   2.026   1.542
 5075SOL     OW16123   0.875   2.256   6.795
 5075SOL    HW116124   0.896   2.221   6.887
 5075SOL    HW216125   0.948   2.317   6.765
 5076SOL     OW16126   5.581   6.945   6.888
 5076SOL    HW116127   5.496   6.996   6.897
 5076SOL    HW216128   5.658   7.003   6.914
 5077SOL     OW16129   0.222   3.796   6.082
 5077SOL    HW116130   0.229   3.841   5.993
 5077SOL    HW216131   0.312   3.794   6.126
 5078SOL     OW16132   0.247   1.056   4.326
 5078SOL    HW116133   0.285   1.015   4.409
 5078SOL    HW216134   0.322   1.092   4.270
 5079SOL     OW16135   2.205   2.778   5.690
 5079SOL    HW116136   2.156   2.694   5.668
 5079SOL    HW216137   2.218   2.832   5.606
 5080SOL     OW16138   5.638   5.604   5.433
 5080SOL    HW116139   5.645   5.548   5.351
 5080SOL    HW216140   5.729   5.621   5.470
 5081SOL     OW16141   3.099   4.509   5.554
 5081SOL    HW116142   3.016   4.455   5.570
 5081SOL    HW216143   3.102   4.538   5.459
 5082SOL     OW16144   5.306   6.818   0.183
 5082SOL    HW116145   5.403   6.799   0.196
 5082SOL    HW216146   5.259   6.816   0.272
 5083SOL     OW16147   3.784   0.217   1.012
 5083SOL    HW116148   3.779   0.245   1.107
 5083SOL    HW216149   3.763   0.119   1.005
 5084SOL     OW16150   0.694   5.037   4.201
 5084SOL    HW116151   0.674   4.939   4.195
 5084SOL    HW216152   0.665   5.083   4.117
 5085SOL     OW16153   0.973   3.229   5.618
 5085SOL    HW116154   1.065   3.241   5.656
 5085SOL    HW216155   0.943   3.135   5.632
 5086SOL     OW16156   0.415   4.577   2.355
 5086SOL    HW116157   0.494   4.526   2.389
 5086SOL    HW216158   0.436   4.618   2.267
 5087SOL     OW16159   6.747   5.874   2.389
 5087SOL    HW116160   6.834   5.920   2.370
 5087SOL    HW216161   6.672   5.928   2.351
 5088SOL     OW16162   4.450   6.907   3.669
 5088SOL    HW116163   4.454   6.996   3.713
 5088SOL    HW216164   4.445   6.918   3.570
 5089SOL     OW16165   5.834   4.302   4.412
 5089SOL    HW116166   5.895   4.311   4.491
 5089SOL    HW216167   5.776   4.383   4.406
 5090SOL     OW16168   2.326   1.346   2.572
 5090SOL    HW116169   2.238   1.370   2.612
 5090SOL    HW216170   2.312   1.305   2.482
 5091SOL     OW16171   6.081   0.184   1.275
 5091SOL    HW116172   6.036   0.226   1.354
 5091SOL    HW216173   6.120   0.096   1.302
 5092SOL     OW16174   3.404   2.896   3.781
 5092SOL    HW116175   3.394   2.845   3.866
 5092SOL    HW216176   3.494   2.880   3.742
 5093SOL     OW16177   3.228   1.566   1.083
 5093SOL    HW116178   3.293   1.542   1.011
 5093SOL    HW216179   3.274   1.562   1.172
 5094SOL     OW16180   1.926   5.824   6.463
 5094SOL    HW116181   1.960   5.831   6.556
 5094SOL    HW216182   1.889   5.733   6.447
 5095SOL     OW16183   0.792   2.334   3.108
 5095SOL    HW116184   0.839   2.296   3.028
 5095SOL    HW216185   0.769   2.260   3.171
 5096SOL     OW16186   4.818   4.739   6.303
 5096SOL    HW116187   4.877   4.724   6.224
 5096SOL    HW216188   4.867   4.790   6.374
 5097SOL     OW16189   6.854   6.868   0.008
 5097SOL    HW116190   6.939   6.844   0.053
 5097SOL    HW216191   6.809   6.943   0.058
 5098SOL     OW16192   3.735   1.678   1.472
 5098SOL    HW116193   3.825   1.662   1.511
 5098SOL    HW216194   3.718   1.777   1.467
 5099SOL     OW16195   0.020   6.428   2.147
 5099SOL    HW116196   7.016   6.525   2.142
 5099SOL    HW216197   0.120   6.419   2.148
 5100SOL     OW16198   3.036   5.239   3.871
 5100SOL    HW116199   3.050   5.243   3.970
 5100SOL    HW216200   3.027   5.331   3.834
 5101SOL     OW16201   4.722   0.240   5.574
 5101SOL    HW116202   4.731   0.188   5.659
 5101SOL    HW216203   4.627   0.265   5.560
 5102SOL     OW16204   5.414   6.720   4.517
 5102SOL    HW116205   5.319   6.738   4.542
 5102SOL    HW216206   5.440   6.777   4.440
 5103SOL     OW16207   1.009   1.943   4.158
 5103SOL    HW116208   0.919   1.904   4.178
 5103SOL    HW216209   1.020   2.029   4.208
 5104SOL     OW16210   2.661   5.864   1.585
 5104SOL    HW116211   2.638   5.784   1.641
 5104SOL    HW216212   2.741   5.843   1.528
 5105SOL     OW16213   2.953   2.561   6.541
 5105SOL    HW116214   3.041   2.598   6.570
 5105SOL    HW216215   2.910   2.625   6.476
 5106SOL     OW16216   3.880   1.314   1.074
 5106SOL    HW116217   3.882   1.303   1.173
 5106SOL    HW216218   3.973   1.307   1.038
 5107SOL     OW16219   4.833   2.644   1.313
 5107SOL    HW116220   4.912   2.588   1.336
 5107SOL    HW216221   4.789   2.676   1.397
 5108SOL     OW16222   4.067   3.835   4.977
 5108SOL    HW116223   4.093   3.896   5.052
 5108SOL    HW216224   4.141   3.831   4.910
 5109SOL     OW16225   1.330   2.416   0.511
 5109SOL    HW116226   1.240   2.384   0.541
 5109SOL    HW216227   1.343   2.394   0.414
 5110SOL     OW16228   0.246   0.491   6.240
 5110SOL    HW116229   0.245   0.450   6.149
 5110SOL    HW216230   0.336   0.478   6.282
 5111SOL     OW16231   1.119   6.926   4.331
 5111SOL    HW116232   1.181   7.000   4.306
 5111SOL    HW216233   1.041   6.924   4.268
 5112SOL     OW16234   1.149   0.211   2.636
 5112SOL    HW116235   1.074   0.222   2.571
 5112SOL    HW216236   1.127   0.257   2.722
 5113SOL     OW16237   1.725   5.629   1.347
 5113SOL    HW116238   1.674   5.663   1.268
 5113SOL    HW216239   1.668   5.563   1.397
 5114SOL     OW16240   3.475   6.638   6.843
 5114SOL    HW116241   3.375   6.635   6.842
 5114SOL    HW216242   3.508   6.613   6.935
 5115SOL     OW16243   1.322   4.626   2.453
 5115SOL    HW116244   1.391   4.634   2.381
 5115SOL    HW216245   1.366   4.630   2.543
 5116SOL     OW16246   1.487   6.785   0.376
 5116SOL    HW116247   1.443   6.704   0.415
 5116SOL    HW216248   1.574   6.800   0.421
 5117SOL     OW16249   0.560   3.874   3.710
 5117SOL    HW116250   0.570   3.849   3.806
 5117SOL    HW216251   0.608   3.806   3.653
 5118SOL     OW16252   5.550   0.971   0.044
 5118SOL    HW116253   5.639   0.986   0.001
 5118SOL    HW216254   5.496   0.910   7.006
 5119SOL     OW16255   4.832   1.091   2.045
 5119SOL    HW116256   4.794   1.071   2.136
 5119SOL    HW216257   4.779   1.043   1.976
 5120SOL     OW16258   4.548   6.558   5.189
 5120SOL    HW116259   4.489   6.510   5.254
 5120SOL    HW216260   4.592   6.635   5.234
 5121SOL     OW16261   3.405   2.956   6.325
 5121SOL    HW116262   3.420   3.055   6.328
 5121SOL    HW216263   3.463   2.916   6.254
 5122SOL     OW16264   3.496   5.815   3.049
 5122SOL    HW116265   3.593   5.826   3.071
 5122SOL    HW216266   3.486   5.781   2.955
 5123SOL     OW16267   5.636   2.211   4.440
 5123SOL    HW116268   5.718   2.203   4.496
 5123SOL    HW216269   5.605   2.306   4.439
 5124SOL     OW16270   2.672   6.007   4.241
 5124SOL    HW116271   2.769   6.015   4.265
 5124SOL    HW216272   2.659   6.038   4.147
 5125SOL     OW16273   6.641   2.374   3.493
 5125SOL    HW116274   6.675   2.450   3.437
 5125SOL    HW216275   6.694   2.292   3.475
 5126SOL     OW16276   0.444   5.869   0.000
 5126SOL    HW116277   0.472   5.949   0.053
 5126SOL    HW216278   0.395   5.805   0.060
 5127SOL     OW16279   0.319   4.661   0.089
 5127SOL    HW116280   0.376   4.611   0.024
 5127SOL    HW216281   0.252   4.716   0.039
 5128SOL     OW16282   0.386   6.515   0.619
 5128SOL    HW116283   0.418   6.605   0.650
 5128SOL    HW216284   0.356   6.521   0.524
 5129SOL     OW16285   5.617   6.723   2.915
 5129SOL    HW116286   5.627   6.748   2.818
 5129SOL    HW216287   5.544   6.777   2.956
 5130SOL     OW16288   6.995   5.615   2.963
 5130SOL    HW116289   6.973   5.653   3.053
 5130SOL    HW216290   6.953   5.671   2.892
 5131SOL     OW16291   1.887   3.763   4.398
 5131SOL    HW116292   1.986   3.773   4.399
 5131SOL    HW216293   1.855   3.744   4.491
 5132SOL     OW16294   4.434   2.986   5.998
 5132SOL    HW116295   4.449   2.938   6.085
 5132SOL    HW216296   4.491   3.068   5.994
 5133SOL     OW16297   2.334   5.028   0.216
 5133SOL    HW116298   2.401   5.004   0.285
 5133SOL    HW216299   2.375   5.091   0.149
 5134SOL     OW16300   6.542   2.628   2.087
 5134SOL    HW116301   6.485   2.580   2.154
 5134SOL    HW216302   6.635   2.591   2.089
 5135SOL     OW16303   6.319   2.729   5.096
 5135SOL    HW116304   6.412   2.693   5.084
 5135SOL    HW216305   6.313   2.821   5.056
 5136SOL     OW16306   4.777   0.309   6.163
 5136SOL    HW116307   4.746   0.265   6.247
 5136SOL    HW216308   4.830   0.390   6.185
 5137SOL     OW16309   5.734   3.494   6.755
 5137SOL    HW116310   5.647   3.447   6.768
 5137SOL    HW216311   5.723   3.568   6.689
 5138SOL     OW16312   2.936   2.526   5.935
 5138SOL    HW116313   2.937   2.623   5.958
 5138SOL    HW216314   2.943   2.472   6.019
 5139SOL     OW16315   1.549   6.909   3.482
 5139SOL    HW116316   1.561   6.811   3.465
 5139SOL    HW216317   1.508   6.951   3.401
 5140SOL     OW16318   3.539   1.814   6.780
 5140SOL    HW116319   3.615   1.839   6.720
 5140SOL    HW216320   3.575   1.778   6.866
 5141SOL     OW16321   6.476   4.082   1.027
 5141SOL    HW116322   6.421   4.084   0.943
 5141SOL    HW216323   6.420   4.048   1.102
 5142SOL     OW16324   6.222   1.039   4.204
 5142SOL    HW116325   6.305   1.094   4.196
 5142SOL    HW216326   6.142   1.098   4.190
 5143SOL     OW16327   0.657   4.526   3.861
 5143SOL    HW116328   0.681   4.519   3.764
 5143SOL    HW216329   0.681   4.617   3.895
 5144SOL     OW16330   1.015   5.144   6.833
 5144SOL    HW116331   0.959   5.214   6.878
 5144SOL    HW216332   1.002   5.056   6.879
 5145SOL     OW16333   2.162   4.516   6.210
 5145SOL    HW116334   2.126   4.423   6.217
 5145SOL    HW216335   2.262   4.512   6.199
 5146SOL     OW16336   3.911   4.006   5.416
 5146SOL    HW116337   3.905   3.982   5.319
 5146SOL    HW216338   3.819   4.020   5.453
 5147SOL     OW16339   6.952   4.649   2.444
 5147SOL    HW116340   6.901   4.730   2.475
 5147SOL    HW216341   6.893   4.593   2.385
 5148SOL     OW16342   1.046   6.551   1.388
 5148SOL    HW116343   0.983   6.591   1.455
 5148SOL    HW216344   1.130   6.522   1.434
 5149SOL     OW16345   6.194   6.141   4.346
 5149SOL    HW116346   6.257   6.063   4.345
 5149SOL    HW216347   6.116   6.119   4.406
 5150SOL     OW16348   2.169   5.253   2.718
 5150SOL    HW116349   2.190   5.158   2.741
 5150SOL    HW216350   2.081   5.256   2.671
 5151SOL     OW16351   5.149   1.600   0.593
 5151SOL    HW116352   5.154   1.513   0.642
 5151SOL    HW216353   5.139   1.675   0.658
 5152SOL     OW16354   2.528   4.325   0.098
 5152SOL    HW116355   2.457   4.395   0.106
 5152SOL    HW216356   2.611   4.366   0.059
 5153SOL     OW16357   2.314   0.603   6.618
 5153SOL    HW116358   2.313   0.509   6.654
 5153SOL    HW216359   2.242   0.613   6.549
 5154SOL     OW16360   1.992   3.036   6.558
 5154SOL    HW116361   2.078   2.988   6.544
 5154SOL    HW216362   1.949   3.003   6.642
 5155SOL     OW16363   3.444   0.186   2.499
 5155SOL    HW116364   3.528   0.231   2.470
 5155SOL    HW216365   3.450   0.088   2.479
 5156SOL     OW16366   6.950   3.078   5.923
 5156SOL    HW116367   0.009   3.076   5.863
 5156SOL    HW216368   6.962   3.149   5.993
 5157SOL     OW16369   4.203   2.271   3.902
 5157SOL    HW116370   4.120   2.251   3.849
 5157SOL    HW216371   4.185   2.258   3.999
 5158SOL     OW16372   3.595   1.257   1.284
 5158SOL    HW116373   3.658   1.183   1.303
 5158SOL    HW216374   3.592   1.320   1.362
 5159SOL     OW16375   0.320   2.895   3.958
 5159SOL    HW116376   0.394   2.961   3.946
 5159SOL    HW216377   0.345   2.809   3.912
 5160SOL     OW16378   0.644   4.382   3.105
 5160SOL    HW116379   0.720   4.351   3.161
 5160SOL    HW216380   0.559   4.340   3.138
 5161SOL     OW16381   1.516   3.341   4.272
 5161SOL    HW116382   1.550   3.247   4.268
 5161SOL    HW216383   1.545   3.384   4.358
 5162SOL     OW16384   1.187   4.949   4.123
 5162SOL    HW116385   1.233   5.038   4.121
 5162SOL    HW216386   1.230   4.887   4.057
 5163SOL     OW16387   3.875   5.445   1.050
 5163SOL    HW116388   3.894   5.436   1.148
 5163SOL    HW216389   3.873   5.355   1.008
 5164SOL     OW16390   4.747   2.393   6.555
 5164SOL    HW116391   4.674   2.452   6.590
 5164SOL    HW216392   4.758   2.408   6.457
 5165SOL     OW16393   6.308   4.041   5.215
 5165SOL    HW116394   6.279   3.945   5.214
 5165SOL    HW216395   6.228   4.100   5.209
 5166SOL     OW16396   0.586   6.061   2.213
 5166SOL    HW116397   0.492   6.030   2.228
 5166SOL    HW216398   0.642   5.984   2.181
 5167SOL     OW16399   6.468   6.318   5.550
 5167SOL    HW116400   6.483   6.290   5.455
 5167SOL    HW216401   6.556   6.339   5.592
 5168SOL     OW16402   5.416   3.293   3.152
 5168SOL    HW116403   5.501   3.346   3.153
 5168SOL    HW216404   5.395   3.260   3.244
 5169SOL     OW16405   4.010   1.918   5.020
 5169SOL    HW116406   3.974   1.926   5.113
 5169SOL    HW216407   3.959   1.980   4.960
 5170SOL     OW16408   6.972   3.821   5.690
 5170SOL    HW116409   6.945   3.818   5.786
 5170SOL    HW216410   6.940   3.738   5.644
 5171SOL     OW16411   2.162   5.087   4.011
 5171SOL    HW116412   2.096   5.013   4.010
 5171SOL    HW216413   2.148   5.144   4.093
 5172SOL     OW16414   6.482   2.908   2.226
 5172SOL    HW116415   6.508   2.851   2.148
 5172SOL    HW216416   6.425   2.984   2.194
 5173SOL     OW16417   5.649   4.843   5.889
 5173SOL    HW116418   5.627   4.762   5.943
 5173SOL    HW216419   5.579   4.913   5.903
 5174SOL     OW16420   2.427   5.085   4.037
 5174SOL    HW116421   2.332   5.091   4.008
 5174SOL    HW216422   2.485   5.069   3.957
 5175SOL     OW16423   2.597   4.087   0.223
 5175SOL    HW116424   2.556   4.083   0.315
 5175SOL    HW216425   2.572   4.174   0.180
 5176SOL     OW16426   4.246   3.126   6.875
 5176SOL    HW116427   4.250   3.226   6.877
 5176SOL    HW216428   4.323   3.091   6.821
 5177SOL     OW16429   5.136   0.323   6.205
 5177SOL    HW116430   5.062   0.328   6.138
 5177SOL    HW216431   5.097   0.322   6.298
 5178SOL     OW16432   1.706   2.774   1.117
 5178SOL    HW116433   1.626   2.833   1.110
 5178SOL    HW216434   1.741   2.777   1.211
 5179SOL     OW16435   3.899   6.070   4.854
 5179SOL    HW116436   3.958   5.998   4.817
 5179SOL    HW216437   3.886   6.141   4.786
 5180SOL     OW16438   2.912   2.869   6.595
 5180SOL    HW116439   2.851   2.879   6.516
 5180SOL    HW216440   3.003   2.905   6.572
 5181SOL     OW16441   4.991   1.809   1.997
 5181SOL    HW116442   5.060   1.869   2.037
 5181SOL    HW216443   4.912   1.862   1.969
 5182SOL     OW16444   4.167   4.882   1.562
 5182SOL    HW116445   4.196   4.790   1.537
 5182SOL    HW216446   4.168   4.892   1.662
 5183SOL     OW16447   3.848   0.759   2.853
 5183SOL    HW116448   3.884   0.702   2.779
 5183SOL    HW216449   3.805   0.841   2.814
 5184SOL     OW16450   0.611   2.293   4.078
 5184SOL    HW116451   0.710   2.311   4.081
 5184SOL    HW216452   0.562   2.379   4.061
 5185SOL     OW16453   5.203   0.413   2.735
 5185SOL    HW116454   5.233   0.485   2.672
 5185SOL    HW216455   5.265   0.335   2.727
 5186SOL     OW16456   5.402   3.577   1.018
 5186SOL    HW116457   5.414   3.534   1.107
 5186SOL    HW216458   5.481   3.637   1.000
 5187SOL     OW16459   7.002   0.866   3.861
 5187SOL    HW116460   6.904   0.848   3.861
 5187SOL    HW216461   0.027   0.804   3.926
 5188SOL     OW16462   0.732   5.105   0.398
 5188SOL    HW116463   0.686   5.180   0.351
 5188SOL    HW216464   0.700   5.018   0.361
 5189SOL     OW16465   5.465   5.096   1.157
 5189SOL    HW116466   5.472   5.109   1.058
 5189SOL    HW216467   5.408   5.017   1.176
 5190SOL     OW16468   0.380   2.556   4.100
 5190SOL    HW116469   0.453   2.565   4.168
 5190SOL    HW216470   0.411   2.595   4.013
 5191SOL     OW16471   4.237   0.254   2.037
 5191SOL    HW116472   4.147   0.229   2.002
 5191SOL    HW216473   4.252   0.352   2.024
 5192SOL     OW16474   2.996   5.887   2.970
 5192SOL    HW116475   3.006   5.811   3.034
 5192SOL    HW216476   2.942   5.856   2.891
 5193SOL     OW16477   4.989   5.121   3.912
 5193SOL    HW116478   5.053   5.152   3.842
 5193SOL    HW216479   5.041   5.090   3.992
 5194SOL     OW16480   4.531   1.023   6.926
 5194SOL    HW116481   4.544   0.993   6.832
 5194SOL    HW216482   4.446   1.075   6.933
 5195SOL     OW16483   6.987   5.922   3.925
 5195SOL    HW116484   0.000   5.831   3.898
 5195SOL    HW216485   0.042   5.974   3.966
 5196SOL     OW16486   1.233   3.393   0.866
 5196SOL    HW116487   1.323   3.350   0.869
 5196SOL    HW216488   1.167   3.335   0.915
 5197SOL     OW16489   1.402   5.495   5.148
 5197SOL    HW116490   1.337   5.421   5.164
 5197SOL    HW216491   1.390   5.530   5.055
 5198SOL     OW16492   3.801   0.335   3.674
 5198SOL    HW116493   3.855   0.356   3.756
 5198SOL    HW216494   3.857   0.351   3.593
 5199SOL     OW16495   1.208   5.930   0.267
 5199SOL    HW116496   1.182   5.863   0.336
 5199SOL    HW216497   1.308   5.932   0.259
 5200SOL     OW16498   1.193   1.885   5.158
 5200SOL    HW116499   1.205   1.841   5.247
 5200SOL    HW216500   1.154   1.819   5.093
 5201SOL     OW16501   5.470   5.866   4.356
 5201SOL    HW116502   5.420   5.942   4.315
 5201SOL    HW216503   5.551   5.846   4.300
 5202SOL     OW16504   6.056   3.778   6.059
 5202SOL    HW116505   6.074   3.766   5.961
 5202SOL    HW216506   6.065   3.874   6.083
 5203SOL     OW16507   2.236   0.911   6.783
 5203SOL    HW116508   2.137   0.897   6.781
 5203SOL    HW216509   2.282   0.825   6.760
 5204SOL     OW16510   3.373   6.422   0.331
 5204SOL    HW116511   3.355   6.509   0.378
 5204SOL    HW216512   3.380   6.348   0.397
 5205SOL     OW16513   6.922   5.727   0.127
 5205SOL    HW116514   6.877   5.668   0.059
 5205SOL    HW216515   7.014   5.694   0.144
 5206SOL     OW16516   0.868   4.894   5.847
 5206SOL    HW116517   0.883   4.812   5.793
 5206SOL    HW216518   0.954   4.943   5.859
 5207SOL     OW16519   0.991   0.723   3.636
 5207SOL    HW116520   1.019   0.702   3.730
 5207SOL    HW216521   0.894   0.747   3.634
 5208SOL     OW16522   4.051   2.740   6.867
 5208SOL    HW116523   4.135   2.703   6.827
 5208SOL    HW216524   4.028   2.827   6.823
 5209SOL     OW16525   5.449   1.021   1.557
 5209SOL    HW116526   5.471   0.931   1.593
 5209SOL    HW216527   5.351   1.026   1.537
 5210SOL     OW16528   4.789   3.984   1.040
 5210SOL    HW116529   4.801   3.901   0.985
 5210SOL    HW216530   4.770   3.959   1.135
 5211SOL     OW16531   4.796   1.577   4.626
 5211SOL    HW116532   4.754   1.581   4.535
 5211SOL    HW216533   4.850   1.660   4.641
 5212SOL     OW16534   1.193   2.310   1.181
 5212SOL    HW116535   1.132   2.345   1.110
 5212SOL    HW216536   1.287   2.310   1.146
 5213SOL     OW16537   4.298   3.455   0.606
 5213SOL    HW116538   4.344   3.414   0.685
 5213SOL    HW216539   4.235   3.526   0.638
 5214SOL     OW16540   5.387   2.850   5.884
 5214SOL    HW116541   5.413   2.869   5.789
 5214SOL    HW216542   5.317   2.915   5.913
 5215SOL     OW16543   0.474   4.289   4.271
 5215SOL    HW116544   0.380   4.319   4.254
 5215SOL    HW216545   0.535   4.331   4.203
 5216SOL     OW16546   4.952   5.653   1.262
 5216SOL    HW116547   4.957   5.623   1.166
 5216SOL    HW216548   5.034   5.706   1.284
 5217SOL     OW16549   3.904   5.693   5.009
 5217SOL    HW116550   3.991   5.657   4.974
 5217SOL    HW216551   3.829   5.638   4.974
 5218SOL     OW16552   0.253   0.990   1.531
 5218SOL    HW116553   0.342   1.025   1.557
 5218SOL    HW216554   0.263   0.899   1.490
 5219SOL     OW16555   3.686   1.775   4.035
 5219SOL    HW116556   3.635   1.724   4.104
 5219SOL    HW216557   3.772   1.806   4.074
 5220SOL     OW16558   1.507   4.851   2.374
 5220SOL    HW116559   1.501   4.905   2.458
 5220SOL    HW216560   1.592   4.799   2.374
 5221SOL     OW16561   6.490   0.257   2.527
 5221SOL    HW116562   6.512   0.161   2.544
 5221SOL    HW216563   6.534   0.288   2.443
 5222SOL     OW16564   3.585   5.760   2.000
 5222SOL    HW116565   3.601   5.724   2.092
 5222SOL    HW216566   3.518   5.703   1.953
 5223SOL     OW16567   0.296   2.631   0.444
 5223SOL    HW116568   0.385   2.587   0.430
 5223SOL    HW216569   0.248   2.585   0.518
 5224SOL     OW16570   6.777   2.458   3.929
 5224SOL    HW116571   6.809   2.553   3.939
 5224SOL    HW216572   6.806   2.405   4.008
 5225SOL     OW16573   6.750   0.748   3.323
 5225SOL    HW116574   6.763   0.780   3.417
 5225SOL    HW216575   6.751   0.826   3.260
 5226SOL     OW16576   0.399   6.271   3.701
 5226SOL    HW116577   0.392   6.213   3.782
 5226SOL    HW216578   0.403   6.367   3.729
 5227SOL     OW16579   6.651   4.278   5.707
 5227SOL    HW116580   6.552   4.283   5.689
 5227SOL    HW216581   6.700   4.320   5.631
 5228SOL     OW16582   0.564   2.465   0.090
 5228SOL    HW116583   0.529   2.397   0.025
 5228SOL    HW216584   0.662   2.449   0.106
 5229SOL     OW16585   3.062   6.330   0.060
 5229SOL    HW116586   3.012   6.258   0.107
 5229SOL    HW216587   3.076   6.407   0.123
 5230SOL     OW16588   6.568   6.161   2.429
 5230SOL    HW116589   6.501   6.155   2.503
 5230SOL    HW216590   6.642   6.222   2.455
 5231SOL     OW16591   4.532   2.364   3.600
 5231SOL    HW116592   4.439   2.350   3.635
 5231SOL    HW216593   4.569   2.276   3.569
 5232SOL     OW16594   0.965   3.939   5.946
 5232SOL    HW116595   0.874   3.899   5.933
 5232SOL    HW216596   1.024   3.911   5.870
 5233SOL     OW16597   3.289   0.894   2.335
 5233SOL    HW116598   3.200   0.856   2.360
 5233SOL    HW216599   3.357   0.820   2.331
 5234SOL     OW16600   2.770   2.889   6.848
 5234SOL    HW116601   2.761   2.795   6.882
 5234SOL    HW216602   2.824   2.889   6.764
 5235SOL     OW16603   2.110   2.378   1.060
 5235SOL    HW116604   2.209   2.366   1.068
 5235SOL    HW216605   2.090   2.430   0.978
 5236SOL     OW16606   3.674   5.170   2.275
 5236SOL    HW116607   3.661   5.071   2.281
 5236SOL    HW216608   3.754   5.190   2.219
 5237SOL     OW16609   1.725   1.340   4.634
 5237SOL    HW116610   1.816   1.377   4.653
 5237SOL    HW216611   1.660   1.373   4.703
 5238SOL     OW16612   0.646   5.945   0.841
 5238SOL    HW116613   0.711   5.992   0.901
 5238SOL    HW216614   0.693   5.871   0.794
 5239SOL     OW16615   3.618   2.923   0.536
 5239SOL    HW116616   3.658   2.880   0.455
 5239SOL    HW216617   3.547   2.864   0.574
 5240SOL     OW16618   2.989   2.307   5.330
 5240SOL    HW116619   2.918   2.348   5.272
 5240SOL    HW216620   3.078   2.319   5.287
 5241SOL     OW16621   0.660   5.923   3.441
 5241SOL    HW116622   0.702   6.013   3.432
 5241SOL    HW216623   0.683   5.867   3.361
 5242SOL     OW16624   5.065   7.012   2.236
 5242SOL    HW116625   5.075   0.022   2.141
 5242SOL    HW216626   5.089   0.067   2.298
 5243SOL     OW16627   2.495   5.961   1.342
 5243SOL    HW116628   2.457   6.052   1.327
 5243SOL    HW216629   2.562   5.966   1.417
 5244SOL     OW16630   4.282   3.751   0.057
 5244SOL    HW116631   4.346   3.817   0.019
 5244SOL    HW216632   4.235   3.791   0.136
 5245SOL     OW16633   3.513   4.784   0.543
 5245SOL    HW116634   3.463   4.799   0.457
 5245SOL    HW216635   3.550   4.870   0.576
 5246SOL     OW16636   6.137   2.458   2.432
 5246SOL    HW116637   6.053   2.415   2.465
 5246SOL    HW216638   6.195   2.390   2.388
 5247SOL     OW16639   3.331   0.422   6.413
 5247SOL    HW116640   3.278   0.411   6.497
 5247SOL    HW216641   3.378   0.336   6.392
 5248SOL     OW16642   6.846   2.368   3.014
 5248SOL    HW116643   6.946   2.376   3.014
 5248SOL    HW216644   6.808   2.422   3.089
 5249SOL     OW16645   1.466   5.473   6.485
 5249SOL    HW116646   1.544   5.531   6.504
 5249SOL    HW216647   1.427   5.497   6.396
 5250SOL     OW16648   0.753   5.731   0.711
 5250SOL    HW116649   0.840   5.768   0.682
 5250SOL    HW216650   0.766   5.639   0.748
 5251SOL     OW16651   0.655   3.640   0.625
 5251SOL    HW116652   0.591   3.709   0.660
 5251SOL    HW216653   0.721   3.617   0.695
 5252SOL     OW16654   2.500   6.459   1.195
 5252SOL    HW116655   2.557   6.540   1.207
 5252SOL    HW216656   2.411   6.474   1.238
 5253SOL     OW16657   7.005   3.534   4.408
 5253SOL    HW116658   0.031   3.448   4.428
 5253SOL    HW216659   6.911   3.516   4.379
 5254SOL     OW16660   5.388   0.695   3.685
 5254SOL    HW116661   5.382   0.644   3.600
 5254SOL    HW216662   5.326   0.774   3.681
 5255SOL     OW16663   5.219   2.404   4.626
 5255SOL    HW116664   5.214   2.456   4.711
 5255SOL    HW216665   5.168   2.452   4.554
 5256SOL     OW16666   4.850   1.952   4.006
 5256SOL    HW116667   4.918   2.011   3.962
 5256SOL    HW216668   4.777   1.931   3.941
 5257SOL     OW16669   4.397   0.112   1.642
 5257SOL    HW116670   4.361   0.023   1.611
 5257SOL    HW216671   4.492   0.121   1.612
 5258SOL     OW16672   5.705   2.443   2.146
 5258SOL    HW116673   5.611   2.477   2.146
 5258SOL    HW216674   5.763   2.507   2.196
 5259SOL     OW16675   5.034   5.900   3.248
 5259SOL    HW116676   4.954   5.899   3.307
 5259SOL    HW216677   5.065   5.994   3.235
 5260SOL     OW16678   4.314   4.459   0.825
 5260SOL    HW116679   4.243   4.389   0.813
 5260SOL    HW216680   4.312   4.522   0.747
 5261SOL     OW16681   6.460   4.081   6.383
 5261SOL    HW116682   6.406   4.132   6.316
 5261SOL    HW216683   6.405   4.006   6.419
 5262SOL     OW16684   3.211   1.403   3.357
 5262SOL    HW116685   3.297   1.450   3.336
 5262SOL    HW216686   3.134   1.461   3.328
 5263SOL     OW16687   1.901   1.684   3.333
 5263SOL    HW116688   1.935   1.759   3.276
 5263SOL    HW216689   1.905   1.599   3.281
 5264SOL     OW16690   6.424   2.664   1.841
 5264SOL    HW116691   6.377   2.752   1.833
 5264SOL    HW216692   6.470   2.659   1.929
 5265SOL     OW16693   6.338   3.273   4.316
 5265SOL    HW116694   6.394   3.325   4.251
 5265SOL    HW216695   6.389   3.194   4.348
 5266SOL     OW16696   2.734   5.743   6.855
 5266SOL    HW116697   2.783   5.687   6.788
 5266SOL    HW216698   2.794   5.762   6.933
 5267SOL     OW16699   5.016   2.494   4.427
 5267SOL    HW116700   4.989   2.588   4.405
 5267SOL    HW216701   5.064   2.454   4.349
 5268SOL     OW16702   5.098   0.871   0.422
 5268SOL    HW116703   5.015   0.840   0.375
 5268SOL    HW216704   5.140   0.946   0.371
 5269SOL     OW16705   0.696   6.510   2.566
 5269SOL    HW116706   0.783   6.521   2.614
 5269SOL    HW216707   0.711   6.518   2.467
 5270SOL     OW16708   5.628   1.500   2.042
 5270SOL    HW116709   5.644   1.599   2.045
 5270SOL    HW216710   5.538   1.480   2.079
 5271SOL     OW16711   5.891   4.560   5.058
 5271SOL    HW116712   5.797   4.596   5.060
 5271SOL    HW216713   5.933   4.574   5.147
 5272SOL     OW16714   3.069   5.790   1.117
 5272SOL    HW116715   3.168   5.782   1.113
 5272SOL    HW216716   3.027   5.700   1.105
 5273SOL     OW16717   0.359   3.335   3.329
 5273SOL    HW116718   0.430   3.275   3.364
 5273SOL    HW216719   0.287   3.280   3.287
 5274SOL     OW16720   5.699   0.061   2.689
 5274SOL    HW116721   5.741   0.071   2.779
 5274SOL    HW216722   5.763   0.092   2.618
 5275SOL     OW16723   4.014   1.582   0.449
 5275SOL    HW116724   4.002   1.679   0.426
 5275SOL    HW216725   4.034   1.530   0.366
 5276SOL     OW16726   1.980   0.161   0.998
 5276SOL    HW116727   1.945   0.106   1.074
 5276SOL    HW216728   1.925   0.243   0.988
 5277SOL     OW16729   2.538   1.761   2.762
 5277SOL    HW116730   2.613   1.815   2.800
 5277SOL    HW216731   2.547   1.758   2.662
 5278SOL     OW16732   5.145   5.816   3.913
 5278SOL    HW116733   5.114   5.911   3.909
 5278SOL    HW216734   5.245   5.814   3.907
 5279SOL     OW16735   2.531   5.335   0.303
 5279SOL    HW116736   2.545   5.338   0.402
 5279SOL    HW216737   2.562   5.248   0.267
 5280SOL     OW16738   3.165   6.295   5.265
 5280SOL    HW116739   3.240   6.272   5.327
 5280SOL    HW216740   3.201   6.316   5.174
 5281SOL     OW16741   6.513   1.812   2.358
 5281SOL    HW116742   6.498   1.757   2.440
 5281SOL    HW216743   6.590   1.874   2.373
 5282SOL     OW16744   4.033   1.654   3.498
 5282SOL    HW116745   3.959   1.710   3.535
 5282SOL    HW216746   4.017   1.639   3.400
 5283SOL     OW16747   4.626   6.303   2.104
 5283SOL    HW116748   4.664   6.276   2.016
 5283SOL    HW216749   4.592   6.397   2.098
 5284SOL     OW16750   5.008   4.275   3.051
 5284SOL    HW116751   4.969   4.186   3.073
 5284SOL    HW216752   4.938   4.346   3.060
 5285SOL     OW16753   2.860   4.803   4.563
 5285SOL    HW116754   2.858   4.861   4.645
 5285SOL    HW216755   2.768   4.794   4.526
 5286SOL     OW16756   2.172   4.756   1.102
 5286SOL    HW116757   2.141   4.792   1.014
 5286SOL    HW216758   2.266   4.786   1.119
 5287SOL     OW16759   3.416   1.000   0.306
 5287SOL    HW116760   3.490   0.935   0.289
 5287SOL    HW216761   3.441   1.089   0.268
 5288SOL     OW16762   3.197   0.624   1.477
 5288SOL    HW116763   3.266   0.686   1.439
 5288SOL    HW216764   3.106   0.658   1.453
 5289SOL     OW16765   1.907   4.868   6.622
 5289SOL    HW116766   1.813   4.835   6.614
 5289SOL    HW216767   1.913   4.937   6.694
 5290SOL     OW16768   2.397   5.322   5.836
 5290SOL    HW116769   2.363   5.370   5.756
 5290SOL    HW216770   2.321   5.279   5.885
 5291SOL     OW16771   2.627   5.809   5.306
 5291SOL    HW116772   2.550   5.802   5.369
 5291SOL    HW216773   2.693   5.876   5.340
 5292SOL     OW16774   5.759   2.637   0.315
 5292SOL    HW116775   5.689   2.637   0.244
 5292SOL    HW216776   5.717   2.660   0.403
 5293SOL     OW16777   0.859   1.089   4.683
 5293SOL    HW116778   0.781   1.150   4.695
 5293SOL    HW216779   0.896   1.100   4.591
 5294SOL     OW16780   5.229   3.777   6.281
 5294SOL    HW116781   5.163   3.824   6.222
 5294SOL    HW216782   5.306   3.746   6.226
 5295SOL     OW16783   5.614   1.094   2.677
 5295SOL    HW116784   5.519   1.081   2.706
 5295SOL    HW216785   5.650   1.178   2.717
 5296SOL     OW16786   1.727   5.356   6.962
 5296SOL    HW116787   1.685   5.443   6.936
 5296SOL    HW216788   1.827   5.368   6.966
 5297SOL     OW16789   1.611   2.522   1.066
 5297SOL    HW116790   1.648   2.467   0.992
 5297SOL    HW216791   1.657   2.611   1.069
 5298SOL     OW16792   6.419   5.686   2.433
 5298SOL    HW116793   6.417   5.744   2.351
 5298SOL    HW216794   6.498   5.625   2.428
 5299SOL     OW16795   3.110   1.272   1.302
 5299SOL    HW116796   3.031   1.238   1.353
 5299SOL    HW216797   3.178   1.308   1.366
 5300SOL     OW16798   0.552   5.458   3.078
 5300SOL    HW116799   0.488   5.413   3.016
 5300SOL    HW216800   0.610   5.389   3.122
 5301SOL     OW16801   4.305   1.419   6.827
 5301SOL    HW116802   4.240   1.444   6.898
 5301SOL    HW216803   4.397   1.448   6.854
 5302SOL     OW16804   6.219   4.243   2.498
 5302SOL    HW116805   6.240   4.146   2.486
 5302SOL    HW216806   6.181   4.279   2.413
 5303SOL     OW16807   6.531   6.381   3.939
 5303SOL    HW116808   6.515   6.285   3.960
 5303SOL    HW216809   6.582   6.388   3.853
 5304SOL     OW16810   5.350   1.987   6.316
 5304SOL    HW116811   5.442   2.019   6.294
 5304SOL    HW216812   5.287   2.013   6.243
 5305SOL     OW16813   1.396   0.549   4.223
 5305SOL    HW116814   1.422   0.539   4.127
 5305SOL    HW216815   1.322   0.616   4.231
 5306SOL     OW16816   2.308   0.048   5.299
 5306SOL    HW116817   2.402   0.076   5.276
 5306SOL    HW216818   2.285   6.985   5.249
 5307SOL     OW16819   4.389   6.025   6.494
 5307SOL    HW116820   4.326   6.049   6.420
 5307SOL    HW216821   4.481   6.057   6.471
 5308SOL     OW16822   0.435   0.919   3.922
 5308SOL    HW116823   0.435   0.819   3.919
 5308SOL    HW216824   0.528   0.953   3.913
 5309SOL     OW16825   4.051   3.795   3.368
 5309SOL    HW116826   4.126   3.759   3.313
 5309SOL    HW216827   3.979   3.830   3.307
 5310SOL     OW16828   4.899   2.941   1.526
 5310SOL    HW116829   4.814   2.983   1.558
 5310SOL    HW216830   4.939   2.996   1.454
 5311SOL     OW16831   0.953   5.557   6.583
 5311SOL    HW116832   0.879   5.528   6.522
 5311SOL    HW216833   0.914   5.586   6.670
 5312SOL     OW16834   0.536   5.035   1.748
 5312SOL    HW116835   0.484   5.105   1.796
 5312SOL    HW216836   0.498   4.945   1.769
 5313SOL     OW16837   0.624   5.363   0.027
 5313SOL    HW116838   0.628   5.461   0.004
 5313SOL    HW216839   0.618   5.352   0.126
 5314SOL     OW16840   4.768   5.228   0.391
 5314SOL    HW116841   4.816   5.141   0.389
 5314SOL    HW216842   4.670   5.213   0.376
 5315SOL     OW16843   4.709   4.373   2.237
 5315SOL    HW116844   4.753   4.456   2.201
 5315SOL    HW216845   4.653   4.332   2.165
 5316SOL     OW16846   0.578   5.248   4.811
 5316SOL    HW116847   0.607   5.201   4.728
 5316SOL    HW216848   0.480   5.263   4.809
 5317SOL     OW16849   5.683   1.789   3.940
 5317SOL    HW116850   5.620   1.816   3.867
 5317SOL    HW216851   5.775   1.822   3.918
 5318SOL     OW16852   6.811   2.259   4.612
 5318SOL    HW116853   6.908   2.266   4.591
 5318SOL    HW216854   6.777   2.169   4.584
 5319SOL     OW16855   5.735   6.843   6.449
 5319SOL    HW116856   5.796   6.921   6.434
 5319SOL    HW216857   5.641   6.869   6.426
 5320SOL     OW16858   5.945   4.776   0.069
 5320SOL    HW116859   5.978   4.870   0.069
 5320SOL    HW216860   5.849   4.774   0.095
 5321SOL     OW16861   1.394   5.235   3.731
 5321SOL    HW116862   1.349   5.303   3.789
 5321SOL    HW216863   1.328   5.167   3.700
 5322SOL     OW16864   3.971   6.655   6.744
 5322SOL    HW116865   3.966   6.723   6.817
 5322SOL    HW216866   3.908   6.681   6.670
 5323SOL     OW16867   4.486   2.566   1.276
 5323SOL    HW116868   4.546   2.557   1.197
 5323SOL    HW216869   4.445   2.478   1.298
 5324SOL     OW16870   3.708   2.074   1.764
 5324SOL    HW116871   3.719   2.003   1.833
 5324SOL    HW216872   3.730   2.163   1.804
 5325SOL     OW16873   5.065   0.071   2.771
 5325SOL    HW116874   5.014   0.066   2.857
 5325SOL    HW216875   5.161   0.086   2.790
 5326SOL     OW16876   6.344   5.342   1.939
 5326SOL    HW116877   6.350   5.377   1.846
 5326SOL    HW216878   6.269   5.276   1.945
 5327SOL     OW16879   0.095   6.830   4.890
 5327SOL    HW116880   0.023   6.879   4.939
 5327SOL    HW216881   0.068   6.735   4.876
 5328SOL     OW16882   3.434   2.424   5.499
 5328SOL    HW116883   3.522   2.392   5.465
 5328SOL    HW216884   3.375   2.345   5.516
 5329SOL     OW16885   0.054   4.480   0.573
 5329SOL    HW116886   0.115   4.495   0.495
 5329SOL    HW216887   0.103   4.501   0.657
 5330SOL     OW16888   3.962   3.657   0.044
 5330SOL    HW116889   4.010   3.659   0.132
 5330SOL    HW216890   3.893   3.729   0.042
 5331SOL     OW16891   4.338   2.369   0.723
 5331SOL    HW116892   4.378   2.326   0.642
 5331SOL    HW216893   4.305   2.298   0.785
 5332SOL     OW16894   6.054   5.287   0.647
 5332SOL    HW116895   5.973   5.344   0.662
 5332SOL    HW216896   6.026   5.192   0.632
 5333SOL     OW16897   2.117   0.753   3.587
 5333SOL    HW116898   2.210   0.748   3.621
 5333SOL    HW216899   2.086   0.848   3.586
 5334SOL     OW16900   4.739   4.723   4.238
 5334SOL    HW116901   4.701   4.812   4.262
 5334SOL    HW216902   4.802   4.732   4.162
 5335SOL     OW16903   6.424   3.872   2.518
 5335SOL    HW116904   6.328   3.844   2.529
 5335SOL    HW216905   6.483   3.793   2.534
 5336SOL     OW16906   2.245   1.829   4.053
 5336SOL    HW116907   2.250   1.838   3.953
 5336SOL    HW216908   2.315   1.764   4.083
 5337SOL     OW16909   5.965   4.644   1.466
 5337SOL    HW116910   6.023   4.666   1.545
 5337SOL    HW216911   6.012   4.670   1.382
 5338SOL     OW16912   5.454   3.012   0.174
 5338SOL    HW116913   5.512   3.071   0.118
 5338SOL    HW216914   5.486   3.015   0.269
 5339SOL     OW16915   5.742   1.764   2.072
 5339SOL    HW116916   5.769   1.857   2.047
 5339SOL    HW216917   5.684   1.767   2.154
 5340SOL     OW16918   5.265   3.325   1.858
 5340SOL    HW116919   5.309   3.400   1.907
 5340SOL    HW216920   5.332   3.278   1.801
 5341SOL     OW16921   4.476   4.960   3.665
 5341SOL    HW116922   4.444   4.902   3.589
 5341SOL    HW216923   4.434   4.928   3.750
 5342SOL     OW16924   5.376   6.704   5.651
 5342SOL    HW116925   5.293   6.673   5.696
 5342SOL    HW216926   5.357   6.784   5.595
 5343SOL     OW16927   3.645   3.449   4.707
 5343SOL    HW116928   3.700   3.435   4.624
 5343SOL    HW216929   3.556   3.486   4.681
 5344SOL     OW16930   0.635   1.631   0.443
 5344SOL    HW116931   0.540   1.623   0.472
 5344SOL    HW216932   0.651   1.570   0.365
 5345SOL     OW16933   4.776   1.230   6.802
 5345SOL    HW116934   4.685   1.205   6.771
 5345SOL    HW216935   4.800   1.176   6.883
 5346SOL     OW16936   2.502   5.152   4.320
 5346SOL    HW116937   2.408   5.122   4.309
 5346SOL    HW216938   2.536   5.187   4.232
 5347SOL     OW16939   0.158   2.324   3.455
 5347SOL    HW116940   0.143   2.225   3.446
 5347SOL    HW216941   0.069   2.369   3.465
 5348SOL     OW16942   6.554   1.467   5.027
 5348SOL    HW116943   6.464   1.490   5.065
 5348SOL    HW216944   6.603   1.551   5.004
 5349SOL     OW16945   0.767   2.665   1.854
 5349SOL    HW116946   0.834   2.600   1.891
 5349SOL    HW216947   0.686   2.615   1.824
 5350SOL     OW16948   1.649   6.981   5.436
 5350SOL    HW116949   1.611   0.019   5.364
 5350SOL    HW216950   1.728   0.007   5.478
 5351SOL     OW16951   0.074   5.529   1.662
 5351SOL    HW116952   0.013   5.495   1.590
 5351SOL    HW216953   0.082   5.461   1.735
 5352SOL     OW16954   2.012   4.424   3.248
 5352SOL    HW116955   2.046   4.337   3.285
 5352SOL    HW216956   1.984   4.410   3.153
 5353SOL     OW16957   3.407   5.513   3.829
 5353SOL    HW116958   3.445   5.451   3.898
 5353SOL    HW216959   3.331   5.565   3.869
 5354SOL     OW16960   3.510   4.291   0.329
 5354SOL    HW116961   3.484   4.234   0.407
 5354SOL    HW216962   3.442   4.362   0.316
 5355SOL     OW16963   4.850   5.358   5.344
 5355SOL    HW116964   4.863   5.267   5.305
 5355SOL    HW216965   4.917   5.373   5.417
 5356SOL     OW16966   6.417   3.491   1.780
 5356SOL    HW116967   6.341   3.553   1.761
 5356SOL    HW216968   6.487   3.503   1.710
 5357SOL     OW16969   4.321   4.712   1.830
 5357SOL    HW116970   4.328   4.749   1.922
 5357SOL    HW216971   4.392   4.755   1.772
 5358SOL     OW16972   4.266   1.801   0.376
 5358SOL    HW116973   4.252   1.823   0.280
 5358SOL    HW216974   4.184   1.826   0.428
 5359SOL     OW16975   2.129   2.259   0.399
 5359SOL    HW116976   2.197   2.244   0.326
 5359SOL    HW216977   2.039   2.272   0.358
 5360SOL     OW16978   5.844   5.674   3.767
 5360SOL    HW116979   5.747   5.694   3.762
 5360SOL    HW216980   5.879   5.651   3.676
 5361SOL     OW16981   3.265   6.284   2.729
 5361SOL    HW116982   3.240   6.188   2.734
 5361SOL    HW216983   3.264   6.314   2.634
 5362SOL     OW16984   5.600   6.818   2.669
 5362SOL    HW116985   5.636   6.910   2.653
 5362SOL    HW216986   5.647   6.754   2.608
 5363SOL     OW16987   5.220   6.631   4.834
 5363SOL    HW116988   5.243   6.721   4.798
 5363SOL    HW216989   5.265   6.560   4.779
 5364SOL     OW16990   5.329   0.838   2.070
 5364SOL    HW116991   5.371   0.796   1.990
 5364SOL    HW216992   5.325   0.937   2.057
 5365SOL     OW16993   3.021   3.656   2.816
 5365SOL    HW116994   2.971   3.622   2.737
 5365SOL    HW216995   3.103   3.600   2.831
 5366SOL     OW16996   6.698   0.431   1.866
 5366SOL    HW116997   6.631   0.373   1.913
 5366SOL    HW216998   6.753   0.375   1.804
 5367SOL     OW16999   5.822   0.125   0.477
 5367SOL    HW117000   5.873   0.044   0.449
 5367SOL    HW217001   5.868   0.207   0.443
 5368SOL     OW17002   6.450   5.845   2.225
 5368SOL    HW117003   6.382   5.918   2.223
 5368SOL    HW217004   6.503   5.847   2.141
 5369SOL     OW17005   2.838   5.526   1.439
 5369SOL    HW117006   2.807   5.449   1.495
 5369SOL    HW217007   2.766   5.552   1.375
 5370SOL     OW17008   4.139   3.755   1.914
 5370SOL    HW117009   4.072   3.826   1.895
 5370SOL    HW217010   4.205   3.749   1.839
 5371SOL     OW17011   0.139   5.091   5.074
 5371SOL    HW117012   0.217   5.145   5.040
 5371SOL    HW217013   0.066   5.153   5.103
 5372SOL     OW17014   1.795   0.238   2.928
 5372SOL    HW117015   1.758   0.197   2.844
 5372SOL    HW217016   1.848   0.319   2.906
 5373SOL     OW17017   3.859   6.328   6.605
 5373SOL    HW117018   3.889   6.313   6.699
 5373SOL    HW217019   3.811   6.247   6.572
 5374SOL     OW17020   2.429   4.551   1.274
 5374SOL    HW117021   2.453   4.464   1.230
 5374SOL    HW217022   2.436   4.625   1.208
 5375SOL     OW17023   0.980   6.409   5.558
 5375SOL    HW117024   1.051   6.435   5.623
 5375SOL    HW217025   0.917   6.485   5.544
 5376SOL     OW17026   1.207   1.978   2.065
 5376SOL    HW117027   1.288   1.980   2.007
 5376SOL    HW217028   1.126   2.005   2.012
 5377SOL     OW17029   2.304   1.060   2.834
 5377SOL    HW117030   2.354   1.147   2.832
 5377SOL    HW217031   2.214   1.073   2.792
 5378SOL     OW17032   5.923   0.251   0.908
 5378SOL    HW117033   5.903   0.345   0.879
 5378SOL    HW217034   5.931   0.248   1.007
 5379SOL     OW17035   1.436   2.689   5.981
 5379SOL    HW117036   1.377   2.619   6.021
 5379SOL    HW217037   1.422   2.776   6.029
 5380SOL     OW17038   3.259   6.965   1.010
 5380SOL    HW117039   3.216   6.966   1.101
 5380SOL    HW217040   3.191   6.936   0.942
 5381SOL     OW17041   5.886   6.439   2.478
 5381SOL    HW117042   5.844   6.353   2.506
 5381SOL    HW217043   5.931   6.481   2.558
 5382SOL     OW17044   3.847   2.037   2.661
 5382SOL    HW117045   3.862   1.984   2.577
 5382SOL    HW217046   3.913   2.112   2.665
 5383SOL     OW17047   0.975   2.750   4.719
 5383SOL    HW117048   0.894   2.696   4.743
 5383SOL    HW217049   1.035   2.756   4.799
 5384SOL     OW17050   4.332   5.348   5.328
 5384SOL    HW117051   4.260   5.307   5.385
 5384SOL    HW217052   4.311   5.445   5.313
 5385SOL     OW17053   6.519   2.985   6.511
 5385SOL    HW117054   6.586   2.933   6.458
 5385SOL    HW217055   6.491   2.933   6.591
 5386SOL     OW17056   5.938   3.221   4.085
 5386SOL    HW117057   5.944   3.160   4.164
 5386SOL    HW217058   5.849   3.208   4.040
 5387SOL     OW17059   2.587   0.179   3.047
 5387SOL    HW117060   2.674   0.130   3.059
 5387SOL    HW217061   2.539   0.182   3.135
 5388SOL     OW17062   1.145   6.519   2.959
 5388SOL    HW117063   1.166   6.517   2.861
 5388SOL    HW217064   1.220   6.565   3.007
 5389SOL     OW17065   4.518   2.172   4.481
 5389SOL    HW117066   4.607   2.216   4.495
 5389SOL    HW217067   4.494   2.120   4.563
 5390SOL     OW17068   6.056   3.630   4.176
 5390SOL    HW117069   5.967   3.647   4.218
 5390SOL    HW217070   6.091   3.714   4.135
 5391SOL     OW17071   2.517   2.519   0.357
 5391SOL    HW117072   2.444   2.500   0.291
 5391SOL    HW217073   2.480   2.570   0.434
 5392SOL     OW17074   5.078   2.839   3.286
 5392SOL    HW117075   4.988   2.815   3.249
 5392SOL    HW217076   5.144   2.844   3.211
 5393SOL     OW17077   4.323   6.979   5.154
 5393SOL    HW117078   4.316   6.909   5.083
 5393SOL    HW217079   4.239   6.981   5.207
 5394SOL     OW17080   0.938   6.846   1.125
 5394SOL    HW117081   0.891   6.767   1.086
 5394SOL    HW217082   0.874   6.923   1.133
 5395SOL     OW17083   4.670   1.675   1.135
 5395SOL    HW117084   4.610   1.721   1.070
 5395SOL    HW217085   4.626   1.590   1.165
 5396SOL     OW17086   5.250   5.576   2.468
 5396SOL    HW117087   5.220   5.556   2.374
 5396SOL    HW217088   5.316   5.651   2.467
 5397SOL     OW17089   6.494   1.750   2.635
 5397SOL    HW117090   6.443   1.835   2.633
 5397SOL    HW217091   6.432   1.673   2.650
 5398SOL     OW17092   4.522   1.998   3.953
 5398SOL    HW117093   4.427   1.975   3.975
 5398SOL    HW217094   4.526   2.090   3.915
 5399SOL     OW17095   1.634   6.605   5.495
 5399SOL    HW117096   1.693   6.524   5.491
 5399SOL    HW217097   1.684   6.684   5.459
 5400SOL     OW17098   3.414   3.304   0.936
 5400SOL    HW117099   3.471   3.228   0.966
 5400SOL    HW217100   3.324   3.298   0.978
 5401SOL     OW17101   4.907   4.884   3.713
 5401SOL    HW117102   4.964   4.807   3.743
 5401SOL    HW217103   4.860   4.923   3.792
 5402SOL     OW17104   2.776   6.760   0.848
 5402SOL    HW117105   2.806   6.666   0.864
 5402SOL    HW217106   2.796   6.786   0.753
 5403SOL     OW17107   5.219   3.041   6.773
 5403SOL    HW117108   5.315   3.057   6.750
 5403SOL    HW217109   5.180   2.975   6.709
 5404SOL     OW17110   0.694   1.147   0.985
 5404SOL    HW117111   0.694   1.047   0.997
 5404SOL    HW217112   0.640   1.189   1.058
 5405SOL     OW17113   5.392   5.607   6.950
 5405SOL    HW117114   5.432   5.640   0.016
 5405SOL    HW217115   5.399   5.678   6.881
 5406SOL     OW17116   2.280   0.927   4.807
 5406SOL    HW117117   2.304   0.936   4.903
 5406SOL    HW217118   2.289   0.832   4.778
 5407SOL     OW17119   2.757   0.699   1.220
 5407SOL    HW117120   2.759   0.781   1.163
 5407SOL    HW217121   2.708   0.626   1.171
 5408SOL     OW17122   3.558   1.985   4.612
 5408SOL    HW117123   3.586   2.041   4.690
 5408SOL    HW217124   3.463   1.955   4.625
 5409SOL     OW17125   6.263   2.707   1.577
 5409SOL    HW117126   6.228   2.680   1.666
 5409SOL    HW217127   6.324   2.786   1.587
 5410SOL     OW17128   6.687   3.198   1.041
 5410SOL    HW117129   6.709   3.188   1.138
 5410SOL    HW217130   6.766   3.168   0.986
 5411SOL     OW17131   5.161   4.677   0.102
 5411SOL    HW117132   5.243   4.716   0.143
 5411SOL    HW217133   5.165   4.687   0.003
 5412SOL     OW17134   1.639   1.304   5.930
 5412SOL    HW117135   1.706   1.377   5.939
 5412SOL    HW217136   1.613   1.294   5.834
 5413SOL     OW17137   6.002   6.914   5.526
 5413SOL    HW117138   6.030   6.983   5.593
 5413SOL    HW217139   6.016   6.823   5.565
 5414SOL     OW17140   0.254   4.252   5.065
 5414SOL    HW117141   0.336   4.229   5.117
 5414SOL    HW217142   0.217   4.339   5.097
 5415SOL     OW17143   2.810   5.793   0.422
 5415SOL    HW117144   2.765   5.860   0.480
 5415SOL    HW217145   2.894   5.833   0.383
 5416SOL     OW17146   2.644   5.304   4.824
 5416SOL    HW117147   2.634   5.341   4.731
 5416SOL    HW217148   2.585   5.224   4.834
 5417SOL     OW17149   5.246   6.103   3.721
 5417SOL    HW117150   5.207   6.072   3.635
 5417SOL    HW217151   5.332   6.151   3.704
 5418SOL     OW17152   5.646   4.503   4.331
 5418SOL    HW117153   5.563   4.454   4.359
 5418SOL    HW217154   5.643   4.597   4.367
 5419SOL     OW17155   4.285   0.025   0.224
 5419SOL    HW117156   4.366   0.030   0.282
 5419SOL    HW217157   4.267   0.115   0.185
 5420SOL     OW17158   1.361   1.586   1.862
 5420SOL    HW117159   1.391   1.499   1.901
 5420SOL    HW217160   1.440   1.636   1.826
 5421SOL     OW17161   3.552   5.384   2.171
 5421SOL    HW117162   3.573   5.416   2.078
 5421SOL    HW217163   3.580   5.289   2.181
 5422SOL     OW17164   2.072   6.342   3.941
 5422SOL    HW117165   2.120   6.326   4.027
 5422SOL    HW217166   2.126   6.403   3.883
 5423SOL     OW17167   6.733   5.589   1.990
 5423SOL    HW117168   6.704   5.661   1.927
 5423SOL    HW217169   6.725   5.622   2.084
 5424SOL     OW17170   4.978   4.254   5.027
 5424SOL    HW117171   5.070   4.266   5.062
 5424SOL    HW217172   4.931   4.183   5.079
 5425SOL     OW17173   0.048   3.026   4.783
 5425SOL    HW117174   6.992   3.078   4.745
 5425SOL    HW217175   0.017   2.971   4.860
 5426SOL     OW17176   4.984   5.164   2.149
 5426SOL    HW117177   5.036   5.235   2.196
 5426SOL    HW217178   4.990   5.078   2.200
 5427SOL     OW17179   4.599   2.767   6.581
 5427SOL    HW117180   4.678   2.755   6.522
 5427SOL    HW217181   4.605   2.705   6.659
 5428SOL     OW17182   6.037   5.842   2.908
 5428SOL    HW117183   5.952   5.813   2.863
 5428SOL    HW217184   6.021   5.853   3.006
 5429SOL     OW17185   3.022   0.449   4.110
 5429SOL    HW117186   2.937   0.413   4.149
 5429SOL    HW217187   3.097   0.386   4.130
 5430SOL     OW17188   2.078   3.465   6.115
 5430SOL    HW117189   2.087   3.489   6.019
 5430SOL    HW217190   2.169   3.449   6.154
 5431SOL     OW17191   3.638   5.221   6.240
 5431SOL    HW117192   3.683   5.160   6.305
 5431SOL    HW217193   3.568   5.274   6.286
 5432SOL     OW17194   5.362   5.745   1.038
 5432SOL    HW117195   5.314   5.703   1.115
 5432SOL    HW217196   5.450   5.781   1.069
 5433SOL     OW17197   1.243   0.794   1.119
 5433SOL    HW117198   1.273   0.815   1.026
 5433SOL    HW217199   1.281   0.860   1.182
 5434SOL     OW17200   4.993   0.953   4.865
 5434SOL    HW117201   5.030   0.861   4.881
 5434SOL    HW217202   5.062   1.009   4.819
 5435SOL     OW17203   6.208   4.292   0.642
 5435SOL    HW117204   6.156   4.375   0.620
 5435SOL    HW217205   6.269   4.270   0.566
 5436SOL     OW17206   0.793   5.838   2.487
 5436SOL    HW117207   0.867   5.869   2.427
 5436SOL    HW217208   0.711   5.894   2.471
 5437SOL     OW17209   2.823   5.034   6.220
 5437SOL    HW117210   2.743   5.029   6.160
 5437SOL    HW217211   2.881   5.110   6.189
 5438SOL     OW17212   4.986   4.198   2.171
 5438SOL    HW117213   5.025   4.233   2.256
 5438SOL    HW217214   4.896   4.158   2.189
 5439SOL     OW17215   0.639   4.484   0.357
 5439SOL    HW117216   0.570   4.541   0.402
 5439SOL    HW217217   0.601   4.447   0.272
 5440SOL     OW17218   5.805   6.838   3.582
 5440SOL    HW117219   5.876   6.878   3.524
 5440SOL    HW217220   5.847   6.779   3.650
 5441SOL     OW17221   4.947   3.283   4.100
 5441SOL    HW117222   5.009   3.235   4.163
 5441SOL    HW217223   4.900   3.216   4.042
 5442SOL     OW17224   5.629   0.281   3.947
 5442SOL    HW117225   5.620   0.378   3.924
 5442SOL    HW217226   5.594   0.265   4.039
 5443SOL     OW17227   5.038   6.664   5.182
 5443SOL    HW117228   5.073   6.662   5.088
 5443SOL    HW217229   5.110   6.694   5.244
 5444SOL     OW17230   0.356   1.874   3.888
 5444SOL    HW117231   0.387   1.956   3.935
 5444SOL    HW217232   0.269   1.892   3.842
 5445SOL     OW17233   4.855   5.093   5.242
 5445SOL    HW117234   4.890   5.061   5.330
 5445SOL    HW217235   4.774   5.039   5.217
 5446SOL     OW17236   0.046   4.679   4.886
 5446SOL    HW117237   0.072   4.643   4.797
 5446SOL    HW217238   0.016   4.774   4.876
 5447SOL     OW17239   1.791   1.817   1.544
 5447SOL    HW117240   1.763   1.847   1.453
 5447SOL    HW217241   1.845   1.733   1.536
 5448SOL     OW17242   4.920   5.924   4.046
 5448SOL    HW117243   4.994   5.897   4.107
 5448SOL    HW217244   4.837   5.872   4.069
 5449SOL     OW17245   3.255   1.724   2.040
 5449SOL    HW117246   3.249   1.823   2.053
 5449SOL    HW217247   3.209   1.678   2.116
 5450SOL     OW17248   3.709   5.997   2.009
 5450SOL    HW117249   3.809   5.986   2.004
 5450SOL    HW217250   3.665   5.908   1.991
 5451SOL     OW17251   1.351   6.995   3.011
 5451SOL    HW117252   1.394   7.019   3.098
 5451SOL    HW217253   1.336   6.896   3.007
 5452SOL     OW17254   1.849   5.167   0.867
 5452SOL    HW117255   1.825   5.107   0.791
 5452SOL    HW217256   1.836   5.119   0.953
 5453SOL     OW17257   5.418   4.385   2.749
 5453SOL    HW117258   5.401   4.362   2.845
 5453SOL    HW217259   5.338   4.432   2.711
 5454SOL     OW17260   5.563   5.680   2.757
 5454SOL    HW117261   5.647   5.636   2.727
 5454SOL    HW217262   5.559   5.681   2.857
 5455SOL     OW17263   0.721   1.501   2.702
 5455SOL    HW117264   0.644   1.457   2.748
 5455SOL    HW217265   0.769   1.434   2.645
 5456SOL     OW17266   5.031   1.064   6.745
 5456SOL    HW117267   4.977   1.146   6.763
 5456SOL    HW217268   5.100   1.053   6.817
 5457SOL     OW17269   6.339   2.224   0.192
 5457SOL    HW117270   6.411   2.285   0.224
 5457SOL    HW217271   6.252   2.252   0.233
 5458SOL     OW17272   6.210   4.843   0.660
 5458SOL    HW117273   6.163   4.841   0.572
 5458SOL    HW217274   6.308   4.834   0.646
 5459SOL     OW17275   1.544   4.565   5.420
 5459SOL    HW117276   1.623   4.606   5.465
 5459SOL    HW217277   1.571   4.532   5.329
 5460SOL     OW17278   1.953   1.628   1.394
 5460SOL    HW117279   1.881   1.648   1.327
 5460SOL    HW217280   2.043   1.649   1.354
 5461SOL     OW17281   0.700   1.589   5.848
 5461SOL    HW117282   0.753   1.636   5.918
 5461SOL    HW217283   0.654   1.657   5.790
 5462SOL     OW17284   5.725   6.152   6.776
 5462SOL    HW117285   5.783   6.087   6.826
 5462SOL    HW217286   5.737   6.139   6.678
 5463SOL     OW17287   6.658   2.134   6.341
 5463SOL    HW117288   6.658   2.203   6.413
 5463SOL    HW217289   6.676   2.178   6.253
 5464SOL     OW17290   6.478   5.827   5.585
 5464SOL    HW117291   6.475   5.801   5.489
 5464SOL    HW217292   6.535   5.762   5.635
 5465SOL     OW17293   6.294   6.602   3.262
 5465SOL    HW117294   6.279   6.578   3.358
 5465SOL    HW217295   6.238   6.543   3.204
 5466SOL     OW17296   5.900   2.745   5.162
 5466SOL    HW117297   5.840   2.795   5.225
 5466SOL    HW217298   5.916   2.800   5.080
 5467SOL     OW17299   5.886   3.676   3.725
 5467SOL    HW117300   5.891   3.637   3.817
 5467SOL    HW217301   5.977   3.704   3.695
 5468SOL     OW17302   6.772   1.981   3.015
 5468SOL    HW117303   6.695   1.937   3.060
 5468SOL    HW217304   6.745   2.012   2.923
 5469SOL     OW17305   2.296   0.842   5.929
 5469SOL    HW117306   2.265   0.748   5.916
 5469SOL    HW217307   2.387   0.853   5.889
 5470SOL     OW17308   4.064   5.351   4.062
 5470SOL    HW117309   3.976   5.385   4.093
 5470SOL    HW217310   4.114   5.425   4.016
 5471SOL     OW17311   5.646   0.301   2.895
 5471SOL    HW117312   5.659   0.360   2.816
 5471SOL    HW217313   5.726   0.306   2.954
 5472SOL     OW17314   3.143   2.200   6.050
 5472SOL    HW117315   3.203   2.278   6.060
 5472SOL    HW217316   3.168   2.129   6.117
 5473SOL     OW17317   1.706   4.172   0.454
 5473SOL    HW117318   1.769   4.163   0.531
 5473SOL    HW217319   1.627   4.227   0.482
 5474SOL     OW17320   1.163   5.482   3.194
 5474SOL    HW117321   1.192   5.531   3.111
 5474SOL    HW217322   1.230   5.411   3.216
 5475SOL     OW17323   1.450   2.071   0.616
 5475SOL    HW117324   1.447   1.999   0.685
 5475SOL    HW217325   1.509   2.146   0.648
 5476SOL     OW17326   2.015   4.694   5.533
 5476SOL    HW117327   2.080   4.627   5.570
 5476SOL    HW217328   2.049   4.787   5.551
 5477SOL     OW17329   1.560   4.194   2.657
 5477SOL    HW117330   1.619   4.272   2.634
 5477SOL    HW217331   1.552   4.186   2.756
 5478SOL     OW17332   5.217   5.534   6.497
 5478SOL    HW117333   5.130   5.545   6.450
 5478SOL    HW217334   5.287   5.508   6.431
 5479SOL     OW17335   4.475   1.084   4.173
 5479SOL    HW117336   4.416   1.032   4.110
 5479SOL    HW217337   4.442   1.072   4.267
 5480SOL     OW17338   6.057   4.457   4.852
 5480SOL    HW117339   6.154   4.477   4.868
 5480SOL    HW217340   6.001   4.511   4.915
 5481SOL     OW17341   4.470   0.686   5.436
 5481SOL    HW117342   4.537   0.652   5.369
 5481SOL    HW217343   4.379   0.680   5.397
 5482SOL     OW17344   3.396   3.932   2.251
 5482SOL    HW117345   3.394   3.847   2.303
 5482SOL    HW217346   3.491   3.953   2.226
 5483SOL     OW17347   6.615   2.814   5.503
 5483SOL    HW117348   6.705   2.784   5.473
 5483SOL    HW217349   6.569   2.863   5.429
 5484SOL     OW17350   6.120   0.107   3.659
 5484SOL    HW117351   6.203   0.161   3.646
 5484SOL    HW217352   6.052   0.162   3.707
 5485SOL     OW17353   2.857   0.275   4.264
 5485SOL    HW117354   2.849   0.176   4.251
 5485SOL    HW217355   2.786   0.306   4.327
 5486SOL     OW17356   1.972   0.058   4.064
 5486SOL    HW117357   1.991   0.137   4.124
 5486SOL    HW217358   1.961   0.090   3.970
 5487SOL     OW17359   5.924   3.873   6.644
 5487SOL    HW117360   5.955   3.815   6.719
 5487SOL    HW217361   5.938   3.969   6.668
 5488SOL     OW17362   4.320   1.391   0.175
 5488SOL    HW117363   4.374   1.386   0.091
 5488SOL    HW217364   4.380   1.417   0.251
 5489SOL     OW17365   1.714   4.090   1.726
 5489SOL    HW117366   1.634   4.136   1.766
 5489SOL    HW217367   1.694   3.993   1.714
 5490SOL     OW17368   3.451   6.859   0.347
 5490SOL    HW117369   3.481   6.943   0.392
 5490SOL    HW217370   3.431   6.877   0.251
 5491SOL     OW17371   1.593   4.273   6.723
 5491SOL    HW117372   1.681   4.317   6.703
 5491SOL    HW217373   1.519   4.330   6.689
 5492SOL     OW17374   0.883   1.035   6.140
 5492SOL    HW117375   0.860   1.111   6.080
 5492SOL    HW217376   0.801   0.982   6.159
 5493SOL     OW17377   3.410   3.034   5.359
 5493SOL    HW117378   3.419   2.956   5.297
 5493SOL    HW217379   3.337   3.095   5.326
 5494SOL     OW17380   6.393   3.007   0.576
 5494SOL    HW117381   6.434   2.932   0.525
 5494SOL    HW217382   6.354   3.073   0.512
 5495SOL     OW17383   3.161   2.982   1.539
 5495SOL    HW117384   3.095   2.993   1.613
 5495SOL    HW217385   3.113   2.978   1.452
 5496SOL     OW17386   3.327   6.289   1.814
 5496SOL    HW117387   3.242   6.267   1.767
 5496SOL    HW217388   3.389   6.211   1.809
 5497SOL     OW17389   0.648   1.916   3.426
 5497SOL    HW117390   0.653   1.937   3.524
 5497SOL    HW217391   0.564   1.864   3.408
 5498SOL     OW17392   5.015   0.518   0.513
 5498SOL    HW117393   4.936   0.548   0.565
 5498SOL    HW217394   5.043   0.591   0.450
 5499SOL     OW17395   0.746   1.403   3.730
 5499SOL    HW117396   0.678   1.346   3.685
 5499SOL    HW217397   0.764   1.367   3.822
 5500SOL     OW17398   1.710   6.055   0.042
 5500SOL    HW117399   1.690   6.148   0.072
 5500SOL    HW217400   1.657   6.035   6.979
 5501SOL     OW17401   2.977   6.764   1.366
 5501SOL    HW117402   2.899   6.786   1.308
 5501SOL    HW217403   2.964   6.673   1.407
 5502SOL     OW17404   5.866   4.376   6.108
 5502SOL    HW117405   5.803   4.360   6.184
 5502SOL    HW217406   5.846   4.311   6.034
 5503SOL     OW17407   0.517   4.720   2.735
 5503SOL    HW117408   0.458   4.640   2.746
 5503SOL    HW217409   0.464   4.795   2.695
 5504SOL     OW17410   3.020   1.143   5.460
 5504SOL    HW117411   3.000   1.194   5.543
 5504SOL    HW217412   2.936   1.130   5.407
 5505SOL     OW17413   2.348   5.662   4.968
 5505SOL    HW117414   2.262   5.684   4.921
 5505SOL    HW217415   2.421   5.654   4.900
 5506SOL     OW17416   6.424   6.968   5.313
 5506SOL    HW117417   6.505   6.916   5.286
 5506SOL    HW217418   6.432   0.041   5.278
 5507SOL     OW17419   2.779   6.925   2.806
 5507SOL    HW117420   2.821   6.972   2.884
 5507SOL    HW217421   2.681   6.914   2.823
 5508SOL     OW17422   2.686   1.048   0.026
 5508SOL    HW117423   2.690   0.952   7.019
 5508SOL    HW217424   2.597   1.086   7.020
 5509SOL     OW17425   0.802   6.357   0.341
 5509SOL    HW117426   0.753   6.299   0.406
 5509SOL    HW217427   0.895   6.374   0.375
 5510SOL     OW17428   5.228   6.460   0.556
 5510SOL    HW117429   5.317   6.483   0.516
 5510SOL    HW217430   5.224   6.494   0.650
 5511SOL     OW17431   2.292   0.335   3.884
 5511SOL    HW117432   2.360   0.408   3.898
 5511SOL    HW217433   2.338   0.253   3.851
 5512SOL     OW17434   6.337   2.295   0.484
 5512SOL    HW117435   6.248   2.248   0.483
 5512SOL    HW217436   6.325   2.388   0.519
 5513SOL     OW17437   4.805   4.351   5.621
 5513SOL    HW117438   4.721   4.381   5.665
 5513SOL    HW217439   4.883   4.373   5.680
 5514SOL     OW17440   5.108   5.344   2.772
 5514SOL    HW117441   5.186   5.397   2.740
 5514SOL    HW217442   5.137   5.251   2.793
 5515SOL     OW17443   6.781   3.938   1.190
 5515SOL    HW117444   6.691   3.898   1.208
 5515SOL    HW217445   6.833   3.877   1.130
 5516SOL     OW17446   1.292   3.211   0.516
 5516SOL    HW117447   1.230   3.133   0.506
 5516SOL    HW217448   1.240   3.296   0.523
 5517SOL     OW17449   2.446   2.574   2.273
 5517SOL    HW117450   2.391   2.495   2.245
 5517SOL    HW217451   2.433   2.648   2.207
 5518SOL     OW17452   6.420   5.815   6.175
 5518SOL    HW117453   6.393   5.855   6.263
 5518SOL    HW217454   6.517   5.793   6.176
 5519SOL     OW17455   4.993   3.412   2.898
 5519SOL    HW117456   4.974   3.466   2.816
 5519SOL    HW217457   5.091   3.392   2.902
 5520SOL     OW17458   0.963   4.797   2.871
 5520SOL    HW117459   0.913   4.814   2.786
 5520SOL    HW217460   0.913   4.730   2.926
 5521SOL     OW17461   3.909   5.704   2.597
 5521SOL    HW117462   4.008   5.707   2.608
 5521SOL    HW217463   3.867   5.773   2.656
 5522SOL     OW17464   1.394   4.137   1.122
 5522SOL    HW117465   1.357   4.123   1.030
 5522SOL    HW217466   1.329   4.101   1.189
 5523SOL     OW17467   3.191   6.797   2.853
 5523SOL    HW117468   3.170   6.821   2.759
 5523SOL    HW217469   3.181   6.698   2.865
 5524SOL     OW17470   7.011   5.579   4.691
 5524SOL    HW117471   0.038   5.527   4.762
 5524SOL    HW217472   0.055   5.596   4.616
 5525SOL     OW17473   6.519   4.333   0.848
 5525SOL    HW117474   6.461   4.253   0.834
 5525SOL    HW217475   6.570   4.323   0.934
 5526SOL     OW17476   5.949   3.460   4.869
 5526SOL    HW117477   5.874   3.526   4.864
 5526SOL    HW217478   5.991   3.452   4.778
 5527SOL     OW17479   1.069   3.616   3.196
 5527SOL    HW117480   1.051   3.548   3.125
 5527SOL    HW217481   1.038   3.706   3.165
 5528SOL     OW17482   0.928   2.115   6.074
 5528SOL    HW117483   0.853   2.105   6.139
 5528SOL    HW217484   0.933   2.035   6.015
 5529SOL     OW17485   2.568   0.124   4.291
 5529SOL    HW117486   2.505   0.088   4.360
 5529SOL    HW217487   2.578   0.223   4.303
 5530SOL     OW17488   0.337   2.482   2.199
 5530SOL    HW117489   0.246   2.523   2.208
 5530SOL    HW217490   0.406   2.548   2.229
 5531SOL     OW17491   3.729   4.043   3.685
 5531SOL    HW117492   3.823   4.019   3.710
 5531SOL    HW217493   3.674   4.053   3.767
 5532SOL     OW17494   1.363   1.389   1.293
 5532SOL    HW117495   1.378   1.343   1.206
 5532SOL    HW217496   1.451   1.405   1.338
 5533SOL     OW17497   2.753   0.946   2.209
 5533SOL    HW117498   2.667   0.895   2.212
 5533SOL    HW217499   2.801   0.927   2.124
 5534SOL     OW17500   1.002   3.293   6.300
 5534SOL    HW117501   0.957   3.381   6.318
 5534SOL    HW217502   1.095   3.295   6.338
 5535SOL     OW17503   0.503   2.762   3.508
 5535SOL    HW117504   0.426   2.781   3.568
 5535SOL    HW217505   0.585   2.808   3.542
 5536SOL     OW17506   3.406   1.148   4.124
 5536SOL    HW117507   3.493   1.143   4.075
 5536SOL    HW217508   3.369   1.240   4.117
 5537SOL     OW17509   3.498   0.613   4.136
 5537SOL    HW117510   3.462   0.569   4.218
 5537SOL    HW217511   3.468   0.708   4.134
 5538SOL     OW17512   3.551   0.134   4.905
 5538SOL    HW117513   3.471   0.159   4.850
 5538SOL    HW217514   3.587   0.047   4.872
 5539SOL     OW17515   0.801   2.396   1.328
 5539SOL    HW117516   0.751   2.310   1.330
 5539SOL    HW217517   0.828   2.421   1.421
 5540SOL     OW17518   5.210   3.831   2.209
 5540SOL    HW117519   5.249   3.878   2.130
 5540SOL    HW217520   5.133   3.774   2.180
 5541SOL     OW17521   5.339   2.423   6.339
 5541SOL    HW117522   5.420   2.374   6.306
 5541SOL    HW217523   5.366   2.514   6.370
 5542SOL     OW17524   5.982   6.212   5.634
 5542SOL    HW117525   5.943   6.142   5.694
 5542SOL    HW217526   6.082   6.206   5.637
 5543SOL     OW17527   2.236   5.183   6.390
 5543SOL    HW117528   2.250   5.171   6.488
 5543SOL    HW217529   2.274   5.271   6.361
 5544SOL     OW17530   5.111   5.864   6.001
 5544SOL    HW117531   5.108   5.810   5.916
 5544SOL    HW217532   5.162   5.948   5.984
 5545SOL     OW17533   4.842   1.076   2.952
 5545SOL    HW117534   4.926   1.102   2.904
 5545SOL    HW217535   4.766   1.132   2.920
 5546SOL     OW17536   0.979   6.655   4.607
 5546SOL    HW117537   0.957   6.620   4.698
 5546SOL    HW217538   0.906   6.629   4.543
 5547SOL     OW17539   4.103   0.455   4.830
 5547SOL    HW117540   4.183   0.508   4.858
 5547SOL    HW217541   4.026   0.478   4.889
 5548SOL     OW17542   6.626   3.386   5.284
 5548SOL    HW117543   6.692   3.420   5.217
 5548SOL    HW217544   6.606   3.458   5.351
 5549SOL     OW17545   3.876   4.572   1.097
 5549SOL    HW117546   3.863   4.503   1.026
 5549SOL    HW217547   3.824   4.546   1.179
 5550SOL     OW17548   2.481   4.472   2.374
 5550SOL    HW117549   2.538   4.503   2.298
 5550SOL    HW217550   2.397   4.431   2.339
 5551SOL     OW17551   1.224   6.211   3.079
 5551SOL    HW117552   1.124   6.210   3.078
 5551SOL    HW217553   1.257   6.162   3.160
 5552SOL     OW17554   6.603   0.745   6.602
 5552SOL    HW117555   6.613   0.646   6.617
 5552SOL    HW217556   6.507   0.765   6.582
 5553SOL     OW17557   4.977   6.141   6.457
 5553SOL    HW117558   5.059   6.093   6.486
 5553SOL    HW217559   4.931   6.180   6.537
 5554SOL     OW17560   4.453   2.220   6.787
 5554SOL    HW117561   4.447   2.194   6.883
 5554SOL    HW217562   4.545   2.198   6.752
 5555SOL     OW17563   0.706   3.813   2.382
 5555SOL    HW117564   0.746   3.760   2.308
 5555SOL    HW217565   0.663   3.752   2.448
 5556SOL     OW17566   6.073   1.662   3.254
 5556SOL    HW117567   6.100   1.603   3.330
 5556SOL    HW217568   6.045   1.605   3.177
 5557SOL     OW17569   3.922   6.539   2.424
 5557SOL    HW117570   3.986   6.606   2.462
 5557SOL    HW217571   3.925   6.456   2.479
 5558SOL     OW17572   2.880   3.426   6.568
 5558SOL    HW117573   2.844   3.500   6.511
 5558SOL    HW217574   2.954   3.380   6.520
 5559SOL     OW17575   1.975   0.012   1.229
 5559SOL    HW117576   1.973   6.970   1.151
 5559SOL    HW217577   1.922   6.994   1.304
 5560SOL     OW17578   0.363   5.653   1.590
 5560SOL    HW117579   0.311   5.569   1.600
 5560SOL    HW217580   0.403   5.656   1.498
 5561SOL     OW17581   1.858   0.940   4.112
 5561SOL    HW117582   1.804   0.954   4.195
 5561SOL    HW217583   1.810   0.980   4.034
 5562SOL     OW17584   4.194   2.811   6.204
 5562SOL    HW117585   4.247   2.822   6.288
 5562SOL    HW217586   4.247   2.756   6.138
 5563SOL     OW17587   3.121   4.834   2.725
 5563SOL    HW117588   3.031   4.808   2.762
 5563SOL    HW217589   3.144   4.773   2.649
 5564SOL     OW17590   4.577   0.230   1.003
 5564SOL    HW117591   4.479   0.212   0.997
 5564SOL    HW217592   4.596   0.322   0.968
 5565SOL     OW17593   4.392   2.589   5.806
 5565SOL    HW117594   4.323   2.517   5.800
 5565SOL    HW217595   4.348   2.676   5.827
 5566SOL     OW17596   1.144   4.212   6.480
 5566SOL    HW117597   1.197   4.294   6.460
 5566SOL    HW217598   1.061   4.212   6.424
 5567SOL     OW17599   6.782   3.507   1.198
 5567SOL    HW117600   6.863   3.450   1.214
 5567SOL    HW217601   6.778   3.578   1.269
 5568SOL     OW17602   5.168   0.904   3.696
 5568SOL    HW117603   5.160   0.903   3.796
 5568SOL    HW217604   5.091   0.855   3.656
 5569SOL     OW17605   1.782   1.596   2.503
 5569SOL    HW117606   1.751   1.665   2.568
 5569SOL    HW217607   1.882   1.601   2.496
 5570SOL     OW17608   6.880   3.835   4.395
 5570SOL    HW117609   6.967   3.862   4.434
 5570SOL    HW217610   6.838   3.764   4.451
 5571SOL     OW17611   6.251   6.208   1.059
 5571SOL    HW117612   6.202   6.121   1.070
 5571SOL    HW217613   6.221   6.252   0.975
 5572SOL     OW17614   1.425   3.632   4.609
 5572SOL    HW117615   1.498   3.586   4.559
 5572SOL    HW217616   1.347   3.570   4.617
 5573SOL     OW17617   1.758   5.363   5.060
 5573SOL    HW117618   1.847   5.317   5.063
 5573SOL    HW217619   1.687   5.296   5.038
 5574SOL     OW17620   0.234   1.786   2.555
 5574SOL    HW117621   0.187   1.852   2.613
 5574SOL    HW217622   0.208   1.693   2.583
 5575SOL     OW17623   7.005   1.228   1.162
 5575SOL    HW117624   6.994   1.130   1.148
 5575SOL    HW217625   0.049   1.244   1.237
 5576SOL     OW17626   0.815   4.814   1.526
 5576SOL    HW117627   0.799   4.750   1.451
 5576SOL    HW217628   0.763   4.785   1.607
 5577SOL     OW17629   2.829   3.192   6.048
 5577SOL    HW117630   2.775   3.156   5.972
 5577SOL    HW217631   2.770   3.206   6.127
 5578SOL     OW17632   3.363   3.604   1.424
 5578SOL    HW117633   3.418   3.657   1.359
 5578SOL    HW217634   3.274   3.584   1.383
 5579SOL     OW17635   0.380   3.335   0.849
 5579SOL    HW117636   0.422   3.385   0.773
 5579SOL    HW217637   0.326   3.399   0.904
 5580SOL     OW17638   5.186   2.676   5.254
 5580SOL    HW117639   5.105   2.705   5.306
 5580SOL    HW217640   5.189   2.576   5.250
 5581SOL     OW17641   1.622   0.171   1.819
 5581SOL    HW117642   1.566   0.141   1.897
 5581SOL    HW217643   1.635   0.270   1.824
 5582SOL     OW17644   3.189   3.651   5.940
 5582SOL    HW117645   3.224   3.739   5.908
 5582SOL    HW217646   3.260   3.581   5.930
 5583SOL     OW17647   5.200   0.710   3.091
 5583SOL    HW117648   5.101   0.698   3.102
 5583SOL    HW217649   5.227   0.799   3.130
 5584SOL     OW17650   6.192   5.047   4.030
 5584SOL    HW117651   6.262   4.996   3.980
 5584SOL    HW217652   6.235   5.122   4.081
 5585SOL     OW17653   5.364   5.231   3.238
 5585SOL    HW117654   5.377   5.160   3.308
 5585SOL    HW217655   5.412   5.314   3.265
 5586SOL     OW17656   0.827   2.718   6.005
 5586SOL    HW117657   0.733   2.740   6.030
 5586SOL    HW217658   0.865   2.654   6.071
 5587SOL     OW17659   4.366   6.594   1.399
 5587SOL    HW117660   4.306   6.517   1.377
 5587SOL    HW217661   4.315   6.680   1.389
 5588SOL     OW17662   2.536   5.173   2.778
 5588SOL    HW117663   2.626   5.134   2.796
 5588SOL    HW217664   2.465   5.106   2.801
 5589SOL     OW17665   6.530   2.987   5.744
 5589SOL    HW117666   6.558   2.929   5.668
 5589SOL    HW217667   6.513   3.080   5.711
 5590SOL     OW17668   7.013   6.459   3.638
 5590SOL    HW117669   0.011   6.455   3.540
 5590SOL    HW217670   0.080   6.451   3.688
 5591SOL     OW17671   5.229   1.540   1.135
 5591SOL    HW117672   5.318   1.505   1.107
 5591SOL    HW217673   5.175   1.563   1.053
 5592SOL     OW17674   0.453   5.697   2.419
 5592SOL    HW117675   0.417   5.782   2.456
 5592SOL    HW217676   0.492   5.642   2.494
 5593SOL     OW17677   0.856   3.116   0.769
 5593SOL    HW117678   0.809   3.032   0.742
 5593SOL    HW217679   0.894   3.105   0.860
 5594SOL     OW17680   4.605   0.834   6.317
 5594SOL    HW117681   4.530   0.894   6.343
 5594SOL    HW217682   4.588   0.797   6.226
 5595SOL     OW17683   7.007   0.924   4.542
 5595SOL    HW117684   0.049   0.846   4.534
 5595SOL    HW217685   6.945   0.925   4.464
 5596SOL     OW17686   5.104   0.915   2.878
 5596SOL    HW117687   5.156   0.891   2.796
 5596SOL    HW217688   5.049   0.837   2.906
 5597SOL     OW17689   4.906   2.973   5.094
 5597SOL    HW117690   4.991   2.983   5.147
 5597SOL    HW217691   4.833   3.027   5.136
 5598SOL     OW17692   5.556   3.986   3.621
 5598SOL    HW117693   5.559   4.086   3.619
 5598SOL    HW217694   5.569   3.954   3.715
 5599SOL     OW17695   0.992   2.074   1.920
 5599SOL    HW117696   0.912   2.061   1.978
 5599SOL    HW217697   0.963   2.092   1.826
 5600SOL     OW17698   1.874   1.361   1.784
 5600SOL    HW117699   1.781   1.330   1.802
 5600SOL    HW217700   1.872   1.453   1.746
 5601SOL     OW17701   2.189   0.861   6.358
 5601SOL    HW117702   2.122   0.878   6.286
 5601SOL    HW217703   2.178   0.929   6.431
 5602SOL     OW17704   0.066   1.866   1.564
 5602SOL    HW117705   0.052   1.820   1.476
 5602SOL    HW217706   7.001   1.864   1.616
 5603SOL     OW17707   6.211   2.874   0.739
 5603SOL    HW117708   6.294   2.916   0.702
 5603SOL    HW217709   6.235   2.792   0.791
 5604SOL     OW17710   6.168   2.464   4.640
 5604SOL    HW117711   6.252   2.417   4.666
 5604SOL    HW217712   6.101   2.398   4.607
 5605SOL     OW17713   7.015   0.929   4.932
 5605SOL    HW117714   0.031   0.846   4.975
 5605SOL    HW217715   0.008   1.007   4.993
 5606SOL     OW17716   5.243   6.734   0.429
 5606SOL    HW117717   5.201   6.762   0.515
 5606SOL    HW217718   5.324   6.679   0.446
 5607SOL     OW17719   5.484   1.289   2.950
 5607SOL    HW117720   5.427   1.208   2.955
 5607SOL    HW217721   5.561   1.280   3.014
 5608SOL     OW17722   5.565   0.571   3.864
 5608SOL    HW117723   5.486   0.597   3.809
 5608SOL    HW217724   5.575   0.635   3.940
 5609SOL     OW17725   3.310   5.520   1.315
 5609SOL    HW117726   3.310   5.602   1.371
 5609SOL    HW217727   3.363   5.536   1.232
 5610SOL     OW17728   4.797   5.943   0.385
 5610SOL    HW117729   4.760   5.898   0.467
 5610SOL    HW217730   4.756   5.902   0.303
 5611SOL     OW17731   0.813   5.984   3.008
 5611SOL    HW117732   0.825   5.957   2.913
 5611SOL    HW217733   0.872   6.062   3.028
 5612SOL     OW17734   3.836   2.178   5.711
 5612SOL    HW117735   3.754   2.128   5.684
 5612SOL    HW217736   3.914   2.147   5.656
 5613SOL     OW17737   6.771   4.709   3.678
 5613SOL    HW117738   6.843   4.779   3.677
 5613SOL    HW217739   6.781   4.652   3.597
 5614SOL     OW17740   4.498   2.199   4.210
 5614SOL    HW117741   4.513   2.130   4.140
 5614SOL    HW217742   4.495   2.156   4.300
 5615SOL     OW17743   6.966   1.667   3.598
 5615SOL    HW117744   0.031   1.629   3.561
 5615SOL    HW217745   6.888   1.619   3.559
 5616SOL     OW17746   2.594   2.390   4.315
 5616SOL    HW117747   2.663   2.385   4.388
 5616SOL    HW217748   2.640   2.405   4.228
 5617SOL     OW17749   3.127   5.960   6.040
 5617SOL    HW117750   3.224   5.960   6.014
 5617SOL    HW217751   3.112   6.028   6.111
 5618SOL     OW17752   0.429   4.233   3.674
 5618SOL    HW117753   0.494   4.195   3.609
 5618SOL    HW217754   0.474   4.247   3.763
 5619SOL     OW17755   3.221   3.848   4.745
 5619SOL    HW117756   3.229   3.795   4.660
 5619SOL    HW217757   3.175   3.934   4.726
 5620SOL     OW17758   4.325   3.188   0.528
 5620SOL    HW117759   4.302   3.282   0.555
 5620SOL    HW217760   4.241   3.139   0.505
 5621SOL     OW17761   2.463   2.818   0.170
 5621SOL    HW117762   2.408   2.847   0.249
 5621SOL    HW217763   2.556   2.851   0.181
 5622SOL     OW17764   4.553   0.771   5.697
 5622SOL    HW117765   4.653   0.775   5.698
 5622SOL    HW217766   4.521   0.749   5.605
 5623SOL     OW17767   3.773   5.400   5.589
 5623SOL    HW117768   3.740   5.484   5.546
 5623SOL    HW217769   3.792   5.332   5.519
 5624SOL     OW17770   1.113   4.770   3.438
 5624SOL    HW117771   1.121   4.675   3.407
 5624SOL    HW217772   1.024   4.783   3.483
 5625SOL     OW17773   5.464   0.576   5.369
 5625SOL    HW117774   5.446   0.516   5.291
 5625SOL    HW217775   5.407   0.657   5.362
 5626SOL     OW17776   2.276   6.079   4.583
 5626SOL    HW117777   2.192   6.111   4.627
 5626SOL    HW217778   2.346   6.062   4.652
 5627SOL     OW17779   0.292   6.083   5.985
 5627SOL    HW117780   0.258   6.151   6.050
 5627SOL    HW217781   0.216   6.027   5.952
 5628SOL     OW17782   1.329   2.013   1.816
 5628SOL    HW117783   1.408   1.968   1.775
 5628SOL    HW217784   1.255   2.018   1.749
 5629SOL     OW17785   3.717   3.726   2.468
 5629SOL    HW117786   3.636   3.683   2.426
 5629SOL    HW217787   3.742   3.675   2.550
 5630SOL     OW17788   0.966   3.510   6.743
 5630SOL    HW117789   0.889   3.449   6.762
 5630SOL    HW217790   0.941   3.604   6.768
 5631SOL     OW17791   4.362   2.283   1.166
 5631SOL    HW117792   4.344   2.367   1.114
 5631SOL    HW217793   4.285   2.220   1.154
 5632SOL     OW17794   3.012   2.479   6.219
 5632SOL    HW117795   3.075   2.406   6.248
 5632SOL    HW217796   3.042   2.566   6.259
 5633SOL     OW17797   6.243   3.986   4.477
 5633SOL    HW117798   6.253   3.893   4.443
 5633SOL    HW217799   6.229   4.049   4.400
 5634SOL     OW17800   2.144   4.915   4.540
 5634SOL    HW117801   2.091   4.979   4.485
 5634SOL    HW217802   2.106   4.823   4.531
 5635SOL     OW17803   1.660   4.526   5.165
 5635SOL    HW117804   1.667   4.476   5.078
 5635SOL    HW217805   1.752   4.544   5.200
 5636SOL     OW17806   4.704   6.992   4.327
 5636SOL    HW117807   4.720   6.940   4.243
 5636SOL    HW217808   4.644   0.049   4.307
 5637SOL     OW17809   5.073   0.576   3.399
 5637SOL    HW117810   5.171   0.556   3.407
 5637SOL    HW217811   5.025   0.494   3.366
 5638SOL     OW17812   6.013   3.971   0.883
 5638SOL    HW117813   6.080   3.905   0.849
 5638SOL    HW217814   5.959   3.929   0.955
 5639SOL     OW17815   0.976   0.846   2.397
 5639SOL    HW117816   1.068   0.863   2.433
 5639SOL    HW217817   0.979   0.843   2.297
 5640SOL     OW17818   3.657   7.002   3.490
 5640SOL    HW117819   3.651   0.039   3.572
 5640SOL    HW217820   3.745   7.017   3.445
 5641SOL     OW17821   1.078   4.799   5.255
 5641SOL    HW117822   1.007   4.870   5.247
 5641SOL    HW217823   1.081   4.765   5.349
 5642SOL     OW17824   1.408   6.375   5.393
 5642SOL    HW117825   1.429   6.402   5.299
 5642SOL    HW217826   1.309   6.378   5.407
 5643SOL     OW17827   3.987   0.744   5.424
 5643SOL    HW117828   3.977   0.815   5.354
 5643SOL    HW217829   3.932   0.665   5.398
 5644SOL     OW17830   3.141   0.283   5.156
 5644SOL    HW117831   3.149   0.380   5.177
 5644SOL    HW217832   3.091   0.237   5.229
 5645SOL     OW17833   6.470   4.987   3.939
 5645SOL    HW117834   6.536   5.030   3.878
 5645SOL    HW217835   6.515   4.918   3.995
 5646SOL     OW17836   1.632   5.094   3.236
 5646SOL    HW117837   1.696   5.156   3.281
 5646SOL    HW217838   1.548   5.088   3.289
 5647SOL     OW17839   4.534   5.377   1.433
 5647SOL    HW117840   4.503   5.410   1.522
 5647SOL    HW217841   4.552   5.279   1.437
 5648SOL     OW17842   1.944   6.177   2.568
 5648SOL    HW117843   2.028   6.128   2.593
 5648SOL    HW217844   1.940   6.264   2.617
 5649SOL     OW17845   0.717   6.693   3.945
 5649SOL    HW117846   0.684   6.600   3.963
 5649SOL    HW217847   0.814   6.699   3.969
 5650SOL     OW17848   0.412   5.660   0.969
 5650SOL    HW117849   0.321   5.617   0.971
 5650SOL    HW217850   0.430   5.704   1.057
 5651SOL     OW17851   1.835   0.526   1.146
 5651SOL    HW117852   1.773   0.529   1.069
 5651SOL    HW217853   1.850   0.618   1.182
 5652SOL     OW17854   6.138   0.010   1.490
 5652SOL    HW117855   6.044   0.020   1.521
 5652SOL    HW217856   6.200   0.047   1.559
 5653SOL     OW17857   6.106   6.402   6.237
 5653SOL    HW117858   6.104   6.483   6.296
 5653SOL    HW217859   6.195   6.357   6.245
 5654SOL     OW17860   0.727   6.739   5.068
 5654SOL    HW117861   0.725   6.699   5.160
 5654SOL    HW217862   0.653   6.700   5.013
 5655SOL     OW17863   1.334   3.413   3.824
 5655SOL    HW117864   1.257   3.477   3.826
 5655SOL    HW217865   1.356   3.392   3.729
 5656SOL     OW17866   6.840   4.126   6.573
 5656SOL    HW117867   6.873   4.032   6.574
 5656SOL    HW217868   6.874   4.174   6.654
 5657SOL     OW17869   5.938   2.766   6.429
 5657SOL    HW117870   5.854   2.807   6.393
 5657SOL    HW217871   5.958   2.804   6.519
 5658SOL     OW17872   3.130   2.987   6.414
 5658SOL    HW117873   3.114   3.032   6.326
 5658SOL    HW217874   3.227   2.987   6.435
 5659SOL     OW17875   3.150   3.422   5.483
 5659SOL    HW117876   3.176   3.427   5.579
 5659SOL    HW217877   3.099   3.504   5.457
 5660SOL     OW17878   4.276   6.631   6.356
 5660SOL    HW117879   4.245   6.543   6.393
 5660SOL    HW217880   4.347   6.669   6.415
 5661SOL     OW17881   1.540   5.788   5.087
 5661SOL    HW117882   1.445   5.790   5.120
 5661SOL    HW217883   1.580   5.880   5.097
 5662SOL     OW17884   3.003   6.627   3.703
 5662SOL    HW117885   2.943   6.697   3.743
 5662SOL    HW217886   3.028   6.653   3.610
 5663SOL     OW17887   2.460   2.244   0.754
 5663SOL    HW117888   2.414   2.163   0.790
 5663SOL    HW217889   2.535   2.216   0.694
 5664SOL     OW17890   6.771   3.331   4.075
 5664SOL    HW117891   6.771   3.232   4.089
 5664SOL    HW217892   6.817   3.352   3.988
 5665SOL     OW17893   2.114   0.460   0.341
 5665SOL    HW117894   2.084   0.368   0.365
 5665SOL    HW217895   2.106   0.474   0.243
 5666SOL     OW17896   6.575   0.225   3.411
 5666SOL    HW117897   6.521   0.251   3.331
 5666SOL    HW217898   6.533   0.145   3.454
 5667SOL     OW17899   1.544   4.846   4.576
 5667SOL    HW117900   1.522   4.788   4.655
 5667SOL    HW217901   1.617   4.909   4.600
 5668SOL     OW17902   5.684   3.355   2.893
 5668SOL    HW117903   5.688   3.378   2.990
 5668SOL    HW217904   5.618   3.415   2.847
 5669SOL     OW17905   6.534   3.794   1.133
 5669SOL    HW117906   6.547   3.696   1.143
 5669SOL    HW217907   6.450   3.812   1.082
 5670SOL     OW17908   1.305   4.010   4.061
 5670SOL    HW117909   1.316   4.080   4.132
 5670SOL    HW217910   1.355   3.927   4.088
 5671SOL     OW17911   5.822   5.909   5.467
 5671SOL    HW117912   5.867   5.831   5.511
 5671SOL    HW217913   5.876   5.940   5.390
 5672SOL     OW17914   4.653   3.674   6.779
 5672SOL    HW117915   4.641   3.758   6.832
 5672SOL    HW217916   4.573   3.661   6.720
 5673SOL     OW17917   1.736   6.972   0.678
 5673SOL    HW117918   1.692   0.041   0.662
 5673SOL    HW217919   1.700   6.932   0.762
 5674SOL     OW17920   1.089   4.349   5.266
 5674SOL    HW117921   1.166   4.315   5.213
 5674SOL    HW217922   1.023   4.392   5.205
 5675SOL     OW17923   4.681   3.128   6.109
 5675SOL    HW117924   4.770   3.159   6.140
 5675SOL    HW217925   4.624   3.106   6.187
 5676SOL     OW17926   2.248   1.933   2.777
 5676SOL    HW117927   2.201   1.963   2.860
 5676SOL    HW217928   2.325   1.874   2.801
 5677SOL     OW17929   0.955   1.336   0.764
 5677SOL    HW117930   0.950   1.356   0.862
 5677SOL    HW217931   1.048   1.308   0.741
 5678SOL     OW17932   4.016   6.998   2.857
 5678SOL    HW117933   3.972   0.048   2.801
 5678SOL    HW217934   4.036   6.917   2.801
 5679SOL     OW17935   6.238   1.555   3.815
 5679SOL    HW117936   6.183   1.636   3.797
 5679SOL    HW217937   6.177   1.475   3.820
 5680SOL     OW17938   1.442   5.177   6.542
 5680SOL    HW117939   1.449   5.114   6.464
 5680SOL    HW217940   1.460   5.270   6.511
 5681SOL     OW17941   0.671   3.761   2.045
 5681SOL    HW117942   0.700   3.853   2.073
 5681SOL    HW217943   0.632   3.764   1.954
 5682SOL     OW17944   1.924   5.572   4.646
 5682SOL    HW117945   1.845   5.633   4.661
 5682SOL    HW217946   1.956   5.582   4.552
 5683SOL     OW17947   4.000   1.308   5.760
 5683SOL    HW117948   3.948   1.356   5.829
 5683SOL    HW217949   4.043   1.227   5.800
 5684SOL     OW17950   2.271   4.002   6.323
 5684SOL    HW117951   2.234   3.909   6.329
 5684SOL    HW217952   2.368   3.998   6.302
 5685SOL     OW17953   2.531   1.333   3.414
 5685SOL    HW117954   2.599   1.270   3.378
 5685SOL    HW217955   2.577   1.409   3.459
 5686SOL     OW17956   3.014   1.875   6.084
 5686SOL    HW117957   2.963   1.929   6.017
 5686SOL    HW217958   3.110   1.869   6.056
 5687SOL     OW17959   0.402   5.435   6.254
 5687SOL    HW117960   0.483   5.389   6.290
 5687SOL    HW217961   0.356   5.484   6.328
 5688SOL     OW17962   1.457   2.476   2.614
 5688SOL    HW117963   1.416   2.409   2.552
 5688SOL    HW217964   1.548   2.501   2.580
 5689SOL     OW17965   2.997   1.404   1.633
 5689SOL    HW117966   2.968   1.310   1.616
 5689SOL    HW217967   3.059   1.433   1.560
 5690SOL     OW17968   1.483   5.900   0.182
 5690SOL    HW117969   1.574   5.897   0.222
 5690SOL    HW217970   1.489   5.930   0.087
 5691SOL     OW17971   3.862   0.416   1.720
 5691SOL    HW117972   3.785   0.477   1.703
 5691SOL    HW217973   3.933   0.431   1.651
 5692SOL     OW17974   5.392   4.095   0.512
 5692SOL    HW117975   5.412   4.012   0.564
 5692SOL    HW217976   5.339   4.158   0.570
 5693SOL     OW17977   4.151   1.310   2.388
 5693SOL    HW117978   4.121   1.229   2.337
 5693SOL    HW217979   4.250   1.304   2.403
 5694SOL     OW17980   1.262   0.808   2.799
 5694SOL    HW117981   1.169   0.770   2.802
 5694SOL    HW217982   1.285   0.834   2.705
 5695SOL     OW17983   1.613   1.941   3.892
 5695SOL    HW117984   1.654   1.863   3.939
 5695SOL    HW217985   1.574   1.911   3.805
 5696SOL     OW17986   0.938   0.185   4.087
 5696SOL    HW117987   0.873   0.109   4.084
 5696SOL    HW217988   1.006   0.167   4.158
 5697SOL     OW17989   5.887   1.995   2.075
 5697SOL    HW117990   5.824   2.064   2.111
 5697SOL    HW217991   5.981   2.023   2.093
 5698SOL     OW17992   0.704   4.520   3.578
 5698SOL    HW117993   0.768   4.537   3.503
 5698SOL    HW217994   0.635   4.593   3.580
 5699SOL     OW17995   1.080   2.538   2.774
 5699SOL    HW117996   1.063   2.547   2.872
 5699SOL    HW217997   1.167   2.581   2.751
 5700SOL     OW17998   6.778   0.087   3.965
 5700SOL    HW117999   6.785   0.003   3.911
 5700SOL    HW218000   6.869   0.114   3.997
 5701SOL     OW18001   0.679   0.348   1.118
 5701SOL    HW118002   0.771   0.333   1.083
 5701SOL    HW218003   0.658   0.279   1.188
 5702SOL     OW18004   2.342   5.549   4.621
 5702SOL    HW118005   2.392   5.590   4.697
 5702SOL    HW218006   2.277   5.482   4.656
 5703SOL     OW18007   6.337   4.449   0.368
 5703SOL    HW118008   6.287   4.368   0.336
 5703SOL    HW218009   6.276   4.506   0.424
 5704SOL     OW18010   4.634   4.290   3.163
 5704SOL    HW118011   4.574   4.309   3.085
 5704SOL    HW218012   4.618   4.197   3.196
 5705SOL     OW18013   5.317   6.261   6.979
 5705SOL    HW118014   5.263   6.279   0.041
 5705SOL    HW218015   5.412   6.287   6.995
 5706SOL     OW18016   6.137   2.614   2.198
 5706SOL    HW118017   6.157   2.706   2.231
 5706SOL    HW218018   6.138   2.551   2.276
 5707SOL     OW18019   6.449   6.830   1.047
 5707SOL    HW118020   6.371   6.775   1.019
 5707SOL    HW218021   6.423   6.888   1.124
 5708SOL     OW18022   4.926   5.477   2.309
 5708SOL    HW118023   4.918   5.424   2.394
 5708SOL    HW218024   5.022   5.479   2.281
 5709SOL     OW18025   0.849   1.235   2.407
 5709SOL    HW118026   0.879   1.252   2.501
 5709SOL    HW218027   0.889   1.303   2.346
 5710SOL     OW18028   3.429   2.704   0.613
 5710SOL    HW118029   3.383   2.694   0.525
 5710SOL    HW218030   3.419   2.620   0.665
 5711SOL     OW18031   5.001   1.226   2.367
 5711SOL    HW118032   4.924   1.266   2.316
 5711SOL    HW218033   5.083   1.281   2.351
 5712SOL     OW18034   6.257   6.872   0.021
 5712SOL    HW118035   6.295   6.816   0.094
 5712SOL    HW218036   6.181   6.927   0.057
 5713SOL     OW18037   2.754   3.809   1.713
 5713SOL    HW118038   2.777   3.812   1.616
 5713SOL    HW218039   2.717   3.718   1.736
 5714SOL     OW18040   0.049   6.152   0.989
 5714SOL    HW118041   0.061   6.103   1.075
 5714SOL    HW218042   6.972   6.160   0.967
 5715SOL     OW18043   0.632   0.528   2.434
 5715SOL    HW118044   0.667   0.504   2.343
 5715SOL    HW218045   0.584   0.615   2.429
 5716SOL     OW18046   1.423   4.945   5.796
 5716SOL    HW118047   1.387   5.037   5.780
 5716SOL    HW218048   1.513   4.952   5.839
 5717SOL     OW18049   1.767   4.992   0.678
 5717SOL    HW118050   1.835   5.003   0.606
 5717SOL    HW218051   1.708   4.914   0.656
 5718SOL     OW18052   0.793   3.539   0.378
 5718SOL    HW118053   0.746   3.582   0.455
 5718SOL    HW218054   0.868   3.597   0.348
 5719SOL     OW18055   2.195   2.975   0.276
 5719SOL    HW118056   2.185   3.011   0.184
 5719SOL    HW218057   2.285   3.001   0.313
 5720SOL     OW18058   1.894   6.543   4.775
 5720SOL    HW118059   1.840   6.469   4.736
 5720SOL    HW218060   1.847   6.579   4.856
 5721SOL     OW18061   5.924   3.796   1.077
 5721SOL    HW118062   5.947   3.702   1.099
 5721SOL    HW218063   5.848   3.826   1.135
 5722SOL     OW18064   6.748   2.147   5.217
 5722SOL    HW118065   6.670   2.206   5.197
 5722SOL    HW218066   6.817   2.158   5.147
 5723SOL     OW18067   3.902   3.139   0.012
 5723SOL    HW118068   3.929   3.233   0.033
 5723SOL    HW218069   3.977   3.077   0.035
 5724SOL     OW18070   5.621   2.686   4.356
 5724SOL    HW118071   5.572   2.645   4.279
 5724SOL    HW218072   5.719   2.688   4.336
 5725SOL     OW18073   6.094   5.096   3.672
 5725SOL    HW118074   6.049   5.142   3.749
 5725SOL    HW218075   6.080   5.148   3.588
 5726SOL     OW18076   7.001   5.529   4.185
 5726SOL    HW118077   6.953   5.538   4.097
 5726SOL    HW218078   6.964   5.595   4.250
 5727SOL     OW18079   6.001   2.297   4.465
 5727SOL    HW118080   6.027   2.390   4.437
 5727SOL    HW218081   5.995   2.239   4.384
 5728SOL     OW18082   4.594   6.378   5.684
 5728SOL    HW118083   4.600   6.313   5.609
 5728SOL    HW218084   4.520   6.351   5.745
 5729SOL     OW18085   2.057   0.521   0.028
 5729SOL    HW118086   1.983   0.585   0.050
 5729SOL    HW218087   2.142   0.573   0.015
 5730SOL     OW18088   5.164   4.926   5.986
 5730SOL    HW118089   5.260   4.926   6.014
 5730SOL    HW218090   5.109   4.978   6.051
 5731SOL     OW18091   0.274   0.185   2.963
 5731SOL    HW118092   0.244   0.200   2.869
 5731SOL    HW218093   0.354   0.242   2.982
 5732SOL     OW18094   0.915   5.485   3.794
 5732SOL    HW118095   1.014   5.493   3.803
 5732SOL    HW218096   0.886   5.532   3.710
 5733SOL     OW18097   3.015   6.546   5.304
 5733SOL    HW118098   3.048   6.605   5.231
 5733SOL    HW218099   3.067   6.461   5.305
 5734SOL     OW18100   1.292   0.282   5.365
 5734SOL    HW118101   1.252   0.216   5.301
 5734SOL    HW218102   1.219   0.334   5.410
 5735SOL     OW18103   3.986   1.598   1.172
 5735SOL    HW118104   4.066   1.636   1.126
 5735SOL    HW218105   3.907   1.602   1.111
 5736SOL     OW18106   5.938   4.314   0.313
 5736SOL    HW118107   5.982   4.403   0.296
 5736SOL    HW218108   5.988   4.243   0.264
 5737SOL     OW18109   6.116   6.509   0.041
 5737SOL    HW118110   6.078   6.573   0.108
 5737SOL    HW218111   6.170   6.559   6.993
 5738SOL     OW18112   2.193   2.742   6.182
 5738SOL    HW118113   2.193   2.841   6.169
 5738SOL    HW218114   2.145   2.699   6.106
 5739SOL     OW18115   1.948   1.081   5.766
 5739SOL    HW118116   1.875   1.016   5.746
 5739SOL    HW218117   1.928   1.168   5.722
 5740SOL     OW18118   4.435   4.833   0.799
 5740SOL    HW118119   4.360   4.813   0.736
 5740SOL    HW218120   4.399   4.873   0.883
 5741SOL     OW18121   0.739   5.653   4.520
 5741SOL    HW118122   0.738   5.556   4.542
 5741SOL    HW218123   0.754   5.665   4.421
 5742SOL     OW18124   5.459   6.178   2.767
 5742SOL    HW118125   5.374   6.141   2.807
 5742SOL    HW218126   5.445   6.274   2.742
 5743SOL     OW18127   2.622   6.718   4.803
 5743SOL    HW118128   2.656   6.780   4.732
 5743SOL    HW218129   2.697   6.660   4.835
 5744SOL     OW18130   4.526   6.846   1.885
 5744SOL    HW118131   4.559   6.830   1.978
 5744SOL    HW218132   4.490   6.939   1.878
 5745SOL     OW18133   3.763   0.642   4.163
 5745SOL    HW118134   3.780   0.648   4.261
 5745SOL    HW218135   3.666   0.622   4.147
 5746SOL     OW18136   4.893   0.543   1.175
 5746SOL    HW118137   4.951   0.607   1.227
 5746SOL    HW218138   4.879   0.460   1.228
 5747SOL     OW18139   0.478   5.157   2.452
 5747SOL    HW118140   0.401   5.121   2.400
 5747SOL    HW218141   0.460   5.147   2.550
 5748SOL     OW18142   1.438   5.175   0.764
 5748SOL    HW118143   1.346   5.200   0.796
 5748SOL    HW218144   1.434   5.086   0.718
 5749SOL     OW18145   2.855   1.028   4.750
 5749SOL    HW118146   2.931   0.963   4.755
 5749SOL    HW218147   2.777   0.984   4.704
 5750SOL     OW18148   6.354   5.115   4.921
 5750SOL    HW118149   6.359   5.016   4.905
 5750SOL    HW218150   6.261   5.140   4.946
 5751SOL     OW18151   2.232   2.727   4.614
 5751SOL    HW118152   2.313   2.690   4.568
 5751SOL    HW218153   2.253   2.744   4.710
 5752SOL     OW18154   6.379   0.366   6.481
 5752SOL    HW118155   6.339   0.357   6.572
 5752SOL    HW218156   6.362   0.458   6.445
 5753SOL     OW18157   2.749   3.687   6.129
 5753SOL    HW118158   2.825   3.653   6.075
 5753SOL    HW218159   2.729   3.781   6.104
 5754SOL     OW18160   5.761   5.407   1.317
 5754SOL    HW118161   5.725   5.499   1.326
 5754SOL    HW218162   5.772   5.384   1.220
 5755SOL     OW18163   2.536   3.577   5.815
 5755SOL    HW118164   2.449   3.561   5.769
 5755SOL    HW218165   2.609   3.582   5.746
 5756SOL     OW18166   6.159   5.269   3.435
 5756SOL    HW118167   6.242   5.231   3.393
 5756SOL    HW218168   6.170   5.367   3.449
 5757SOL     OW18169   6.519   6.319   2.814
 5757SOL    HW118170   6.503   6.233   2.863
 5757SOL    HW218171   6.455   6.388   2.849
 5758SOL     OW18172   3.103   1.751   3.852
 5758SOL    HW118173   3.169   1.826   3.855
 5758SOL    HW218174   3.152   1.664   3.857
 5759SOL     OW18175   4.847   1.435   6.014
 5759SOL    HW118176   4.811   1.521   6.049
 5759SOL    HW218177   4.778   1.364   6.021
 5760SOL     OW18178   1.686   5.591   1.764
 5760SOL    HW118179   1.772   5.634   1.794
 5760SOL    HW218180   1.666   5.514   1.824
 5761SOL     OW18181   5.241   0.811   6.014
 5761SOL    HW118182   5.305   0.738   6.038
 5761SOL    HW218183   5.171   0.820   6.085
 5762SOL     OW18184   4.961   6.717   6.859
 5762SOL    HW118185   4.887   6.732   6.925
 5762SOL    HW218186   5.047   6.704   6.907
 5763SOL     OW18187   0.380   0.205   0.593
 5763SOL    HW118188   0.344   0.177   0.682
 5763SOL    HW218189   0.367   0.303   0.581
 5764SOL     OW18190   5.447   4.540   6.499
 5764SOL    HW118191   5.397   4.594   6.567
 5764SOL    HW218192   5.545   4.544   6.518
 5765SOL     OW18193   6.671   4.259   6.421
 5765SOL    HW118194   6.617   4.190   6.372
 5765SOL    HW218195   6.724   4.215   6.493
 5766SOL     OW18196   3.083   1.645   0.795
 5766SOL    HW118197   3.008   1.653   0.730
 5766SOL    HW218198   3.075   1.717   0.864
 5767SOL     OW18199   2.684   6.998   0.229
 5767SOL    HW118200   2.680   0.070   0.268
 5767SOL    HW218201   2.673   7.003   0.130
 5768SOL     OW18202   0.020   6.954   3.361
 5768SOL    HW118203   0.000   7.015   3.284
 5768SOL    HW218204   0.006   6.859   3.333
 5769SOL     OW18205   2.672   0.057   3.341
 5769SOL    HW118206   2.751   0.016   3.387
 5769SOL    HW218207   2.658   0.150   3.375
 5770SOL     OW18208   0.137   6.522   1.050
 5770SOL    HW118209   0.089   6.484   1.129
 5770SOL    HW218210   0.216   6.465   1.029
 5771SOL     OW18211   1.143   5.872   1.483
 5771SOL    HW118212   1.199   5.911   1.410
 5771SOL    HW218213   1.089   5.944   1.526
 5772SOL     OW18214   5.949   2.678   0.568
 5772SOL    HW118215   6.026   2.713   0.516
 5772SOL    HW218216   5.934   2.735   0.648
 5773SOL     OW18217   5.648   0.669   4.117
 5773SOL    HW118218   5.746   0.649   4.108
 5773SOL    HW218219   5.606   0.599   4.176
 5774SOL     OW18220   2.364   5.492   4.111
 5774SOL    HW118221   2.356   5.548   4.194
 5774SOL    HW218222   2.454   5.449   4.108
 5775SOL     OW18223   1.562   0.202   1.165
 5775SOL    HW118224   1.479   0.188   1.111
 5775SOL    HW218225   1.551   0.160   1.255
 5776SOL     OW18226   6.940   0.708   6.111
 5776SOL    HW118227   6.926   0.716   6.210
 5776SOL    HW218228   6.862   0.660   6.070
 5777SOL     OW18229   6.094   0.808   4.252
 5777SOL    HW118230   6.161   0.751   4.299
 5777SOL    HW218231   6.139   0.892   4.220
 5778SOL     OW18232   2.145   6.984   1.993
 5778SOL    HW118233   2.141   0.060   2.021
 5778SOL    HW218234   2.145   6.979   1.893
 5779SOL     OW18235   4.200   0.462   1.276
 5779SOL    HW118236   4.277   0.422   1.326
 5779SOL    HW218237   4.190   0.558   1.301
 5780SOL     OW18238   6.325   5.262   2.208
 5780SOL    HW118239   6.297   5.167   2.195
 5780SOL    HW218240   6.339   5.305   2.118
 5781SOL     OW18241   1.859   4.438   4.877
 5781SOL    HW118242   1.941   4.400   4.834
 5781SOL    HW218243   1.784   4.441   4.810
 5782SOL     OW18244   1.824   1.023   1.901
 5782SOL    HW118245   1.851   1.107   1.947
 5782SOL    HW218246   1.886   1.006   1.824
 5783SOL     OW18247   1.746   1.473   1.126
 5783SOL    HW118248   1.814   1.400   1.132
 5783SOL    HW218249   1.698   1.480   1.213
 5784SOL     OW18250   0.618   6.406   0.132
 5784SOL    HW118251   0.684   6.387   0.205
 5784SOL    HW218252   0.618   6.330   0.067
 5785SOL     OW18253   1.319   1.712   1.053
 5785SOL    HW118254   1.325   1.782   1.124
 5785SOL    HW218255   1.409   1.671   1.039
 5786SOL     OW18256   1.419   3.745   1.196
 5786SOL    HW118257   1.367   3.660   1.190
 5786SOL    HW218258   1.470   3.759   1.111
 5787SOL     OW18259   5.131   2.347   4.178
 5787SOL    HW118260   5.051   2.286   4.171
 5787SOL    HW218261   5.121   2.421   4.112
 5788SOL     OW18262   2.734   0.082   1.052
 5788SOL    HW118263   2.697   0.149   1.116
 5788SOL    HW218264   2.659   0.040   1.001
 5789SOL     OW18265   3.967   2.659   6.256
 5789SOL    HW118266   3.927   2.625   6.171
 5789SOL    HW218267   4.047   2.715   6.235
 5790SOL     OW18268   6.736   5.745   5.243
 5790SOL    HW118269   6.747   5.761   5.145
 5790SOL    HW218270   6.659   5.682   5.258
 5791SOL     OW18271   3.366   1.229   2.468
 5791SOL    HW118272   3.375   1.198   2.373
 5791SOL    HW218273   3.360   1.329   2.469
 5792SOL     OW18274   5.086   3.588   3.077
 5792SOL    HW118275   5.104   3.678   3.036
 5792SOL    HW218276   5.044   3.529   3.008
 5793SOL     OW18277   5.917   2.039   5.696
 5793SOL    HW118278   5.909   2.136   5.672
 5793SOL    HW218279   5.931   1.985   5.612
 5794SOL     OW18280   3.358   0.084   6.414
 5794SOL    HW118281   3.445   0.129   6.394
 5794SOL    HW218282   3.341   0.088   6.512
 5795SOL     OW18283   0.911   6.146   1.890
 5795SOL    HW118284   1.008   6.150   1.914
 5795SOL    HW218285   0.869   6.236   1.905
 5796SOL     OW18286   4.482   0.969   6.671
 5796SOL    HW118287   4.420   0.975   6.592
 5796SOL    HW218288   4.556   0.905   6.650
 5797SOL     OW18289   5.652   1.419   0.093
 5797SOL    HW118290   5.590   1.357   0.141
 5797SOL    HW218291   5.714   1.463   0.159
 5798SOL     OW18292   1.129   4.151   4.444
 5798SOL    HW118293   1.160   4.228   4.387
 5798SOL    HW218294   1.032   4.134   4.427
 5799SOL     OW18295   0.563   6.911   2.755
 5799SOL    HW118296   0.481   6.930   2.809
 5799SOL    HW218297   0.563   6.815   2.728
 5800SOL     OW18298   0.842   0.115   0.934
 5800SOL    HW118299   0.773   0.044   0.952
 5800SOL    HW218300   0.809   0.176   0.862
 5801SOL     OW18301   2.573   2.484   3.401
 5801SOL    HW118302   2.597   2.506   3.307
 5801SOL    HW218303   2.490   2.533   3.427
 5802SOL     OW18304   6.046   3.327   2.713
 5802SOL    HW118305   6.129   3.272   2.706
 5802SOL    HW218306   5.972   3.270   2.750
 5803SOL     OW18307   0.952   4.659   3.825
 5803SOL    HW118308   0.903   4.734   3.869
 5803SOL    HW218309   0.968   4.586   3.892
 5804SOL     OW18310   6.933   6.722   3.659
 5804SOL    HW118311   6.946   6.624   3.666
 5804SOL    HW218312   0.002   6.767   3.652
 5805SOL     OW18313   1.483   3.233   0.850
 5805SOL    HW118314   1.476   3.200   0.944
 5805SOL    HW218315   1.518   3.159   0.792
 5806SOL     OW18316   6.920   4.093   4.144
 5806SOL    HW118317   6.885   4.002   4.123
 5806SOL    HW218318   6.849   4.147   4.188
 5807SOL     OW18319   1.098   6.170   1.163
 5807SOL    HW118320   1.041   6.193   1.242
 5807SOL    HW218321   1.194   6.163   1.191
 5808SOL     OW18322   6.857   6.811   4.231
 5808SOL    HW118323   6.839   6.742   4.301
 5808SOL    HW218324   6.830   6.901   4.266
 5809SOL     OW18325   0.236   2.260   5.901
 5809SOL    HW118326   0.209   2.163   5.906
 5809SOL    HW218327   0.215   2.305   5.988
 5810SOL     OW18328   4.374   6.848   4.911
 5810SOL    HW118329   4.365   6.766   4.854
 5810SOL    HW218330   4.445   6.908   4.872
 5811SOL     OW18331   3.042   2.526   5.679
 5811SOL    HW118332   3.010   2.507   5.772
 5811SOL    HW218333   3.047   2.625   5.665
 5812SOL     OW18334   6.293   3.505   0.072
 5812SOL    HW118335   6.236   3.545   0.144
 5812SOL    HW218336   6.333   3.419   0.104
 5813SOL     OW18337   3.229   6.076   1.310
 5813SOL    HW118338   3.313   6.126   1.334
 5813SOL    HW218339   3.223   5.993   1.365
 5814SOL     OW18340   6.976   2.112   2.105
 5814SOL    HW118341   0.037   2.068   2.143
 5814SOL    HW218342   6.940   2.057   2.030
 5815SOL     OW18343   5.727   2.277   4.089
 5815SOL    HW118344   5.775   2.361   4.066
 5815SOL    HW218345   5.673   2.247   4.009
 5816SOL     OW18346   6.887   5.105   1.871
 5816SOL    HW118347   6.862   5.010   1.892
 5816SOL    HW218348   6.805   5.161   1.866
 5817SOL     OW18349   5.687   4.014   5.143
 5817SOL    HW118350   5.760   3.945   5.143
 5817SOL    HW218351   5.600   3.970   5.124
 5818SOL     OW18352   1.054   5.680   5.476
 5818SOL    HW118353   0.960   5.648   5.486
 5818SOL    HW218354   1.056   5.760   5.415
 5819SOL     OW18355   2.995   5.194   6.973
 5819SOL    HW118356   2.898   5.186   6.949
 5819SOL    HW218357   3.034   5.103   6.983
 5820SOL     OW18358   4.847   4.676   2.511
 5820SOL    HW118359   4.799   4.606   2.564
 5820SOL    HW218360   4.855   4.759   2.566
 5821SOL     OW18361   6.509   1.224   1.357
 5821SOL    HW118362   6.503   1.146   1.296
 5821SOL    HW218363   6.604   1.237   1.386
 5822SOL     OW18364   1.329   2.301   2.801
 5822SOL    HW118365   1.381   2.365   2.744
 5822SOL    HW218366   1.352   2.316   2.897
 5823SOL     OW18367   1.985   6.452   4.298
 5823SOL    HW118368   1.987   6.520   4.226
 5823SOL    HW218369   2.070   6.455   4.350
 5824SOL     OW18370   1.151   6.946   2.460
 5824SOL    HW118371   1.191   7.011   2.524
 5824SOL    HW218372   1.179   6.970   2.367
 5825SOL     OW18373   0.201   6.233   4.742
 5825SOL    HW118374   0.114   6.240   4.790
 5825SOL    HW218375   0.229   6.137   4.738
 5826SOL     OW18376   6.742   0.125   5.421
 5826SOL    HW118377   6.655   0.166   5.448
 5826SOL    HW218378   6.725   0.043   5.367
 5827SOL     OW18379   1.059   3.680   4.994
 5827SOL    HW118380   1.120   3.735   4.936
 5827SOL    HW218381   1.112   3.608   5.039
 5828SOL     OW18382   5.400   0.236   4.162
 5828SOL    HW118383   5.423   0.141   4.137
 5828SOL    HW218384   5.344   0.276   4.090
 5829SOL     OW18385   1.540   0.595   4.799
 5829SOL    HW118386   1.484   0.638   4.729
 5829SOL    HW218387   1.530   0.645   4.885
 5830SOL     OW18388   4.096   5.122   5.752
 5830SOL    HW118389   4.168   5.071   5.799
 5830SOL    HW218390   4.014   5.066   5.744
 5831SOL     OW18391   0.836   1.638   5.379
 5831SOL    HW118392   0.874   1.587   5.301
 5831SOL    HW218393   0.752   1.594   5.409
 5832SOL     OW18394   3.373   4.550   1.309
 5832SOL    HW118395   3.464   4.584   1.332
 5832SOL    HW218396   3.374   4.450   1.306
 5833SOL     OW18397   4.048   3.626   5.204
 5833SOL    HW118398   4.041   3.725   5.194
 5833SOL    HW218399   3.964   3.591   5.244
 5834SOL     OW18400   6.723   3.677   6.529
 5834SOL    HW118401   6.675   3.737   6.466
 5834SOL    HW218402   6.732   3.586   6.488
 5835SOL     OW18403   5.936   1.225   2.863
 5835SOL    HW118404   5.932   1.201   2.960
 5835SOL    HW218405   5.971   1.146   2.811
 5836SOL     OW18406   3.387   6.616   2.444
 5836SOL    HW118407   3.311   6.672   2.411
 5836SOL    HW218408   3.439   6.669   2.511
 5837SOL     OW18409   3.609   4.216   0.077
 5837SOL    HW118410   3.619   4.303   0.028
 5837SOL    HW218411   3.581   4.234   0.171
 5838SOL     OW18412   2.737   1.891   1.437
 5838SOL    HW118413   2.789   1.842   1.507
 5838SOL    HW218414   2.765   1.987   1.435
 5839SOL     OW18415   0.327   2.911   1.489
 5839SOL    HW118416   0.266   2.921   1.410
 5839SOL    HW218417   0.330   2.814   1.516
 5840SOL     OW18418   0.070   3.825   1.861
 5840SOL    HW118419   0.078   3.830   1.960
 5840SOL    HW218420   6.993   3.826   1.836
 5841SOL     OW18421   4.831   0.597   1.802
 5841SOL    HW118422   4.859   0.615   1.708
 5841SOL    HW218423   4.911   0.601   1.862
 5842SOL     OW18424   3.689   2.150   0.149
 5842SOL    HW118425   3.641   2.233   0.178
 5842SOL    HW218426   3.716   2.098   0.230
 5843SOL     OW18427   2.054   3.526   1.216
 5843SOL    HW118428   2.080   3.435   1.248
 5843SOL    HW218429   1.962   3.548   1.251
 5844SOL     OW18430   0.214   6.546   4.976
 5844SOL    HW118431   0.213   6.508   4.883
 5844SOL    HW218432   0.280   6.621   4.981
 5845SOL     OW18433   0.050   6.976   1.825
 5845SOL    HW118434   0.062   6.877   1.831
 5845SOL    HW218435   6.973   6.997   1.816
 5846SOL     OW18436   6.584   4.147   5.287
 5846SOL    HW118437   6.488   4.136   5.261
 5846SOL    HW218438   6.641   4.094   5.225
 5847SOL     OW18439   2.560   2.756   1.728
 5847SOL    HW118440   2.655   2.726   1.741
 5847SOL    HW218441   2.500   2.702   1.786
 5848SOL     OW18442   2.290   6.315   4.153
 5848SOL    HW118443   2.301   6.409   4.121
 5848SOL    HW218444   2.318   6.309   4.249
 5849SOL     OW18445   2.219   6.800   5.255
 5849SOL    HW118446   2.198   6.771   5.349
 5849SOL    HW218447   2.137   6.796   5.199
 5850SOL     OW18448   1.230   2.825   1.904
 5850SOL    HW118449   1.270   2.763   1.972
 5850SOL    HW218450   1.300   2.849   1.836
 5851SOL     OW18451   5.455   3.579   4.098
 5851SOL    HW118452   5.376   3.627   4.063
 5851SOL    HW218453   5.525   3.645   4.127
 5852SOL     OW18454   4.403   5.867   3.361
 5852SOL    HW118455   4.409   5.793   3.294
 5852SOL    HW218456   4.314   5.863   3.407
 5853SOL     OW18457   4.064   4.857   4.907
 5853SOL    HW118458   4.130   4.801   4.857
 5853SOL    HW218459   4.107   4.893   4.990
 5854SOL     OW18460   3.820   4.290   5.322
 5854SOL    HW118461   3.846   4.206   5.369
 5854SOL    HW218462   3.861   4.368   5.369
 5855SOL     OW18463   2.194   2.651   3.820
 5855SOL    HW118464   2.193   2.749   3.839
 5855SOL    HW218465   2.101   2.619   3.803
 5856SOL     OW18466   1.564   6.772   2.555
 5856SOL    HW118467   1.659   6.744   2.543
 5856SOL    HW218468   1.528   6.805   2.468
 5857SOL     OW18469   0.149   3.112   5.754
 5857SOL    HW118470   0.168   3.066   5.667
 5857SOL    HW218471   0.222   3.178   5.773
 5858SOL     OW18472   2.372   2.062   2.571
 5858SOL    HW118473   2.317   1.988   2.609
 5858SOL    HW218474   2.428   2.102   2.644
 5859SOL     OW18475   5.472   6.278   1.908
 5859SOL    HW118476   5.500   6.357   1.853
 5859SOL    HW218477   5.402   6.306   1.974
 5860SOL     OW18478   0.452   4.291   3.263
 5860SOL    HW118479   0.398   4.325   3.340
 5860SOL    HW218480   0.457   4.191   3.267
 5861SOL     OW18481   5.735   0.598   4.970
 5861SOL    HW118482   5.762   0.555   5.056
 5861SOL    HW218483   5.638   0.623   4.974
 5862SOL     OW18484   6.166   5.683   2.524
 5862SOL    HW118485   6.079   5.685   2.474
 5862SOL    HW218486   6.241   5.694   2.459
 5863SOL     OW18487   3.057   0.941   4.276
 5863SOL    HW118488   3.120   0.974   4.347
 5863SOL    HW218489   3.083   0.847   4.251
 5864SOL     OW18490   3.370   3.752   2.861
 5864SOL    HW118491   3.466   3.726   2.850
 5864SOL    HW218492   3.320   3.676   2.902
 5865SOL     OW18493   5.683   1.066   5.560
 5865SOL    HW118494   5.776   1.043   5.530
 5865SOL    HW218495   5.632   0.982   5.576
 5866SOL     OW18496   3.263   2.764   0.843
 5866SOL    HW118497   3.313   2.824   0.907
 5866SOL    HW218498   3.169   2.796   0.835
 5867SOL     OW18499   2.210   2.334   1.575
 5867SOL    HW118500   2.269   2.297   1.503
 5867SOL    HW218501   2.125   2.281   1.579
 5868SOL     OW18502   1.019   1.893   5.879
 5868SOL    HW118503   1.104   1.899   5.931
 5868SOL    HW218504   0.954   1.836   5.929
 5869SOL     OW18505   1.528   4.358   3.405
 5869SOL    HW118506   1.613   4.350   3.458
 5869SOL    HW218507   1.514   4.453   3.378
 5870SOL     OW18508   3.872   4.955   5.762
 5870SOL    HW118509   3.823   4.879   5.804
 5870SOL    HW218510   3.887   4.935   5.665
 5871SOL     OW18511   4.020   3.830   2.919
 5871SOL    HW118512   3.992   3.890   2.844
 5871SOL    HW218513   3.977   3.862   3.004
 5872SOL     OW18514   4.013   6.089   1.595
 5872SOL    HW118515   4.071   6.008   1.604
 5872SOL    HW218516   3.976   6.094   1.503
 5873SOL     OW18517   2.913   5.497   2.188
 5873SOL    HW118518   2.910   5.408   2.143
 5873SOL    HW218519   3.005   5.535   2.180
 5874SOL     OW18520   2.145   4.134   5.166
 5874SOL    HW118521   2.209   4.090   5.104
 5874SOL    HW218522   2.141   4.083   5.252
 5875SOL     OW18523   3.319   2.215   0.435
 5875SOL    HW118524   3.240   2.261   0.393
 5875SOL    HW218525   3.329   2.124   0.396
 5876SOL     OW18526   3.965   3.518   2.439
 5876SOL    HW118527   4.001   3.518   2.532
 5876SOL    HW218528   3.970   3.426   2.401
 5877SOL     OW18529   5.903   6.434   0.772
 5877SOL    HW118530   5.922   6.395   0.682
 5877SOL    HW218531   5.817   6.485   0.769
 5878SOL     OW18532   1.340   6.336   3.732
 5878SOL    HW118533   1.387   6.281   3.802
 5878SOL    HW218534   1.248   6.301   3.718
 5879SOL     OW18535   6.906   3.719   0.649
 5879SOL    HW118536   6.907   3.813   0.615
 5879SOL    HW218537   6.971   3.710   0.725
 5880SOL     OW18538   2.896   5.289   0.902
 5880SOL    HW118539   2.810   5.245   0.874
 5880SOL    HW218540   2.927   5.350   0.829
 5881SOL     OW18541   0.418   4.930   3.431
 5881SOL    HW118542   0.455   5.005   3.375
 5881SOL    HW218543   0.328   4.904   3.396
 5882SOL     OW18544   6.343   6.633   1.256
 5882SOL    HW118545   6.410   6.560   1.241
 5882SOL    HW218546   6.375   6.693   1.330
 5883SOL     OW18547   0.632   2.307   6.681
 5883SOL    HW118548   0.598   2.249   6.607
 5883SOL    HW218549   0.725   2.278   6.707
 5884SOL     OW18550   2.289   1.194   3.392
 5884SOL    HW118551   2.362   1.262   3.392
 5884SOL    HW218552   2.313   1.120   3.329
 5885SOL     OW18553   6.598   6.836   1.760
 5885SOL    HW118554   6.571   6.746   1.792
 5885SOL    HW218555   6.561   6.852   1.669
 5886SOL     OW18556   0.493   1.845   4.943
 5886SOL    HW118557   0.506   1.936   4.904
 5886SOL    HW218558   0.465   1.853   5.039
 5887SOL     OW18559   3.877   0.928   3.420
 5887SOL    HW118560   3.904   1.024   3.425
 5887SOL    HW218561   3.795   0.919   3.364
 5888SOL     OW18562   2.655   0.191   2.583
 5888SOL    HW118563   2.684   0.277   2.625
 5888SOL    HW218564   2.569   0.162   2.624
 5889SOL     OW18565   1.474   6.867   1.136
 5889SOL    HW118566   1.431   6.958   1.140
 5889SOL    HW218567   1.418   6.801   1.186
 5890SOL     OW18568   1.253   0.148   5.766
 5890SOL    HW118569   1.315   0.101   5.703
 5890SOL    HW218570   1.306   0.200   5.832
 5891SOL     OW18571   3.626   3.103   5.978
 5891SOL    HW118572   3.554   3.049   5.933
 5891SOL    HW218573   3.697   3.127   5.912
 5892SOL     OW18574   0.645   6.340   1.283
 5892SOL    HW118575   0.744   6.325   1.285
 5892SOL    HW218576   0.622   6.404   1.209
 5893SOL     OW18577   1.610   3.967   3.779
 5893SOL    HW118578   1.668   3.980   3.860
 5893SOL    HW218579   1.525   4.019   3.790
 5894SOL     OW18580   0.908   5.511   3.156
 5894SOL    HW118581   0.854   5.431   3.181
 5894SOL    HW218582   1.004   5.495   3.179
 5895SOL     OW18583   5.297   3.226   3.810
 5895SOL    HW118584   5.301   3.187   3.901
 5895SOL    HW218585   5.360   3.177   3.749
 5896SOL     OW18586   3.846   1.516   0.059
 5896SOL    HW118587   3.829   1.455   7.002
 5896SOL    HW218588   3.900   1.467   0.128
 5897SOL     OW18589   3.334   0.393   1.616
 5897SOL    HW118590   3.267   0.321   1.628
 5897SOL    HW218591   3.295   0.467   1.560
 5898SOL     OW18592   1.961   0.119   3.353
 5898SOL    HW118593   1.887   0.112   3.286
 5898SOL    HW218594   1.921   0.119   3.445
 5899SOL     OW18595   5.099   6.621   5.483
 5899SOL    HW118596   5.108   6.640   5.581
 5899SOL    HW218597   5.012   6.657   5.450
 5900SOL     OW18598   4.812   5.461   3.734
 5900SOL    HW118599   4.819   5.434   3.830
 5900SOL    HW218600   4.844   5.555   3.724
 5901SOL     OW18601   3.132   0.472   6.587
 5901SOL    HW118602   3.074   0.526   6.526
 5901SOL    HW218603   3.075   0.414   6.646
 5902SOL     OW18604   6.967   2.558   0.180
 5902SOL    HW118605   6.907   2.484   0.148
 5902SOL    HW218606   6.969   2.557   0.280
 5903SOL     OW18607   4.206   3.974   0.629
 5903SOL    HW118608   4.216   3.933   0.720
 5903SOL    HW218609   4.198   3.903   0.560
 5904SOL     OW18610   0.559   3.689   1.784
 5904SOL    HW118611   0.532   3.761   1.720
 5904SOL    HW218612   0.480   3.630   1.802
 5905SOL     OW18613   6.674   5.630   3.121
 5905SOL    HW118614   6.682   5.531   3.129
 5905SOL    HW218615   6.713   5.673   3.203
 5906SOL     OW18616   4.782   1.355   4.356
 5906SOL    HW118617   4.851   1.286   4.378
 5906SOL    HW218618   4.811   1.407   4.276
 5907SOL     OW18619   2.079   5.899   2.408
 5907SOL    HW118620   2.030   5.813   2.424
 5907SOL    HW218621   2.030   5.952   2.338
 5908SOL     OW18622   0.846   2.274   5.471
 5908SOL    HW118623   0.777   2.233   5.530
 5908SOL    HW218624   0.930   2.288   5.522
 5909SOL     OW18625   0.011   5.240   0.896
 5909SOL    HW118626   0.108   5.223   0.914
 5909SOL    HW218627   7.015   5.242   0.797
 5910SOL     OW18628   0.825   2.915   3.434
 5910SOL    HW118629   0.896   2.985   3.442
 5910SOL    HW218630   0.861   2.837   3.384
 5911SOL     OW18631   6.632   5.817   6.920
 5911SOL    HW118632   6.621   5.783   7.013
 5911SOL    HW218633   6.591   5.908   6.912
 5912SOL     OW18634   6.326   1.111   5.213
 5912SOL    HW118635   6.335   1.205   5.246
 5912SOL    HW218636   6.259   1.062   5.268
 5913SOL     OW18637   4.459   3.049   6.688
 5913SOL    HW118638   4.512   3.068   6.770
 5913SOL    HW218639   4.476   2.955   6.658
 5914SOL     OW18640   0.733   6.392   6.539
 5914SOL    HW118641   0.719   6.304   6.585
 5914SOL    HW218642   0.808   6.383   6.473
 5915SOL     OW18643   4.244   6.037   0.593
 5915SOL    HW118644   4.251   5.942   0.562
 5915SOL    HW218645   4.318   6.090   0.553
 5916SOL     OW18646   6.722   6.633   2.503
 5916SOL    HW118647   6.661   6.653   2.426
 5916SOL    HW218648   6.725   6.534   2.518
 5917SOL     OW18649   3.197   3.701   4.979
 5917SOL    HW118650   3.109   3.654   4.988
 5917SOL    HW218651   3.211   3.728   4.884
 5918SOL     OW18652   1.671   4.947   5.892
 5918SOL    HW118653   1.759   4.987   5.916
 5918SOL    HW218654   1.682   4.850   5.871
 5919SOL     OW18655   2.917   3.573   2.577
 5919SOL    HW118656   2.935   3.659   2.530
 5919SOL    HW218657   2.941   3.496   2.518
 5920SOL     OW18658   5.240   0.796   6.418
 5920SOL    HW118659   5.310   0.773   6.351
 5920SOL    HW218660   5.271   0.872   6.475
 5921SOL     OW18661   4.048   5.306   6.099
 5921SOL    HW118662   3.999   5.359   6.167
 5921SOL    HW218663   3.984   5.254   6.043
 5922SOL     OW18664   6.256   3.741   4.371
 5922SOL    HW118665   6.261   3.757   4.272
 5922SOL    HW218666   6.238   3.645   4.388
 5923SOL     OW18667   6.807   0.675   1.855
 5923SOL    HW118668   6.793   0.703   1.760
 5923SOL    HW218669   6.783   0.578   1.865
 5924SOL     OW18670   5.725   6.767   2.417
 5924SOL    HW118671   5.744   6.703   2.343
 5924SOL    HW218672   5.802   6.830   2.428
 5925SOL     OW18673   3.345   6.030   2.095
 5925SOL    HW118674   3.432   6.079   2.107
 5925SOL    HW218675   3.361   5.947   2.041
 5926SOL     OW18676   4.951   4.467   2.770
 5926SOL    HW118677   4.905   4.413   2.840
 5926SOL    HW218678   4.948   4.418   2.683
 5927SOL     OW18679   1.273   4.083   1.764
 5927SOL    HW118680   1.354   4.127   1.802
 5927SOL    HW218681   1.191   4.133   1.793
 5928SOL     OW18682   3.632   6.530   1.806
 5928SOL    HW118683   3.604   6.625   1.823
 5928SOL    HW218684   3.567   6.486   1.745
 5929SOL     OW18685   5.634   0.794   5.772
 5929SOL    HW118686   5.576   0.812   5.693
 5929SOL    HW218687   5.638   0.875   5.830
 5930SOL     OW18688   0.948   2.814   3.107
 5930SOL    HW118689   0.902   2.853   3.027
 5930SOL    HW218690   0.980   2.722   3.086
 5931SOL     OW18691   6.086   6.056   2.676
 5931SOL    HW118692   6.173   6.036   2.720
 5931SOL    HW218693   6.023   5.980   2.690
 5932SOL     OW18694   3.228   0.268   0.084
 5932SOL    HW118695   3.182   0.252   0.172
 5932SOL    HW218696   3.171   0.327   0.028
 5933SOL     OW18697   0.030   4.827   4.155
 5933SOL    HW118698   0.061   4.820   4.060
 5933SOL    HW218699   6.962   4.875   4.157
 5934SOL     OW18700   3.682   2.627   5.379
 5934SOL    HW118701   3.657   2.676   5.463
 5934SOL    HW218702   3.762   2.670   5.337
 5935SOL     OW18703   0.345   5.725   5.906
 5935SOL    HW118704   0.304   5.634   5.898
 5935SOL    HW218705   0.281   5.793   5.870
 5936SOL     OW18706   2.960   3.619   2.150
 5936SOL    HW118707   3.017   3.548   2.109
 5936SOL    HW218708   2.864   3.592   2.143
 5937SOL     OW18709   5.800   3.200   1.984
 5937SOL    HW118710   5.724   3.137   2.004
 5937SOL    HW218711   5.815   3.203   1.886
 5938SOL     OW18712   6.560   6.330   4.626
 5938SOL    HW118713   6.582   6.412   4.678
 5938SOL    HW218714   6.619   6.326   4.545
 5939SOL     OW18715   3.222   6.227   4.239
 5939SOL    HW118716   3.221   6.128   4.224
 5939SOL    HW218717   3.180   6.274   4.161
 5940SOL     OW18718   3.970   5.249   3.844
 5940SOL    HW118719   4.025   5.167   3.832
 5940SOL    HW218720   3.984   5.285   3.937
 5941SOL     OW18721   5.546   2.796   2.827
 5941SOL    HW118722   5.505   2.769   2.740
 5941SOL    HW218723   5.560   2.895   2.829
 5942SOL     OW18724   5.148   3.582   6.695
 5942SOL    HW118725   5.204   3.500   6.705
 5942SOL    HW218726   5.191   3.659   6.741
 5943SOL     OW18727   3.270   3.073   6.018
 5943SOL    HW118728   3.274   3.002   5.948
 5943SOL    HW218729   3.362   3.109   6.034
 5944SOL     OW18730   1.055   2.630   0.469
 5944SOL    HW118731   1.091   2.690   0.398
 5944SOL    HW218732   1.105   2.646   0.555
 5945SOL     OW18733   0.401   5.595   5.290
 5945SOL    HW118734   0.346   5.525   5.335
 5945SOL    HW218735   0.496   5.564   5.284
 5946SOL     OW18736   3.505   4.715   0.205
 5946SOL    HW118737   3.453   4.630   0.217
 5946SOL    HW218738   3.456   4.790   0.250
 5947SOL     OW18739   3.399   3.422   3.209
 5947SOL    HW118740   3.335   3.498   3.219
 5947SOL    HW218741   3.386   3.358   3.285
 5948SOL     OW18742   4.478   4.781   2.538
 5948SOL    HW118743   4.552   4.820   2.592
 5948SOL    HW218744   4.458   4.841   2.460
 5949SOL     OW18745   5.163   5.140   1.001
 5949SOL    HW118746   5.225   5.085   0.945
 5949SOL    HW218747   5.180   5.121   1.098
 5950SOL     OW18748   5.275   2.229   4.984
 5950SOL    HW118749   5.221   2.296   4.935
 5950SOL    HW218750   5.246   2.226   5.080
 5951SOL     OW18751   0.792   5.661   5.475
 5951SOL    HW118752   0.762   5.754   5.499
 5951SOL    HW218753   0.801   5.607   5.559
 5952SOL     OW18754   5.026   5.653   3.470
 5952SOL    HW118755   4.939   5.628   3.429
 5952SOL    HW218756   5.010   5.720   3.543
 5953SOL     OW18757   6.480   4.212   5.004
 5953SOL    HW118758   6.498   4.245   4.911
 5953SOL    HW218759   6.562   4.171   5.042
 5954SOL     OW18760   0.255   5.597   5.032
 5954SOL    HW118761   0.312   5.641   5.102
 5954SOL    HW218762   0.311   5.579   4.951
 5955SOL     OW18763   4.360   4.967   2.367
 5955SOL    HW118764   4.290   4.913   2.321
 5955SOL    HW218765   4.415   5.016   2.299
 5956SOL     OW18766   5.697   2.096   3.745
 5956SOL    HW118767   5.611   2.080   3.697
 5956SOL    HW218768   5.689   2.179   3.801
 5957SOL     OW18769   2.772   2.070   4.191
 5957SOL    HW118770   2.728   2.157   4.169
 5957SOL    HW218771   2.789   2.019   4.107
 5958SOL     OW18772   4.061   0.426   2.534
 5958SOL    HW118773   3.981   0.485   2.543
 5958SOL    HW218774   4.133   0.476   2.486
 5959SOL     OW18775   4.706   2.727   5.577
 5959SOL    HW118776   4.735   2.817   5.544
 5959SOL    HW218777   4.720   2.722   5.676
 5960SOL     OW18778   3.420   6.126   4.425
 5960SOL    HW118779   3.494   6.060   4.431
 5960SOL    HW218780   3.343   6.085   4.376
 5961SOL     OW18781   4.366   1.499   2.578
 5961SOL    HW118782   4.365   1.586   2.529
 5961SOL    HW218783   4.409   1.429   2.522
 5962SOL     OW18784   5.394   5.748   5.999
 5962SOL    HW118785   5.364   5.670   5.944
 5962SOL    HW218786   5.392   5.831   5.944
 5963SOL     OW18787   3.238   3.612   6.399
 5963SOL    HW118788   3.180   3.539   6.435
 5963SOL    HW218789   3.328   3.607   6.443
 5964SOL     OW18790   2.444   6.620   4.635
 5964SOL    HW118791   2.360   6.616   4.690
 5964SOL    HW218792   2.522   6.640   4.694
 5965SOL     OW18793   2.258   0.691   0.016
 5965SOL    HW118794   2.212   0.727   0.098
 5965SOL    HW218795   2.353   0.720   0.016
 5966SOL     OW18796   1.011   6.903   6.493
 5966SOL    HW118797   0.936   6.837   6.485
 5966SOL    HW218798   1.071   6.877   6.568
 5967SOL     OW18799   2.261   0.396   6.072
 5967SOL    HW118800   2.209   0.317   6.041
 5967SOL    HW218801   2.250   0.471   6.007
 5968SOL     OW18802   5.642   2.154   0.155
 5968SOL    HW118803   5.662   2.238   0.206
 5968SOL    HW218804   5.571   2.173   0.087
 5969SOL     OW18805   5.225   1.375   6.931
 5969SOL    HW118806   5.278   1.303   6.977
 5969SOL    HW218807   5.190   1.341   6.844
 5970SOL     OW18808   0.540   4.879   0.872
 5970SOL    HW118809   0.576   4.841   0.787
 5970SOL    HW218810   0.567   4.975   0.880
 5971SOL     OW18811   0.038   0.347   1.080
 5971SOL    HW118812   0.106   0.301   1.137
 5971SOL    HW218813   7.008   0.413   1.135
 5972SOL     OW18814   4.812   5.873   6.704
 5972SOL    HW118815   4.763   5.795   6.742
 5972SOL    HW218816   4.800   5.875   6.605
 5973SOL     OW18817   1.689   2.971   2.929
 5973SOL    HW118818   1.740   2.996   3.011
 5973SOL    HW218819   1.735   2.894   2.884
 5974SOL     OW18820   4.952   0.054   6.953
 5974SOL    HW118821   4.965   0.063   0.032
 5974SOL    HW218822   4.883   0.120   6.923
 5975SOL     OW18823   3.939   6.353   1.208
 5975SOL    HW118824   3.948   6.330   1.111
 5975SOL    HW218825   3.881   6.434   1.218
 5976SOL     OW18826   3.483   2.693   5.607
 5976SOL    HW118827   3.396   2.742   5.600
 5976SOL    HW218828   3.471   2.599   5.575
 5977SOL     OW18829   1.092   5.983   0.012
 5977SOL    HW118830   1.004   5.935   0.018
 5977SOL    HW218831   1.133   5.988   0.103
 5978SOL     OW18832   3.503   5.582   1.607
 5978SOL    HW118833   3.456   5.497   1.582
 5978SOL    HW218834   3.600   5.573   1.585
 5979SOL     OW18835   0.063   0.787   1.829
 5979SOL    HW118836   6.997   0.736   1.824
 5979SOL    HW218837   0.056   0.870   1.775
 5980SOL     OW18838   4.091   3.751   1.533
 5980SOL    HW118839   4.090   3.653   1.551
 5980SOL    HW218840   4.069   3.768   1.437
 5981SOL     OW18841   4.835   1.540   6.940
 5981SOL    HW118842   4.766   1.600   6.981
 5981SOL    HW218843   4.911   1.595   6.905
 5982SOL     OW18844   6.240   1.915   2.673
 5982SOL    HW118845   6.156   1.916   2.619
 5982SOL    HW218846   6.227   1.859   2.755
 5983SOL     OW18847   1.601   1.244   4.105
 5983SOL    HW118848   1.642   1.329   4.072
 5983SOL    HW218849   1.585   1.251   4.203
 5984SOL     OW18850   5.233   6.778   3.213
 5984SOL    HW118851   5.192   6.717   3.145
 5984SOL    HW218852   5.241   6.729   3.300
 5985SOL     OW18853   6.661   2.937   3.598
 5985SOL    HW118854   6.570   2.972   3.576
 5985SOL    HW218855   6.723   2.955   3.521
 5986SOL     OW18856   3.571   3.905   5.333
 5986SOL    HW118857   3.509   3.983   5.329
 5986SOL    HW218858   3.614   3.891   5.244
 5987SOL     OW18859   5.463   0.239   4.862
 5987SOL    HW118860   5.397   0.190   4.804
 5987SOL    HW218861   5.444   0.220   4.958
 5988SOL     OW18862   3.943   0.600   6.791
 5988SOL    HW118863   4.027   0.554   6.763
 5988SOL    HW218864   3.916   0.665   6.719
 5989SOL     OW18865   1.870   5.210   5.907
 5989SOL    HW118866   1.888   5.125   5.956
 5989SOL    HW218867   1.801   5.263   5.956
 5990SOL     OW18868   3.684   3.707   6.830
 5990SOL    HW118869   3.749   3.770   6.787
 5990SOL    HW218870   3.628   3.757   6.896
 5991SOL     OW18871   4.478   6.354   6.721
 5991SOL    HW118872   4.568   6.316   6.743
 5991SOL    HW218873   4.407   6.295   6.758
 5992SOL     OW18874   3.550   0.027   2.131
 5992SOL    HW118875   3.579   6.956   2.163
 5992SOL    HW218876   3.599   0.049   2.047
 5993SOL     OW18877   4.893   3.791   6.262
 5993SOL    HW118878   4.976   3.762   6.310
 5993SOL    HW218879   4.824   3.719   6.268
 5994SOL     OW18880   6.590   2.394   0.209
 5994SOL    HW118881   6.686   2.382   0.184
 5994SOL    HW218882   6.583   2.426   0.303
 5995SOL     OW18883   5.208   3.138   2.057
 5995SOL    HW118884   5.111   3.127   2.076
 5995SOL    HW218885   5.220   3.209   1.988
 5996SOL     OW18886   0.821   5.797   1.149
 5996SOL    HW118887   0.842   5.704   1.117
 5996SOL    HW218888   0.748   5.792   1.218
 5997SOL     OW18889   1.293   6.502   3.202
 5997SOL    HW118890   1.222   6.437   3.227
 5997SOL    HW218891   1.372   6.453   3.166
 5998SOL     OW18892   6.130   1.320   2.148
 5998SOL    HW118893   6.053   1.257   2.155
 5998SOL    HW218894   6.210   1.280   2.191
 5999SOL     OW18895   3.024   2.871   1.293
 5999SOL    HW118896   2.993   2.944   1.232
 5999SOL    HW218897   2.945   2.833   1.342
 6000SOL     OW18898   1.067   6.407   0.441
 6000SOL    HW118899   1.092   6.499   0.412
 6000SOL    HW218900   1.108   6.388   0.530
 6001SOL     OW18901   6.413   5.104   0.013
 6001SOL    HW118902   6.374   5.134   6.946
 6001SOL    HW218903   6.372   5.157   0.088
 6002SOL     OW18904   6.300   0.133   5.895
 6002SOL    HW118905   6.347   0.046   5.912
 6002SOL    HW218906   6.242   0.125   5.814
 6003SOL     OW18907   5.778   2.285   4.877
 6003SOL    HW118908   5.698   2.227   4.885
 6003SOL    HW218909   5.794   2.334   4.962
 6004SOL     OW18910   6.060   2.665   3.867
 6004SOL    HW118911   6.049   2.682   3.769
 6004SOL    HW218912   6.155   2.641   3.886
 6005SOL     OW18913   6.143   4.900   4.999
 6005SOL    HW118914   6.045   4.905   4.979
 6005SOL    HW218915   6.156   4.875   5.095
 6006SOL     OW18916   2.999   0.848   5.046
 6006SOL    HW118917   3.039   0.860   4.955
 6006SOL    HW218918   3.072   0.839   5.113
 6007SOL     OW18919   0.036   3.280   6.111
 6007SOL    HW118920   0.074   3.357   6.060
 6007SOL    HW218921   0.107   3.241   6.170
 6008SOL     OW18922   2.696   4.756   5.497
 6008SOL    HW118923   2.698   4.725   5.402
 6008SOL    HW218924   2.766   4.826   5.511
 6009SOL     OW18925   3.859   6.548   3.444
 6009SOL    HW118926   3.760   6.555   3.459
 6009SOL    HW218927   3.907   6.587   3.522
 6010SOL     OW18928   0.884   4.295   3.553
 6010SOL    HW118929   0.818   4.363   3.583
 6010SOL    HW218930   0.845   4.203   3.563
 6011SOL     OW18931   4.888   3.108   2.981
 6011SOL    HW118932   4.896   3.206   2.998
 6011SOL    HW218933   4.890   3.059   3.068
 6012SOL     OW18934   6.133   0.478   0.480
 6012SOL    HW118935   6.229   0.456   0.497
 6012SOL    HW218936   6.110   0.457   0.385
 6013SOL     OW18937   5.036   0.973   3.209
 6013SOL    HW118938   4.980   0.891   3.203
 6013SOL    HW218939   5.063   1.002   3.117
 6014SOL     OW18940   3.204   4.060   3.386
 6014SOL    HW118941   3.192   3.989   3.317
 6014SOL    HW218942   3.143   4.137   3.367
 6015SOL     OW18943   6.011   3.762   4.642
 6015SOL    HW118944   5.958   3.724   4.718
 6015SOL    HW218945   6.014   3.861   4.649
 6016SOL     OW18946   5.997   1.685   5.776
 6016SOL    HW118947   5.913   1.715   5.822
 6016SOL    HW218948   6.074   1.691   5.840
 6017SOL     OW18949   6.749   4.965   4.195
 6017SOL    HW118950   6.762   4.962   4.294
 6017SOL    HW218951   6.725   5.058   4.167
 6018SOL     OW18952   3.505   1.428   5.521
 6018SOL    HW118953   3.459   1.415   5.433
 6018SOL    HW218954   3.477   1.355   5.584
 6019SOL     OW18955   0.490   3.106   5.501
 6019SOL    HW118956   0.525   3.147   5.585
 6019SOL    HW218957   0.506   3.167   5.424
 6020SOL     OW18958   1.340   5.475   0.160
 6020SOL    HW118959   1.351   5.551   0.223
 6020SOL    HW218960   1.248   5.437   0.168
 6021SOL     OW18961   4.617   0.104   2.912
 6021SOL    HW118962   4.579   0.081   2.823
 6021SOL    HW218963   4.613   0.203   2.925
 6022SOL     OW18964   0.195   1.637   3.338
 6022SOL    HW118965   0.153   1.568   3.397
 6022SOL    HW218966   0.130   1.712   3.323
 6023SOL     OW18967   5.035   0.504   2.026
 6023SOL    HW118968   4.944   0.465   2.041
 6023SOL    HW218969   5.044   0.588   2.079
 6024SOL     OW18970   1.029   4.489   1.082
 6024SOL    HW118971   1.101   4.449   1.139
 6024SOL    HW218972   1.037   4.588   1.082
 6025SOL     OW18973   3.140   1.773   3.087
 6025SOL    HW118974   3.098   1.856   3.124
 6025SOL    HW218975   3.193   1.795   3.005
 6026SOL     OW18976   0.314   5.719   4.611
 6026SOL    HW118977   0.286   5.688   4.520
 6026SOL    HW218978   0.377   5.654   4.651
 6027SOL     OW18979   0.198   3.568   6.401
 6027SOL    HW118980   0.145   3.647   6.369
 6027SOL    HW218981   0.239   3.521   6.323
 6028SOL     OW18982   5.322   4.566   1.398
 6028SOL    HW118983   5.367   4.584   1.310
 6028SOL    HW218984   5.368   4.491   1.444
 6029SOL     OW18985   2.850   6.977   3.581
 6029SOL    HW118986   2.942   6.998   3.550
 6029SOL    HW218987   2.854   6.919   3.662
 6030SOL     OW18988   5.161   4.252   4.358
 6030SOL    HW118989   5.259   4.240   4.366
 6030SOL    HW218990   5.124   4.187   4.292
 6031SOL     OW18991   2.505   5.793   4.307
 6031SOL    HW118992   2.569   5.860   4.269
 6031SOL    HW218993   2.556   5.720   4.352
 6032SOL     OW18994   2.363   5.070   2.480
 6032SOL    HW118995   2.423   5.150   2.482
 6032SOL    HW218996   2.326   5.054   2.572
 6033SOL     OW18997   2.028   3.151   2.589
 6033SOL    HW118998   2.088   3.130   2.512
 6033SOL    HW218999   2.003   3.067   2.637
 6034SOL     OW19000   1.079   0.858   6.020
 6034SOL    HW119001   1.015   0.927   6.053
 6034SOL    HW219002   1.077   0.779   6.082
 6035SOL     OW19003   1.459   0.857   2.143
 6035SOL    HW119004   1.548   0.902   2.153
 6035SOL    HW219005   1.396   0.920   2.098
 6036SOL     OW19006   5.562   4.583   1.777
 6036SOL    HW119007   5.539   4.664   1.723
 6036SOL    HW219008   5.658   4.559   1.762
 6037SOL     OW19009   4.032   7.012   0.497
 6037SOL    HW119010   4.059   6.962   0.579
 6037SOL    HW219011   4.027   6.949   0.419
 6038SOL     OW19012   1.080   2.431   6.712
 6038SOL    HW119013   1.069   2.371   6.633
 6038SOL    HW219014   1.159   2.491   6.698
 6039SOL     OW19015   3.543   2.846   3.401
 6039SOL    HW119016   3.572   2.844   3.497
 6039SOL    HW219017   3.462   2.903   3.392
 6040SOL     OW19018   1.800   1.306   0.591
 6040SOL    HW119019   1.813   1.379   0.525
 6040SOL    HW219020   1.882   1.295   0.646
 6041SOL     OW19021   2.938   2.114   5.012
 6041SOL    HW119022   2.867   2.177   4.980
 6041SOL    HW219023   3.018   2.166   5.042
 6042SOL     OW19024   3.765   6.589   2.749
 6042SOL    HW119025   3.751   6.572   2.652
 6042SOL    HW219026   3.818   6.513   2.788
 6043SOL     OW19027   0.707   0.380   4.885
 6043SOL    HW119028   0.660   0.342   4.964
 6043SOL    HW219029   0.721   0.309   4.817
 6044SOL     OW19030   2.800   2.372   1.700
 6044SOL    HW119031   2.861   2.372   1.778
 6044SOL    HW219032   2.785   2.466   1.669
 6045SOL     OW19033   5.668   3.297   3.738
 6045SOL    HW119034   5.619   3.340   3.813
 6045SOL    HW219035   5.752   3.348   3.718
 6046SOL     OW19036   3.829   2.787   0.938
 6046SOL    HW119037   3.797   2.862   0.881
 6046SOL    HW219038   3.904   2.739   0.891
 6047SOL     OW19039   5.064   2.414   1.646
 6047SOL    HW119040   5.056   2.444   1.550
 6047SOL    HW219041   5.123   2.478   1.695
 6048SOL     OW19042   4.969   5.170   5.019
 6048SOL    HW119043   5.036   5.097   5.008
 6048SOL    HW219044   4.919   5.157   5.104
 6049SOL     OW19045   4.569   4.398   6.559
 6049SOL    HW119046   4.637   4.349   6.504
 6049SOL    HW219047   4.571   4.495   6.535
 6050SOL     OW19048   1.948   5.033   0.238
 6050SOL    HW119049   2.028   5.018   0.180
 6050SOL    HW219050   1.871   5.061   0.180
 6051SOL     OW19051   1.974   6.378   2.738
 6051SOL    HW119052   2.067   6.414   2.731
 6051SOL    HW219053   1.973   6.301   2.802
 6052SOL     OW19054   4.878   1.622   1.761
 6052SOL    HW119055   4.971   1.645   1.787
 6052SOL    HW219056   4.820   1.619   1.842
 6053SOL     OW19057   4.025   0.556   5.682
 6053SOL    HW119058   4.104   0.539   5.741
 6053SOL    HW219059   4.036   0.645   5.637
 6054SOL     OW19060   2.738   4.084   0.734
 6054SOL    HW119061   2.752   4.007   0.672
 6054SOL    HW219062   2.820   4.142   0.733
 6055SOL     OW19063   4.022   5.512   5.525
 6055SOL    HW119064   4.100   5.459   5.492
 6055SOL    HW219065   4.043   5.549   5.615
 6056SOL     OW19066   4.833   3.299   5.146
 6056SOL    HW119067   4.783   3.386   5.146
 6056SOL    HW219068   4.853   3.273   5.051
 6057SOL     OW19069   6.233   0.450   2.641
 6057SOL    HW119070   6.162   0.380   2.633
 6057SOL    HW219071   6.322   0.406   2.653
 6058SOL     OW19072   5.014   4.088   0.488
 6058SOL    HW119073   4.979   4.042   0.406
 6058SOL    HW219074   5.031   4.021   0.559
 6059SOL     OW19075   4.813   4.400   6.086
 6059SOL    HW119076   4.814   4.407   6.186
 6059SOL    HW219077   4.733   4.349   6.056
 6060SOL     OW19078   2.288   3.662   6.663
 6060SOL    HW119079   2.309   3.736   6.727
 6060SOL    HW219080   2.192   3.667   6.637
 6061SOL     OW19081   4.545   4.088   0.249
 6061SOL    HW119082   4.497   4.174   0.268
 6061SOL    HW219083   4.622   4.105   0.187
 6062SOL     OW19084   2.603   1.824   6.432
 6062SOL    HW119085   2.552   1.783   6.356
 6062SOL    HW219086   2.545   1.890   6.479
 6063SOL     OW19087   3.945   2.735   5.606
 6063SOL    HW119088   3.969   2.823   5.647
 6063SOL    HW219089   3.874   2.691   5.661
 6064SOL     OW19090   1.433   1.195   0.781
 6064SOL    HW119091   1.498   1.271   0.777
 6064SOL    HW219092   1.477   1.112   0.747
 6065SOL     OW19093   0.864   5.931   2.046
 6065SOL    HW119094   0.767   5.910   2.044
 6065SOL    HW219095   0.882   6.013   1.991
 6066SOL     OW19096   5.715   1.347   5.816
 6066SOL    HW119097   5.675   1.351   5.907
 6066SOL    HW219098   5.646   1.317   5.750
 6067SOL     OW19099   4.873   0.744   5.397
 6067SOL    HW119100   4.847   0.740   5.494
 6067SOL    HW219101   4.804   0.697   5.342
 6068SOL     OW19102   4.995   2.776   4.481
 6068SOL    HW119103   5.047   2.731   4.553
 6068SOL    HW219104   4.909   2.810   4.519
 6069SOL     OW19105   6.547   3.446   4.958
 6069SOL    HW119106   6.490   3.528   4.958
 6069SOL    HW219107   6.632   3.464   5.006
 6070SOL     OW19108   2.771   2.839   1.405
 6070SOL    HW119109   2.758   2.756   1.351
 6070SOL    HW219110   2.731   2.917   1.357
 6071SOL     OW19111   0.888   6.346   4.695
 6071SOL    HW119112   0.897   6.424   4.758
 6071SOL    HW219113   0.792   6.325   4.682
 6072SOL     OW19114   0.346   0.742   1.436
 6072SOL    HW119115   0.404   0.661   1.451
 6072SOL    HW219116   0.250   0.715   1.440
 6073SOL     OW19117   4.986   3.394   0.690
 6073SOL    HW119118   5.054   3.442   0.634
 6073SOL    HW219119   4.939   3.326   0.633
 6074SOL     OW19120   1.967   6.163   2.060
 6074SOL    HW119121   1.877   6.120   2.050
 6074SOL    HW219122   2.001   6.189   1.969
 6075SOL     OW19123   4.681   0.099   5.231
 6075SOL    HW119124   4.715   0.035   5.300
 6075SOL    HW219125   4.679   0.054   5.142
 6076SOL     OW19126   2.972   5.176   3.010
 6076SOL    HW119127   2.926   5.173   3.099
 6076SOL    HW219128   3.025   5.260   3.002
 6077SOL     OW19129   6.357   5.313   0.952
 6077SOL    HW119130   6.362   5.273   1.044
 6077SOL    HW219131   6.354   5.239   0.884
 6078SOL     OW19132   4.883   5.151   0.102
 6078SOL    HW119133   4.913   5.058   0.083
 6078SOL    HW219134   4.963   5.210   0.112
 6079SOL     OW19135   4.910   4.297   6.683
 6079SOL    HW119136   4.826   4.289   6.629
 6079SOL    HW219137   4.925   4.213   6.734
 6080SOL     OW19138   0.209   5.712   0.612
 6080SOL    HW119139   0.177   5.804   0.637
 6080SOL    HW219140   0.303   5.717   0.578
 6081SOL     OW19141   0.062   2.469   5.714
 6081SOL    HW119142   0.130   2.487   5.784
 6081SOL    HW219143   0.042   2.371   5.711
 6082SOL     OW19144   3.109   6.825   2.581
 6082SOL    HW119145   3.066   6.915   2.587
 6082SOL    HW219146   3.155   6.816   2.492
 6083SOL     OW19147   5.869   6.031   0.876
 6083SOL    HW119148   5.907   6.034   0.784
 6083SOL    HW219149   5.779   5.988   0.873
 6084SOL     OW19150   0.818   6.734   2.201
 6084SOL    HW119151   0.813   6.785   2.115
 6084SOL    HW219152   0.864   6.790   2.270
 6085SOL     OW19153   6.955   6.167   6.848
 6085SOL    HW119154   7.017   6.130   6.918
 6085SOL    HW219155   7.008   6.201   6.771
 6086SOL     OW19156   2.367   2.183   5.969
 6086SOL    HW119157   2.442   2.218   6.025
 6086SOL    HW219158   2.398   2.171   5.875
 6087SOL     OW19159   3.497   5.883   1.453
 6087SOL    HW119160   3.484   5.828   1.371
 6087SOL    HW219161   3.567   5.952   1.436
 6088SOL     OW19162   5.960   0.064   4.238
 6088SOL    HW119163   5.971   0.137   4.306
 6088SOL    HW219164   5.978   6.996   4.280
 6089SOL     OW19165   6.064   2.580   3.043
 6089SOL    HW119166   5.981   2.588   3.099
 6089SOL    HW219167   6.043   2.528   2.960
 6090SOL     OW19168   2.198   5.036   4.773
 6090SOL    HW119169   2.197   5.000   4.680
 6090SOL    HW219170   2.116   5.006   4.822
 6091SOL     OW19171   2.313   1.471   6.853
 6091SOL    HW119172   2.380   1.505   6.788
 6091SOL    HW219173   2.345   1.489   6.946
 6092SOL     OW19174   4.375   1.067   2.280
 6092SOL    HW119175   4.325   0.981   2.290
 6092SOL    HW219176   4.364   1.101   2.187
 6093SOL     OW19177   2.379   2.556   1.634
 6093SOL    HW119178   2.333   2.474   1.599
 6093SOL    HW219179   2.326   2.637   1.608
 6094SOL     OW19180   1.527   5.785   3.287
 6094SOL    HW119181   1.542   5.838   3.370
 6094SOL    HW219182   1.550   5.841   3.207
 6095SOL     OW19183   4.528   4.959   6.919
 6095SOL    HW119184   4.552   5.006   6.834
 6095SOL    HW219185   4.543   5.021   6.997
 6096SOL     OW19186   6.291   6.981   2.148
 6096SOL    HW119187   6.206   6.938   2.118
 6096SOL    HW219188   6.359   6.973   2.076
 6097SOL     OW19189   2.350   5.712   2.580
 6097SOL    HW119190   2.298   5.648   2.523
 6097SOL    HW219191   2.377   5.790   2.524
 6098SOL     OW19192   0.117   1.585   5.753
 6098SOL    HW119193   0.110   1.589   5.653
 6098SOL    HW219194   0.061   1.510   5.788
 6099SOL     OW19195   5.035   6.017   5.404
 6099SOL    HW119196   4.993   6.105   5.424
 6099SOL    HW219197   5.090   6.025   5.321
 6100SOL     OW19198   5.756   6.213   1.916
 6100SOL    HW119199   5.793   6.155   1.845
 6100SOL    HW219200   5.663   6.242   1.892
 6101SOL     OW19201   6.917   2.997   3.126
 6101SOL    HW119202   6.923   3.080   3.071
 6101SOL    HW219203   6.979   2.928   3.089
 6102SOL     OW19204   4.299   5.812   2.894
 6102SOL    HW119205   4.358   5.877   2.847
 6102SOL    HW219206   4.262   5.853   2.977
 6103SOL     OW19207   5.944   1.024   1.399
 6103SOL    HW119208   5.920   1.097   1.462
 6103SOL    HW219209   6.012   0.965   1.441
 6104SOL     OW19210   5.761   6.909   5.157
 6104SOL    HW119211   5.717   6.984   5.207
 6104SOL    HW219212   5.857   6.934   5.140
 6105SOL     OW19213   1.998   5.485   5.946
 6105SOL    HW119214   1.994   5.422   5.869
 6105SOL    HW219215   1.959   5.442   6.027
 6106SOL     OW19216   1.495   5.001   6.128
 6106SOL    HW119217   1.535   4.963   6.211
 6106SOL    HW219218   1.560   4.994   6.053
 6107SOL     OW19219   4.877   5.669   5.318
 6107SOL    HW119220   4.866   5.577   5.355
 6107SOL    HW219221   4.852   5.736   5.388
 6108SOL     OW19222   2.366   2.673   3.467
 6108SOL    HW119223   2.372   2.762   3.513
 6108SOL    HW219224   2.342   2.686   3.371
 6109SOL     OW19225   5.769   1.356   5.346
 6109SOL    HW119226   5.802   1.451   5.353
 6109SOL    HW219227   5.670   1.356   5.332
 6110SOL     OW19228   2.459   3.102   1.087
 6110SOL    HW119229   2.362   3.083   1.075
 6110SOL    HW219230   2.481   3.191   1.047
 6111SOL     OW19231   1.549   3.237   2.238
 6111SOL    HW119232   1.611   3.275   2.307
 6111SOL    HW219233   1.484   3.175   2.283
 6112SOL     OW19234   3.852   0.629   2.564
 6112SOL    HW119235   3.789   0.700   2.596
 6112SOL    HW219236   3.875   0.646   2.468
 6113SOL     OW19237   2.567   2.376   6.439
 6113SOL    HW119238   2.517   2.447   6.389
 6113SOL    HW219239   2.567   2.397   6.537
 6114SOL     OW19240   4.746   4.281   2.808
 6114SOL    HW119241   4.803   4.209   2.846
 6114SOL    HW219242   4.774   4.300   2.714
 6115SOL     OW19243   6.264   0.641   4.377
 6115SOL    HW119244   6.327   0.613   4.450
 6115SOL    HW219245   6.316   0.681   4.302
 6116SOL     OW19246   3.649   1.287   6.129
 6116SOL    HW119247   3.604   1.356   6.187
 6116SOL    HW219248   3.668   1.205   6.183
 6117SOL     OW19249   2.322   1.780   3.583
 6117SOL    HW119250   2.365   1.839   3.516
 6117SOL    HW219251   2.223   1.797   3.585
 6118SOL     OW19252   5.643   1.273   1.250
 6118SOL    HW119253   5.737   1.307   1.252
 6118SOL    HW219254   5.585   1.339   1.202
 6119SOL     OW19255   0.940   3.840   0.325
 6119SOL    HW119256   0.905   3.907   0.391
 6119SOL    HW219257   1.040   3.845   0.323
 6120SOL     OW19258   2.148   6.695   5.499
 6120SOL    HW119259   2.193   6.609   5.477
 6120SOL    HW219260   2.110   6.690   5.592
 6121SOL     OW19261   1.552   3.342   5.175
 6121SOL    HW119262   1.463   3.298   5.162
 6121SOL    HW219263   1.545   3.439   5.151
 6122SOL     OW19264   4.265   5.546   6.723
 6122SOL    HW119265   4.334   5.618   6.724
 6122SOL    HW219266   4.174   5.588   6.724
 6123SOL     OW19267   5.123   6.605   6.020
 6123SOL    HW119268   5.209   6.603   6.071
 6123SOL    HW219269   5.069   6.684   6.049
 6124SOL     OW19270   1.062   0.049   6.264
 6124SOL    HW119271   1.120   7.013   6.204
 6124SOL    HW219272   1.081   0.026   6.359
 6125SOL     OW19273   2.332   4.050   0.368
 6125SOL    HW119274   2.395   4.098   0.429
 6125SOL    HW219275   2.304   4.111   0.294
 6126SOL     OW19276   0.145   0.693   4.710
 6126SOL    HW119277   0.112   0.734   4.795
 6126SOL    HW219278   0.206   0.616   4.731
 6127SOL     OW19279   3.498   6.703   1.267
 6127SOL    HW119280   3.552   6.685   1.348
 6127SOL    HW219281   3.401   6.686   1.287
 6128SOL     OW19282   5.699   5.721   1.098
 6128SOL    HW119283   5.675   5.817   1.083
 6128SOL    HW219284   5.693   5.699   1.195
 6129SOL     OW19285   0.591   3.111   2.509
 6129SOL    HW119286   0.505   3.105   2.458
 6129SOL    HW219287   0.646   3.030   2.492
 6130SOL     OW19288   4.924   2.565   2.502
 6130SOL    HW119289   4.917   2.466   2.496
 6130SOL    HW219290   4.967   2.601   2.419
 6131SOL     OW19291   0.859   1.581   3.450
 6131SOL    HW119292   0.844   1.581   3.548
 6131SOL    HW219293   0.887   1.672   3.420
 6132SOL     OW19294   3.783   1.911   6.610
 6132SOL    HW119295   3.808   2.003   6.643
 6132SOL    HW219296   3.790   1.908   6.511
 6133SOL     OW19297   2.145   3.409   3.058
 6133SOL    HW119298   2.119   3.313   3.046
 6133SOL    HW219299   2.133   3.458   2.971
 6134SOL     OW19300   4.422   6.468   7.013
 6134SOL    HW119301   4.332   6.463   6.970
 6134SOL    HW219302   4.411   6.483   0.091
 6135SOL     OW19303   0.479   5.926   1.090
 6135SOL    HW119304   0.509   5.878   1.008
 6135SOL    HW219305   0.463   6.022   1.069
 6136SOL     OW19306   1.194   2.503   1.686
 6136SOL    HW119307   1.176   2.600   1.671
 6136SOL    HW219308   1.246   2.466   1.610
 6137SOL     OW19309   6.656   4.156   2.293
 6137SOL    HW119310   6.584   4.088   2.285
 6137SOL    HW219311   6.633   4.236   2.238
 6138SOL     OW19312   3.196   6.974   3.068
 6138SOL    HW119313   3.189   6.927   2.980
 6138SOL    HW219314   3.250   0.038   3.057
 6139SOL     OW19315   1.076   6.970   5.872
 6139SOL    HW119316   1.141   0.010   5.825
 6139SOL    HW219317   1.017   6.924   5.805
 6140SOL     OW19318   0.948   0.378   2.087
 6140SOL    HW119319   1.006   0.457   2.105
 6140SOL    HW219320   1.003   0.295   2.087
 6141SOL     OW19321   0.304   6.949   6.317
 6141SOL    HW119322   0.348   6.900   6.392
 6141SOL    HW219323   0.373   6.998   6.264
 6142SOL     OW19324   0.116   5.499   6.444
 6142SOL    HW119325   0.161   5.587   6.434
 6142SOL    HW219326   0.048   5.487   6.372
 6143SOL     OW19327   6.669   4.333   1.125
 6143SOL    HW119328   6.722   4.388   1.190
 6143SOL    HW219329   6.658   4.240   1.162
 6144SOL     OW19330   5.477   4.910   4.008
 6144SOL    HW119331   5.423   4.918   4.092
 6144SOL    HW219332   5.564   4.958   4.020
 6145SOL     OW19333   5.429   4.912   4.455
 6145SOL    HW119334   5.500   4.962   4.406
 6145SOL    HW219335   5.445   4.921   4.554
 6146SOL     OW19336   3.175   5.608   3.969
 6146SOL    HW119337   3.123   5.548   4.031
 6146SOL    HW219338   3.132   5.699   3.968
 6147SOL     OW19339   2.440   2.437   4.950
 6147SOL    HW119340   2.456   2.341   4.932
 6147SOL    HW219341   2.455   2.490   4.867
 6148SOL     OW19342   4.352   6.292   5.116
 6148SOL    HW119343   4.269   6.249   5.080
 6148SOL    HW219344   4.368   6.378   5.068
 6149SOL     OW19345   2.813   0.104   1.568
 6149SOL    HW119346   2.785   0.085   1.662
 6149SOL    HW219347   2.796   0.200   1.547
 6150SOL     OW19348   5.945   4.276   6.944
 6150SOL    HW119349   5.951   4.235   6.853
 6150SOL    HW219350   5.932   4.375   6.935
 6151SOL     OW19351   6.351   4.910   5.791
 6151SOL    HW119352   6.384   4.938   5.701
 6151SOL    HW219353   6.260   4.868   5.782
 6152SOL     OW19354   0.613   6.327   4.607
 6152SOL    HW119355   0.517   6.311   4.585
 6152SOL    HW219356   0.622   6.413   4.658
 6153SOL     OW19357   5.755   4.766   0.990
 6153SOL    HW119358   5.684   4.796   1.053
 6153SOL    HW219359   5.719   4.765   0.897
 6154SOL     OW19360   5.840   2.695   2.242
 6154SOL    HW119361   5.933   2.730   2.247
 6154SOL    HW219362   5.809   2.694   2.147
 6155SOL     OW19363   3.016   1.461   3.025
 6155SOL    HW119364   2.968   1.419   2.948
 6155SOL    HW219365   2.949   1.493   3.092
 6156SOL     OW19366   4.797   4.570   2.014
 6156SOL    HW119367   4.703   4.605   2.017
 6156SOL    HW219368   4.798   4.480   1.970
 6157SOL     OW19369   0.167   2.233   3.173
 6157SOL    HW119370   0.147   2.308   3.110
 6157SOL    HW219371   0.158   2.265   3.267
 6158SOL     OW19372   3.933   2.314   6.247
 6158SOL    HW119373   4.021   2.309   6.294
 6158SOL    HW219374   3.914   2.408   6.221
 6159SOL     OW19375   4.073   2.026   6.955
 6159SOL    HW119376   3.995   1.967   6.933
 6159SOL    HW219377   4.040   2.105   7.007
 6160SOL     OW19378   5.678   0.389   6.484
 6160SOL    HW119379   5.682   0.293   6.511
 6160SOL    HW219380   5.771   0.422   6.463
 6161SOL     OW19381   5.691   1.521   6.881
 6161SOL    HW119382   5.628   1.597   6.901
 6161SOL    HW219383   5.700   1.464   6.963
 6162SOL     OW19384   6.497   6.860   4.253
 6162SOL    HW119385   6.443   6.866   4.337
 6162SOL    HW219386   6.562   6.785   4.262
 6163SOL     OW19387   4.986   5.771   1.718
 6163SOL    HW119388   5.027   5.695   1.768
 6163SOL    HW219389   5.035   5.856   1.739
 6164SOL     OW19390   3.347   3.996   4.402
 6164SOL    HW119391   3.249   4.012   4.390
 6164SOL    HW219392   3.380   4.045   4.483
 6165SOL     OW19393   4.640   1.302   6.097
 6165SOL    HW119394   4.619   1.335   6.189
 6165SOL    HW219395   4.588   1.219   6.079
 6166SOL     OW19396   5.560   1.813   0.342
 6166SOL    HW119397   5.532   1.717   0.339
 6166SOL    HW219398   5.613   1.830   0.425
 6167SOL     OW19399   1.221   4.897   2.851
 6167SOL    HW119400   1.260   4.881   2.942
 6167SOL    HW219401   1.121   4.886   2.855
 6168SOL     OW19402   0.921   3.528   3.416
 6168SOL    HW119403   0.866   3.452   3.382
 6168SOL    HW219404   0.973   3.568   3.341
 6169SOL     OW19405   1.249   2.037   0.404
 6169SOL    HW119406   1.315   2.065   0.473
 6169SOL    HW219407   1.186   1.969   0.443
 6170SOL     OW19408   2.984   3.857   5.938
 6170SOL    HW119409   3.039   3.774   5.948
 6170SOL    HW219410   2.960   3.892   6.029
 6171SOL     OW19411   1.862   3.675   1.550
 6171SOL    HW119412   1.902   3.592   1.590
 6171SOL    HW219413   1.935   3.737   1.522
 6172SOL     OW19414   1.359   1.082   3.754
 6172SOL    HW119415   1.394   1.073   3.847
 6172SOL    HW219416   1.261   1.102   3.756
 6173SOL     OW19417   6.654   5.170   2.586
 6173SOL    HW119418   6.606   5.189   2.501
 6173SOL    HW219419   6.677   5.073   2.591
 6174SOL     OW19420   6.431   5.265   3.177
 6174SOL    HW119421   6.444   5.191   3.243
 6174SOL    HW219422   6.365   5.237   3.108
 6175SOL     OW19423   5.323   1.047   4.060
 6175SOL    HW119424   5.336   1.086   3.969
 6175SOL    HW219425   5.307   0.949   4.053
 6176SOL     OW19426   6.494   3.005   0.217
 6176SOL    HW119427   6.575   3.057   0.189
 6176SOL    HW219428   6.421   3.068   0.244
 6177SOL     OW19429   5.600   1.796   1.717
 6177SOL    HW119430   5.624   1.854   1.795
 6177SOL    HW219431   5.618   1.700   1.741
 6178SOL     OW19432   4.677   5.196   2.927
 6178SOL    HW119433   4.759   5.227   2.974
 6178SOL    HW219434   4.703   5.141   2.847
 6179SOL     OW19435   6.348   4.464   4.509
 6179SOL    HW119436   6.436   4.502   4.482
 6179SOL    HW219437   6.283   4.537   4.528
 6180SOL     OW19438   3.209   6.270   6.633
 6180SOL    HW119439   3.242   6.264   6.727
 6180SOL    HW219440   3.287   6.271   6.570
 6181SOL     OW19441   4.143   6.785   1.236
 6181SOL    HW119442   4.204   6.777   1.157
 6181SOL    HW219443   4.067   6.721   1.227
 6182SOL     OW19444   5.706   3.400   5.991
 6182SOL    HW119445   5.748   3.403   6.082
 6182SOL    HW219446   5.743   3.323   5.940
 6183SOL     OW19447   2.084   0.181   2.897
 6183SOL    HW119448   2.130   0.092   2.896
 6183SOL    HW219449   2.108   0.229   2.982
 6184SOL     OW19450   1.303   7.019   6.897
 6184SOL    HW119451   1.339   6.955   6.964
 6184SOL    HW219452   1.347   0.088   6.909
 6185SOL     OW19453   0.191   4.504   6.362
 6185SOL    HW119454   0.238   4.417   6.375
 6185SOL    HW219455   0.106   4.489   6.311
 6186SOL     OW19456   6.056   6.504   5.398
 6186SOL    HW119457   6.084   6.559   5.319
 6186SOL    HW219458   6.115   6.423   5.405
 6187SOL     OW19459   4.295   4.705   4.162
 6187SOL    HW119460   4.364   4.685   4.093
 6187SOL    HW219461   4.315   4.654   4.246
 6188SOL     OW19462   2.435   0.297   0.740
 6188SOL    HW119463   2.354   0.349   0.712
 6188SOL    HW219464   2.503   0.360   0.777
 6189SOL     OW19465   4.825   4.213   4.157
 6189SOL    HW119466   4.891   4.138   4.162
 6189SOL    HW219467   4.871   4.299   4.177
 6190SOL     OW19468   6.325   3.905   6.001
 6190SOL    HW119469   6.237   3.925   6.044
 6190SOL    HW219470   6.360   3.818   6.035
 6191SOL     OW19471   4.131   2.984   6.510
 6191SOL    HW119472   4.189   2.902   6.506
 6191SOL    HW219473   4.066   2.976   6.586
 6192SOL     OW19474   2.614   3.260   6.493
 6192SOL    HW119475   2.598   3.267   6.394
 6192SOL    HW219476   2.708   3.285   6.513
 6193SOL     OW19477   5.275   0.759   2.676
 6193SOL    HW119478   5.300   0.856   2.687
 6193SOL    HW219479   5.356   0.707   2.650
 6194SOL     OW19480   1.058   0.344   0.721
 6194SOL    HW119481   1.061   0.351   0.821
 6194SOL    HW219482   0.973   0.384   0.687
 6195SOL     OW19483   3.784   6.339   5.451
 6195SOL    HW119484   3.729   6.257   5.439
 6195SOL    HW219485   3.786   6.364   5.547
 6196SOL     OW19486   5.776   2.030   1.351
 6196SOL    HW119487   5.774   1.960   1.280
 6196SOL    HW219488   5.747   2.118   1.313
 6197SOL     OW19489   4.080   4.815   0.452
 6197SOL    HW119490   3.988   4.776   0.441
 6197SOL    HW219491   4.127   4.767   0.526
 6198SOL     OW19492   3.162   5.580   2.187
 6198SOL    HW119493   3.252   5.562   2.226
 6198SOL    HW219494   3.141   5.677   2.196
 6199SOL     OW19495   1.169   0.470   0.973
 6199SOL    HW119496   1.166   0.500   1.068
 6199SOL    HW219497   1.245   0.513   0.926
 6200SOL     OW19498   2.146   1.053   5.103
 6200SOL    HW119499   2.125   0.956   5.095
 6200SOL    HW219500   2.243   1.065   5.125
 6201SOL     OW19501   1.640   4.066   5.060
 6201SOL    HW119502   1.713   4.130   5.084
 6201SOL    HW219503   1.660   4.023   4.972
 6202SOL     OW19504   3.963   1.495   1.834
 6202SOL    HW119505   4.054   1.454   1.836
 6202SOL    HW219506   3.945   1.541   1.921
 6203SOL     OW19507   6.108   6.540   3.076
 6203SOL    HW119508   6.057   6.472   3.023
 6203SOL    HW219509   6.129   6.619   3.017
 6204SOL     OW19510   0.982   5.221   4.716
 6204SOL    HW119511   1.019   5.150   4.657
 6204SOL    HW219512   1.035   5.224   4.801
 6205SOL     OW19513   6.444   6.416   0.239
 6205SOL    HW119514   6.398   6.504   0.248
 6205SOL    HW219515   6.471   6.384   0.330
 6206SOL     OW19516   0.357   0.556   2.670
 6206SOL    HW119517   0.384   0.461   2.686
 6206SOL    HW219518   0.257   0.561   2.664
 6207SOL     OW19519   1.684   4.905   3.963
 6207SOL    HW119520   1.777   4.922   3.996
 6207SOL    HW219521   1.623   4.893   4.041
 6208SOL     OW19522   6.241   1.648   6.402
 6208SOL    HW119523   6.310   1.714   6.430
 6208SOL    HW219524   6.151   1.691   6.403
 6209SOL     OW19525   4.352   5.660   0.033
 6209SOL    HW119526   4.310   5.701   0.114
 6209SOL    HW219527   4.362   5.729   6.982
 6210SOL     OW19528   5.764   4.194   3.947
 6210SOL    HW119529   5.847   4.139   3.947
 6210SOL    HW219530   5.728   4.202   3.854
 6211SOL     OW19531   2.863   6.251   5.378
 6211SOL    HW119532   2.939   6.272   5.316
 6211SOL    HW219533   2.893   6.184   5.447
 6212SOL     OW19534   2.250   4.992   2.770
 6212SOL    HW119535   2.161   4.946   2.763
 6212SOL    HW219536   2.304   4.948   2.842
 6213SOL     OW19537   5.311   0.434   0.077
 6213SOL    HW119538   5.215   0.419   0.101
 6213SOL    HW219539   5.318   0.464   7.002
 6214SOL     OW19540   4.564   4.871   4.060
 6214SOL    HW119541   4.615   4.785   4.067
 6214SOL    HW219542   4.600   4.925   3.984
 6215SOL     OW19543   4.319   1.907   0.731
 6215SOL    HW119544   4.349   1.926   0.637
 6215SOL    HW219545   4.254   1.831   0.730
 6216SOL     OW19546   6.083   2.048   2.338
 6216SOL    HW119547   6.102   1.951   2.326
 6216SOL    HW219548   6.111   2.098   2.256
 6217SOL     OW19549   0.523   2.862   2.740
 6217SOL    HW119550   0.551   2.957   2.722
 6217SOL    HW219551   0.570   2.829   2.822
 6218SOL     OW19552   3.578   4.927   5.670
 6218SOL    HW119553   3.525   4.932   5.585
 6218SOL    HW219554   3.616   5.017   5.691
 6219SOL     OW19555   1.026   2.239   4.500
 6219SOL    HW119556   0.947   2.188   4.533
 6219SOL    HW219557   1.032   2.327   4.548
 6220SOL     OW19558   1.802   2.759   5.217
 6220SOL    HW119559   1.757   2.780   5.130
 6220SOL    HW219560   1.737   2.717   5.279
 6221SOL     OW19561   6.311   5.754   6.964
 6221SOL    HW119562   6.386   5.742   6.899
 6221SOL    HW219563   6.232   5.700   6.934
 6222SOL     OW19564   0.803   6.043   1.038
 6222SOL    HW119565   0.800   5.948   1.070
 6222SOL    HW219566   0.879   6.091   1.083
 6223SOL     OW19567   0.677   4.499   4.343
 6223SOL    HW119568   0.689   4.547   4.431
 6223SOL    HW219569   0.609   4.427   4.354
 6224SOL     OW19570   2.552   1.889   6.147
 6224SOL    HW119571   2.597   1.959   6.203
 6224SOL    HW219572   2.459   1.874   6.180
 6225SOL     OW19573   3.329   3.736   0.953
 6225SOL    HW119574   3.424   3.715   0.929
 6225SOL    HW219575   3.285   3.782   0.876
 6226SOL     OW19576   5.890   1.623   5.102
 6226SOL    HW119577   5.829   1.604   5.179
 6226SOL    HW219578   5.847   1.690   5.041
 6227SOL     OW19579   3.795   5.391   5.857
 6227SOL    HW119580   3.812   5.298   5.888
 6227SOL    HW219581   3.791   5.393   5.757
 6228SOL     OW19582   1.693   2.510   2.996
 6228SOL    HW119583   1.683   2.609   3.002
 6228SOL    HW219584   1.727   2.476   3.084
 6229SOL     OW19585   0.413   2.469   2.556
 6229SOL    HW119586   0.505   2.430   2.553
 6229SOL    HW219587   0.347   2.396   2.578
 6230SOL     OW19588   1.321   1.458   3.821
 6230SOL    HW119589   1.395   1.502   3.870
 6230SOL    HW219590   1.358   1.405   3.744
 6231SOL     OW19591   6.350   5.134   1.175
 6231SOL    HW119592   6.356   5.050   1.121
 6231SOL    HW219593   6.377   5.115   1.269
 6232SOL     OW19594   6.904   1.389   0.802
 6232SOL    HW119595   6.840   1.412   0.729
 6232SOL    HW219596   6.997   1.380   0.765
 6233SOL     OW19597   6.009   0.778   0.426
 6233SOL    HW119598   6.034   0.692   0.471
 6233SOL    HW219599   5.935   0.761   0.360
 6234SOL     OW19600   6.212   1.676   5.564
 6234SOL    HW119601   6.281   1.606   5.580
 6234SOL    HW219602   6.141   1.670   5.634
 6235SOL     OW19603   1.330   0.673   1.487
 6235SOL    HW119604   1.398   0.631   1.428
 6235SOL    HW219605   1.351   0.653   1.583
 6236SOL     OW19606   0.064   3.610   0.433
 6236SOL    HW119607   0.063   3.679   0.360
 6236SOL    HW219608   7.003   3.620   0.490
 6237SOL     OW19609   3.263   6.248   6.928
 6237SOL    HW119610   3.316   6.280   7.007
 6237SOL    HW219611   3.166   6.249   6.951
 6238SOL     OW19612   4.095   4.904   3.029
 6238SOL    HW119613   4.160   4.828   3.023
 6238SOL    HW219614   4.121   4.976   2.965
 6239SOL     OW19615   3.482   6.045   1.772
 6239SOL    HW119616   3.549   6.044   1.845
 6239SOL    HW219617   3.439   5.955   1.763
 6240SOL     OW19618   2.648   2.988   6.447
 6240SOL    HW119619   2.592   3.005   6.366
 6240SOL    HW219620   2.678   3.075   6.485
 6241SOL     OW19621   3.561   0.205   1.896
 6241SOL    HW119622   3.474   0.165   1.867
 6241SOL    HW219623   3.626   0.203   1.821
 6242SOL     OW19624   5.417   1.525   3.514
 6242SOL    HW119625   5.394   1.621   3.530
 6242SOL    HW219626   5.368   1.492   3.433
 6243SOL     OW19627   6.551   0.235   3.905
 6243SOL    HW119628   6.647   0.205   3.902
 6243SOL    HW219629   6.501   0.179   3.971
 6244SOL     OW19630   1.020   2.420   2.553
 6244SOL    HW119631   1.042   2.328   2.583
 6244SOL    HW219632   1.024   2.483   2.630
 6245SOL     OW19633   1.822   3.882   0.148
 6245SOL    HW119634   1.750   3.858   0.082
 6245SOL    HW219635   1.834   3.981   0.149
 6246SOL     OW19636   1.824   2.613   5.704
 6246SOL    HW119637   1.772   2.616   5.789
 6246SOL    HW219638   1.786   2.679   5.639
 6247SOL     OW19639   1.516   6.264   4.554
 6247SOL    HW119640   1.470   6.283   4.468
 6247SOL    HW219641   1.576   6.185   4.542
 6248SOL     OW19642   3.368   3.775   0.431
 6248SOL    HW119643   3.361   3.688   0.479
 6248SOL    HW219644   3.464   3.794   0.410
 6249SOL     OW19645   0.410   4.091   0.740
 6249SOL    HW119646   0.460   4.048   0.664
 6249SOL    HW219647   0.318   4.053   0.744
 6250SOL     OW19648   0.029   5.942   0.659
 6250SOL    HW119649   0.000   5.960   0.565
 6250SOL    HW219650   0.058   6.028   0.702
 6251SOL     OW19651   3.607   5.522   6.783
 6251SOL    HW119652   3.702   5.520   6.815
 6251SOL    HW219653   3.597   5.462   6.704
 6252SOL     OW19654   1.223   6.944   6.082
 6252SOL    HW119655   1.170   6.931   5.999
 6252SOL    HW219656   1.279   0.006   6.073
 6253SOL     OW19657   2.320   4.277   3.101
 6253SOL    HW119658   2.364   4.348   3.156
 6253SOL    HW219659   2.358   4.277   3.009
 6254SOL     OW19660   4.878   1.464   0.435
 6254SOL    HW119661   4.838   1.409   0.361
 6254SOL    HW219662   4.976   1.474   0.420
 6255SOL     OW19663   2.782   0.444   1.060
 6255SOL    HW119664   2.874   0.405   1.065
 6255SOL    HW219665   2.784   0.525   1.001
 6256SOL     OW19666   3.172   5.074   2.627
 6256SOL    HW119667   3.105   5.079   2.553
 6256SOL    HW219668   3.155   4.993   2.683
 6257SOL     OW19669   4.712   2.168   0.425
 6257SOL    HW119670   4.639   2.207   0.368
 6257SOL    HW219671   4.681   2.163   0.520
 6258SOL     OW19672   4.094   6.947   3.616
 6258SOL    HW119673   4.088   0.025   3.597
 6258SOL    HW219674   4.175   6.910   3.572
 6259SOL     OW19675   2.451   2.507   0.867
 6259SOL    HW119676   2.429   2.418   0.826
 6259SOL    HW219677   2.544   2.532   0.844
 6260SOL     OW19678   3.536   5.777   0.441
 6260SOL    HW119679   3.611   5.717   0.415
 6260SOL    HW219680   3.463   5.723   0.483
 6261SOL     OW19681   4.048   0.269   6.059
 6261SOL    HW119682   4.122   0.280   5.993
 6261SOL    HW219683   4.007   0.178   6.048
 6262SOL     OW19684   1.858   5.631   0.718
 6262SOL    HW119685   1.822   5.723   0.736
 6262SOL    HW219686   1.951   5.624   0.754
 6263SOL     OW19687   6.457   0.257   5.527
 6263SOL    HW119688   6.383   0.196   5.553
 6263SOL    HW219689   6.458   0.336   5.588
 6264SOL     OW19690   1.242   6.353   1.832
 6264SOL    HW119691   1.149   6.345   1.866
 6264SOL    HW219692   1.306   6.315   1.899
 6265SOL     OW19693   3.191   3.894   0.768
 6265SOL    HW119694   3.114   3.836   0.795
 6265SOL    HW219695   3.187   3.912   0.670
 6266SOL     OW19696   4.094   0.003   4.580
 6266SOL    HW119697   4.078   0.079   4.643
 6266SOL    HW219698   4.192   7.001   4.579
 6267SOL     OW19699   2.515   0.955   6.762
 6267SOL    HW119700   2.573   1.028   6.798
 6267SOL    HW219701   2.419   0.981   6.771
 6268SOL     OW19702   3.596   6.739   3.498
 6268SOL    HW119703   3.615   6.837   3.508
 6268SOL    HW219704   3.594   6.696   3.589
 6269SOL     OW19705   6.463   5.912   1.922
 6269SOL    HW119706   6.410   5.974   1.863
 6269SOL    HW219707   6.413   5.826   1.932
 6270SOL     OW19708   1.725   0.572   4.605
 6270SOL    HW119709   1.807   0.627   4.618
 6270SOL    HW219710   1.669   0.574   4.688
 6271SOL     OW19711   6.140   2.203   6.489
 6271SOL    HW119712   6.075   2.127   6.495
 6271SOL    HW219713   6.178   2.208   6.396
 6272SOL     OW19714   0.359   2.049   0.130
 6272SOL    HW119715   0.425   2.051   0.056
 6272SOL    HW219716   0.346   2.142   0.165
 6273SOL     OW19717   1.657   6.132   2.862
 6273SOL    HW119718   1.751   6.104   2.843
 6273SOL    HW219719   1.648   6.231   2.847
 6274SOL     OW19720   2.557   5.762   5.964
 6274SOL    HW119721   2.513   5.718   6.043
 6274SOL    HW219722   2.494   5.828   5.923
 6275SOL     OW19723   2.164   6.215   5.498
 6275SOL    HW119724   2.194   6.153   5.426
 6275SOL    HW219725   2.076   6.256   5.472
 6276SOL     OW19726   2.108   4.695   3.225
 6276SOL    HW119727   2.070   4.602   3.223
 6276SOL    HW219728   2.208   4.689   3.228
 6277SOL     OW19729   5.562   3.524   1.675
 6277SOL    HW119730   5.514   3.437   1.671
 6277SOL    HW219731   5.653   3.510   1.715
 6278SOL     OW19732   5.138   6.730   4.530
 6278SOL    HW119733   5.079   6.762   4.604
 6278SOL    HW219734   5.102   6.644   4.493
 6279SOL     OW19735   3.943   6.998   6.596
 6279SOL    HW119736   3.898   6.911   6.574
 6279SOL    HW219737   3.997   6.987   6.680
 6280SOL     OW19738   0.871   1.888   5.071
 6280SOL    HW119739   0.883   1.807   5.014
 6280SOL    HW219740   0.929   1.962   5.036
 6281SOL     OW19741   1.340   5.086   3.359
 6281SOL    HW119742   1.251   5.131   3.365
 6281SOL    HW219743   1.350   5.019   3.433
 6282SOL     OW19744   1.261   6.822   4.895
 6282SOL    HW119745   1.201   6.822   4.975
 6282SOL    HW219746   1.220   6.877   4.822
 6283SOL     OW19747   0.124   2.815   5.942
 6283SOL    HW119748   0.025   2.808   5.951
 6283SOL    HW219749   0.146   2.866   5.858
 6284SOL     OW19750   1.695   5.611   4.933
 6284SOL    HW119751   1.640   5.670   4.992
 6284SOL    HW219752   1.723   5.530   4.983
 6285SOL     OW19753   0.624   3.482   4.403
 6285SOL    HW119754   0.621   3.578   4.430
 6285SOL    HW219755   0.610   3.474   4.304
 6286SOL     OW19756   6.301   1.925   3.421
 6286SOL    HW119757   6.355   1.842   3.436
 6286SOL    HW219758   6.212   1.901   3.383
 6287SOL     OW19759   3.539   5.346   4.009
 6287SOL    HW119760   3.561   5.249   4.020
 6287SOL    HW219761   3.623   5.399   4.001
 6288SOL     OW19762   5.337   4.812   2.626
 6288SOL    HW119763   5.321   4.718   2.656
 6288SOL    HW219764   5.319   4.820   2.528
 6289SOL     OW19765   1.539   4.694   1.754
 6289SOL    HW119766   1.560   4.773   1.697
 6289SOL    HW219767   1.500   4.724   1.840
 6290SOL     OW19768   6.486   4.139   4.249
 6290SOL    HW119769   6.562   4.114   4.309
 6290SOL    HW219770   6.502   4.102   4.157
 6291SOL     OW19771   3.573   2.899   4.954
 6291SOL    HW119772   3.564   2.957   4.873
 6291SOL    HW219773   3.584   2.804   4.926
 6292SOL     OW19774   1.765   2.371   4.000
 6292SOL    HW119775   1.826   2.320   4.061
 6292SOL    HW219776   1.732   2.309   3.928
 6293SOL     OW19777   4.132   0.591   0.221
 6293SOL    HW119778   4.076   0.608   0.140
 6293SOL    HW219779   4.169   0.678   0.254
 6294SOL     OW19780   3.948   4.974   4.644
 6294SOL    HW119781   3.985   4.914   4.714
 6294SOL    HW219782   3.962   4.934   4.554
 6295SOL     OW19783   5.744   5.093   5.761
 6295SOL    HW119784   5.664   5.064   5.813
 6295SOL    HW219785   5.761   5.191   5.777
 6296SOL     OW19786   0.209   6.747   6.152
 6296SOL    HW119787   0.121   6.721   6.193
 6296SOL    HW219788   0.224   6.845   6.165
 6297SOL     OW19789   4.968   6.540   4.396
 6297SOL    HW119790   4.998   6.451   4.430
 6297SOL    HW219791   4.937   6.532   4.301
 6298SOL     OW19792   1.711   2.727   6.585
 6298SOL    HW119793   1.636   2.785   6.617
 6298SOL    HW219794   1.747   2.764   6.498
 6299SOL     OW19795   5.216   1.649   7.009
 6299SOL    HW119796   5.211   1.550   6.995
 6299SOL    HW219797   5.189   1.671   0.082
 6300SOL     OW19798   5.865   0.287   0.280
 6300SOL    HW119799   5.795   0.355   0.300
 6300SOL    HW219800   5.941   0.330   0.232
 6301SOL     OW19801   3.838   0.885   0.378
 6301SOL    HW119802   3.844   0.793   0.417
 6301SOL    HW219803   3.761   0.933   0.420
 6302SOL     OW19804   1.643   7.009   3.743
 6302SOL    HW119805   1.627   0.079   3.704
 6302SOL    HW219806   1.605   6.939   3.682
 6303SOL     OW19807   1.780   1.597   4.388
 6303SOL    HW119808   1.789   1.688   4.348
 6303SOL    HW219809   1.684   1.569   4.386
 6304SOL     OW19810   2.400   1.616   1.133
 6304SOL    HW119811   2.337   1.648   1.063
 6304SOL    HW219812   2.447   1.533   1.101
 6305SOL     OW19813   5.344   6.854   1.635
 6305SOL    HW119814   5.436   6.819   1.617
 6305SOL    HW219815   5.340   6.951   1.611
 6306SOL     OW19816   0.891   3.625   3.979
 6306SOL    HW119817   0.839   3.692   4.032
 6306SOL    HW219818   0.833   3.588   3.906
 6307SOL     OW19819   3.896   4.237   5.599
 6307SOL    HW119820   3.945   4.277   5.677
 6307SOL    HW219821   3.817   4.294   5.577
 6308SOL     OW19822   2.192   2.317   4.818
 6308SOL    HW119823   2.245   2.384   4.870
 6308SOL    HW219824   2.212   2.327   4.720
 6309SOL     OW19825   5.510   4.448   4.884
 6309SOL    HW119826   5.513   4.448   4.984
 6309SOL    HW219827   5.587   4.396   4.848
 6310SOL     OW19828   2.107   5.774   3.294
 6310SOL    HW119829   2.040   5.794   3.365
 6310SOL    HW219830   2.150   5.859   3.264
 6311SOL     OW19831   4.830   0.713   5.667
 6311SOL    HW119832   4.861   0.621   5.689
 6311SOL    HW219833   4.894   0.780   5.704
 6312SOL     OW19834   5.682   5.311   5.242
 6312SOL    HW119835   5.693   5.327   5.340
 6312SOL    HW219836   5.625   5.230   5.227
 6313SOL     OW19837   1.341   6.349   4.295
 6313SOL    HW119838   1.387   6.261   4.282
 6313SOL    HW219839   1.268   6.338   4.362
 6314SOL     OW19840   3.921   6.469   1.785
 6314SOL    HW119841   3.986   6.515   1.845
 6314SOL    HW219842   3.828   6.485   1.819
 6315SOL     OW19843   2.249   2.526   5.851
 6315SOL    HW119844   2.240   2.436   5.894
 6315SOL    HW219845   2.159   2.555   5.818
 6316SOL     OW19846   4.633   1.535   6.635
 6316SOL    HW119847   4.560   1.510   6.699
 6316SOL    HW219848   4.722   1.522   6.680
 6317SOL     OW19849   4.621   5.601   3.018
 6317SOL    HW119850   4.568   5.639   2.942
 6317SOL    HW219851   4.718   5.603   2.994
 6318SOL     OW19852   3.738   1.635   4.463
 6318SOL    HW119853   3.654   1.623   4.517
 6318SOL    HW219854   3.741   1.729   4.428
 6319SOL     OW19855   6.856   1.767   4.012
 6319SOL    HW119856   6.771   1.740   4.058
 6319SOL    HW219857   6.842   1.854   3.965
 6320SOL     OW19858   6.052   5.858   5.222
 6320SOL    HW119859   6.138   5.894   5.184
 6320SOL    HW219860   5.976   5.887   5.165
 6321SOL     OW19861   3.134   3.536   0.916
 6321SOL    HW119862   3.126   3.448   0.963
 6321SOL    HW219863   3.203   3.592   0.961
 6322SOL     OW19864   1.873   2.219   0.315
 6322SOL    HW119865   1.810   2.158   0.363
 6322SOL    HW219866   1.851   2.221   0.218
 6323SOL     OW19867   3.242   2.503   1.255
 6323SOL    HW119868   3.240   2.404   1.266
 6323SOL    HW219869   3.193   2.528   1.171
 6324SOL     OW19870   5.080   0.222   6.503
 6324SOL    HW119871   5.152   0.291   6.513
 6324SOL    HW219872   5.123   0.132   6.489
 6325SOL     OW19873   2.214   1.792   2.537
 6325SOL    HW119874   2.190   1.809   2.632
 6325SOL    HW219875   2.171   1.861   2.478
 6326SOL     OW19876   4.360   5.220   1.861
 6326SOL    HW119877   4.416   5.169   1.795
 6326SOL    HW219878   4.353   5.168   1.946
 6327SOL     OW19879   6.982   0.132   4.744
 6327SOL    HW119880   6.908   0.084   4.793
 6327SOL    HW219881   6.944   0.211   4.697
 6328SOL     OW19882   2.716   3.928   0.979
 6328SOL    HW119883   2.734   3.938   0.881
 6328SOL    HW219884   2.655   3.851   0.993
 6329SOL     OW19885   2.596   2.147   3.676
 6329SOL    HW119886   2.617   2.238   3.713
 6329SOL    HW219887   2.514   2.111   3.719
 6330SOL     OW19888   4.510   1.431   1.065
 6330SOL    HW119889   4.520   1.335   1.094
 6330SOL    HW219890   4.426   1.441   1.011
 6331SOL     OW19891   6.814   2.166   6.790
 6331SOL    HW119892   6.849   2.114   6.867
 6331SOL    HW219893   6.879   2.163   6.714
 6332SOL     OW19894   5.815   3.469   1.755
 6332SOL    HW119895   5.856   3.560   1.745
 6332SOL    HW219896   5.873   3.401   1.711
 6333SOL     OW19897   4.614   5.636   5.186
 6333SOL    HW119898   4.713   5.641   5.176
 6333SOL    HW219899   4.583   5.709   5.247
 6334SOL     OW19900   3.153   0.187   1.581
 6334SOL    HW119901   3.163   0.157   1.487
 6334SOL    HW219902   3.069   0.241   1.590
 6335SOL     OW19903   4.312   1.080   0.373
 6335SOL    HW119904   4.230   1.023   0.366
 6335SOL    HW219905   4.392   1.022   0.391
 6336SOL     OW19906   0.857   1.745   6.033
 6336SOL    HW119907   0.908   1.659   6.044
 6336SOL    HW219908   0.837   1.784   6.123
 6337SOL     OW19909   4.483   3.998   6.486
 6337SOL    HW119910   4.565   4.022   6.537
 6337SOL    HW219911   4.404   3.994   6.548
 6338SOL     OW19912   3.532   1.645   3.578
 6338SOL    HW119913   3.597   1.587   3.628
 6338SOL    HW219914   3.516   1.606   3.488
 6339SOL     OW19915   1.291   3.336   2.582
 6339SOL    HW119916   1.350   3.415   2.566
 6339SOL    HW219917   1.275   3.326   2.680
 6340SOL     OW19918   1.747   4.699   2.456
 6340SOL    HW119919   1.745   4.600   2.465
 6340SOL    HW219920   1.842   4.730   2.445
 6341SOL     OW19921   1.057   4.508   4.028
 6341SOL    HW119922   1.080   4.413   4.008
 6341SOL    HW219923   1.120   4.545   4.096
 6342SOL     OW19924   2.819   1.713   2.108
 6342SOL    HW119925   2.809   1.747   2.202
 6342SOL    HW219926   2.744   1.651   2.087
 6343SOL     OW19927   4.635   1.902   6.037
 6343SOL    HW119928   4.574   1.887   6.115
 6343SOL    HW219929   4.651   1.999   6.025
 6344SOL     OW19930   6.025   3.127   5.501
 6344SOL    HW119931   5.932   3.134   5.536
 6344SOL    HW219932   6.037   3.039   5.455
 6345SOL     OW19933   5.109   2.389   2.362
 6345SOL    HW119934   5.168   2.423   2.435
 6345SOL    HW219935   5.083   2.295   2.382
 6346SOL     OW19936   6.799   4.912   3.947
 6346SOL    HW119937   6.781   4.929   4.044
 6346SOL    HW219938   6.736   4.842   3.913
 6347SOL     OW19939   2.251   0.161   0.997
 6347SOL    HW119940   2.272   0.069   1.030
 6347SOL    HW219941   2.155   0.183   1.017
 6348SOL     OW19942   1.363   4.084   4.846
 6348SOL    HW119943   1.396   4.178   4.860
 6348SOL    HW219944   1.422   4.037   4.780
 6349SOL     OW19945   2.996   0.281   1.135
 6349SOL    HW119946   2.969   0.185   1.141
 6349SOL    HW219947   3.050   0.306   1.215
 6350SOL     OW19948   2.502   4.875   4.165
 6350SOL    HW119949   2.600   4.888   4.175
 6350SOL    HW219950   2.459   4.960   4.135
 6351SOL     OW19951   6.584   3.679   3.206
 6351SOL    HW119952   6.573   3.775   3.231
 6351SOL    HW219953   6.662   3.669   3.144
 6352SOL     OW19954   3.336   5.245   5.076
 6352SOL    HW119955   3.386   5.159   5.090
 6352SOL    HW219956   3.400   5.321   5.081
 6353SOL     OW19957   0.323   0.385   5.762
 6353SOL    HW119958   0.242   0.338   5.728
 6353SOL    HW219959   0.332   0.474   5.718
 6354SOL     OW19960   1.772   5.640   3.326
 6354SOL    HW119961   1.822   5.688   3.398
 6354SOL    HW219962   1.684   5.687   3.310
 6355SOL     OW19963   0.770   5.478   6.376
 6355SOL    HW119964   0.754   5.394   6.428
 6355SOL    HW219965   0.782   5.457   6.279
 6356SOL     OW19966   3.685   5.087   2.531
 6356SOL    HW119967   3.757   5.019   2.514
 6356SOL    HW219968   3.680   5.150   2.453
 6357SOL     OW19969   4.901   3.342   2.252
 6357SOL    HW119970   4.904   3.245   2.226
 6357SOL    HW219971   4.919   3.351   2.350
 6358SOL     OW19972   0.754   2.054   6.469
 6358SOL    HW119973   0.847   2.031   6.497
 6358SOL    HW219974   0.757   2.135   6.409
 6359SOL     OW19975   6.572   6.453   6.284
 6359SOL    HW119976   6.473   6.455   6.298
 6359SOL    HW219977   6.617   6.510   6.353
 6360SOL     OW19978   1.391   4.125   3.839
 6360SOL    HW119979   1.397   4.225   3.838
 6360SOL    HW219980   1.341   4.096   3.921
 6361SOL     OW19981   6.172   0.023   0.553
 6361SOL    HW119982   6.123   0.019   0.465
 6361SOL    HW219983   6.116   0.073   0.619
 6362SOL     OW19984   0.715   6.179   0.512
 6362SOL    HW119985   0.626   6.134   0.520
 6362SOL    HW219986   0.770   6.161   0.594
 6363SOL     OW19987   2.306   4.554   3.582
 6363SOL    HW119988   2.339   4.463   3.558
 6363SOL    HW219989   2.378   4.604   3.631
 6364SOL     OW19990   2.987   1.187   5.922
 6364SOL    HW119991   3.051   1.114   5.948
 6364SOL    HW219992   2.898   1.148   5.899
 6365SOL     OW19993   5.490   0.496   4.235
 6365SOL    HW119994   5.443   0.410   4.217
 6365SOL    HW219995   5.462   0.533   4.323
 6366SOL     OW19996   0.975   5.965   6.219
 6366SOL    HW119997   1.029   6.045   6.193
 6366SOL    HW219998   0.886   5.969   6.175
 6367SOL     OW19999   4.125   6.979   4.918
 6367SOL    HW120000   4.200   6.914   4.904
 6367SOL    HW220001   4.143   0.042   4.866
 6368SOL     OW20002   3.362   5.005   3.813
 6368SOL    HW120003   3.311   5.083   3.776
 6368SOL    HW220004   3.298   4.936   3.847
 6369SOL     OW20005   1.535   4.801   3.751
 6369SOL    HW120006   1.601   4.837   3.817
 6369SOL    HW220007   1.567   4.713   3.717
 6370SOL     OW20008   0.273   3.020   2.934
 6370SOL    HW120009   0.328   3.003   2.853
 6370SOL    HW220010   0.254   3.118   2.942
 6371SOL     OW20011   5.264   3.797   4.316
 6371SOL    HW120012   5.228   3.704   4.326
 6371SOL    HW220013   5.359   3.799   4.347
 6372SOL     OW20014   2.849   0.469   1.862
 6372SOL    HW120015   2.863   0.381   1.908
 6372SOL    HW220016   2.905   0.472   1.779
 6373SOL     OW20017   5.483   4.242   3.307
 6373SOL    HW120018   5.389   4.269   3.328
 6373SOL    HW220019   5.484   4.147   3.278
 6374SOL     OW20020   3.040   3.998   4.476
 6374SOL    HW120021   3.016   3.928   4.543
 6374SOL    HW220022   3.009   4.087   4.509
 6375SOL     OW20023   6.570   1.866   3.910
 6375SOL    HW120024   6.658   1.906   3.884
 6375SOL    HW220025   6.496   1.925   3.878
 6376SOL     OW20026   6.071   2.913   5.342
 6376SOL    HW120027   6.083   2.978   5.267
 6376SOL    HW220028   6.009   2.841   5.314
 6377SOL     OW20029   6.029   1.862   5.437
 6377SOL    HW120030   6.091   1.788   5.462
 6377SOL    HW220031   5.946   1.823   5.395
 6378SOL     OW20032   5.035   5.620   4.072
 6378SOL    HW120033   5.104   5.554   4.044
 6378SOL    HW220034   5.050   5.706   4.021
 6379SOL     OW20035   2.030   4.072   4.443
 6379SOL    HW120036   2.074   4.030   4.363
 6379SOL    HW220037   2.080   4.154   4.468
 6380SOL     OW20038   0.425   1.660   6.333
 6380SOL    HW120039   0.520   1.635   6.315
 6380SOL    HW220040   0.417   1.760   6.336
 6381SOL     OW20041   3.942   3.054   1.974
 6381SOL    HW120042   3.993   2.992   1.914
 6381SOL    HW220043   4.005   3.122   2.012
 6382SOL     OW20044   1.104   2.023   0.803
 6382SOL    HW120045   1.196   2.061   0.814
 6382SOL    HW220046   1.078   1.976   0.888
 6383SOL     OW20047   1.614   2.140   3.042
 6383SOL    HW120048   1.642   2.207   2.973
 6383SOL    HW220049   1.680   2.064   3.044
 6384SOL     OW20050   5.304   4.261   1.380
 6384SOL    HW120051   5.397   4.226   1.393
 6384SOL    HW220052   5.262   4.215   1.302
 6385SOL     OW20053   6.925   4.944   3.667
 6385SOL    HW120054   0.005   4.935   3.665
 6385SOL    HW220055   6.895   4.952   3.762
 6386SOL     OW20056   2.624   3.966   6.478
 6386SOL    HW120057   2.625   4.008   6.388
 6386SOL    HW220058   2.592   3.871   6.471
 6387SOL     OW20059   0.630   1.965   6.697
 6387SOL    HW120060   0.656   1.982   6.602
 6387SOL    HW220061   0.532   1.949   6.703
 6388SOL     OW20062   4.263   4.999   0.977
 6388SOL    HW120063   4.246   4.978   1.074
 6388SOL    HW220064   4.184   4.972   0.923
 6389SOL     OW20065   1.029   6.169   2.366
 6389SOL    HW120066   1.098   6.218   2.419
 6389SOL    HW220067   1.046   6.070   2.371
 6390SOL     OW20068   0.665   2.008   5.242
 6390SOL    HW120069   0.715   2.008   5.156
 6390SOL    HW220070   0.614   1.923   5.251
 6391SOL     OW20071   2.441   6.643   5.717
 6391SOL    HW120072   2.375   6.659   5.791
 6391SOL    HW220073   2.534   6.656   5.752
 6392SOL     OW20074   2.168   6.876   3.135
 6392SOL    HW120075   2.139   6.787   3.170
 6392SOL    HW220076   2.211   6.929   3.208
 6393SOL     OW20077   6.476   0.134   1.434
 6393SOL    HW120078   6.570   0.145   1.403
 6393SOL    HW220079   6.469   0.160   1.530
 6394SOL     OW20080   2.392   4.512   0.683
 6394SOL    HW120081   2.448   4.492   0.763
 6394SOL    HW220082   2.452   4.537   0.606
 6395SOL     OW20083   6.123   2.739   1.834
 6395SOL    HW120084   6.120   2.797   1.916
 6395SOL    HW220085   6.046   2.674   1.837
 6396SOL     OW20086   5.507   3.280   6.329
 6396SOL    HW120087   5.542   3.202   6.380
 6396SOL    HW220088   5.561   3.361   6.350
 6397SOL     OW20089   5.324   2.748   6.702
 6397SOL    HW120090   5.374   2.802   6.769
 6397SOL    HW220091   5.336   2.651   6.722
 6398SOL     OW20092   3.184   0.904   0.355
 6398SOL    HW120093   3.147   0.911   0.447
 6398SOL    HW220094   3.273   0.951   0.351
 6399SOL     OW20095   1.585   5.610   6.962
 6399SOL    HW120096   1.569   5.691   7.018
 6399SOL    HW220097   1.500   5.586   6.914
 6400SOL     OW20098   2.303   6.456   2.347
 6400SOL    HW120099   2.275   6.458   2.251
 6400SOL    HW220100   2.332   6.547   2.375
 6401SOL     OW20101   0.561   4.731   3.591
 6401SOL    HW120102   0.485   4.754   3.652
 6401SOL    HW220103   0.556   4.789   3.509
 6402SOL     OW20104   4.175   1.642   2.755
 6402SOL    HW120105   4.220   1.714   2.808
 6402SOL    HW220106   4.242   1.572   2.730
 6403SOL     OW20107   6.818   6.354   6.195
 6403SOL    HW120108   6.732   6.374   6.241
 6403SOL    HW220109   6.804   6.278   6.130
 6404SOL     OW20110   3.780   1.325   2.622
 6404SOL    HW120111   3.701   1.264   2.627
 6404SOL    HW220112   3.864   1.273   2.635
 6405SOL     OW20113   2.609   0.102   3.643
 6405SOL    HW120114   2.691   0.048   3.628
 6405SOL    HW220115   2.590   0.157   3.562
 6406SOL     OW20116   1.304   2.466   3.404
 6406SOL    HW120117   1.248   2.444   3.325
 6406SOL    HW220118   1.317   2.383   3.459
 6407SOL     OW20119   3.227   6.328   3.923
 6407SOL    HW120120   3.242   6.321   3.824
 6407SOL    HW220121   3.249   6.421   3.953
 6408SOL     OW20122   5.880   2.009   0.228
 6408SOL    HW120123   5.839   1.992   0.318
 6408SOL    HW220124   5.816   2.063   0.172
 6409SOL     OW20125   0.315   4.416   3.020
 6409SOL    HW120126   0.330   4.344   3.088
 6409SOL    HW220127   0.319   4.505   3.064
 6410SOL     OW20128   1.954   1.689   0.396
 6410SOL    HW120129   1.881   1.642   0.346
 6410SOL    HW220130   1.979   1.773   0.347
 6411SOL     OW20131   0.479   2.782   3.235
 6411SOL    HW120132   0.485   2.756   3.331
 6411SOL    HW220133   0.400   2.843   3.222
 6412SOL     OW20134   0.213   2.085   5.357
 6412SOL    HW120135   0.215   2.081   5.456
 6412SOL    HW220136   0.300   2.120   5.323
 6413SOL     OW20137   4.330   4.862   3.859
 6413SOL    HW120138   4.342   4.776   3.810
 6413SOL    HW220139   4.394   4.866   3.936
 6414SOL     OW20140   5.959   1.077   0.774
 6414SOL    HW120141   5.875   1.090   0.827
 6414SOL    HW220142   6.038   1.108   0.828
 6415SOL     OW20143   1.840   2.521   3.243
 6415SOL    HW120144   1.820   2.619   3.246
 6415SOL    HW220145   1.829   2.482   3.335
 6416SOL     OW20146   0.916   1.104   6.410
 6416SOL    HW120147   0.835   1.162   6.411
 6416SOL    HW220148   0.916   1.048   6.327
 6417SOL     OW20149   6.824   5.077   2.233
 6417SOL    HW120150   6.732   5.043   2.211
 6417SOL    HW220151   6.833   5.171   2.201
 6418SOL     OW20152   4.990   4.707   2.153
 6418SOL    HW120153   4.901   4.690   2.111
 6418SOL    HW220154   5.034   4.620   2.175
 6419SOL     OW20155   2.714   4.647   2.680
 6419SOL    HW120156   2.686   4.561   2.723
 6419SOL    HW220157   2.633   4.694   2.645
 6420SOL     OW20158   3.238   3.884   5.351
 6420SOL    HW120159   3.202   3.807   5.403
 6420SOL    HW220160   3.259   3.855   5.258
 6421SOL     OW20161   5.775   0.881   2.535
 6421SOL    HW120162   5.721   0.952   2.580
 6421SOL    HW220163   5.804   0.914   2.445
 6422SOL     OW20164   0.353   0.555   3.605
 6422SOL    HW120165   0.394   0.557   3.514
 6422SOL    HW220166   0.301   0.471   3.617
 6423SOL     OW20167   5.114   5.075   2.601
 6423SOL    HW120168   5.187   5.069   2.669
 6423SOL    HW220169   5.049   5.000   2.614
 6424SOL     OW20170   6.764   5.860   5.865
 6424SOL    HW120171   6.723   5.829   5.951
 6424SOL    HW220172   6.739   5.796   5.792
 6425SOL     OW20173   6.268   5.562   3.074
 6425SOL    HW120174   6.246   5.595   2.982
 6425SOL    HW220175   6.345   5.498   3.070
 6426SOL     OW20176   0.534   4.814   2.977
 6426SOL    HW120177   0.459   4.777   3.031
 6426SOL    HW220178   0.526   4.782   2.882
 6427SOL     OW20179   2.814   2.860   5.757
 6427SOL    HW120180   2.761   2.915   5.692
 6427SOL    HW220181   2.892   2.819   5.709
 6428SOL     OW20182   6.066   2.883   6.666
 6428SOL    HW120183   5.977   2.878   6.712
 6428SOL    HW220184   6.138   2.860   6.732
 6429SOL     OW20185   1.416   1.746   5.776
 6429SOL    HW120186   1.397   1.726   5.679
 6429SOL    HW220187   1.363   1.683   5.833
 6430SOL     OW20188   5.687   1.034   1.921
 6430SOL    HW120189   5.713   1.131   1.923
 6430SOL    HW220190   5.732   0.989   1.843
 6431SOL     OW20191   4.992   6.576   3.441
 6431SOL    HW120192   5.089   6.599   3.439
 6431SOL    HW220193   4.940   6.651   3.481
 6432SOL     OW20194   3.741   3.676   6.415
 6432SOL    HW120195   3.785   3.737   6.480
 6432SOL    HW220196   3.726   3.724   6.328
 6433SOL     OW20197   3.186   4.428   0.830
 6433SOL    HW120198   3.227   4.439   0.920
 6433SOL    HW220199   3.203   4.509   0.774
 6434SOL     OW20200   1.633   3.806   6.977
 6434SOL    HW120201   1.554   3.836   0.010
 6434SOL    HW220202   1.622   3.709   6.952
 6435SOL     OW20203   4.138   6.672   0.068
 6435SOL    HW120204   4.151   6.617   0.150
 6435SOL    HW220205   4.135   6.613   7.008
 6436SOL     OW20206   2.116   3.381   3.338
 6436SOL    HW120207   2.076   3.469   3.365
 6436SOL    HW220208   2.147   3.387   3.243
 6437SOL     OW20209   2.547   1.420   1.009
 6437SOL    HW120210   2.632   1.468   0.986
 6437SOL    HW220211   2.565   1.355   1.083
 6438SOL     OW20212   0.517   4.012   6.399
 6438SOL    HW120213   0.519   4.045   6.305
 6438SOL    HW220214   0.425   3.981   6.422
 6439SOL     OW20215   5.559   0.993   1.281
 6439SOL    HW120216   5.534   0.985   1.377
 6439SOL    HW220217   5.584   1.088   1.261
 6440SOL     OW20218   2.313   1.680   0.207
 6440SOL    HW120219   2.362   1.748   0.153
 6440SOL    HW220220   2.347   1.681   0.301
 6441SOL     OW20221   1.336   6.253   2.455
 6441SOL    HW120222   1.366   6.161   2.481
 6441SOL    HW220223   1.319   6.256   2.356
 6442SOL     OW20224   2.765   1.142   4.033
 6442SOL    HW120225   2.692   1.096   4.083
 6442SOL    HW220226   2.830   1.183   4.097
 6443SOL     OW20227   4.099   2.536   5.905
 6443SOL    HW120228   4.047   2.507   5.825
 6443SOL    HW220229   4.154   2.617   5.882
 6444SOL     OW20230   6.877   2.572   3.666
 6444SOL    HW120231   6.948   2.638   3.689
 6444SOL    HW220232   6.852   2.520   3.747
 6445SOL     OW20233   4.969   3.194   5.716
 6445SOL    HW120234   4.950   3.273   5.776
 6445SOL    HW220235   4.887   3.173   5.663
 6446SOL     OW20236   1.252   0.783   5.781
 6446SOL    HW120237   1.187   0.800   5.707
 6446SOL    HW220238   1.213   0.814   5.868
 6447SOL     OW20239   0.568   5.200   2.727
 6447SOL    HW120240   0.651   5.154   2.694
 6447SOL    HW220241   0.584   5.299   2.730
 6448SOL     OW20242   4.933   5.490   2.958
 6448SOL    HW120243   5.009   5.457   2.901
 6448SOL    HW220244   4.954   5.582   2.992
 6449SOL     OW20245   3.002   4.893   0.684
 6449SOL    HW120246   3.018   4.984   0.723
 6449SOL    HW220247   3.019   4.824   0.754
 6450SOL     OW20248   0.284   3.614   1.472
 6450SOL    HW120249   0.323   3.704   1.453
 6450SOL    HW220250   0.265   3.606   1.570
 6451SOL     OW20251   2.456   6.911   4.904
 6451SOL    HW120252   2.467   6.903   5.003
 6451SOL    HW220253   2.510   6.839   4.859
 6452SOL     OW20254   3.462   6.800   4.519
 6452SOL    HW120255   3.518   6.717   4.514
 6452SOL    HW220256   3.366   6.775   4.506
 6453SOL     OW20257   1.373   6.503   0.698
 6453SOL    HW120258   1.436   6.496   0.621
 6453SOL    HW220259   1.359   6.599   0.722
 6454SOL     OW20260   2.703   1.832   3.401
 6454SOL    HW120261   2.747   1.904   3.454
 6454SOL    HW220262   2.676   1.758   3.462
 6455SOL     OW20263   0.456   2.043   4.080
 6455SOL    HW120264   0.446   2.032   4.179
 6455SOL    HW220265   0.544   2.085   4.059
 6456SOL     OW20266   1.665   0.711   3.495
 6456SOL    HW120267   1.651   0.777   3.569
 6456SOL    HW220268   1.751   0.663   3.510
 6457SOL     OW20269   4.754   1.835   0.221
 6457SOL    HW120270   4.827   1.892   0.257
 6457SOL    HW220271   4.748   1.750   0.274
 6458SOL     OW20272   0.884   0.062   3.471
 6458SOL    HW120273   0.982   0.060   3.493
 6458SOL    HW220274   0.843   6.994   3.494
 6459SOL     OW20275   5.559   5.477   0.597
 6459SOL    HW120276   5.559   5.377   0.605
 6459SOL    HW220277   5.467   5.509   0.575
 6460SOL     OW20278   5.020   5.492   6.011
 6460SOL    HW120279   4.971   5.578   6.025
 6460SOL    HW220280   4.995   5.454   5.922
 6461SOL     OW20281   2.697   4.508   5.341
 6461SOL    HW120282   2.626   4.480   5.277
 6461SOL    HW220283   2.778   4.536   5.291
 6462SOL     OW20284   2.291   2.830   4.869
 6462SOL    HW120285   2.289   2.916   4.919
 6462SOL    HW220286   2.363   2.771   4.907
 6463SOL     OW20287   6.951   3.845   6.551
 6463SOL    HW120288   7.016   3.821   6.478
 6463SOL    HW220289   6.872   3.784   6.547
 6464SOL     OW20290   1.446   5.129   4.635
 6464SOL    HW120291   1.430   5.044   4.687
 6464SOL    HW220292   1.462   5.204   4.698
 6465SOL     OW20293   6.680   2.544   3.204
 6465SOL    HW120294   6.688   2.587   3.294
 6465SOL    HW220295   6.709   2.609   3.134
 6466SOL     OW20296   0.906   1.572   6.501
 6466SOL    HW120297   1.005   1.569   6.485
 6466SOL    HW220298   0.868   1.480   6.493
 6467SOL     OW20299   3.265   0.680   6.712
 6467SOL    HW120300   3.198   0.746   6.679
 6467SOL    HW220301   3.236   0.588   6.688
 6468SOL     OW20302   4.144   6.982   1.746
 6468SOL    HW120303   4.054   7.006   1.784
 6468SOL    HW220304   4.142   6.994   1.647
 6469SOL     OW20305   4.233   0.659   5.305
 6469SOL    HW120306   4.229   0.707   5.218
 6469SOL    HW220307   4.162   0.695   5.366
 6470SOL     OW20308   6.334   4.910   6.725
 6470SOL    HW120309   6.339   5.007   6.749
 6470SOL    HW220310   6.426   4.875   6.705
 6471SOL     OW20311   6.225   5.916   5.594
 6471SOL    HW120312   6.226   6.014   5.575
 6471SOL    HW220313   6.319   5.882   5.601
 6472SOL     OW20314   0.538   4.698   1.063
 6472SOL    HW120315   0.462   4.641   1.034
 6472SOL    HW220316   0.561   4.763   0.991
 6473SOL     OW20317   2.913   1.834   4.279
 6473SOL    HW120318   2.956   1.763   4.224
 6473SOL    HW220319   2.882   1.909   4.220
 6474SOL     OW20320   1.707   4.011   6.137
 6474SOL    HW120321   1.711   4.092   6.079
 6474SOL    HW220322   1.659   4.033   6.222
 6475SOL     OW20323   6.856   5.271   4.175
 6475SOL    HW120324   6.911   5.351   4.153
 6475SOL    HW220325   6.760   5.290   4.155
 6476SOL     OW20326   4.467   3.036   1.062
 6476SOL    HW120327   4.463   2.963   1.131
 6476SOL    HW220328   4.473   3.124   1.108
 6477SOL     OW20329   6.270   4.906   0.976
 6477SOL    HW120330   6.281   4.824   1.033
 6477SOL    HW220331   6.247   4.879   0.882
 6478SOL     OW20332   3.417   6.467   2.217
 6478SOL    HW120333   3.509   6.480   2.180
 6478SOL    HW220334   3.402   6.533   2.291
 6479SOL     OW20335   3.897   6.240   4.021
 6479SOL    HW120336   3.955   6.160   4.007
 6479SOL    HW220337   3.822   6.216   4.083
 6480SOL     OW20338   3.125   2.108   5.803
 6480SOL    HW120339   3.099   2.153   5.889
 6480SOL    HW220340   3.169   2.174   5.743
 6481SOL     OW20341   3.684   2.092   2.281
 6481SOL    HW120342   3.768   2.132   2.317
 6481SOL    HW220343   3.667   2.127   2.189
 6482SOL     OW20344   0.520   0.190   5.801
 6482SOL    HW120345   0.594   0.240   5.845
 6482SOL    HW220346   0.443   0.252   5.786
 6483SOL     OW20347   1.395   5.982   1.332
 6483SOL    HW120348   1.401   6.079   1.356
 6483SOL    HW220349   1.454   5.964   1.254
 6484SOL     OW20350   3.501   0.146   1.614
 6484SOL    HW120351   3.458   0.236   1.609
 6484SOL    HW220352   3.600   0.157   1.617
 6485SOL     OW20353   1.847   4.328   3.459
 6485SOL    HW120354   1.843   4.271   3.378
 6485SOL    HW220355   1.855   4.424   3.432
 6486SOL     OW20356   2.090   4.658   4.584
 6486SOL    HW120357   2.116   4.668   4.680
 6486SOL    HW220358   2.164   4.614   4.534
 6487SOL     OW20359   0.135   6.002   5.421
 6487SOL    HW120360   0.048   5.956   5.434
 6487SOL    HW220361   0.192   5.949   5.358
 6488SOL     OW20362   3.503   6.081   5.597
 6488SOL    HW120363   3.419   6.037   5.628
 6488SOL    HW220364   3.480   6.157   5.536
 6489SOL     OW20365   2.594   3.123   6.823
 6489SOL    HW120366   2.506   3.095   6.786
 6489SOL    HW220367   2.648   3.042   6.846
 6490SOL     OW20368   4.297   1.652   6.052
 6490SOL    HW120369   4.275   1.681   5.959
 6490SOL    HW220370   4.291   1.552   6.058
 6491SOL     OW20371   4.086   1.062   6.817
 6491SOL    HW120372   3.990   1.084   6.831
 6491SOL    HW220373   4.114   1.089   6.724
 6492SOL     OW20374   5.584   6.102   0.015
 6492SOL    HW120375   5.593   6.120   6.938
 6492SOL    HW220376   5.657   6.149   0.065
 6493SOL     OW20377   0.776   5.813   4.745
 6493SOL    HW120378   0.852   5.790   4.807
 6493SOL    HW220379   0.783   5.757   4.662
 6494SOL     OW20380   0.524   0.960   3.192
 6494SOL    HW120381   0.466   1.040   3.172
 6494SOL    HW220382   0.474   0.897   3.252
 6495SOL     OW20383   4.942   5.879   4.435
 6495SOL    HW120384   4.900   5.962   4.471
 6495SOL    HW220385   4.996   5.835   4.506
 6496SOL     OW20386   6.827   7.014   2.396
 6496SOL    HW120387   6.909   7.020   2.339
 6496SOL    HW220388   6.849   6.965   2.481
 6497SOL     OW20389   2.715   3.031   0.506
 6497SOL    HW120390   2.718   3.022   0.406
 6497SOL    HW220391   2.722   3.128   0.530
 6498SOL     OW20392   2.197   4.017   4.191
 6498SOL    HW120393   2.254   4.098   4.207
 6498SOL    HW220394   2.199   3.993   4.094
 6499SOL     OW20395   5.141   1.889   4.608
 6499SOL    HW120396   5.112   1.916   4.516
 6499SOL    HW220397   5.061   1.877   4.666
 6500SOL     OW20398   0.132   4.664   3.642
 6500SOL    HW120399   0.166   4.650   3.549
 6500SOL    HW220400   0.125   4.576   3.688
 6501SOL     OW20401   6.462   2.835   6.783
 6501SOL    HW120402   6.547   2.888   6.775
 6501SOL    HW220403   6.469   2.751   6.729
 6502SOL     OW20404   6.092   3.581   1.508
 6502SOL    HW120405   6.054   3.616   1.594
 6502SOL    HW220406   6.079   3.650   1.436
 6503SOL     OW20407   4.800   1.033   3.648
 6503SOL    HW120408   4.784   1.125   3.613
 6503SOL    HW220409   4.858   0.983   3.584
 6504SOL     OW20410   5.197   6.194   6.250
 6504SOL    HW120411   5.113   6.226   6.294
 6504SOL    HW220412   5.276   6.229   6.300
 6505SOL     OW20413   4.960   5.281   1.570
 6505SOL    HW120414   5.059   5.278   1.559
 6505SOL    HW220415   4.929   5.376   1.562
 6506SOL     OW20416   6.041   3.339   1.642
 6506SOL    HW120417   6.122   3.306   1.690
 6506SOL    HW220418   6.066   3.412   1.578
 6507SOL     OW20419   2.137   5.118   5.836
 6507SOL    HW120420   2.049   5.158   5.863
 6507SOL    HW220421   2.124   5.063   5.753
 6508SOL     OW20422   2.423   0.413   3.051
 6508SOL    HW120423   2.473   0.328   3.038
 6508SOL    HW220424   2.455   0.480   2.984
 6509SOL     OW20425   3.295   1.824   4.605
 6509SOL    HW120426   3.247   1.885   4.667
 6509SOL    HW220427   3.229   1.779   4.544
 6510SOL     OW20428   6.338   4.259   6.920
 6510SOL    HW120429   6.421   4.217   6.883
 6510SOL    HW220430   6.262   4.245   6.856
 6511SOL     OW20431   4.823   0.763   4.735
 6511SOL    HW120432   4.876   0.827   4.790
 6511SOL    HW220433   4.725   0.776   4.753
 6512SOL     OW20434   4.950   6.777   2.080
 6512SOL    HW120435   4.999   6.842   2.139
 6512SOL    HW220436   4.969   6.798   1.984
 6513SOL     OW20437   3.389   4.886   3.085
 6513SOL    HW120438   3.465   4.936   3.045
 6513SOL    HW220439   3.307   4.900   3.028
 6514SOL     OW20440   5.573   0.876   3.843
 6514SOL    HW120441   5.627   0.855   3.924
 6514SOL    HW220442   5.550   0.791   3.795
 6515SOL     OW20443   0.777   4.810   3.970
 6515SOL    HW120444   0.837   4.888   3.956
 6515SOL    HW220445   0.806   4.760   4.051
 6516SOL     OW20446   0.112   3.378   1.813
 6516SOL    HW120447   0.042   3.411   1.749
 6516SOL    HW220448   0.170   3.311   1.766
 6517SOL     OW20449   6.645   0.930   0.267
 6517SOL    HW120450   6.616   0.859   0.202
 6517SOL    HW220451   6.740   0.915   0.292
 6518SOL     OW20452   6.664   0.585   0.109
 6518SOL    HW120453   6.615   0.595   0.196
 6518SOL    HW220454   6.751   0.634   0.114
 6519SOL     OW20455   2.673   1.940   3.860
 6519SOL    HW120456   2.605   1.868   3.870
 6519SOL    HW220457   2.638   2.010   3.797
 6520SOL     OW20458   5.411   5.349   2.137
 6520SOL    HW120459   5.456   5.432   2.104
 6520SOL    HW220460   5.479   5.281   2.160
 6521SOL     OW20461   1.497   2.412   4.413
 6521SOL    HW120462   1.534   2.442   4.325
 6521SOL    HW220463   1.397   2.423   4.412
 6522SOL     OW20464   3.393   4.408   6.870
 6522SOL    HW120465   3.366   4.492   6.822
 6522SOL    HW220466   3.315   4.372   6.921
 6523SOL     OW20467   3.539   0.645   6.590
 6523SOL    HW120468   3.553   0.615   6.495
 6523SOL    HW220469   3.442   0.644   6.612
 6524SOL     OW20470   2.827   3.383   1.979
 6524SOL    HW120471   2.877   3.420   1.901
 6524SOL    HW220472   2.739   3.429   1.988
 6525SOL     OW20473   1.541   3.964   3.271
 6525SOL    HW120474   1.620   3.933   3.217
 6525SOL    HW220475   1.538   3.915   3.358
 6526SOL     OW20476   2.223   0.389   6.353
 6526SOL    HW120477   2.248   0.413   6.259
 6526SOL    HW220478   2.302   0.346   6.398
 6527SOL     OW20479   1.061   2.433   4.668
 6527SOL    HW120480   1.080   2.453   4.764
 6527SOL    HW220481   1.109   2.500   4.610
 6528SOL     OW20482   0.226   1.013   3.793
 6528SOL    HW120483   0.148   0.967   3.835
 6528SOL    HW220484   0.306   1.002   3.851
 6529SOL     OW20485   0.387   1.630   3.164
 6529SOL    HW120486   0.439   1.544   3.164
 6529SOL    HW220487   0.308   1.621   3.225
 6530SOL     OW20488   6.487   3.623   2.082
 6530SOL    HW120489   6.554   3.671   2.025
 6530SOL    HW220490   6.533   3.552   2.135
 6531SOL     OW20491   5.588   3.678   4.712
 6531SOL    HW120492   5.600   3.588   4.753
 6531SOL    HW220493   5.510   3.724   4.753
 6532SOL     OW20494   6.051   0.100   6.789
 6532SOL    HW120495   6.016   0.078   6.880
 6532SOL    HW220496   6.042   0.020   6.730
 6533SOL     OW20497   4.814   6.093   0.765
 6533SOL    HW120498   4.865   6.017   0.725
 6533SOL    HW220499   4.750   6.057   0.833
 6534SOL     OW20500   3.361   4.205   1.373
 6534SOL    HW120501   3.334   4.225   1.468
 6534SOL    HW220502   3.336   4.111   1.351
 6535SOL     OW20503   6.494   2.988   4.067
 6535SOL    HW120504   6.438   2.914   4.029
 6535SOL    HW220505   6.475   2.997   4.164
 6536SOL     OW20506   0.728   2.203   5.704
 6536SOL    HW120507   0.633   2.219   5.730
 6536SOL    HW220508   0.754   2.110   5.728
 6537SOL     OW20509   5.864   5.512   7.020
 6537SOL    HW120510   5.786   5.493   6.961
 6537SOL    HW220511   5.847   5.475   0.091
 6538SOL     OW20512   3.090   4.428   6.851
 6538SOL    HW120513   3.102   4.330   6.842
 6538SOL    HW220514   2.999   4.454   6.817
 6539SOL     OW20515   3.470   0.594   6.066
 6539SOL    HW120516   3.378   0.632   6.055
 6539SOL    HW220517   3.472   0.502   6.028
 6540SOL     OW20518   5.203   1.483   5.160
 6540SOL    HW120519   5.274   1.497   5.091
 6540SOL    HW220520   5.157   1.569   5.180
 6541SOL     OW20521   3.459   1.568   4.957
 6541SOL    HW120522   3.450   1.540   5.052
 6541SOL    HW220523   3.556   1.578   4.933
 6542SOL     OW20524   0.062   4.410   3.742
 6542SOL    HW120525   6.999   4.379   3.696
 6542SOL    HW220526   0.122   4.331   3.757
 6543SOL     OW20527   6.252   3.926   6.474
 6543SOL    HW120528   6.166   3.895   6.435
 6543SOL    HW220529   6.246   3.924   6.574
 6544SOL     OW20530   0.128   6.357   2.768
 6544SOL    HW120531   0.215   6.323   2.804
 6544SOL    HW220532   0.082   6.411   2.839
 6545SOL     OW20533   5.794   2.216   6.604
 6545SOL    HW120534   5.700   2.250   6.614
 6545SOL    HW220535   5.857   2.282   6.645
 6546SOL     OW20536   3.829   3.912   0.088
 6546SOL    HW120537   3.909   3.971   0.074
 6546SOL    HW220538   3.747   3.960   0.056
 6547SOL     OW20539   4.689   1.410   5.687
 6547SOL    HW120540   4.633   1.476   5.737
 6547SOL    HW220541   4.785   1.433   5.699
 6548SOL     OW20542   0.978   3.217   0.434
 6548SOL    HW120543   1.005   3.125   0.464
 6548SOL    HW220544   0.878   3.225   0.436
 6549SOL     OW20545   4.199   1.721   1.031
 6549SOL    HW120546   4.140   1.737   0.952
 6549SOL    HW220547   4.277   1.665   1.003
 6550SOL     OW20548   0.417   6.525   3.779
 6550SOL    HW120549   0.482   6.530   3.854
 6550SOL    HW220550   0.325   6.541   3.814
 6551SOL     OW20551   1.894   4.513   2.104
 6551SOL    HW120552   1.861   4.533   2.011
 6551SOL    HW220553   1.906   4.415   2.114
 6552SOL     OW20554   2.269   0.201   5.516
 6552SOL    HW120555   2.282   0.131   5.446
 6552SOL    HW220556   2.240   0.286   5.473
 6553SOL     OW20557   0.874   1.382   2.972
 6553SOL    HW120558   0.958   1.437   2.974
 6553SOL    HW220559   0.823   1.403   2.889
 6554SOL     OW20560   6.350   1.376   5.821
 6554SOL    HW120561   6.419   1.378   5.894
 6554SOL    HW220562   6.300   1.290   5.824
 6555SOL     OW20563   0.350   2.393   1.905
 6555SOL    HW120564   0.352   2.431   1.997
 6555SOL    HW220565   0.268   2.336   1.895
 6556SOL     OW20566   4.634   4.676   5.231
 6556SOL    HW120567   4.706   4.609   5.244
 6556SOL    HW220568   4.635   4.741   5.307
 6557SOL     OW20569   3.796   5.562   1.593
 6557SOL    HW120570   3.811   5.583   1.690
 6557SOL    HW220571   3.836   5.634   1.537
 6558SOL     OW20572   6.215   5.232   0.186
 6558SOL    HW120573   6.202   5.176   0.268
 6558SOL    HW220574   6.206   5.329   0.210
 6559SOL     OW20575   6.152   4.210   6.709
 6559SOL    HW120576   6.072   4.172   6.663
 6559SOL    HW220577   6.180   4.295   6.664
 6560SOL     OW20578   4.024   4.105   1.298
 6560SOL    HW120579   4.099   4.119   1.362
 6560SOL    HW220580   4.038   4.161   1.217
 6561SOL     OW20581   3.669   3.987   2.569
 6561SOL    HW120582   3.662   3.890   2.543
 6561SOL    HW220583   3.627   4.043   2.498
 6562SOL     OW20584   5.666   4.729   0.134
 6562SOL    HW120585   5.664   4.807   0.198
 6562SOL    HW220586   5.613   4.654   0.173
 6563SOL     OW20587   0.192   6.067   0.266
 6563SOL    HW120588   0.266   6.108   0.212
 6563SOL    HW220589   0.161   6.134   0.334
 6564SOL     OW20590   6.913   4.066   2.350
 6564SOL    HW120591   6.817   4.094   2.355
 6564SOL    HW220592   6.918   3.967   2.338
 6565SOL     OW20593   6.541   2.369   4.221
 6565SOL    HW120594   6.554   2.338   4.127
 6565SOL    HW220595   6.537   2.289   4.282
 6566SOL     OW20596   2.629   6.316   1.919
 6566SOL    HW120597   2.535   6.340   1.897
 6566SOL    HW220598   2.632   6.273   2.010
 6567SOL     OW20599   3.987   2.751   1.321
 6567SOL    HW120600   3.947   2.832   1.278
 6567SOL    HW220601   3.921   2.676   1.318
 6568SOL     OW20602   4.808   6.785   3.230
 6568SOL    HW120603   4.735   6.819   3.171
 6568SOL    HW220604   4.785   6.693   3.262
 6569SOL     OW20605   2.966   4.256   0.517
 6569SOL    HW120606   3.017   4.256   0.603
 6569SOL    HW220607   3.013   4.200   0.450
 6570SOL     OW20608   4.230   6.435   2.173
 6570SOL    HW120609   4.155   6.473   2.118
 6570SOL    HW220610   4.194   6.361   2.231
 6571SOL     OW20611   2.740   5.865   2.061
 6571SOL    HW120612   2.682   5.794   2.022
 6571SOL    HW220613   2.804   5.898   1.992
 6572SOL     OW20614   0.013   5.665   5.623
 6572SOL    HW120615   6.978   5.581   5.622
 6572SOL    HW220616   6.999   5.727   5.552
 6573SOL     OW20617   2.508   1.595   2.200
 6573SOL    HW120618   2.456   1.586   2.115
 6573SOL    HW220619   2.447   1.625   2.274
 6574SOL     OW20620   2.806   6.043   2.357
 6574SOL    HW120621   2.831   5.946   2.350
 6574SOL    HW220622   2.769   6.074   2.270
 6575SOL     OW20623   0.758   0.962   2.492
 6575SOL    HW120624   0.751   1.060   2.478
 6575SOL    HW220625   0.847   0.929   2.461
 6576SOL     OW20626   1.506   6.366   6.510
 6576SOL    HW120627   1.422   6.322   6.477
 6576SOL    HW220628   1.585   6.325   6.464
 6577SOL     OW20629   1.124   2.543   3.724
 6577SOL    HW120630   1.119   2.496   3.636
 6577SOL    HW220631   1.072   2.628   3.719
 6578SOL     OW20632   0.853   4.289   2.334
 6578SOL    HW120633   0.903   4.266   2.250
 6578SOL    HW220634   0.835   4.205   2.386
 6579SOL     OW20635   0.186   3.290   4.851
 6579SOL    HW120636   0.193   3.297   4.751
 6579SOL    HW220637   0.162   3.196   4.875
 6580SOL     OW20638   6.785   1.543   1.281
 6580SOL    HW120639   6.688   1.542   1.255
 6580SOL    HW220640   6.841   1.521   1.202
 6581SOL     OW20641   3.044   1.409   6.492
 6581SOL    HW120642   2.963   1.465   6.475
 6581SOL    HW220643   3.071   1.418   6.588
 6582SOL     OW20644   1.713   1.299   2.118
 6582SOL    HW120645   1.677   1.388   2.147
 6582SOL    HW220646   1.772   1.262   2.190
 6583SOL     OW20647   4.321   0.213   5.040
 6583SOL    HW120648   4.326   0.123   5.085
 6583SOL    HW220649   4.389   0.217   4.967
 6584SOL     OW20650   4.858   1.889   6.718
 6584SOL    HW120651   4.850   1.850   6.627
 6584SOL    HW220652   4.912   1.828   6.776
 6585SOL     OW20653   6.581   0.459   6.700
 6585SOL    HW120654   6.666   0.474   6.751
 6585SOL    HW220655   6.535   0.378   6.736
 6586SOL     OW20656   6.174   2.004   5.808
 6586SOL    HW120657   6.183   2.031   5.712
 6586SOL    HW220658   6.095   2.048   5.848
 6587SOL     OW20659   2.549   6.260   4.810
 6587SOL    HW120660   2.587   6.302   4.728
 6587SOL    HW220661   2.479   6.193   4.784
 6588SOL     OW20662   1.654   3.851   1.629
 6588SOL    HW120663   1.727   3.808   1.577
 6588SOL    HW220664   1.566   3.813   1.601
 6589SOL     OW20665   4.771   0.614   6.970
 6589SOL    HW120666   4.837   0.598   6.897
 6589SOL    HW220667   4.679   0.597   6.935
 6590SOL     OW20668   0.908   1.090   5.723
 6590SOL    HW120669   0.871   1.003   5.757
 6590SOL    HW220670   0.941   1.077   5.629
 6591SOL     OW20671   4.873   6.162   2.671
 6591SOL    HW120672   4.862   6.241   2.731
 6591SOL    HW220673   4.937   6.184   2.597
 6592SOL     OW20674   5.789   6.770   3.885
 6592SOL    HW120675   5.718   6.709   3.848
 6592SOL    HW220676   5.760   6.865   3.875
 6593SOL     OW20677   2.358   1.553   3.937
 6593SOL    HW120678   2.413   1.573   4.018
 6593SOL    HW220679   2.264   1.533   3.964
 6594SOL     OW20680   3.752   1.339   6.891
 6594SOL    HW120681   3.814   1.393   6.833
 6594SOL    HW220682   3.769   1.242   6.875
 6595SOL     OW20683   0.688   3.317   0.892
 6595SOL    HW120684   0.619   3.351   0.828
 6595SOL    HW220685   0.774   3.302   0.844
 6596SOL     OW20686   3.087   6.743   4.666
 6596SOL    HW120687   3.028   6.717   4.590
 6596SOL    HW220688   3.089   6.843   4.674
 6597SOL     OW20689   1.813   6.148   3.266
 6597SOL    HW120690   1.728   6.154   3.214
 6597SOL    HW220691   1.791   6.154   3.364
 6598SOL     OW20692   0.704   0.164   4.348
 6598SOL    HW120693   0.736   0.258   4.354
 6598SOL    HW220694   0.775   0.102   4.383
 6599SOL     OW20695   3.616   5.967   5.212
 6599SOL    HW120696   3.522   5.934   5.202
 6599SOL    HW220697   3.615   6.064   5.236
 6600SOL     OW20698   4.818   5.092   6.038
 6600SOL    HW120699   4.783   5.150   5.964
 6600SOL    HW220700   4.746   5.030   6.069
 6601SOL     OW20701   0.800   1.350   6.108
 6601SOL    HW120702   0.737   1.377   6.181
 6601SOL    HW220703   0.752   1.290   6.043
 6602SOL     OW20704   0.154   1.191   2.123
 6602SOL    HW120705   0.133   1.271   2.178
 6602SOL    HW220706   0.253   1.185   2.109
 6603SOL     OW20707   0.596   2.613   4.246
 6603SOL    HW120708   0.673   2.613   4.183
 6603SOL    HW220709   0.626   2.650   4.335
 6604SOL     OW20710   2.601   6.762   0.445
 6604SOL    HW120711   2.675   6.821   0.412
 6604SOL    HW220712   2.528   6.819   0.483
 6605SOL     OW20713   5.724   4.397   1.529
 6605SOL    HW120714   5.701   4.483   1.483
 6605SOL    HW220715   5.659   4.326   1.503
 6606SOL     OW20716   5.709   0.154   2.314
 6606SOL    HW120717   5.666   0.064   2.318
 6606SOL    HW220718   5.764   0.168   2.396
 6607SOL     OW20719   1.974   2.153   1.652
 6607SOL    HW120720   1.961   2.215   1.729
 6607SOL    HW220721   1.918   2.183   1.575
 6608SOL     OW20722   4.838   5.585   2.056
 6608SOL    HW120723   4.854   5.543   2.146
 6608SOL    HW220724   4.762   5.538   2.011
 6609SOL     OW20725   4.983   0.885   5.826
 6609SOL    HW120726   4.903   0.922   5.873
 6609SOL    HW220727   5.059   0.877   5.891
 6610SOL     OW20728   2.851   1.644   6.459
 6610SOL    HW120729   2.761   1.685   6.445
 6610SOL    HW220730   2.920   1.698   6.412
 6611SOL     OW20731   6.164   2.920   4.137
 6611SOL    HW120732   6.086   2.868   4.102
 6611SOL    HW220733   6.132   3.005   4.178
 6612SOL     OW20734   0.003   2.398   6.935
 6612SOL    HW120735   0.099   2.373   6.941
 6612SOL    HW220736   7.009   2.459   6.856
 6613SOL     OW20737   6.157   6.059   4.704
 6613SOL    HW120738   6.124   6.105   4.622
 6613SOL    HW220739   6.183   5.965   4.681
 6614SOL     OW20740   5.812   6.286   0.165
 6614SOL    HW120741   5.839   6.264   0.259
 6614SOL    HW220742   5.893   6.312   0.113
 6615SOL     OW20743   0.646   4.690   3.250
 6615SOL    HW120744   0.728   4.715   3.301
 6615SOL    HW220745   0.672   4.647   3.164
 6616SOL     OW20746   4.296   1.139   5.883
 6616SOL    HW120747   4.379   1.151   5.827
 6616SOL    HW220748   4.316   1.077   5.959
 6617SOL     OW20749   3.406   5.204   3.299
 6617SOL    HW120750   3.429   5.286   3.350
 6617SOL    HW220751   3.480   5.182   3.235
 6618SOL     OW20752   1.281   3.496   2.948
 6618SOL    HW120753   1.231   3.421   2.905
 6618SOL    HW220754   1.235   3.583   2.926
 6619SOL     OW20755   6.726   0.121   4.861
 6619SOL    HW120756   6.759   0.202   4.909
 6619SOL    HW220757   6.641   0.088   4.904
 6620SOL     OW20758   2.344   2.477   5.591
 6620SOL    HW120759   2.252   2.491   5.628
 6620SOL    HW220760   2.401   2.556   5.611
 6621SOL     OW20761   2.001   3.336   6.479
 6621SOL    HW120762   2.068   3.281   6.428
 6621SOL    HW220763   1.911   3.328   6.435
 6622SOL     OW20764   5.458   6.017   1.998
 6622SOL    HW120765   5.477   6.111   1.972
 6622SOL    HW220766   5.540   5.962   1.988
 6623SOL     OW20767   2.771   3.847   0.569
 6623SOL    HW120768   2.701   3.825   0.501
 6623SOL    HW220769   2.859   3.812   0.538
 6624SOL     OW20770   1.883   0.401   4.508
 6624SOL    HW120771   1.825   0.453   4.570
 6624SOL    HW220772   1.965   0.370   4.558
 6625SOL     OW20773   5.521   1.782   5.831
 6625SOL    HW120774   5.440   1.723   5.834
 6625SOL    HW220775   5.580   1.754   5.756
 6626SOL     OW20776   4.035   4.937   5.234
 6626SOL    HW120777   4.121   4.944   5.183
 6626SOL    HW220778   4.055   4.918   5.330
 6627SOL     OW20779   2.763   1.069   5.799
 6627SOL    HW120780   2.691   1.076   5.868
 6627SOL    HW220781   2.733   1.113   5.714
 6628SOL     OW20782   4.613   4.652   4.518
 6628SOL    HW120783   4.699   4.664   4.467
 6628SOL    HW220784   4.633   4.650   4.616
 6629SOL     OW20785   3.204   5.859   6.767
 6629SOL    HW120786   3.281   5.799   6.790
 6629SOL    HW220787   3.218   5.897   6.675
 6630SOL     OW20788   3.324   1.367   1.449
 6630SOL    HW120789   3.339   1.452   1.398
 6630SOL    HW220790   3.335   1.384   1.547
 6631SOL     OW20791   3.576   0.483   2.509
 6631SOL    HW120792   3.665   0.521   2.534
 6631SOL    HW220793   3.587   0.420   2.432
 6632SOL     OW20794   0.821   6.412   1.930
 6632SOL    HW120795   0.908   6.432   1.975
 6632SOL    HW220796   0.751   6.394   1.999
 6633SOL     OW20797   0.753   3.985   5.611
 6633SOL    HW120798   0.842   4.000   5.569
 6633SOL    HW220799   0.752   3.895   5.655
 6634SOL     OW20800   6.013   2.871   4.479
 6634SOL    HW120801   5.972   2.781   4.482
 6634SOL    HW220802   6.054   2.892   4.568
 6635SOL     OW20803   3.944   5.140   3.346
 6635SOL    HW120804   3.968   5.068   3.412
 6635SOL    HW220805   4.005   5.134   3.267
 6636SOL     OW20806   3.825   1.437   5.572
 6636SOL    HW120807   3.888   1.372   5.615
 6636SOL    HW220808   3.851   1.530   5.596
 6637SOL     OW20809   1.632   0.418   5.827
 6637SOL    HW120810   1.724   0.453   5.845
 6637SOL    HW220811   1.565   0.491   5.843
 6638SOL     OW20812   3.399   4.112   4.634
 6638SOL    HW120813   3.318   4.115   4.693
 6638SOL    HW220814   3.472   4.166   4.676
 6639SOL     OW20815   5.563   5.319   6.580
 6639SOL    HW120816   5.662   5.334   6.574
 6639SOL    HW220817   5.516   5.407   6.581
 6640SOL     OW20818   0.594   1.338   5.121
 6640SOL    HW120819   0.605   1.361   5.025
 6640SOL    HW220820   0.499   1.311   5.138
 6641SOL     OW20821   2.302   2.441   0.201
 6641SOL    HW120822   2.278   2.360   0.148
 6641SOL    HW220823   2.228   2.509   0.194
 6642SOL     OW20824   2.538   5.664   7.013
 6642SOL    HW120825   2.552   5.711   0.080
 6642SOL    HW220826   2.606   5.695   6.947
 6643SOL     OW20827   6.614   5.163   6.580
 6643SOL    HW120828   6.623   5.133   6.675
 6643SOL    HW220829   6.613   5.263   6.577
 6644SOL     OW20830   2.972   4.964   2.124
 6644SOL    HW120831   3.005   4.978   2.030
 6644SOL    HW220832   2.881   4.922   2.121
 6645SOL     OW20833   6.864   5.337   0.303
 6645SOL    HW120834   6.948   5.291   0.331
 6645SOL    HW220835   6.833   5.299   0.216
 6646SOL     OW20836   3.984   7.017   4.331
 6646SOL    HW120837   4.059   6.996   4.267
 6646SOL    HW220838   4.013   6.998   4.424
 6647SOL     OW20839   4.442   0.470   2.060
 6647SOL    HW120840   4.511   0.464   1.988
 6647SOL    HW220841   4.487   0.472   2.149
 6648SOL     OW20842   3.254   5.688   2.565
 6648SOL    HW120843   3.273   5.608   2.508
 6648SOL    HW220844   3.156   5.693   2.585
 6649SOL     OW20845   4.975   1.332   0.024
 6649SOL    HW120846   4.903   1.394   7.013
 6649SOL    HW220847   5.061   1.355   6.999
 6650SOL     OW20848   3.292   1.357   5.038
 6650SOL    HW120849   3.292   1.301   4.955
 6650SOL    HW220850   3.200   1.395   5.052
 6651SOL     OW20851   1.860   1.733   6.486
 6651SOL    HW120852   1.934   1.795   6.461
 6651SOL    HW220853   1.861   1.719   6.585
 6652SOL     OW20854   6.151   5.114   0.416
 6652SOL    HW120855   6.074   5.176   0.428
 6652SOL    HW220856   6.119   5.020   0.430
 6653SOL     OW20857   3.372   2.805   2.213
 6653SOL    HW120858   3.290   2.755   2.186
 6653SOL    HW220859   3.396   2.870   2.142
 6654SOL     OW20860   1.672   2.921   1.398
 6654SOL    HW120861   1.593   2.958   1.348
 6654SOL    HW220862   1.752   2.979   1.381
 6655SOL     OW20863   2.654   6.848   1.731
 6655SOL    HW120864   2.578   6.885   1.677
 6655SOL    HW220865   2.634   6.753   1.754
 6656SOL     OW20866   6.002   1.712   2.006
 6656SOL    HW120867   6.027   1.749   1.917
 6656SOL    HW220868   5.905   1.729   2.023
 6657SOL     OW20869   5.862   5.924   6.167
 6657SOL    HW120870   5.876   5.886   6.076
 6657SOL    HW220871   5.767   5.910   6.195
 6658SOL     OW20872   6.100   1.563   4.817
 6658SOL    HW120873   6.060   1.654   4.830
 6658SOL    HW220874   6.144   1.558   4.728
 6659SOL     OW20875   2.271   2.422   0.588
 6659SOL    HW120876   2.223   2.377   0.513
 6659SOL    HW220877   2.331   2.356   0.633
 6660SOL     OW20878   0.972   5.827   0.607
 6660SOL    HW120879   0.961   5.925   0.618
 6660SOL    HW220880   1.069   5.806   0.593
 6661SOL     OW20881   0.842   5.966   3.877
 6661SOL    HW120882   0.804   6.032   3.813
 6661SOL    HW220883   0.859   5.879   3.829
 6662SOL     OW20884   1.039   1.201   6.682
 6662SOL    HW120885   1.044   1.110   6.723
 6662SOL    HW220886   1.030   1.192   6.583
 6663SOL     OW20887   0.058   5.207   3.237
 6663SOL    HW120888   0.006   5.276   3.287
 6663SOL    HW220889   0.055   5.227   3.139
 6664SOL     OW20890   1.730   6.766   0.509
 6664SOL    HW120891   1.705   6.674   0.539
 6664SOL    HW220892   1.745   6.824   0.589
 6665SOL     OW20893   1.141   0.220   3.079
 6665SOL    HW120894   1.139   0.296   3.144
 6665SOL    HW220895   1.236   0.198   3.057
 6666SOL     OW20896   5.558   0.395   6.093
 6666SOL    HW120897   5.608   0.443   6.021
 6666SOL    HW220898   5.612   0.317   6.125
 6667SOL     OW20899   0.117   5.151   6.142
 6667SOL    HW120900   0.115   5.051   6.153
 6667SOL    HW220901   0.208   5.185   6.168
 6668SOL     OW20902   6.036   5.862   2.145
 6668SOL    HW120903   5.943   5.889   2.171
 6668SOL    HW220904   6.100   5.935   2.171
 6669SOL     OW20905   2.267   2.912   3.620
 6669SOL    HW120906   2.279   2.953   3.711
 6669SOL    HW220907   2.279   2.982   3.550
 6670SOL     OW20908   3.499   2.028   5.557
 6670SOL    HW120909   3.499   2.069   5.648
 6670SOL    HW220910   3.457   2.090   5.491
 6671SOL     OW20911   5.367   5.381   1.320
 6671SOL    HW120912   5.370   5.333   1.232
 6671SOL    HW220913   5.373   5.479   1.304
 6672SOL     OW20914   0.468   2.267   5.769
 6672SOL    HW120915   0.386   2.250   5.825
 6672SOL    HW220916   0.440   2.291   5.676
 6673SOL     OW20917   5.194   6.406   3.247
 6673SOL    HW120918   5.190   6.417   3.346
 6673SOL    HW220919   5.101   6.411   3.209
 6674SOL     OW20920   0.978   4.644   5.744
 6674SOL    HW120921   1.014   4.565   5.794
 6674SOL    HW220922   0.918   4.611   5.671
 6675SOL     OW20923   4.210   4.097   1.734
 6675SOL    HW120924   4.119   4.101   1.775
 6675SOL    HW220925   4.265   4.174   1.768
 6676SOL     OW20926   0.556   4.296   5.709
 6676SOL    HW120927   0.499   4.344   5.776
 6676SOL    HW220928   0.555   4.345   5.622
 6677SOL     OW20929   0.390   1.789   6.882
 6677SOL    HW120930   0.432   1.726   6.816
 6677SOL    HW220931   0.351   1.867   6.833
 6678SOL     OW20932   2.469   2.584   0.056
 6678SOL    HW120933   2.401   2.531   0.107
 6678SOL    HW220934   2.478   2.675   0.096
 6679SOL     OW20935   2.920   1.955   3.939
 6679SOL    HW120936   2.831   1.966   3.894
 6679SOL    HW220937   2.960   1.867   3.913
 6680SOL     OW20938   4.908   6.637   6.296
 6680SOL    HW120939   4.923   6.553   6.245
 6680SOL    HW220940   4.948   6.714   6.246
 6681SOL     OW20941   4.687   5.481   0.317
 6681SOL    HW120942   4.770   5.426   0.324
 6681SOL    HW220943   4.689   5.535   0.233
 6682SOL     OW20944   1.163   4.609   2.858
 6682SOL    HW120945   1.234   4.670   2.822
 6682SOL    HW220946   1.091   4.663   2.900
 6683SOL     OW20947   5.205   2.868   5.618
 6683SOL    HW120948   5.143   2.833   5.548
 6683SOL    HW220949   5.256   2.791   5.658
 6684SOL     OW20950   3.120   6.626   0.704
 6684SOL    HW120951   3.079   6.573   0.779
 6684SOL    HW220952   3.211   6.590   0.684
 6685SOL     OW20953   5.999   2.679   5.896
 6685SOL    HW120954   6.027   2.611   5.828
 6685SOL    HW220955   5.936   2.638   5.961
 6686SOL     OW20956   5.305   6.044   4.233
 6686SOL    HW120957   5.281   6.079   4.143
 6686SOL    HW220958   5.245   5.967   4.256
 6687SOL     OW20959   6.832   2.510   1.294
 6687SOL    HW120960   6.838   2.484   1.390
 6687SOL    HW220961   6.915   2.560   1.268
 6688SOL     OW20962   6.687   4.701   2.071
 6688SOL    HW120963   6.662   4.640   1.996
 6688SOL    HW220964   6.707   4.648   2.153
 6689SOL     OW20965   3.996   3.324   0.355
 6689SOL    HW120966   4.049   3.238   0.356
 6689SOL    HW220967   3.969   3.347   0.449
 6690SOL     OW20968   2.779   1.506   0.900
 6690SOL    HW120969   2.850   1.447   0.861
 6690SOL    HW220970   2.819   1.594   0.927
 6691SOL     OW20971   2.491   6.286   1.523
 6691SOL    HW120972   2.584   6.305   1.492
 6691SOL    HW220973   2.450   6.369   1.562
 6692SOL     OW20974   3.241   4.033   5.590
 6692SOL    HW120975   3.226   3.996   5.498
 6692SOL    HW220976   3.296   4.116   5.583
 6693SOL     OW20977   4.250   3.234   5.979
 6693SOL    HW120978   4.216   3.178   6.054
 6693SOL    HW220979   4.340   3.271   6.002
 6694SOL     OW20980   5.155   6.250   0.403
 6694SOL    HW120981   5.060   6.223   0.418
 6694SOL    HW220982   5.175   6.333   0.456
 6695SOL     OW20983   2.601   2.318   6.028
 6695SOL    HW120984   2.655   2.288   5.949
 6695SOL    HW220985   2.655   2.384   6.081
 6696SOL     OW20986   1.446   2.847   0.387
 6696SOL    HW120987   1.476   2.760   0.427
 6696SOL    HW220988   1.452   2.919   0.455
 6697SOL     OW20989   5.252   2.809   3.084
 6697SOL    HW120990   5.342   2.764   3.084
 6697SOL    HW220991   5.196   2.770   3.011
 6698SOL     OW20992   2.837   2.590   0.693
 6698SOL    HW120993   2.835   2.505   0.640
 6698SOL    HW220994   2.843   2.668   0.631
 6699SOL     OW20995   2.827   5.182   6.649
 6699SOL    HW120996   2.839   5.226   6.738
 6699SOL    HW220997   2.812   5.251   6.579
 6700SOL     OW20998   6.616   6.172   1.345
 6700SOL    HW120999   6.570   6.089   1.313
 6700SOL    HW221000   6.555   6.222   1.407
 6701SOL     OW21001   5.818   2.920   0.711
 6701SOL    HW121002   5.775   3.007   0.735
 6701SOL    HW221003   5.899   2.937   0.655
 6702SOL     OW21004   2.901   2.470   0.930
 6702SOL    HW121005   2.854   2.382   0.935
 6702SOL    HW221006   2.868   2.521   0.851
 6703SOL     OW21007   6.329   1.082   6.909
 6703SOL    HW121008   6.341   1.076   7.009
 6703SOL    HW221009   6.410   1.125   6.869
 6704SOL     OW21010   4.173   2.250   2.410
 6704SOL    HW121011   4.104   2.207   2.353
 6704SOL    HW221012   4.236   2.303   2.352
 6705SOL     OW21013   0.053   2.595   2.184
 6705SOL    HW121014   0.060   2.528   2.258
 6705SOL    HW221015   6.982   2.590   2.142
 6706SOL     OW21016   1.060   3.864   1.058
 6706SOL    HW121017   1.032   3.955   1.028
 6706SOL    HW221018   1.114   3.820   0.987
 6707SOL     OW21019   0.107   6.223   4.100
 6707SOL    HW121020   0.155   6.135   4.095
 6707SOL    HW221021   0.171   6.298   4.086
 6708SOL     OW21022   1.280   5.480   2.538
 6708SOL    HW121023   1.208   5.418   2.508
 6708SOL    HW221024   1.250   5.575   2.523
 6709SOL     OW21025   3.339   5.773   1.772
 6709SOL    HW121026   3.249   5.729   1.776
 6709SOL    HW221027   3.406   5.708   1.735
 6710SOL     OW21028   2.895   1.675   5.756
 6710SOL    HW121029   2.970   1.737   5.731
 6710SOL    HW221030   2.848   1.645   5.673
 6711SOL     OW21031   5.330   4.824   6.573
 6711SOL    HW121032   5.348   4.920   6.593
 6711SOL    HW221033   5.296   4.779   6.656
 6712SOL     OW21034   4.728   5.794   0.101
 6712SOL    HW121035   4.681   5.722   0.051
 6712SOL    HW221036   4.791   5.842   0.040
 6713SOL     OW21037   2.001   1.758   1.978
 6713SOL    HW121038   1.917   1.765   1.924
 6713SOL    HW221039   2.074   1.808   1.933
 6714SOL     OW21040   5.486   0.471   6.347
 6714SOL    HW121041   5.559   0.452   6.412
 6714SOL    HW221042   5.513   0.439   6.256
 6715SOL     OW21043   0.352   0.605   6.542
 6715SOL    HW121044   0.398   0.536   6.487
 6715SOL    HW221045   0.253   0.595   6.533
 6716SOL     OW21046   0.313   5.910   2.498
 6716SOL    HW121047   0.225   5.869   2.519
 6716SOL    HW221048   0.313   5.945   2.404
 6717SOL     OW21049   4.585   3.194   0.590
 6717SOL    HW121050   4.491   3.176   0.561
 6717SOL    HW221051   4.635   3.238   0.515
 6718SOL     OW21052   4.232   6.220   6.024
 6718SOL    HW121053   4.180   6.302   6.001
 6718SOL    HW221054   4.281   6.234   6.110
 6719SOL     OW21055   0.536   7.000   5.578
 6719SOL    HW121056   0.518   0.043   5.654
 6719SOL    HW221057   0.460   7.005   5.513
 6720SOL     OW21058   1.414   5.968   2.271
 6720SOL    HW121059   1.511   5.993   2.269
 6720SOL    HW221060   1.390   5.922   2.186
 6721SOL     OW21061   6.570   6.794   4.754
 6721SOL    HW121062   6.599   6.865   4.690
 6721SOL    HW221063   6.487   6.824   4.801
 6722SOL     OW21064   5.525   3.700   1.339
 6722SOL    HW121065   5.609   3.673   1.385
 6722SOL    HW221066   5.467   3.620   1.325
 6723SOL     OW21067   2.442   6.566   2.982
 6723SOL    HW121068   2.363   6.591   2.926
 6723SOL    HW221069   2.460   6.468   2.972
 6724SOL     OW21070   1.043   3.205   6.050
 6724SOL    HW121071   1.017   3.224   6.145
 6724SOL    HW221072   1.007   3.115   6.024
 6725SOL     OW21073   0.813   4.146   1.816
 6725SOL    HW121074   0.770   4.056   1.815
 6725SOL    HW221075   0.743   4.217   1.805
 6726SOL     OW21076   0.807   2.373   4.783
 6726SOL    HW121077   0.891   2.383   4.729
 6726SOL    HW221078   0.789   2.457   4.834
 6727SOL     OW21079   6.477   3.710   5.383
 6727SOL    HW121080   6.437   3.715   5.474
 6727SOL    HW221081   6.552   3.775   5.376
 6728SOL     OW21082   5.290   1.452   4.508
 6728SOL    HW121083   5.318   1.522   4.442
 6728SOL    HW221084   5.195   1.468   4.535
 6729SOL     OW21085   6.830   1.064   2.534
 6729SOL    HW121086   6.868   0.974   2.517
 6729SOL    HW221087   6.773   1.061   2.616
 6730SOL     OW21088   1.721   6.887   6.119
 6730SOL    HW121089   1.793   6.944   6.158
 6730SOL    HW221090   1.720   6.798   6.166
 6731SOL     OW21091   1.410   4.407   0.761
 6731SOL    HW121092   1.452   4.493   0.792
 6731SOL    HW221093   1.475   4.333   0.771
 6732SOL     OW21094   4.173   5.803   6.225
 6732SOL    HW121095   4.208   5.821   6.133
 6732SOL    HW221096   4.209   5.715   6.257
 6733SOL     OW21097   4.035   5.025   6.875
 6733SOL    HW121098   4.088   5.073   6.945
 6733SOL    HW221099   3.983   5.092   6.821
 6734SOL     OW21100   0.250   3.007   5.517
 6734SOL    HW121101   0.333   3.060   5.503
 6734SOL    HW221102   0.253   2.924   5.462
 6735SOL     OW21103   0.651   5.471   5.308
 6735SOL    HW121104   0.677   5.462   5.212
 6735SOL    HW221105   0.727   5.507   5.361
 6736SOL     OW21106   2.035   3.672   0.527
 6736SOL    HW121107   2.090   3.618   0.463
 6736SOL    HW221108   1.938   3.662   0.505
 6737SOL     OW21109   2.069   2.733   0.730
 6737SOL    HW121110   2.137   2.769   0.793
 6737SOL    HW221111   2.077   2.780   0.642
 6738SOL     OW21112   2.080   3.330   2.179
 6738SOL    HW121113   2.073   3.401   2.249
 6738SOL    HW221114   2.119   3.368   2.096
 6739SOL     OW21115   3.496   5.460   6.357
 6739SOL    HW121116   3.407   5.439   6.316
 6739SOL    HW221117   3.525   5.551   6.328
 6740SOL     OW21118   2.062   1.555   4.323
 6740SOL    HW121119   1.964   1.552   4.346
 6740SOL    HW221120   2.093   1.650   4.325
 6741SOL     OW21121   4.939   1.504   5.574
 6741SOL    HW121122   4.869   1.498   5.502
 6741SOL    HW221123   4.963   1.599   5.588
 6742SOL     OW21124   0.330   5.633   2.719
 6742SOL    HW121125   0.238   5.594   2.716
 6742SOL    HW221126   0.392   5.577   2.664
 6743SOL     OW21127   4.136   3.942   0.196
 6743SOL    HW121128   4.173   3.993   0.274
 6743SOL    HW221129   4.122   4.006   0.120
 6744SOL     OW21130   4.605   5.707   5.955
 6744SOL    HW121131   4.557   5.779   5.905
 6744SOL    HW221132   4.550   5.623   5.954
 6745SOL     OW21133   1.062   6.362   2.032
 6745SOL    HW121134   1.129   6.423   2.074
 6745SOL    HW221135   0.995   6.333   2.101
 6746SOL     OW21136   0.887   1.004   2.749
 6746SOL    HW121137   0.802   0.984   2.799
 6746SOL    HW221138   0.869   0.997   2.650
 6747SOL     OW21139   5.500   6.923   4.362
 6747SOL    HW121140   5.521   6.929   4.460
 6747SOL    HW221141   5.553   6.992   4.313
 6748SOL     OW21142   1.113   0.673   3.066
 6748SOL    HW121143   1.178   0.623   3.123
 6748SOL    HW221144   1.098   0.624   2.981
 6749SOL     OW21145   2.871   6.446   0.398
 6749SOL    HW121146   2.785   6.456   0.447
 6749SOL    HW221147   2.947   6.446   0.463
 6750SOL     OW21148   4.087   1.083   4.497
 6750SOL    HW121149   4.046   0.993   4.492
 6750SOL    HW221150   4.185   1.076   4.478
 6751SOL     OW21151   3.792   1.721   3.797
 6751SOL    HW121152   3.774   1.624   3.777
 6751SOL    HW221153   3.740   1.748   3.878
 6752SOL     OW21154   6.196   2.870   2.302
 6752SOL    HW121155   6.282   2.889   2.256
 6752SOL    HW221156   6.168   2.950   2.356
 6753SOL     OW21157   4.857   0.955   6.320
 6753SOL    HW121158   4.767   0.910   6.322
 6753SOL    HW221159   4.847   1.051   6.344
 6754SOL     OW21160   6.597   1.503   5.946
 6754SOL    HW121161   6.692   1.510   5.975
 6754SOL    HW221162   6.541   1.568   5.997
 6755SOL     OW21163   4.318   2.122   3.581
 6755SOL    HW121164   4.353   2.145   3.671
 6755SOL    HW221165   4.394   2.101   3.520
 6756SOL     OW21166   4.721   4.337   4.711
 6756SOL    HW121167   4.751   4.241   4.713
 6756SOL    HW221168   4.674   4.355   4.625
 6757SOL     OW21169   4.798   6.643   0.618
 6757SOL    HW121170   4.746   6.592   0.686
 6757SOL    HW221171   4.760   6.625   0.527
 6758SOL     OW21172   5.402   3.750   1.882
 6758SOL    HW121173   5.449   3.820   1.936
 6758SOL    HW221174   5.403   3.776   1.785
 6759SOL     OW21175   0.988   3.516   4.278
 6759SOL    HW121176   0.935   3.596   4.306
 6759SOL    HW221177   0.958   3.487   4.187
 6760SOL     OW21178   6.717   5.661   4.495
 6760SOL    HW121179   6.759   5.741   4.538
 6760SOL    HW221180   6.767   5.579   4.522
 6761SOL     OW21181   5.605   2.350   6.207
 6761SOL    HW121182   5.628   2.396   6.121
 6761SOL    HW221183   5.585   2.254   6.190
 6762SOL     OW21184   0.293   5.481   3.199
 6762SOL    HW121185   0.379   5.452   3.156
 6762SOL    HW221186   0.217   5.445   3.145
 6763SOL     OW21187   6.843   6.200   4.133
 6763SOL    HW121188   6.810   6.204   4.038
 6763SOL    HW221189   6.934   6.240   4.138
 6764SOL     OW21190   2.795   4.792   6.377
 6764SOL    HW121191   2.892   4.770   6.388
 6764SOL    HW221192   2.786   4.875   6.322
 6765SOL     OW21193   5.634   5.350   3.369
 6765SOL    HW121194   5.556   5.412   3.380
 6765SOL    HW221195   5.631   5.279   3.439
 6766SOL     OW21196   3.178   6.944   6.876
 6766SOL    HW121197   3.103   6.930   6.813
 6766SOL    HW221198   3.236   7.019   6.843
 6767SOL     OW21199   0.021   2.659   1.223
 6767SOL    HW121200   0.072   2.581   1.257
 6767SOL    HW221201   0.083   2.736   1.206
 6768SOL     OW21202   1.277   0.429   3.683
 6768SOL    HW121203   1.338   0.407   3.606
 6768SOL    HW221204   1.189   0.460   3.648
 6769SOL     OW21205   3.329   1.319   5.310
 6769SOL    HW121206   3.286   1.405   5.340
 6769SOL    HW221207   3.326   1.314   5.210
 6770SOL     OW21208   0.020   2.062   4.023
 6770SOL    HW121209   0.097   2.061   3.959
 6770SOL    HW221210   0.051   2.095   4.113
 6771SOL     OW21211   3.957   2.182   3.713
 6771SOL    HW121212   4.005   2.096   3.727
 6771SOL    HW221213   3.859   2.166   3.705
 6772SOL     OW21214   5.642   1.791   2.352
 6772SOL    HW121215   5.735   1.766   2.377
 6772SOL    HW221216   5.583   1.710   2.357
 6773SOL     OW21217   6.827   6.486   1.444
 6773SOL    HW121218   6.864   6.491   1.351
 6773SOL    HW221219   6.846   6.572   1.492
 6774SOL     OW21220   1.654   2.341   5.701
 6774SOL    HW121221   1.640   2.331   5.800
 6774SOL    HW221222   1.644   2.437   5.676
 6775SOL     OW21223   0.964   1.937   3.601
 6775SOL    HW121224   0.919   2.024   3.623
 6775SOL    HW221225   0.911   1.861   3.638
 6776SOL     OW21226   3.756   3.609   2.049
 6776SOL    HW121227   3.722   3.541   2.115
 6776SOL    HW221228   3.755   3.570   1.958
 6777SOL     OW21229   4.542   5.182   1.018
 6777SOL    HW121230   4.507   5.210   1.107
 6777SOL    HW221231   4.563   5.084   1.019
 6778SOL     OW21232   5.712   3.603   2.537
 6778SOL    HW121233   5.807   3.632   2.543
 6778SOL    HW221234   5.659   3.647   2.609
 6779SOL     OW21235   5.631   4.171   6.082
 6779SOL    HW121236   5.541   4.137   6.054
 6779SOL    HW221237   5.621   4.221   6.169
 6780SOL     OW21238   1.978   3.185   2.968
 6780SOL    HW121239   1.984   3.114   3.038
 6780SOL    HW221240   1.970   3.142   2.878
 6781SOL     OW21241   6.810   1.162   3.681
 6781SOL    HW121242   6.785   1.258   3.694
 6781SOL    HW221243   6.800   1.113   3.767
 6782SOL     OW21244   1.026   1.370   3.602
 6782SOL    HW121245   1.081   1.452   3.618
 6782SOL    HW221246   0.929   1.393   3.606
 6783SOL     OW21247   1.266   3.767   4.839
 6783SOL    HW121248   1.331   3.827   4.884
 6783SOL    HW221249   1.251   3.799   4.745
 6784SOL     OW21250   2.347   3.468   1.571
 6784SOL    HW121251   2.390   3.544   1.522
 6784SOL    HW221252   2.359   3.480   1.669
 6785SOL     OW21253   5.655   4.964   5.481
 6785SOL    HW121254   5.721   4.895   5.451
 6785SOL    HW221255   5.667   4.981   5.579
 6786SOL     OW21256   6.516   2.556   0.431
 6786SOL    HW121257   6.559   2.646   0.420
 6786SOL    HW221258   6.417   2.567   0.441
 6787SOL     OW21259   3.875   2.210   0.962
 6787SOL    HW121260   3.783   2.245   0.980
 6787SOL    HW221261   3.878   2.112   0.981
 6788SOL     OW21262   0.589   3.622   2.560
 6788SOL    HW121263   0.576   3.627   2.659
 6788SOL    HW221264   0.522   3.559   2.521
 6789SOL     OW21265   6.730   4.353   4.325
 6789SOL    HW121266   6.731   4.268   4.377
 6789SOL    HW221267   6.647   4.358   4.270
 6790SOL     OW21268   0.681   4.990   5.620
 6790SOL    HW121269   0.641   4.925   5.555
 6790SOL    HW221270   0.737   4.940   5.687
 6791SOL     OW21271   4.661   1.725   3.390
 6791SOL    HW121272   4.703   1.699   3.303
 6791SOL    HW221273   4.629   1.643   3.437
 6792SOL     OW21274   4.342   6.528   5.481
 6792SOL    HW121275   4.305   6.589   5.411
 6792SOL    HW221276   4.336   6.433   5.450
 6793SOL     OW21277   2.917   1.968   6.746
 6793SOL    HW121278   2.880   2.038   6.807
 6793SOL    HW221279   2.887   1.986   6.653
 6794SOL     OW21280   4.829   1.116   5.608
 6794SOL    HW121281   4.743   1.164   5.591
 6794SOL    HW221282   4.837   1.095   5.705
 6795SOL     OW21283   1.515   1.025   1.216
 6795SOL    HW121284   1.586   1.084   1.256
 6795SOL    HW221285   1.458   0.990   1.290
 6796SOL     OW21286   5.858   1.194   1.590
 6796SOL    HW121287   5.886   1.288   1.608
 6796SOL    HW221288   5.760   1.183   1.607
 6797SOL     OW21289   6.497   2.883   1.623
 6797SOL    HW121290   6.585   2.837   1.638
 6797SOL    HW221291   6.470   2.931   1.706
 6798SOL     OW21292   5.402   0.133   1.906
 6798SOL    HW121293   5.409   0.121   2.005
 6798SOL    HW221294   5.342   0.210   1.886
 6799SOL     OW21295   5.430   0.177   3.025
 6799SOL    HW121296   5.495   0.229   2.969
 6799SOL    HW221297   5.340   0.220   3.020
 6800SOL     OW21298   1.537   1.539   0.969
 6800SOL    HW121299   1.601   1.506   1.039
 6800SOL    HW221300   1.557   1.496   0.882
 6801SOL     OW21301   1.502   6.352   4.827
 6801SOL    HW121302   1.485   6.441   4.870
 6801SOL    HW221303   1.512   6.364   4.728
 6802SOL     OW21304   3.246   6.113   0.704
 6802SOL    HW121305   3.247   6.089   0.802
 6802SOL    HW221306   3.153   6.101   0.668
 6803SOL     OW21307   4.800   4.672   6.716
 6803SOL    HW121308   4.851   4.623   6.645
 6803SOL    HW221309   4.840   4.763   6.728
 6804SOL     OW21310   2.807   5.087   2.810
 6804SOL    HW121311   2.888   5.111   2.863
 6804SOL    HW221312   2.816   5.123   2.717
 6805SOL     OW21313   0.537   4.483   5.518
 6805SOL    HW121314   0.465   4.535   5.563
 6805SOL    HW221315   0.544   4.512   5.422
 6806SOL     OW21316   6.886   1.086   4.005
 6806SOL    HW121317   6.941   1.022   3.951
 6806SOL    HW221318   6.939   1.115   4.085
 6807SOL     OW21319   3.645   2.934   3.690
 6807SOL    HW121320   3.666   2.930   3.787
 6807SOL    HW221321   3.716   2.985   3.642
 6808SOL     OW21322   5.137   1.228   5.085
 6808SOL    HW121323   5.169   1.301   5.145
 6808SOL    HW221324   5.208   1.205   5.019
 6809SOL     OW21325   6.233   4.483   1.569
 6809SOL    HW121326   6.177   4.436   1.500
 6809SOL    HW221327   6.184   4.564   1.601
 6810SOL     OW21328   3.626   0.957   3.286
 6810SOL    HW121329   3.581   0.878   3.244
 6810SOL    HW221330   3.577   1.040   3.262
 6811SOL     OW21331   6.724   1.953   2.505
 6811SOL    HW121332   6.739   1.891   2.582
 6811SOL    HW221333   6.687   2.040   2.539
 6812SOL     OW21334   3.407   3.553   4.615
 6812SOL    HW121335   3.347   3.497   4.671
 6812SOL    HW221336   3.353   3.623   4.568
 6813SOL     OW21337   4.948   3.396   1.994
 6813SOL    HW121338   4.892   3.342   1.932
 6813SOL    HW221339   4.920   3.377   2.089
 6814SOL     OW21340   4.236   1.374   6.006
 6814SOL    HW121341   4.204   1.427   5.928
 6814SOL    HW221342   4.263   1.283   5.975
 6815SOL     OW21343   1.777   5.194   6.643
 6815SOL    HW121344   1.705   5.164   6.705
 6815SOL    HW221345   1.864   5.150   6.667
 6816SOL     OW21346   6.361   1.551   4.625
 6816SOL    HW121347   6.396   1.457   4.636
 6816SOL    HW221348   6.284   1.551   4.562
 6817SOL     OW21349   3.102   2.211   3.281
 6817SOL    HW121350   3.015   2.255   3.262
 6817SOL    HW221351   3.130   2.233   3.375
 6818SOL     OW21352   2.294   6.737   6.001
 6818SOL    HW121353   2.319   6.689   6.085
 6818SOL    HW221354   2.216   6.796   6.018
 6819SOL     OW21355   4.666   5.946   2.935
 6819SOL    HW121356   4.709   5.921   2.848
 6819SOL    HW221357   4.719   5.908   3.011
 6820SOL     OW21358   1.360   6.281   1.286
 6820SOL    HW121359   1.337   6.362   1.340
 6820SOL    HW221360   1.450   6.294   1.244
 6821SOL     OW21361   4.306   2.294   5.431
 6821SOL    HW121362   4.400   2.263   5.444
 6821SOL    HW221363   4.269   2.251   5.348
 6822SOL     OW21364   6.935   2.492   6.650
 6822SOL    HW121365   6.845   2.472   6.688
 6822SOL    HW221366   6.929   2.570   6.588
 6823SOL     OW21367   5.226   3.332   6.812
 6823SOL    HW121368   5.181   3.355   6.899
 6823SOL    HW221369   5.204   3.238   6.788
 6824SOL     OW21370   1.263   1.814   6.770
 6824SOL    HW121371   1.181   1.765   6.798
 6824SOL    HW221372   1.320   1.755   6.712
 6825SOL     OW21373   6.739   6.259   1.101
 6825SOL    HW121374   6.719   6.223   1.192
 6825SOL    HW221375   6.728   6.186   1.034
 6826SOL     OW21376   0.448   3.189   2.732
 6826SOL    HW121377   0.514   3.174   2.658
 6826SOL    HW221378   0.461   3.280   2.771
 6827SOL     OW21379   5.036   5.334   5.757
 6827SOL    HW121380   5.045   5.333   5.658
 6827SOL    HW221381   5.103   5.397   5.797
 6828SOL     OW21382   3.310   1.786   2.817
 6828SOL    HW121383   3.312   1.688   2.795
 6828SOL    HW221384   3.366   1.836   2.752
 6829SOL     OW21385   5.356   0.166   5.096
 6829SOL    HW121386   5.379   0.152   5.192
 6829SOL    HW221387   5.258   0.152   5.082
 6830SOL     OW21388   5.987   1.246   3.145
 6830SOL    HW121389   5.996   1.147   3.157
 6830SOL    HW221390   6.050   1.277   3.073
 6831SOL     OW21391   1.274   1.280   5.361
 6831SOL    HW121392   1.193   1.239   5.404
 6831SOL    HW221393   1.246   1.361   5.309
 6832SOL     OW21394   2.800   2.521   0.297
 6832SOL    HW121395   2.702   2.521   0.314
 6832SOL    HW221396   2.832   2.616   0.289
 6833SOL     OW21397   3.387   5.773   6.182
 6833SOL    HW121398   3.335   5.710   6.124
 6833SOL    HW221399   3.394   5.862   6.136
 6834SOL     OW21400   4.992   0.133   0.686
 6834SOL    HW121401   4.989   0.233   0.683
 6834SOL    HW221402   4.942   0.100   0.765
 6835SOL     OW21403   3.654   1.324   4.162
 6835SOL    HW121404   3.747   1.344   4.190
 6835SOL    HW221405   3.652   1.301   4.065
 6836SOL     OW21406   2.096   4.435   6.841
 6836SOL    HW121407   2.130   4.350   6.882
 6836SOL    HW221408   2.103   4.509   6.908
 6837SOL     OW21409   1.228   1.265   2.625
 6837SOL    HW121410   1.193   1.353   2.659
 6837SOL    HW221411   1.265   1.212   2.701
 6838SOL     OW21412   2.840   4.232   5.374
 6838SOL    HW121413   2.825   4.251   5.471
 6838SOL    HW221414   2.872   4.315   5.328
 6839SOL     OW21415   5.015   2.405   3.534
 6839SOL    HW121416   4.960   2.359   3.604
 6839SOL    HW221417   4.971   2.391   3.445
 6840SOL     OW21418   2.943   6.670   4.459
 6840SOL    HW121419   2.874   6.604   4.488
 6840SOL    HW221420   2.940   6.680   4.359
 6841SOL     OW21421   3.913   4.814   2.039
 6841SOL    HW121422   3.826   4.765   2.030
 6841SOL    HW221423   3.972   4.792   1.961
 6842SOL     OW21424   0.977   3.181   0.141
 6842SOL    HW121425   0.975   3.097   0.195
 6842SOL    HW221426   1.005   3.257   0.200
 6843SOL     OW21427   4.721   1.635   2.007
 6843SOL    HW121428   4.645   1.693   2.038
 6843SOL    HW221429   4.789   1.627   2.080
 6844SOL     OW21430   4.831   5.514   4.572
 6844SOL    HW121431   4.919   5.489   4.613
 6844SOL    HW221432   4.768   5.545   4.643
 6845SOL     OW21433   4.767   4.166   2.417
 6845SOL    HW121434   4.735   4.229   2.346
 6845SOL    HW221435   4.720   4.078   2.407
 6846SOL     OW21436   3.742   3.325   1.241
 6846SOL    HW121437   3.806   3.303   1.168
 6846SOL    HW221438   3.655   3.354   1.201
 6847SOL     OW21439   4.829   3.796   1.865
 6847SOL    HW121440   4.854   3.887   1.831
 6847SOL    HW221441   4.829   3.732   1.788
 6848SOL     OW21442   0.991   4.875   4.294
 6848SOL    HW121443   1.059   4.905   4.226
 6848SOL    HW221444   0.953   4.787   4.266
 6849SOL     OW21445   3.657   5.791   4.260
 6849SOL    HW121446   3.725   5.787   4.187
 6849SOL    HW221447   3.671   5.715   4.323
 6850SOL     OW21448   5.722   2.532   3.239
 6850SOL    HW121449   5.767   2.482   3.313
 6850SOL    HW221450   5.741   2.630   3.249
 6851SOL     OW21451   0.852   4.960   5.264
 6851SOL    HW121452   0.832   4.889   5.331
 6851SOL    HW221453   0.875   5.045   5.311
 6852SOL     OW21454   0.931   4.001   1.357
 6852SOL    HW121455   0.930   4.078   1.421
 6852SOL    HW221456   1.022   3.992   1.316
 6853SOL     OW21457   6.887   4.743   6.313
 6853SOL    HW121458   6.819   4.792   6.259
 6853SOL    HW221459   6.866   4.645   6.312
 6854SOL     OW21460   6.307   1.120   6.080
 6854SOL    HW121461   6.216   1.151   6.051
 6854SOL    HW221462   6.368   1.199   6.089
 6855SOL     OW21463   3.568   7.003   2.721
 6855SOL    HW121464   3.520   0.042   2.785
 6855SOL    HW221465   3.514   6.920   2.705
 6856SOL     OW21466   5.461   4.122   5.751
 6856SOL    HW121467   5.428   4.212   5.780
 6856SOL    HW221468   5.402   4.085   5.680
 6857SOL     OW21469   3.446   1.051   6.485
 6857SOL    HW121470   3.347   1.047   6.474
 6857SOL    HW221471   3.477   1.146   6.476
 6858SOL     OW21472   3.840   3.009   4.457
 6858SOL    HW121473   3.816   2.935   4.520
 6858SOL    HW221474   3.899   3.075   4.503
 6859SOL     OW21475   1.690   6.822   0.920
 6859SOL    HW121476   1.630   6.816   1.000
 6859SOL    HW221477   1.729   6.733   0.900
 6860SOL     OW21478   5.862   4.978   1.515
 6860SOL    HW121479   5.882   5.004   1.421
 6860SOL    HW221480   5.764   4.989   1.532
 6861SOL     OW21481   5.401   4.532   1.139
 6861SOL    HW121482   5.477   4.542   1.075
 6861SOL    HW221483   5.380   4.435   1.152
 6862SOL     OW21484   2.782   4.998   4.741
 6862SOL    HW121485   2.732   5.082   4.762
 6862SOL    HW221486   2.807   4.952   4.827
 6863SOL     OW21487   5.874   1.237   5.100
 6863SOL    HW121488   5.885   1.280   5.010
 6863SOL    HW221489   5.826   1.301   5.160
 6864SOL     OW21490   3.477   5.978   4.141
 6864SOL    HW121491   3.564   5.953   4.183
 6864SOL    HW221492   3.488   6.061   4.087
 6865SOL     OW21493   6.595   4.739   3.890
 6865SOL    HW121494   6.517   4.678   3.900
 6865SOL    HW221495   6.639   4.723   3.801
 6866SOL     OW21496   6.762   4.309   1.990
 6866SOL    HW121497   6.802   4.362   1.915
 6866SOL    HW221498   6.833   4.291   2.059
 6867SOL     OW21499   1.059   4.195   1.006
 6867SOL    HW121500   1.056   4.283   1.052
 6867SOL    HW221501   1.155   4.169   0.989
 6868SOL     OW21502   1.615   6.045   5.104
 6868SOL    HW121503   1.603   6.047   5.203
 6868SOL    HW221504   1.664   6.127   5.075
 6869SOL     OW21505   5.364   3.078   5.023
 6869SOL    HW121506   5.284   3.076   4.963
 6869SOL    HW221507   5.440   3.028   4.979
 6870SOL     OW21508   6.239   3.754   2.940
 6870SOL    HW121509   6.269   3.676   2.995
 6870SOL    HW221510   6.158   3.728   2.888
 6871SOL     OW21511   6.268   4.952   2.226
 6871SOL    HW121512   6.339   4.882   2.221
 6871SOL    HW221513   6.189   4.916   2.276
 6872SOL     OW21514   1.819   3.608   1.023
 6872SOL    HW121515   1.899   3.553   0.999
 6872SOL    HW221516   1.807   3.608   1.122
 6873SOL     OW21517   6.192   3.246   5.766
 6873SOL    HW121518   6.245   3.185   5.707
 6873SOL    HW221519   6.185   3.206   5.858
 6874SOL     OW21520   0.649   3.817   3.223
 6874SOL    HW121521   0.615   3.748   3.287
 6874SOL    HW221522   0.723   3.869   3.266
 6875SOL     OW21523   1.570   2.210   3.803
 6875SOL    HW121524   1.496   2.257   3.851
 6875SOL    HW221525   1.583   2.120   3.844
 6876SOL     OW21526   3.402   5.677   6.744
 6876SOL    HW121527   3.391   5.671   6.645
 6876SOL    HW221528   3.485   5.628   6.772
 6877SOL     OW21529   2.936   4.365   0.166
 6877SOL    HW121530   3.023   4.328   0.134
 6877SOL    HW221531   2.882   4.393   0.087
 6878SOL     OW21532   1.957   1.717   5.841
 6878SOL    HW121533   2.010   1.762   5.769
 6878SOL    HW221534   1.863   1.703   5.809
 6879SOL     OW21535   0.714   2.344   0.506
 6879SOL    HW121536   0.772   2.286   0.562
 6879SOL    HW221537   0.673   2.416   0.563
 6880SOL     OW21538   2.106   3.414   5.190
 6880SOL    HW121539   2.124   3.317   5.208
 6880SOL    HW221540   2.016   3.423   5.146
 6881SOL     OW21541   6.859   4.854   1.949
 6881SOL    HW121542   6.953   4.819   1.950
 6881SOL    HW221543   6.804   4.803   2.014
 6882SOL     OW21544   1.868   0.536   5.894
 6882SOL    HW121545   1.949   0.479   5.908
 6882SOL    HW221546   1.896   0.630   5.875
 6883SOL     OW21547   3.678   0.475   1.022
 6883SOL    HW121548   3.693   0.430   1.110
 6883SOL    HW221549   3.636   0.410   0.958
 6884SOL     OW21550   2.263   4.039   3.902
 6884SOL    HW121551   2.314   4.111   3.855
 6884SOL    HW221552   2.198   3.996   3.839
 6885SOL     OW21553   2.618   5.342   4.096
 6885SOL    HW121554   2.692   5.369   4.158
 6885SOL    HW221555   2.653   5.277   4.029
 6886SOL     OW21556   6.622   1.163   2.072
 6886SOL    HW121557   6.710   1.119   2.088
 6886SOL    HW221558   6.636   1.252   2.030
 6887SOL     OW21559   5.182   0.365   5.410
 6887SOL    HW121560   5.250   0.400   5.346
 6887SOL    HW221561   5.226   0.346   5.498
 6888SOL     OW21562   5.933   6.705   6.116
 6888SOL    HW121563   5.999   6.654   6.060
 6888SOL    HW221564   5.923   6.660   6.205
 6889SOL     OW21565   1.145   2.396   5.245
 6889SOL    HW121566   1.118   2.315   5.193
 6889SOL    HW221567   1.205   2.369   5.320
 6890SOL     OW21568   2.095   6.799   0.656
 6890SOL    HW121569   2.060   6.888   0.686
 6890SOL    HW221570   2.089   6.792   0.557
 6891SOL     OW21571   2.091   3.593   4.768
 6891SOL    HW121572   2.128   3.612   4.859
 6891SOL    HW221573   2.128   3.506   4.735
 6892SOL     OW21574   4.196   0.205   4.775
 6892SOL    HW121575   4.224   0.239   4.686
 6892SOL    HW221576   4.201   0.278   4.843
 6893SOL     OW21577   5.240   6.371   2.056
 6893SOL    HW121578   5.281   6.440   2.115
 6893SOL    HW221579   5.141   6.369   2.071
 6894SOL     OW21580   6.199   5.701   1.026
 6894SOL    HW121581   6.164   5.608   1.033
 6894SOL    HW221582   6.283   5.709   1.081
 6895SOL     OW21583   3.360   5.019   6.995
 6895SOL    HW121584   3.283   4.971   6.952
 6895SOL    HW221585   3.386   5.097   6.939
 6896SOL     OW21586   3.905   6.730   3.642
 6896SOL    HW121587   3.863   6.740   3.733
 6896SOL    HW221588   3.954   6.813   3.619
 6897SOL     OW21589   2.875   3.400   0.322
 6897SOL    HW121590   2.801   3.398   0.254
 6897SOL    HW221591   2.958   3.434   0.280
 6898SOL     OW21592   3.962   1.491   2.370
 6898SOL    HW121593   4.029   1.420   2.389
 6898SOL    HW221594   3.874   1.449   2.350
 6899SOL     OW21595   4.947   6.926   6.687
 6899SOL    HW121596   4.943   7.010   6.742
 6899SOL    HW221597   4.953   6.847   6.748
 6900SOL     OW21598   6.098   0.556   6.229
 6900SOL    HW121599   6.181   0.595   6.267
 6900SOL    HW221600   6.119   0.468   6.184
 6901SOL     OW21601   0.289   0.232   6.515
 6901SOL    HW121602   0.282   0.247   6.613
 6901SOL    HW221603   0.205   0.264   6.470
 6902SOL     OW21604   0.136   6.620   0.720
 6902SOL    HW121605   0.197   6.598   0.643
 6902SOL    HW221606   0.166   6.571   0.801
 6903SOL     OW21607   3.379   3.527   6.862
 6903SOL    HW121608   3.443   3.450   6.859
 6903SOL    HW221609   3.418   3.605   6.813
 6904SOL     OW21610   0.025   1.184   3.505
 6904SOL    HW121611   6.995   1.158   3.422
 6904SOL    HW221612   7.003   1.139   3.584
 6905SOL     OW21613   6.217   6.227   0.169
 6905SOL    HW121614   6.168   6.300   0.122
 6905SOL    HW221615   6.315   6.249   0.173
 6906SOL     OW21616   4.036   1.053   4.237
 6906SOL    HW121617   4.076   1.066   4.328
 6906SOL    HW221618   4.044   1.138   4.185
 6907SOL     OW21619   4.071   2.174   0.584
 6907SOL    HW121620   4.119   2.198   0.668
 6907SOL    HW221621   4.088   2.242   0.514
 6908SOL     OW21622   1.289   0.021   5.149
 6908SOL    HW121623   1.237   6.972   5.200
 6908SOL    HW221624   1.380   0.031   5.191
 6909SOL     OW21625   4.557   4.666   1.113
 6909SOL    HW121626   4.603   4.587   1.073
 6909SOL    HW221627   4.459   4.658   1.100
 6910SOL     OW21628   6.539   1.894   3.141
 6910SOL    HW121629   6.503   1.920   3.052
 6910SOL    HW221630   6.484   1.819   3.179
 6911SOL     OW21631   4.061   0.538   3.180
 6911SOL    HW121632   4.134   0.593   3.139
 6911SOL    HW221633   3.973   0.579   3.158
 6912SOL     OW21634   4.906   4.598   1.757
 6912SOL    HW121635   4.927   4.500   1.747
 6912SOL    HW221636   4.843   4.610   1.834
 6913SOL     OW21637   5.054   4.092   5.522
 6913SOL    HW121638   5.144   4.125   5.492
 6913SOL    HW221639   4.999   4.069   5.442
 6914SOL     OW21640   5.880   5.901   0.330
 6914SOL    HW121641   5.853   5.960   0.407
 6914SOL    HW221642   5.976   5.917   0.308
 6915SOL     OW21643   0.169   4.935   1.718
 6915SOL    HW121644   0.187   5.020   1.668
 6915SOL    HW221645   0.170   4.953   1.816
 6916SOL     OW21646   6.215   3.935   6.744
 6916SOL    HW121647   6.134   3.897   6.788
 6916SOL    HW221648   6.222   4.032   6.764
 6917SOL     OW21649   4.179   5.164   6.634
 6917SOL    HW121650   4.160   5.065   6.630
 6917SOL    HW221651   4.098   5.214   6.603
 6918SOL     OW21652   0.508   4.020   4.338
 6918SOL    HW121653   0.495   4.118   4.320
 6918SOL    HW221654   0.513   4.005   4.437
 6919SOL     OW21655   1.892   5.539   2.547
 6919SOL    HW121656   1.833   5.570   2.473
 6919SOL    HW221657   1.847   5.465   2.597
 6920SOL     OW21658   5.026   5.054   5.757
 6920SOL    HW121659   5.007   5.147   5.788
 6920SOL    HW221660   5.081   5.006   5.826
 6921SOL     OW21661   5.508   6.075   3.219
 6921SOL    HW121662   5.600   6.065   3.182
 6921SOL    HW221663   5.442   6.073   3.145
 6922SOL     OW21664   1.814   5.836   0.142
 6922SOL    HW121665   1.788   5.924   0.101
 6922SOL    HW221666   1.840   5.772   0.070
 6923SOL     OW21667   5.429   6.696   3.714
 6923SOL    HW121668   5.512   6.641   3.701
 6923SOL    HW221669   5.433   6.776   3.655
 6924SOL     OW21670   0.888   3.915   6.244
 6924SOL    HW121671   0.825   3.854   6.293
 6924SOL    HW221672   0.943   3.861   6.181
 6925SOL     OW21673   4.289   6.129   4.245
 6925SOL    HW121674   4.274   6.204   4.180
 6925SOL    HW221675   4.202   6.084   4.265
 6926SOL     OW21676   3.240   3.270   2.964
 6926SOL    HW121677   3.224   3.283   2.866
 6926SOL    HW221678   3.338   3.255   2.979
 6927SOL     OW21679   5.687   2.840   6.308
 6927SOL    HW121680   5.640   2.755   6.332
 6927SOL    HW221681   5.660   2.868   6.216
 6928SOL     OW21682   5.983   6.954   0.085
 6928SOL    HW121683   5.944   6.866   0.115
 6928SOL    HW221684   5.910   7.012   0.048
 6929SOL     OW21685   4.549   5.958   0.226
 6929SOL    HW121686   4.541   6.036   0.164
 6929SOL    HW221687   4.604   5.886   0.182
 6930SOL     OW21688   0.213   6.770   1.512
 6930SOL    HW121689   0.226   6.710   1.591
 6930SOL    HW221690   0.130   6.742   1.462
 6931SOL     OW21691   1.040   0.812   1.691
 6931SOL    HW121692   1.003   0.904   1.704
 6931SOL    HW221693   1.096   0.810   1.608
 6932SOL     OW21694   3.754   1.022   0.149
 6932SOL    HW121695   3.798   0.988   0.232
 6932SOL    HW221696   3.681   1.086   0.174
 6933SOL     OW21697   3.378   6.185   4.844
 6933SOL    HW121698   3.414   6.260   4.788
 6933SOL    HW221699   3.423   6.099   4.817
 6934SOL     OW21700   5.473   3.686   6.160
 6934SOL    HW121701   5.556   3.741   6.169
 6934SOL    HW221702   5.495   3.590   6.179
 6935SOL     OW21703   3.981   6.764   2.673
 6935SOL    HW121704   4.066   6.712   2.683
 6935SOL    HW221705   3.905   6.711   2.709
 6936SOL     OW21706   6.624   2.176   2.612
 6936SOL    HW121707   6.674   2.242   2.668
 6936SOL    HW221708   6.545   2.220   2.570
 6937SOL     OW21709   5.750   6.581   0.263
 6937SOL    HW121710   5.767   6.552   0.169
 6937SOL    HW221711   5.690   6.661   0.263
 6938SOL     OW21712   5.191   3.856   5.360
 6938SOL    HW121713   5.198   3.952   5.387
 6938SOL    HW221714   5.172   3.800   5.441
 6939SOL     OW21715   0.229   4.812   3.031
 6939SOL    HW121716   0.282   4.893   3.059
 6939SOL    HW221717   0.260   4.733   3.083
 6940SOL     OW21718   4.695   1.659   0.464
 6940SOL    HW121719   4.722   1.747   0.503
 6940SOL    HW221720   4.774   1.597   0.466
 6941SOL     OW21721   3.984   3.131   2.961
 6941SOL    HW121722   4.033   3.105   3.044
 6941SOL    HW221723   3.930   3.053   2.929
 6942SOL     OW21724   0.029   2.972   1.450
 6942SOL    HW121725   0.011   2.957   1.353
 6942SOL    HW221726   0.012   2.887   1.500
 6943SOL     OW21727   5.162   6.402   6.605
 6943SOL    HW121728   5.169   6.303   6.601
 6943SOL    HW221729   5.079   6.428   6.654
 6944SOL     OW21730   1.312   4.440   5.100
 6944SOL    HW121731   1.342   4.408   5.010
 6944SOL    HW221732   1.384   4.424   5.167
 6945SOL     OW21733   5.837   3.043   0.072
 6945SOL    HW121734   5.897   3.093   0.009
 6945SOL    HW221735   5.860   2.945   0.070
 6946SOL     OW21736   6.177   5.435   2.355
 6946SOL    HW121737   6.232   5.374   2.298
 6946SOL    HW221738   6.226   5.452   2.441
 6947SOL     OW21739   3.952   6.669   5.252
 6947SOL    HW121740   3.911   6.725   5.180
 6947SOL    HW221741   3.923   6.574   5.240
 6948SOL     OW21742   5.668   0.548   0.344
 6948SOL    HW121743   5.670   0.534   0.443
 6948SOL    HW221744   5.618   0.632   0.323
 6949SOL     OW21745   5.271   6.476   3.780
 6949SOL    HW121746   5.343   6.408   3.766
 6949SOL    HW221747   5.310   6.568   3.771
 6950SOL     OW21748   2.322   7.016   3.306
 6950SOL    HW121749   2.402   6.958   3.292
 6950SOL    HW221750   2.316   0.020   3.403
 6951SOL     OW21751   6.159   6.036   6.046
 6951SOL    HW121752   6.258   6.041   6.035
 6951SOL    HW221753   6.115   6.112   5.999
 6952SOL     OW21754   0.174   5.193   3.563
 6952SOL    HW121755   0.182   5.096   3.586
 6952SOL    HW221756   0.097   5.207   3.502
 6953SOL     OW21757   5.306   0.569   6.107
 6953SOL    HW121758   5.384   0.508   6.096
 6953SOL    HW221759   5.239   0.527   6.168
 6954SOL     OW21760   1.160   4.261   3.976
 6954SOL    HW121761   1.142   4.253   3.878
 6954SOL    HW221762   1.179   4.171   4.015
 6955SOL     OW21763   7.015   0.464   1.885
 6955SOL    HW121764   0.016   0.516   1.968
 6955SOL    HW221765   6.956   0.387   1.907
 6956SOL     OW21766   4.115   6.230   2.904
 6956SOL    HW121767   4.094   6.172   2.826
 6956SOL    HW221768   4.211   6.258   2.901
 6957SOL     OW21769   7.003   4.620   1.353
 6957SOL    HW121770   7.001   4.704   1.297
 6957SOL    HW221771   7.014   4.645   1.449
 6958SOL     OW21772   2.941   3.544   5.800
 6958SOL    HW121773   2.937   3.445   5.793
 6958SOL    HW221774   3.026   3.571   5.847
 6959SOL     OW21775   2.125   1.341   5.035
 6959SOL    HW121776   2.170   1.392   4.962
 6959SOL    HW221777   2.143   1.243   5.023
 6960SOL     OW21778   0.531   5.283   0.286
 6960SOL    HW121779   0.523   5.348   0.362
 6960SOL    HW221780   0.442   5.242   0.267
 6961SOL     OW21781   0.179   2.680   4.255
 6961SOL    HW121782   0.090   2.681   4.210
 6961SOL    HW221783   0.247   2.639   4.193
 6962SOL     OW21784   5.535   5.209   2.751
 6962SOL    HW121785   5.552   5.171   2.660
 6962SOL    HW221786   5.496   5.301   2.741
 6963SOL     OW21787   0.773   5.820   0.413
 6963SOL    HW121788   0.859   5.799   0.459
 6963SOL    HW221789   0.700   5.828   0.481
 6964SOL     OW21790   4.980   4.410   4.690
 6964SOL    HW121791   4.885   4.402   4.719
 6964SOL    HW221792   5.034   4.450   4.764
 6965SOL     OW21793   0.497   3.850   6.170
 6965SOL    HW121794   0.541   3.882   6.087
 6965SOL    HW221795   0.559   3.861   6.248
 6966SOL     OW21796   5.948   2.887   2.861
 6966SOL    HW121797   6.019   2.876   2.931
 6966SOL    HW221798   5.927   2.798   2.820
 6967SOL     OW21799   1.455   1.582   5.211
 6967SOL    HW121800   1.494   1.656   5.155
 6967SOL    HW221801   1.364   1.559   5.176
 6968SOL     OW21802   3.310   6.358   2.462
 6968SOL    HW121803   3.325   6.455   2.443
 6968SOL    HW221804   3.393   6.306   2.442
 6969SOL     OW21805   3.859   1.851   2.162
 6969SOL    HW121806   3.940   1.878   2.110
 6969SOL    HW221807   3.778   1.862   2.104
 6970SOL     OW21808   4.389   4.164   0.557
 6970SOL    HW121809   4.474   4.148   0.606
 6970SOL    HW221810   4.322   4.095   0.584
 6971SOL     OW21811   6.493   3.958   2.254
 6971SOL    HW121812   6.480   3.923   2.347
 6971SOL    HW221813   6.406   3.958   2.206
 6972SOL     OW21814   6.065   4.952   4.490
 6972SOL    HW121815   6.112   4.864   4.489
 6972SOL    HW221816   5.993   4.951   4.559
 6973SOL     OW21817   1.215   3.927   4.599
 6973SOL    HW121818   1.163   3.851   4.560
 6973SOL    HW221819   1.179   4.013   4.563
 6974SOL     OW21820   3.315   2.996   3.395
 6974SOL    HW121821   3.257   3.022   3.318
 6974SOL    HW221822   3.262   3.001   3.480
 6975SOL     OW21823   3.206   6.317   5.756
 6975SOL    HW121824   3.152   6.235   5.736
 6975SOL    HW221825   3.148   6.398   5.752
 6976SOL     OW21826   4.124   4.038   5.569
 6976SOL    HW121827   4.166   4.127   5.553
 6976SOL    HW221828   4.042   4.029   5.513
 6977SOL     OW21829   5.448   2.273   1.483
 6977SOL    HW121830   5.418   2.184   1.448
 6977SOL    HW221831   5.392   2.299   1.561
 6978SOL     OW21832   6.291   1.923   1.144
 6978SOL    HW121833   6.225   1.888   1.211
 6978SOL    HW221834   6.267   2.017   1.121
 6979SOL     OW21835   1.306   4.724   1.206
 6979SOL    HW121836   1.312   4.631   1.170
 6979SOL    HW221837   1.362   4.732   1.288
 6980SOL     OW21838   1.708   0.222   4.141
 6980SOL    HW121839   1.740   0.310   4.105
 6980SOL    HW221840   1.709   0.225   4.241
 6981SOL     OW21841   2.551   3.184   0.067
 6981SOL    HW121842   2.578   3.171   6.992
 6981SOL    HW221843   2.451   3.181   0.074
 6982SOL     OW21844   1.491   1.574   4.035
 6982SOL    HW121845   1.418   1.642   4.031
 6982SOL    HW221846   1.580   1.620   4.036
 6983SOL     OW21847   5.819   2.415   3.486
 6983SOL    HW121848   5.890   2.482   3.508
 6983SOL    HW221849   5.856   2.323   3.494
 6984SOL     OW21850   2.494   1.695   5.019
 6984SOL    HW121851   2.560   1.759   5.060
 6984SOL    HW221852   2.541   1.610   4.994
 6985SOL     OW21853   3.661   5.246   2.758
 6985SOL    HW121854   3.604   5.323   2.729
 6985SOL    HW221855   3.684   5.190   2.678
 6986SOL     OW21856   1.719   6.323   6.139
 6986SOL    HW121857   1.647   6.387   6.165
 6986SOL    HW221858   1.796   6.374   6.101
 6987SOL     OW21859   0.983   1.937   6.558
 6987SOL    HW121860   1.018   1.845   6.574
 6987SOL    HW221861   1.056   2.004   6.573
 6988SOL     OW21862   5.922   0.667   4.669
 6988SOL    HW121863   5.863   0.739   4.705
 6988SOL    HW221864   6.004   0.660   4.725
 6989SOL     OW21865   0.761   3.062   3.947
 6989SOL    HW121866   0.761   3.022   3.855
 6989SOL    HW221867   0.847   3.040   3.992
 6990SOL     OW21868   5.323   1.855   0.229
 6990SOL    HW121869   5.275   1.773   0.258
 6990SOL    HW221870   5.410   1.861   0.278
 6991SOL     OW21871   2.334   4.730   4.337
 6991SOL    HW121872   2.381   4.779   4.263
 6991SOL    HW221873   2.274   4.794   4.386
 6992SOL     OW21874   6.245   6.004   5.095
 6992SOL    HW121875   6.265   6.089   5.047
 6992SOL    HW221876   6.318   5.986   5.162
 6993SOL     OW21877   6.192   6.733   2.858
 6993SOL    HW121878   6.095   6.742   2.882
 6993SOL    HW221879   6.206   6.768   2.766
 6994SOL     OW21880   0.772   2.960   4.918
 6994SOL    HW121881   0.859   2.961   4.869
 6994SOL    HW221882   0.782   3.008   5.004
 6995SOL     OW21883   6.484   5.312   4.776
 6995SOL    HW121884   6.416   5.365   4.724
 6995SOL    HW221885   6.437   5.244   4.832
 6996SOL     OW21886   2.024   0.963   4.728
 6996SOL    HW121887   2.119   0.964   4.758
 6996SOL    HW221888   1.963   0.961   4.807
 6997SOL     OW21889   5.239   6.150   5.254
 6997SOL    HW121890   5.237   6.225   5.188
 6997SOL    HW221891   5.308   6.170   5.324
 6998SOL     OW21892   1.798   2.448   1.491
 6998SOL    HW121893   1.888   2.444   1.448
 6998SOL    HW221894   1.732   2.484   1.425
 6999SOL     OW21895   2.201   1.825   6.925
 6999SOL    HW121896   2.107   1.860   6.923
 6999SOL    HW221897   2.241   1.830   6.833
 7000SOL     OW21898   6.756   6.096   2.655
 7000SOL    HW121899   6.828   6.031   2.681
 7000SOL    HW221900   6.667   6.061   2.685
 7001SOL     OW21901   2.440   3.173   5.654
 7001SOL    HW121902   2.443   3.185   5.555
 7001SOL    HW221903   2.431   3.076   5.676
 7002SOL     OW21904   2.672   4.805   3.035
 7002SOL    HW121905   2.652   4.716   2.994
 7002SOL    HW221906   2.616   4.875   2.990
 7003SOL     OW21907   3.857   6.339   6.902
 7003SOL    HW121908   3.802   6.265   6.940
 7003SOL    HW221909   3.854   6.418   6.963
 7004SOL     OW21910   1.884   4.924   1.627
 7004SOL    HW121911   1.948   4.997   1.604
 7004SOL    HW221912   1.930   4.856   1.684
 7005SOL     OW21913   0.741   6.542   5.499
 7005SOL    HW121914   0.700   6.465   5.548
 7005SOL    HW221915   0.693   6.627   5.523
 7006SOL     OW21916   5.838   4.971   4.662
 7006SOL    HW121917   5.799   5.063   4.654
 7006SOL    HW221918   5.833   4.941   4.757
 7007SOL     OW21919   4.987   6.717   3.030
 7007SOL    HW121920   4.995   6.792   2.964
 7007SOL    HW221921   4.930   6.746   3.107
 7008SOL     OW21922   2.146   5.741   4.715
 7008SOL    HW121923   2.181   5.757   4.623
 7008SOL    HW221924   2.075   5.670   4.711
 7009SOL     OW21925   5.717   5.333   2.508
 7009SOL    HW121926   5.810   5.321   2.472
 7009SOL    HW221927   5.654   5.274   2.458
 7010SOL     OW21928   4.391   3.742   6.300
 7010SOL    HW121929   4.320   3.676   6.325
 7010SOL    HW221930   4.388   3.819   6.364
 7011SOL     OW21931   1.868   0.794   6.260
 7011SOL    HW121932   1.949   0.798   6.201
 7011SOL    HW221933   1.891   0.829   6.351
 7012SOL     OW21934   2.436   1.005   1.801
 7012SOL    HW121935   2.441   0.983   1.704
 7012SOL    HW221936   2.528   1.014   1.838
 7013SOL     OW21937   6.901   6.541   0.853
 7013SOL    HW121938   6.912   6.466   0.787
 7013SOL    HW221939   6.963   6.527   0.930
 7014SOL     OW21940   4.587   3.432   1.022
 7014SOL    HW121941   4.679   3.410   1.055
 7014SOL    HW221942   4.561   3.367   0.950
 7015SOL     OW21943   5.562   4.437   2.017
 7015SOL    HW121944   5.495   4.489   2.070
 7015SOL    HW221945   5.556   4.463   1.920
 7016SOL     OW21946   3.654   4.888   2.230
 7016SOL    HW121947   3.629   4.849   2.141
 7016SOL    HW221948   3.587   4.861   2.298
 7017SOL     OW21949   2.316   0.292   2.203
 7017SOL    HW121950   2.257   0.280   2.122
 7017SOL    HW221951   2.264   0.338   2.275
 7018SOL     OW21952   6.421   4.283   4.725
 7018SOL    HW121953   6.381   4.352   4.664
 7018SOL    HW221954   6.376   4.196   4.710
 7019SOL     OW21955   2.939   4.584   6.581
 7019SOL    HW121956   3.010   4.647   6.552
 7019SOL    HW221957   2.916   4.523   6.505
 7020SOL     OW21958   6.378   6.575   6.586
 7020SOL    HW121959   6.476   6.594   6.576
 7020SOL    HW221960   6.353   6.583   6.683
 7021SOL     OW21961   2.076   1.188   5.416
 7021SOL    HW121962   2.143   1.257   5.392
 7021SOL    HW221963   2.035   1.150   5.333
 7022SOL     OW21964   4.663   4.374   0.783
 7022SOL    HW121965   4.611   4.299   0.824
 7022SOL    HW221966   4.760   4.351   0.782
 7023SOL     OW21967   0.789   2.313   3.601
 7023SOL    HW121968   0.776   2.268   3.513
 7023SOL    HW221969   0.714   2.288   3.662
 7024SOL     OW21970   1.339   5.347   6.039
 7024SOL    HW121971   1.423   5.369   5.988
 7024SOL    HW221972   1.275   5.300   5.978
 7025SOL     OW21973   3.096   1.681   0.110
 7025SOL    HW121974   3.028   1.691   0.183
 7025SOL    HW221975   3.142   1.593   0.119
 7026SOL     OW21976   3.034   1.517   2.200
 7026SOL    HW121977   2.969   1.588   2.173
 7026SOL    HW221978   3.117   1.559   2.234
 7027SOL     OW21979   3.276   5.341   2.665
 7027SOL    HW121980   3.264   5.244   2.645
 7027SOL    HW221981   3.188   5.387   2.659
 7028SOL     OW21982   6.473   6.642   4.465
 7028SOL    HW121983   6.387   6.596   4.446
 7028SOL    HW221984   6.475   6.670   4.561
 7029SOL     OW21985   3.899   6.891   6.889
 7029SOL    HW121986   3.980   6.935   6.927
 7029SOL    HW221987   3.852   6.954   6.827
 7030SOL     OW21988   6.484   2.476   6.012
 7030SOL    HW121989   6.423   2.500   5.936
 7030SOL    HW221990   6.563   2.427   5.977
 7031SOL     OW21991   2.138   5.894   3.804
 7031SOL    HW121992   2.199   5.838   3.747
 7031SOL    HW221993   2.179   5.905   3.895
 7032SOL     OW21994   3.545   6.732   3.791
 7032SOL    HW121995   3.451   6.706   3.769
 7032SOL    HW221996   3.544   6.799   3.865
 7033SOL     OW21997   6.809   1.685   3.286
 7033SOL    HW121998   6.775   1.641   3.368
 7033SOL    HW221999   6.799   1.785   3.295
 7034SOL     OW22000   6.198   0.709   2.770
 7034SOL    HW122001   6.188   0.619   2.728
 7034SOL    HW222002   6.277   0.756   2.730
 7035SOL     OW22003   1.507   6.648   1.838
 7035SOL    HW122004   1.452   6.589   1.898
 7035SOL    HW222005   1.507   6.741   1.875
 7036SOL     OW22006   0.133   0.478   1.366
 7036SOL    HW122007   0.099   0.393   1.408
 7036SOL    HW222008   0.101   0.556   1.420
 7037SOL     OW22009   0.961   0.220   6.010
 7037SOL    HW122010   0.976   0.121   6.017
 7037SOL    HW222011   0.999   0.265   6.091
 7038SOL     OW22012   1.717   3.723   4.129
 7038SOL    HW122013   1.749   3.731   4.223
 7038SOL    HW222014   1.737   3.807   4.079
 7039SOL     OW22015   2.917   6.188   0.797
 7039SOL    HW122016   2.948   6.178   0.891
 7039SOL    HW222017   2.849   6.261   0.791
 7040SOL     OW22018   4.899   2.460   5.088
 7040SOL    HW122019   4.860   2.539   5.136
 7040SOL    HW222020   4.841   2.438   5.009
 7041SOL     OW22021   0.746   1.758   2.987
 7041SOL    HW122022   0.673   1.805   3.037
 7041SOL    HW222023   0.744   1.661   3.009
 7042SOL     OW22024   5.671   5.412   6.852
 7042SOL    HW122025   5.574   5.393   6.837
 7042SOL    HW222026   5.715   5.427   6.764
 7043SOL     OW22027   2.286   2.914   3.200
 7043SOL    HW122028   2.191   2.890   3.217
 7043SOL    HW222029   2.340   2.830   3.186
 7044SOL     OW22030   5.070   4.717   3.445
 7044SOL    HW122031   5.137   4.676   3.508
 7044SOL    HW222032   5.115   4.738   3.358
 7045SOL     OW22033   4.518   5.881   2.337
 7045SOL    HW122034   4.528   5.781   2.340
 7045SOL    HW222035   4.605   5.922   2.312
 7046SOL     OW22036   3.661   2.157   3.750
 7046SOL    HW122037   3.649   2.178   3.653
 7046SOL    HW222038   3.615   2.071   3.772
 7047SOL     OW22039   1.178   2.404   3.183
 7047SOL    HW122040   1.268   2.386   3.145
 7047SOL    HW222041   1.128   2.318   3.193
 7048SOL     OW22042   0.099   5.864   1.440
 7048SOL    HW122043   0.142   5.777   1.462
 7048SOL    HW222044   0.142   5.937   1.493
 7049SOL     OW22045   2.317   1.318   0.872
 7049SOL    HW122046   2.319   1.276   0.781
 7049SOL    HW222047   2.397   1.378   0.882
 7050SOL     OW22048   3.643   3.962   3.445
 7050SOL    HW122049   3.544   3.966   3.462
 7050SOL    HW222050   3.691   4.002   3.523
 7051SOL     OW22051   0.403   0.900   0.769
 7051SOL    HW122052   0.370   0.969   0.834
 7051SOL    HW222053   0.435   0.820   0.819
 7052SOL     OW22054   6.073   2.484   4.268
 7052SOL    HW122055   6.145   2.551   4.251
 7052SOL    HW222056   6.074   2.416   4.195
 7053SOL     OW22057   1.068   3.205   5.106
 7053SOL    HW122058   1.000   3.236   5.173
 7053SOL    HW222059   1.120   3.128   5.144
 7054SOL     OW22060   0.911   6.268   1.320
 7054SOL    HW122061   0.871   6.242   1.409
 7054SOL    HW222062   0.953   6.358   1.328
 7055SOL     OW22063   3.861   6.417   5.209
 7055SOL    HW122064   3.924   6.356   5.162
 7055SOL    HW222065   3.847   6.386   5.303
 7056SOL     OW22066   5.352   5.801   3.254
 7056SOL    HW122067   5.391   5.856   3.180
 7056SOL    HW222068   5.253   5.806   3.250
 7057SOL     OW22069   1.538   5.207   3.979
 7057SOL    HW122070   1.535   5.119   4.027
 7057SOL    HW222071   1.514   5.193   3.883
 7058SOL     OW22072   6.239   5.484   6.594
 7058SOL    HW122073   6.327   5.517   6.628
 7058SOL    HW222074   6.206   5.545   6.523
 7059SOL     OW22075   0.602   0.578   3.318
 7059SOL    HW122076   0.633   0.484   3.301
 7059SOL    HW222077   0.524   0.599   3.260
 7060SOL     OW22078   2.975   6.900   1.615
 7060SOL    HW122079   2.979   6.855   1.525
 7060SOL    HW222080   2.960   6.998   1.603
 7061SOL     OW22081   0.394   2.675   3.852
 7061SOL    HW122082   0.488   2.707   3.867
 7061SOL    HW222083   0.394   2.604   3.781
 7062SOL     OW22084   5.426   1.464   6.345
 7062SOL    HW122085   5.381   1.551   6.324
 7062SOL    HW222086   5.398   1.395   6.279
 7063SOL     OW22087   0.254   0.281   1.238
 7063SOL    HW122088   0.335   0.253   1.290
 7063SOL    HW222089   0.223   0.370   1.271
 7064SOL     OW22090   4.092   2.256   1.814
 7064SOL    HW122091   4.175   2.285   1.766
 7064SOL    HW222092   4.019   2.323   1.797
 7065SOL     OW22093   4.207   3.736   0.505
 7065SOL    HW122094   4.301   3.756   0.476
 7065SOL    HW222095   4.202   3.742   0.605
 7066SOL     OW22096   4.420   0.879   0.808
 7066SOL    HW122097   4.476   0.805   0.770
 7066SOL    HW222098   4.410   0.865   0.907
 7067SOL     OW22099   1.456   1.638   5.522
 7067SOL    HW122100   1.470   1.572   5.448
 7067SOL    HW222101   1.542   1.685   5.541
 7068SOL     OW22102   0.793   4.038   3.596
 7068SOL    HW122103   0.694   4.046   3.587
 7068SOL    HW222104   0.826   3.964   3.537
 7069SOL     OW22105   5.869   2.658   4.271
 7069SOL    HW122106   5.873   2.734   4.206
 7069SOL    HW222107   5.954   2.606   4.265
 7070SOL     OW22108   6.983   6.181   5.143
 7070SOL    HW122109   0.021   6.258   5.168
 7070SOL    HW222110   0.018   6.098   5.140
 7071SOL     OW22111   1.060   6.413   6.305
 7071SOL    HW122112   1.109   6.435   6.390
 7071SOL    HW222113   1.098   6.466   6.230
 7072SOL     OW22114   0.013   6.257   5.982
 7072SOL    HW122115   0.074   6.265   6.061
 7072SOL    HW222116   6.948   6.213   6.010
 7073SOL     OW22117   5.604   6.994   4.606
 7073SOL    HW122118   5.634   0.069   4.599
 7073SOL    HW222119   5.588   6.971   4.702
 7074SOL     OW22120   4.491   2.724   1.487
 7074SOL    HW122121   4.492   2.664   1.407
 7074SOL    HW222122   4.433   2.685   1.558
 7075SOL     OW22123   1.213   6.013   5.851
 7075SOL    HW122124   1.129   5.975   5.889
 7075SOL    HW222125   1.253   5.947   5.787
 7076SOL     OW22126   3.906   2.420   6.807
 7076SOL    HW122127   3.988   2.418   6.751
 7076SOL    HW222128   3.856   2.506   6.791
 7077SOL     OW22129   2.197   4.764   5.851
 7077SOL    HW122130   2.285   4.765   5.899
 7077SOL    HW222131   2.123   4.768   5.918
 7078SOL     OW22132   6.481   0.672   1.851
 7078SOL    HW122133   6.577   0.645   1.860
 7078SOL    HW222134   6.470   0.768   1.873
 7079SOL     OW22135   6.738   6.070   5.269
 7079SOL    HW122136   6.822   6.117   5.242
 7079SOL    HW222137   6.745   5.973   5.245
 7080SOL     OW22138   3.419   2.106   4.368
 7080SOL    HW122139   3.335   2.150   4.401
 7080SOL    HW222140   3.464   2.059   4.444
 7081SOL     OW22141   2.852   0.569   6.230
 7081SOL    HW122142   2.856   0.469   6.229
 7081SOL    HW222143   2.890   0.605   6.145
 7082SOL     OW22144   5.997   5.225   6.697
 7082SOL    HW122145   6.050   5.148   6.662
 7082SOL    HW222146   6.054   5.279   6.759
 7083SOL     OW22147   3.382   1.053   6.757
 7083SOL    HW122148   3.468   1.019   6.796
 7083SOL    HW222149   3.397   1.080   6.662
 7084SOL     OW22150   0.278   6.755   5.648
 7084SOL    HW122151   0.186   6.730   5.618
 7084SOL    HW222152   0.289   6.735   5.745
 7085SOL     OW22153   2.102   1.412   2.711
 7085SOL    HW122154   2.025   1.350   2.723
 7085SOL    HW222155   2.140   1.434   2.801
 7086SOL     OW22156   5.127   1.015   5.543
 7086SOL    HW122157   5.028   1.003   5.534
 7086SOL    HW222158   5.168   0.928   5.569
 7087SOL     OW22159   6.187   4.040   3.862
 7087SOL    HW122160   6.224   4.108   3.799
 7087SOL    HW222161   6.096   4.012   3.831
 7088SOL     OW22162   5.403   2.786   3.403
 7088SOL    HW122163   5.398   2.827   3.312
 7088SOL    HW222164   5.327   2.722   3.415
 7089SOL     OW22165   3.403   2.125   5.805
 7089SOL    HW122166   3.310   2.088   5.808
 7089SOL    HW222167   3.429   2.157   5.896
 7090SOL     OW22168   2.477   1.445   6.193
 7090SOL    HW122169   2.577   1.450   6.197
 7090SOL    HW222170   2.445   1.494   6.113
 7091SOL     OW22171   0.086   2.023   0.077
 7091SOL    HW122172   0.186   2.020   0.086
 7091SOL    HW222173   0.049   2.083   0.148
 7092SOL     OW22174   4.483   2.883   6.244
 7092SOL    HW122175   4.513   2.966   6.292
 7092SOL    HW222176   4.560   2.820   6.236
 7093SOL     OW22177   3.324   3.692   3.193
 7093SOL    HW122178   3.254   3.760   3.211
 7093SOL    HW222179   3.410   3.720   3.237
 7094SOL     OW22180   0.523   5.567   6.055
 7094SOL    HW122181   0.476   5.639   6.003
 7094SOL    HW222182   0.458   5.521   6.115
 7095SOL     OW22183   3.352   2.728   6.813
 7095SOL    HW122184   3.438   2.779   6.804
 7095SOL    HW222185   3.285   2.785   6.861
 7096SOL     OW22186   6.398   0.751   4.185
 7096SOL    HW122187   6.425   0.846   4.195
 7096SOL    HW222188   6.358   0.737   4.094
 7097SOL     OW22189   6.344   0.888   1.390
 7097SOL    HW122190   6.347   0.931   1.480
 7097SOL    HW222191   6.380   0.952   1.322
 7098SOL     OW22192   0.705   0.041   4.095
 7098SOL    HW122193   0.653   0.065   4.013
 7098SOL    HW222194   0.674   0.097   4.172
 7099SOL     OW22195   2.767   0.548   4.789
 7099SOL    HW122196   2.807   0.597   4.867
 7099SOL    HW222197   2.784   0.600   4.705
 7100SOL     OW22198   5.764   3.419   1.073
 7100SOL    HW122199   5.753   3.372   0.986
 7100SOL    HW222200   5.760   3.352   1.148
 7101SOL     OW22201   2.037   0.580   4.915
 7101SOL    HW122202   2.079   0.595   4.825
 7101SOL    HW222203   2.007   0.485   4.922
 7102SOL     OW22204   4.672   0.959   1.096
 7102SOL    HW122205   4.632   0.879   1.140
 7102SOL    HW222206   4.753   0.988   1.147
 7103SOL     OW22207   4.213   5.282   0.954
 7103SOL    HW122208   4.205   5.280   1.054
 7103SOL    HW222209   4.288   5.223   0.925
 7104SOL     OW22210   1.221   3.431   4.608
 7104SOL    HW122211   1.177   3.395   4.525
 7104SOL    HW222212   1.206   3.367   4.683
 7105SOL     OW22213   2.800   2.775   5.471
 7105SOL    HW122214   2.881   2.724   5.440
 7105SOL    HW222215   2.781   2.849   5.407
 7106SOL     OW22216   3.140   3.027   3.032
 7106SOL    HW122217   3.045   3.042   3.060
 7106SOL    HW222218   3.180   3.113   3.000
 7107SOL     OW22219   3.576   0.598   0.605
 7107SOL    HW122220   3.588   0.630   0.699
 7107SOL    HW222221   3.480   0.606   0.579
 7108SOL     OW22222   4.193   6.193   2.259
 7108SOL    HW122223   4.122   6.124   2.247
 7108SOL    HW222224   4.274   6.166   2.207
 7109SOL     OW22225   3.999   6.820   6.319
 7109SOL    HW122226   4.063   6.884   6.363
 7109SOL    HW222227   4.033   6.727   6.329
 7110SOL     OW22228   4.282   6.087   3.686
 7110SOL    HW122229   4.363   6.033   3.710
 7110SOL    HW222230   4.289   6.178   3.727
 7111SOL     OW22231   2.327   1.999   4.779
 7111SOL    HW122232   2.386   1.928   4.740
 7111SOL    HW222233   2.232   1.980   4.756
 7112SOL     OW22234   2.561   6.234   4.073
 7112SOL    HW122235   2.463   6.252   4.082
 7112SOL    HW222236   2.581   6.204   3.980
 7113SOL     OW22237   3.060   3.983   4.987
 7113SOL    HW122238   3.014   4.015   5.070
 7113SOL    HW222239   3.090   3.888   5.000
 7114SOL     OW22240   3.967   6.732   1.533
 7114SOL    HW122241   3.988   6.822   1.496
 7114SOL    HW222242   3.967   6.736   1.633
 7115SOL     OW22243   5.455   2.846   2.335
 7115SOL    HW122244   5.363   2.867   2.302
 7115SOL    HW222245   5.487   2.921   2.393
 7116SOL     OW22246   5.231   3.454   3.406
 7116SOL    HW122247   5.298   3.381   3.418
 7116SOL    HW222248   5.270   3.528   3.351
 7117SOL     OW22249   0.344   6.646   4.519
 7117SOL    HW122250   0.435   6.673   4.551
 7117SOL    HW222251   0.286   6.727   4.514
 7118SOL     OW22252   3.168   4.193   0.707
 7118SOL    HW122253   3.171   4.271   0.769
 7118SOL    HW222254   3.152   4.109   0.759
 7119SOL     OW22255   5.354   1.811   3.575
 7119SOL    HW122256   5.302   1.844   3.653
 7119SOL    HW222257   5.367   1.885   3.509
 7120SOL     OW22258   4.333   1.912   2.457
 7120SOL    HW122259   4.256   1.849   2.467
 7120SOL    HW222260   4.363   1.942   2.548
 7121SOL     OW22261   2.866   0.038   2.149
 7121SOL    HW122262   2.868   0.098   2.229
 7121SOL    HW222263   2.773   0.007   2.133
 7122SOL     OW22264   6.629   0.631   5.814
 7122SOL    HW122265   6.619   0.731   5.813
 7122SOL    HW222266   6.700   0.606   5.880
 7123SOL     OW22267   2.419   4.869   1.673
 7123SOL    HW122268   2.518   4.882   1.679
 7123SOL    HW222269   2.398   4.771   1.677
 7124SOL     OW22270   0.436   2.948   1.021
 7124SOL    HW122271   0.435   2.965   0.923
 7124SOL    HW222272   0.371   3.008   1.067
 7125SOL     OW22273   6.238   6.651   0.982
 7125SOL    HW122274   6.264   6.647   1.078
 7125SOL    HW222275   6.231   6.559   0.944
 7126SOL     OW22276   3.324   5.049   6.634
 7126SOL    HW122277   3.293   5.003   6.551
 7126SOL    HW222278   3.275   5.136   6.643
 7127SOL     OW22279   2.386   6.282   4.415
 7127SOL    HW122280   2.466   6.300   4.473
 7127SOL    HW222281   2.325   6.218   4.461
 7128SOL     OW22282   2.087   6.000   0.364
 7128SOL    HW122283   2.072   5.938   0.441
 7128SOL    HW222284   2.109   5.947   0.282
 7129SOL     OW22285   2.925   0.437   0.643
 7129SOL    HW122286   2.911   0.377   0.722
 7129SOL    HW222287   2.846   0.496   0.631
 7130SOL     OW22288   3.448   4.523   5.347
 7130SOL    HW122289   3.488   4.445   5.300
 7130SOL    HW222290   3.348   4.515   5.344
 7131SOL     OW22291   2.773   1.461   0.168
 7131SOL    HW122292   2.740   1.525   0.099
 7131SOL    HW222293   2.699   1.439   0.231
 7132SOL     OW22294   3.370   4.140   0.496
 7132SOL    HW122295   3.340   4.049   0.467
 7132SOL    HW222296   3.303   4.178   0.559
 7133SOL     OW22297   4.705   5.806   3.756
 7133SOL    HW122298   4.799   5.830   3.732
 7133SOL    HW222299   4.704   5.745   3.835
 7134SOL     OW22300   5.813   6.010   2.201
 7134SOL    HW122301   5.842   6.101   2.173
 7134SOL    HW222302   5.776   6.014   2.294
 7135SOL     OW22303   2.173   2.142   3.486
 7135SOL    HW122304   2.111   2.203   3.535
 7135SOL    HW222305   2.121   2.073   3.436
 7136SOL     OW22306   1.795   2.731   0.800
 7136SOL    HW122307   1.894   2.726   0.791
 7136SOL    HW222308   1.756   2.639   0.792
 7137SOL     OW22309   4.791   0.654   6.415
 7137SOL    HW122310   4.709   0.710   6.404
 7137SOL    HW222311   4.852   0.696   6.482
 7138SOL     OW22312   1.860   2.712   0.302
 7138SOL    HW122313   1.852   2.719   0.401
 7138SOL    HW222314   1.804   2.782   0.259
 7139SOL     OW22315   4.939   4.286   2.573
 7139SOL    HW122316   4.865   4.249   2.516
 7139SOL    HW222317   5.023   4.292   2.519
 7140SOL     OW22318   5.718   3.406   4.630
 7140SOL    HW122319   5.625   3.406   4.592
 7140SOL    HW222320   5.723   3.339   4.704
 7141SOL     OW22321   2.841   5.968   1.136
 7141SOL    HW122322   2.751   5.925   1.150
 7141SOL    HW222323   2.909   5.897   1.117
 7142SOL     OW22324   4.463   0.147   3.181
 7142SOL    HW122325   4.433   0.242   3.182
 7142SOL    HW222326   4.460   0.111   3.088
 7143SOL     OW22327   1.816   2.780   6.315
 7143SOL    HW122328   1.881   2.824   6.253
 7143SOL    HW222329   1.788   2.692   6.276
 7144SOL     OW22330   1.918   1.616   3.611
 7144SOL    HW122331   1.839   1.560   3.637
 7144SOL    HW222332   1.927   1.618   3.512
 7145SOL     OW22333   4.764   6.629   5.962
 7145SOL    HW122334   4.737   6.553   6.020
 7145SOL    HW222335   4.722   6.713   5.996
 7146SOL     OW22336   1.945   0.511   6.659
 7146SOL    HW122337   2.012   0.454   6.707
 7146SOL    HW222338   1.980   0.535   6.568
 7147SOL     OW22339   6.399   6.241   3.101
 7147SOL    HW122340   6.449   6.300   3.164
 7147SOL    HW222341   6.458   6.168   3.069
 7148SOL     OW22342   6.858   6.496   1.183
 7148SOL    HW122343   6.838   6.403   1.152
 7148SOL    HW222344   6.791   6.559   1.143
 7149SOL     OW22345   6.356   6.889   3.170
 7149SOL    HW122346   6.324   6.799   3.200
 7149SOL    HW222347   6.409   6.879   3.085
 7150SOL     OW22348   4.498   2.028   1.954
 7150SOL    HW122349   4.471   2.061   2.045
 7150SOL    HW222350   4.449   2.080   1.884
 7151SOL     OW22351   1.581   6.510   0.501
 7151SOL    HW122352   1.604   6.529   0.405
 7151SOL    HW222353   1.650   6.449   0.540
 7152SOL     OW22354   0.515   1.562   4.928
 7152SOL    HW122355   0.431   1.508   4.919
 7152SOL    HW222356   0.492   1.656   4.953
 7153SOL     OW22357   3.134   6.025   3.286
 7153SOL    HW122358   3.048   6.012   3.236
 7153SOL    HW222359   3.150   5.946   3.344
 7154SOL     OW22360   4.341   6.647   4.683
 7154SOL    HW122361   4.272   6.598   4.631
 7154SOL    HW222362   4.395   6.704   4.620
 7155SOL     OW22363   2.696   4.899   1.671
 7155SOL    HW122364   2.766   4.954   1.625
 7155SOL    HW222365   2.724   4.803   1.670
 7156SOL     OW22366   0.501   3.921   4.613
 7156SOL    HW122367   0.427   3.857   4.593
 7156SOL    HW222368   0.469   3.989   4.679
 7157SOL     OW22369   6.308   4.395   1.155
 7157SOL    HW122370   6.239   4.467   1.165
 7157SOL    HW222371   6.268   4.319   1.104
 7158SOL     OW22372   1.083   6.937   2.789
 7158SOL    HW122373   1.042   6.936   2.880
 7158SOL    HW222374   1.147   6.861   2.780
 7159SOL     OW22375   0.349   4.186   2.690
 7159SOL    HW122376   0.420   4.238   2.738
 7159SOL    HW222377   0.391   4.131   2.618
 7160SOL     OW22378   5.974   0.420   3.365
 7160SOL    HW122379   6.035   0.421   3.444
 7160SOL    HW222380   5.939   0.512   3.349
 7161SOL     OW22381   3.162   4.118   4.788
 7161SOL    HW122382   3.142   4.213   4.812
 7161SOL    HW222383   3.127   4.058   4.860
 7162SOL     OW22384   2.320   5.480   5.655
 7162SOL    HW122385   2.370   5.560   5.621
 7162SOL    HW222386   2.259   5.447   5.583
 7163SOL     OW22387   2.846   6.421   3.193
 7163SOL    HW122388   2.826   6.333   3.152
 7163SOL    HW222389   2.892   6.408   3.281
 7164SOL     OW22390   1.898   1.207   3.584
 7164SOL    HW122391   1.963   1.254   3.524
 7164SOL    HW222392   1.840   1.274   3.630
 7165SOL     OW22393   0.069   1.779   1.294
 7165SOL    HW122394   0.158   1.765   1.251
 7165SOL    HW222395   0.010   1.832   1.233
 7166SOL     OW22396   5.536   2.998   0.437
 7166SOL    HW122397   5.604   2.927   0.457
 7166SOL    HW222398   5.446   2.967   0.469
 7167SOL     OW22399   5.193   3.731   4.798
 7167SOL    HW122400   5.287   3.735   4.833
 7167SOL    HW222401   5.130   3.722   4.875
 7168SOL     OW22402   1.563   2.518   4.133
 7168SOL    HW122403   1.612   2.578   4.197
 7168SOL    HW222404   1.627   2.455   4.090
 7169SOL     OW22405   0.332   3.476   5.033
 7169SOL    HW122406   0.283   3.421   4.966
 7169SOL    HW222407   0.353   3.421   5.114
 7170SOL     OW22408   4.848   6.058   3.608
 7170SOL    HW122409   4.779   6.010   3.553
 7170SOL    HW222410   4.907   6.112   3.547
 7171SOL     OW22411   5.658   4.331   6.332
 7171SOL    HW122412   5.576   4.275   6.343
 7171SOL    HW222413   5.680   4.376   6.418
 7172SOL     OW22414   1.451   0.688   5.475
 7172SOL    HW122415   1.374   0.638   5.516
 7172SOL    HW222416   1.418   0.777   5.442
 7173SOL     OW22417   0.571   4.584   5.260
 7173SOL    HW122418   0.509   4.585   5.182
 7173SOL    HW222419   0.646   4.520   5.242
 7174SOL     OW22420   0.536   5.023   6.696
 7174SOL    HW122421   0.526   4.939   6.748
 7174SOL    HW222422   0.559   5.001   6.601
 7175SOL     OW22423   5.483   3.967   0.006
 7175SOL    HW122424   5.514   4.013   0.089
 7175SOL    HW222425   5.387   3.939   0.017
 7176SOL     OW22426   1.247   5.724   3.397
 7176SOL    HW122427   1.319   5.735   3.329
 7176SOL    HW222428   1.257   5.794   3.468
 7177SOL     OW22429   2.546   6.610   4.282
 7177SOL    HW122430   2.519   6.610   4.378
 7177SOL    HW222431   2.620   6.545   4.267
 7178SOL     OW22432   2.229   3.550   5.874
 7178SOL    HW122433   2.237   3.640   5.916
 7178SOL    HW222434   2.173   3.557   5.792
 7179SOL     OW22435   1.851   3.504   5.096
 7179SOL    HW122436   1.752   3.488   5.089
 7179SOL    HW222437   1.869   3.603   5.095
 7180SOL     OW22438   1.659   4.946   6.335
 7180SOL    HW122439   1.756   4.968   6.329
 7180SOL    HW222440   1.640   4.898   6.420
 7181SOL     OW22441   2.151   5.611   0.803
 7181SOL    HW122442   2.099   5.526   0.812
 7181SOL    HW222443   2.215   5.604   0.727
 7182SOL     OW22444   1.875   3.278   5.428
 7182SOL    HW122445   1.784   3.261   5.465
 7182SOL    HW222446   1.940   3.214   5.470
 7183SOL     OW22447   1.454   5.578   0.716
 7183SOL    HW122448   1.502   5.661   0.686
 7183SOL    HW222449   1.455   5.574   0.816
 7184SOL     OW22450   0.827   0.510   3.087
 7184SOL    HW122451   0.812   0.445   3.012
 7184SOL    HW222452   0.875   0.464   3.162
 7185SOL     OW22453   5.551   1.292   5.603
 7185SOL    HW122454   5.471   1.264   5.550
 7185SOL    HW222455   5.619   1.219   5.601
 7186SOL     OW22456   0.146   0.003   6.541
 7186SOL    HW122457   0.193   0.081   6.500
 7186SOL    HW222458   0.212   6.964   6.586
 7187SOL     OW22459   3.311   4.524   0.280
 7187SOL    HW122460   3.230   4.546   0.334
 7187SOL    HW222461   3.285   4.478   0.196
 7188SOL     OW22462   6.064   0.052   0.313
 7188SOL    HW122463   6.125   0.125   0.280
 7188SOL    HW222464   6.024   0.005   0.234
 7189SOL     OW22465   6.275   1.000   6.362
 7189SOL    HW122466   6.242   1.086   6.401
 7189SOL    HW222467   6.325   1.019   6.277
 7190SOL     OW22468   6.239   4.042   2.952
 7190SOL    HW122469   6.313   4.087   3.000
 7190SOL    HW222470   6.263   3.946   2.936
 7191SOL     OW22471   0.656   4.053   2.788
 7191SOL    HW122472   0.639   3.994   2.867
 7191SOL    HW222473   0.593   4.130   2.789
 7192SOL     OW22474   3.387   5.012   5.464
 7192SOL    HW122475   3.416   4.960   5.384
 7192SOL    HW222476   3.287   5.004   5.474
 7193SOL     OW22477   2.526   1.756   3.219
 7193SOL    HW122478   2.497   1.844   3.183
 7193SOL    HW222479   2.587   1.770   3.297
 7194SOL     OW22480   3.023   2.076   0.678
 7194SOL    HW122481   3.063   2.137   0.746
 7194SOL    HW222482   3.093   2.014   0.643
 7195SOL     OW22483   0.473   5.131   6.077
 7195SOL    HW122484   0.520   5.209   6.117
 7195SOL    HW222485   0.497   5.123   5.980
 7196SOL     OW22486   3.335   4.072   1.771
 7196SOL    HW122487   3.287   4.035   1.850
 7196SOL    HW222488   3.417   4.121   1.801
 7197SOL     OW22489   6.809   2.201   6.071
 7197SOL    HW122490   6.853   2.116   6.039
 7197SOL    HW222491   6.738   2.228   6.006
 7198SOL     OW22492   0.473   0.944   5.853
 7198SOL    HW122493   0.522   0.896   5.780
 7198SOL    HW222494   0.415   0.879   5.903
 7199SOL     OW22495   2.274   0.797   2.061
 7199SOL    HW122496   2.307   0.891   2.071
 7199SOL    HW222497   2.273   0.772   1.964
 7200SOL     OW22498   2.080   1.861   0.197
 7200SOL    HW122499   2.014   1.865   0.122
 7200SOL    HW222500   2.152   1.796   0.175
 7201SOL     OW22501   1.548   5.515   3.991
 7201SOL    HW122502   1.545   5.580   4.067
 7201SOL    HW222503   1.561   5.423   4.027
 7202SOL     OW22504   4.330   0.241   5.944
 7202SOL    HW122505   4.375   0.183   5.877
 7202SOL    HW222506   4.399   0.292   5.996
 7203SOL     OW22507   0.412   1.904   0.817
 7203SOL    HW122508   0.371   1.850   0.744
 7203SOL    HW222509   0.444   1.992   0.780
 7204SOL     OW22510   6.382   6.678   5.061
 7204SOL    HW122511   6.344   6.693   4.970
 7204SOL    HW222512   6.457   6.612   5.055
 7205SOL     OW22513   1.918   5.729   3.068
 7205SOL    HW122514   1.994   5.744   3.132
 7205SOL    HW222515   1.843   5.684   3.116
 7206SOL     OW22516   2.348   0.282   1.241
 7206SOL    HW122517   2.341   0.217   1.165
 7206SOL    HW222518   2.260   0.329   1.252
 7207SOL     OW22519   3.900   6.452   1.512
 7207SOL    HW122520   3.920   6.425   1.606
 7207SOL    HW222521   3.947   6.538   1.491
 7208SOL     OW22522   4.584   6.227   3.917
 7208SOL    HW122523   4.682   6.221   3.937
 7208SOL    HW222524   4.571   6.265   3.825
 7209SOL     OW22525   3.467   2.999   2.070
 7209SOL    HW122526   3.559   2.960   2.064
 7209SOL    HW222527   3.457   3.046   2.158
 7210SOL     OW22528   4.486   0.157   4.268
 7210SOL    HW122529   4.550   0.230   4.244
 7210SOL    HW222530   4.461   0.106   4.185
 7211SOL     OW22531   2.260   5.593   3.895
 7211SOL    HW122532   2.307   5.561   3.977
 7211SOL    HW222533   2.283   5.534   3.818
 7212SOL     OW22534   0.859   6.099   3.396
 7212SOL    HW122535   0.816   6.178   3.440
 7212SOL    HW222536   0.952   6.088   3.432
 7213SOL     OW22537   6.226   0.314   6.720
 7213SOL    HW122538   6.151   0.253   6.748
 7213SOL    HW222539   6.266   0.357   6.801
 7214SOL     OW22540   1.391   5.784   4.594
 7214SOL    HW122541   1.340   5.853   4.646
 7214SOL    HW222542   1.366   5.790   4.497
 7215SOL     OW22543   0.532   3.074   4.072
 7215SOL    HW122544   0.553   3.095   4.167
 7215SOL    HW222545   0.616   3.043   4.026
 7216SOL     OW22546   2.032   6.123   6.969
 7216SOL    HW122547   1.938   6.135   7.001
 7216SOL    HW222548   2.069   6.211   6.939
 7217SOL     OW22549   2.129   4.586   2.240
 7217SOL    HW122550   2.217   4.546   2.216
 7217SOL    HW222551   2.077   4.604   2.156
 7218SOL     OW22552   4.455   2.720   5.264
 7218SOL    HW122553   4.427   2.814   5.244
 7218SOL    HW222554   4.548   2.720   5.301
 7219SOL     OW22555   5.557   6.384   4.078
 7219SOL    HW122556   5.522   6.467   4.121
 7219SOL    HW222557   5.639   6.406   4.024
 7220SOL     OW22558   0.378   5.720   3.892
 7220SOL    HW122559   0.383   5.697   3.989
 7220SOL    HW222560   0.455   5.680   3.844
 7221SOL     OW22561   5.341   4.923   5.189
 7221SOL    HW122562   5.255   4.946   5.144
 7221SOL    HW222563   5.399   4.872   5.125
 7222SOL     OW22564   6.197   0.319   1.970
 7222SOL    HW122565   6.137   0.388   2.012
 7222SOL    HW222566   6.143   0.239   1.945
 7223SOL     OW22567   3.118   2.119   1.506
 7223SOL    HW122568   3.175   2.167   1.574
 7223SOL    HW222569   3.116   2.022   1.527
 7224SOL     OW22570   5.538   1.868   4.206
 7224SOL    HW122571   5.611   1.858   4.138
 7224SOL    HW222572   5.578   1.870   4.297
 7225SOL     OW22573   1.335   6.258   6.316
 7225SOL    HW122574   1.258   6.246   6.254
 7225SOL    HW222575   1.384   6.171   6.326
 7226SOL     OW22576   1.081   0.749   0.584
 7226SOL    HW122577   0.997   0.736   0.637
 7226SOL    HW222578   1.121   0.839   0.607
 7227SOL     OW22579   0.291   2.621   0.937
 7227SOL    HW122580   0.330   2.687   0.872
 7227SOL    HW222581   0.308   2.528   0.905
 7228SOL     OW22582   0.212   0.958   2.341
 7228SOL    HW122583   0.177   0.956   2.247
 7228SOL    HW222584   0.249   0.868   2.365
 7229SOL     OW22585   1.173   0.742   4.257
 7229SOL    HW122586   1.156   0.797   4.175
 7229SOL    HW222587   1.130   0.784   4.336
 7230SOL     OW22588   5.065   5.609   4.833
 7230SOL    HW122589   5.067   5.661   4.918
 7230SOL    HW222590   5.029   5.518   4.850
 7231SOL     OW22591   4.461   6.732   6.970
 7231SOL    HW122592   4.453   6.634   6.992
 7231SOL    HW222593   4.453   6.744   6.871
 7232SOL     OW22594   4.368   5.205   3.567
 7232SOL    HW122595   4.308   5.256   3.629
 7232SOL    HW222596   4.411   5.130   3.617
 7233SOL     OW22597   0.446   2.522   4.616
 7233SOL    HW122598   0.430   2.600   4.677
 7233SOL    HW222599   0.532   2.535   4.568
 7234SOL     OW22600   5.732   2.803   3.196
 7234SOL    HW122601   5.788   2.846   3.124
 7234SOL    HW222602   5.722   2.867   3.272
 7235SOL     OW22603   6.463   4.473   3.208
 7235SOL    HW122604   6.453   4.514   3.118
 7235SOL    HW222605   6.382   4.493   3.263
 7236SOL     OW22606   3.129   1.357   2.665
 7236SOL    HW122607   3.061   1.378   2.594
 7236SOL    HW222608   3.119   1.261   2.692
 7237SOL     OW22609   6.261   6.736   5.641
 7237SOL    HW122610   6.170   6.698   5.632
 7237SOL    HW222611   6.327   6.678   5.593
 7238SOL     OW22612   2.372   2.295   1.070
 7238SOL    HW122613   2.385   2.369   1.004
 7238SOL    HW222614   2.457   2.243   1.078
 7239SOL     OW22615   2.840   1.308   3.614
 7239SOL    HW122616   2.793   1.289   3.700
 7239SOL    HW222617   2.915   1.371   3.630
 7240SOL     OW22618   2.080   3.927   6.725
 7240SOL    HW122619   2.154   3.973   6.677
 7240SOL    HW222620   2.115   3.883   6.807
 7241SOL     OW22621   3.543   0.667   6.925
 7241SOL    HW122622   3.512   0.593   6.866
 7241SOL    HW222623   3.499   0.753   6.898
 7242SOL     OW22624   6.862   4.905   0.020
 7242SOL    HW122625   6.897   4.914   6.947
 7242SOL    HW222626   6.859   4.808   0.045
 7243SOL     OW22627   0.732   4.366   6.132
 7243SOL    HW122628   0.742   4.441   6.066
 7243SOL    HW222629   0.731   4.403   6.224
 7244SOL     OW22630   4.886   1.023   1.287
 7244SOL    HW122631   4.869   1.063   1.377
 7244SOL    HW222632   4.919   1.094   1.225
 7245SOL     OW22633   0.737   1.831   4.796
 7245SOL    HW122634   0.671   1.772   4.750
 7245SOL    HW222635   0.705   1.850   4.889
 7246SOL     OW22636   5.868   6.890   4.811
 7246SOL    HW122637   5.936   6.958   4.783
 7246SOL    HW222638   5.848   6.828   4.735
 7247SOL     OW22639   3.010   6.725   3.441
 7247SOL    HW122640   3.025   6.819   3.473
 7247SOL    HW222641   3.056   6.712   3.353
 7248SOL     OW22642   4.034   0.914   3.009
 7248SOL    HW122643   3.985   0.997   3.034
 7248SOL    HW222644   3.976   0.857   2.950
 7249SOL     OW22645   5.764   4.792   1.852
 7249SOL    HW122646   5.711   4.770   1.934
 7249SOL    HW222647   5.795   4.708   1.808
 7250SOL     OW22648   3.508   5.320   6.010
 7250SOL    HW122649   3.592   5.309   6.062
 7250SOL    HW222650   3.435   5.264   6.051
 7251SOL     OW22651   0.052   6.493   5.366
 7251SOL    HW122652   6.982   6.530   5.388
 7251SOL    HW222653   0.123   6.558   5.394
 7252SOL     OW22654   3.414   3.166   3.893
 7252SOL    HW122655   3.398   3.090   3.830
 7252SOL    HW222656   3.437   3.130   3.983
 7253SOL     OW22657   1.584   0.239   0.239
 7253SOL    HW122658   1.567   0.264   0.334
 7253SOL    HW222659   1.504   0.192   0.202
 7254SOL     OW22660   4.655   4.923   5.043
 7254SOL    HW122661   4.624   4.960   4.956
 7254SOL    HW222662   4.588   4.942   5.114
 7255SOL     OW22663   3.351   3.721   1.940
 7255SOL    HW122664   3.252   3.727   1.947
 7255SOL    HW222665   3.380   3.759   1.852
 7256SOL     OW22666   5.154   4.860   4.460
 7256SOL    HW122667   5.092   4.808   4.520
 7256SOL    HW222668   5.243   4.868   4.503
 7257SOL     OW22669   5.908   3.070   3.363
 7257SOL    HW122670   5.977   3.027   3.422
 7257SOL    HW222671   5.946   3.153   3.322
 7258SOL     OW22672   4.060   0.538   3.836
 7258SOL    HW122673   4.156   0.532   3.865
 7258SOL    HW222674   4.019   0.621   3.873
 7259SOL     OW22675   3.296   3.937   1.375
 7259SOL    HW122676   3.280   3.914   1.471
 7259SOL    HW222677   3.255   3.867   1.316
 7260SOL     OW22678   3.253   2.099   3.037
 7260SOL    HW122679   3.206   2.154   3.106
 7260SOL    HW222680   3.351   2.117   3.041
 7261SOL     OW22681   3.282   2.766   1.239
 7261SOL    HW122682   3.194   2.801   1.271
 7261SOL    HW222683   3.290   2.669   1.265
 7262SOL     OW22684   5.927   2.829   4.033
 7262SOL    HW122685   5.838   2.857   3.996
 7262SOL    HW222686   5.973   2.769   3.968
 7263SOL     OW22687   0.342   5.594   2.213
 7263SOL    HW122688   0.375   5.644   2.292
 7263SOL    HW222689   0.277   5.523   2.242
 7264SOL     OW22690   6.719   1.394   6.729
 7264SOL    HW122691   6.770   1.452   6.793
 7264SOL    HW222692   6.641   1.354   6.776
 7265SOL     OW22693   5.422   5.385   5.886
 7265SOL    HW122694   5.376   5.471   5.865
 7265SOL    HW222695   5.445   5.338   5.801
 7266SOL     OW22696   4.212   0.685   0.570
 7266SOL    HW122697   4.142   0.649   0.631
 7266SOL    HW222698   4.174   0.759   0.515
 7267SOL     OW22699   6.887   4.784   5.172
 7267SOL    HW122700   6.790   4.785   5.148
 7267SOL    HW222701   6.934   4.716   5.116
 7268SOL     OW22702   4.454   4.946   3.169
 7268SOL    HW122703   4.406   5.000   3.239
 7268SOL    HW222704   4.553   4.950   3.186
 7269SOL     OW22705   6.812   5.983   1.671
 7269SOL    HW122706   6.756   6.066   1.668
 7269SOL    HW222707   6.890   5.998   1.733
 7270SOL     OW22708   1.487   2.646   3.440
 7270SOL    HW122709   1.565   2.610   3.492
 7270SOL    HW222710   1.426   2.571   3.416
 7271SOL     OW22711   0.725   4.968   3.313
 7271SOL    HW122712   0.824   4.984   3.305
 7271SOL    HW222713   0.691   4.929   3.228
 7272SOL     OW22714   6.143   3.358   2.173
 7272SOL    HW122715   6.071   3.294   2.201
 7272SOL    HW222716   6.166   3.418   2.250
 7273SOL     OW22717   6.028   4.465   2.037
 7273SOL    HW122718   6.003   4.419   1.952
 7273SOL    HW222719   5.947   4.473   2.095
 7274SOL     OW22720   6.983   6.323   6.398
 7274SOL    HW122721   6.925   6.333   6.318
 7274SOL    HW222722   6.981   6.407   6.452
 7275SOL     OW22723   6.481   0.531   0.787
 7275SOL    HW122724   6.393   0.492   0.813
 7275SOL    HW222725   6.526   0.570   0.868
 7276SOL     OW22726   3.174   1.275   3.645
 7276SOL    HW122727   3.213   1.183   3.647
 7276SOL    HW222728   3.144   1.296   3.551
 7277SOL     OW22729   5.424   1.009   4.831
 7277SOL    HW122730   5.514   1.035   4.866
 7277SOL    HW222731   5.361   1.086   4.842
 7278SOL     OW22732   3.535   2.139   3.085
 7278SOL    HW122733   3.592   2.160   3.164
 7278SOL    HW222734   3.592   2.102   3.011
 7279SOL     OW22735   4.408   4.018   0.027
 7279SOL    HW122736   4.427   4.054   0.118
 7279SOL    HW222737   4.374   4.091   6.989
 7280SOL     OW22738   5.815   2.530   5.041
 7280SOL    HW122739   5.716   2.547   5.033
 7280SOL    HW222740   5.855   2.598   5.103
 7281SOL     OW22741   3.399   0.182   1.075
 7281SOL    HW122742   3.304   0.209   1.061
 7281SOL    HW222743   3.407   0.082   1.067
 7282SOL     OW22744   6.431   5.481   1.711
 7282SOL    HW122745   6.407   5.560   1.653
 7282SOL    HW222746   6.521   5.448   1.685
 7283SOL     OW22747   3.064   6.627   2.112
 7283SOL    HW122748   2.983   6.620   2.053
 7283SOL    HW222749   3.141   6.581   2.068
 7284SOL     OW22750   6.622   2.735   3.771
 7284SOL    HW122751   6.709   2.693   3.799
 7284SOL    HW222752   6.639   2.803   3.699
 7285SOL     OW22753   4.852   3.409   1.447
 7285SOL    HW122754   4.857   3.499   1.489
 7285SOL    HW222755   4.859   3.338   1.518
 7286SOL     OW22756   0.727   1.464   0.742
 7286SOL    HW122757   0.751   1.559   0.723
 7286SOL    HW222758   0.810   1.412   0.764
 7287SOL     OW22759   6.882   2.705   3.917
 7287SOL    HW122760   6.893   2.799   3.883
 7287SOL    HW222761   6.869   2.707   4.016
 7288SOL     OW22762   1.879   2.887   2.104
 7288SOL    HW122763   1.814   2.816   2.077
 7288SOL    HW222764   1.969   2.867   2.065
 7289SOL     OW22765   5.611   3.038   2.106
 7289SOL    HW122766   5.602   3.063   2.203
 7289SOL    HW222767   5.521   3.011   2.071
 7290SOL     OW22768   3.534   0.851   5.190
 7290SOL    HW122769   3.473   0.920   5.230
 7290SOL    HW222770   3.560   0.785   5.261
 7291SOL     OW22771   3.942   0.254   0.572
 7291SOL    HW122772   3.959   0.156   0.558
 7291SOL    HW222773   3.949   0.274   0.670
 7292SOL     OW22774   1.952   6.568   3.444
 7292SOL    HW122775   2.015   6.506   3.490
 7292SOL    HW222776   1.937   6.649   3.502
 7293SOL     OW22777   1.331   1.275   5.924
 7293SOL    HW122778   1.407   1.307   5.866
 7293SOL    HW222779   1.250   1.260   5.867
 7294SOL     OW22780   3.233   4.726   1.473
 7294SOL    HW122781   3.268   4.666   1.401
 7294SOL    HW222782   3.141   4.756   1.451
 7295SOL     OW22783   6.439   4.378   1.811
 7295SOL    HW122784   6.362   4.438   1.789
 7295SOL    HW222785   6.440   4.300   1.748
 7296SOL     OW22786   3.664   5.058   3.195
 7296SOL    HW122787   3.684   5.132   3.258
 7296SOL    HW222788   3.736   4.988   3.201
 7297SOL     OW22789   3.002   6.328   1.973
 7297SOL    HW122790   3.061   6.321   2.053
 7297SOL    HW222791   3.056   6.310   1.891
 7298SOL     OW22792   4.676   6.419   6.914
 7298SOL    HW122793   4.725   6.502   6.940
 7298SOL    HW222794   4.579   6.429   6.935
 7299SOL     OW22795   1.377   2.370   0.234
 7299SOL    HW122796   1.450   2.422   0.190
 7299SOL    HW222797   1.305   2.352   0.168
 7300SOL     OW22798   0.654   5.049   1.494
 7300SOL    HW122799   0.729   4.985   1.479
 7300SOL    HW222800   0.603   5.022   1.576
 7301SOL     OW22801   0.113   0.238   5.690
 7301SOL    HW122802   0.115   0.174   5.767
 7301SOL    HW222803   0.021   0.273   5.678
 7302SOL     OW22804   6.441   1.851   5.586
 7302SOL    HW122805   6.463   1.845   5.683
 7302SOL    HW222806   6.358   1.799   5.567
 7303SOL     OW22807   3.258   1.282   6.847
 7303SOL    HW122808   3.276   1.188   6.818
 7303SOL    HW222809   3.295   1.297   6.938
 7304SOL     OW22810   2.325   5.110   1.542
 7304SOL    HW122811   2.339   5.013   1.561
 7304SOL    HW222812   2.228   5.126   1.522
 7305SOL     OW22813   5.204   2.411   0.964
 7305SOL    HW122814   5.234   2.506   0.964
 7305SOL    HW222815   5.117   2.403   1.013
 7306SOL     OW22816   3.760   1.295   1.784
 7306SOL    HW122817   3.695   1.356   1.830
 7306SOL    HW222818   3.852   1.333   1.792
 7307SOL     OW22819   3.654   6.462   2.098
 7307SOL    HW122820   3.644   6.455   1.999
 7307SOL    HW222821   3.751   6.466   2.122
 7308SOL     OW22822   6.700   1.204   2.960
 7308SOL    HW122823   6.705   1.200   3.060
 7308SOL    HW222824   6.649   1.286   2.933
 7309SOL     OW22825   2.471   6.277   2.968
 7309SOL    HW122826   2.407   6.200   2.974
 7309SOL    HW222827   2.522   6.270   2.882
 7310SOL     OW22828   1.168   3.330   6.814
 7310SOL    HW122829   1.262   3.337   6.781
 7310SOL    HW222830   1.112   3.401   6.770
 7311SOL     OW22831   0.935   0.340   0.326
 7311SOL    HW122832   0.839   0.317   0.314
 7311SOL    HW222833   0.966   0.395   0.249
 7312SOL     OW22834   0.306   1.388   4.986
 7312SOL    HW122835   0.216   1.418   4.953
 7312SOL    HW222836   0.333   1.304   4.939
 7313SOL     OW22837   2.660   1.198   0.529
 7313SOL    HW122838   2.594   1.123   0.528
 7313SOL    HW222839   2.745   1.168   0.486
 7314SOL     OW22840   0.445   4.127   6.951
 7314SOL    HW122841   0.458   4.085   0.021
 7314SOL    HW222842   0.479   4.064   6.881
 7315SOL     OW22843   6.545   5.273   2.359
 7315SOL    HW122844   6.463   5.272   2.301
 7315SOL    HW222845   6.627   5.274   2.301
 7316SOL     OW22846   3.480   1.858   6.177
 7316SOL    HW122847   3.569   1.902   6.162
 7316SOL    HW222848   3.491   1.783   6.242
 7317SOL     OW22849   3.619   1.856   1.937
 7317SOL    HW122850   3.583   1.770   1.972
 7317SOL    HW222851   3.574   1.932   1.983
 7318SOL     OW22852   3.905   6.840   2.076
 7318SOL    HW122853   3.903   6.896   2.159
 7318SOL    HW222854   3.893   6.897   1.996
 7319SOL     OW22855   0.104   3.220   6.530
 7319SOL    HW122856   0.193   3.224   6.483
 7319SOL    HW222857   0.070   3.126   6.528
 7320SOL     OW22858   6.659   4.282   1.449
 7320SOL    HW122859   6.737   4.312   1.393
 7320SOL    HW222860   6.693   4.231   1.529
 7321SOL     OW22861   1.493   6.777   5.974
 7321SOL    HW122862   1.456   6.738   6.059
 7321SOL    HW222863   1.565   6.842   5.997
 7322SOL     OW22864   0.881   2.604   3.310
 7322SOL    HW122865   0.784   2.592   3.290
 7322SOL    HW222866   0.921   2.668   3.243
 7323SOL     OW22867   2.512   1.588   1.389
 7323SOL    HW122868   2.482   1.597   1.294
 7323SOL    HW222869   2.607   1.618   1.397
 7324SOL     OW22870   6.200   4.307   2.221
 7324SOL    HW122871   6.137   4.379   2.192
 7324SOL    HW222872   6.293   4.331   2.194
 7325SOL     OW22873   3.069   0.534   5.659
 7325SOL    HW122874   3.031   0.569   5.745
 7325SOL    HW222875   3.169   0.539   5.663
 7326SOL     OW22876   4.138   0.402   6.710
 7326SOL    HW122877   4.087   0.346   6.644
 7326SOL    HW222878   4.218   0.443   6.665
 7327SOL     OW22879   6.008   4.216   3.521
 7327SOL    HW122880   6.000   4.127   3.477
 7327SOL    HW222881   6.105   4.239   3.533
 7328SOL     OW22882   4.145   5.390   5.847
 7328SOL    HW122883   4.128   5.305   5.796
 7328SOL    HW222884   4.103   5.384   5.937
 7329SOL     OW22885   0.614   2.775   0.550
 7329SOL    HW122886   0.674   2.736   0.480
 7329SOL    HW222887   0.613   2.875   0.541
 7330SOL     OW22888   3.426   2.889   1.051
 7330SOL    HW122889   3.411   2.815   1.116
 7330SOL    HW222890   3.350   2.953   1.054
 7331SOL     OW22891   4.705   0.195   1.925
 7331SOL    HW122892   4.610   0.163   1.931
 7331SOL    HW222893   4.759   0.153   1.998
 7332SOL     OW22894   4.060   4.107   0.005
 7332SOL    HW122895   4.080   4.187   0.061
 7332SOL    HW222896   4.092   4.123   6.932
 7333SOL     OW22897   6.086   3.339   3.232
 7333SOL    HW122898   6.056   3.394   3.154
 7333SOL    HW222899   6.120   3.251   3.200
 7334SOL     OW22900   2.796   5.818   6.317
 7334SOL    HW122901   2.785   5.882   6.241
 7334SOL    HW222902   2.731   5.841   6.389
 7335SOL     OW22903   0.191   3.276   2.916
 7335SOL    HW122904   0.162   3.262   2.821
 7335SOL    HW222905   0.216   3.372   2.930
 7336SOL     OW22906   1.978   6.198   0.947
 7336SOL    HW122907   1.906   6.207   1.016
 7336SOL    HW222908   1.997   6.101   0.932
 7337SOL     OW22909   3.522   2.787   1.430
 7337SOL    HW122910   3.431   2.782   1.388
 7337SOL    HW222911   3.581   2.717   1.388
 7338SOL     OW22912   5.920   2.762   1.169
 7338SOL    HW122913   6.000   2.744   1.227
 7338SOL    HW222914   5.847   2.697   1.193
 7339SOL     OW22915   0.415   6.494   5.679
 7339SOL    HW122916   0.345   6.430   5.648
 7339SOL    HW222917   0.378   6.553   5.751
 7340SOL     OW22918   3.903   0.839   6.659
 7340SOL    HW122919   3.903   0.888   6.746
 7340SOL    HW222920   3.820   0.862   6.608
 7341SOL     OW22921   1.264   5.208   4.434
 7341SOL    HW122922   1.320   5.171   4.509
 7341SOL    HW222923   1.177   5.159   4.431
 7342SOL     OW22924   6.838   0.421   0.701
 7342SOL    HW122925   6.751   0.397   0.746
 7342SOL    HW222926   6.819   0.476   0.620
 7343SOL     OW22927   5.585   3.987   1.956
 7343SOL    HW122928   5.638   3.918   2.005
 7343SOL    HW222929   5.615   3.990   1.861
 7344SOL     OW22930   1.830   6.925   6.783
 7344SOL    HW122931   1.852   6.828   6.769
 7344SOL    HW222932   1.820   6.970   6.694
 7345SOL     OW22933   4.459   4.740   6.101
 7345SOL    HW122934   4.370   4.732   6.147
 7345SOL    HW222935   4.513   4.811   6.146
 7346SOL     OW22936   4.235   3.979   0.910
 7346SOL    HW122937   4.282   3.945   0.991
 7346SOL    HW222938   4.137   3.960   0.917
 7347SOL     OW22939   6.798   2.477   2.367
 7347SOL    HW122940   6.756   2.553   2.318
 7347SOL    HW222941   6.769   2.391   2.326
 7348SOL     OW22942   1.744   3.835   3.150
 7348SOL    HW122943   1.764   3.754   3.093
 7348SOL    HW222944   1.789   3.825   3.239
 7349SOL     OW22945   3.686   1.539   1.089
 7349SOL    HW122946   3.651   1.544   0.996
 7349SOL    HW222947   3.748   1.461   1.098
 7350SOL     OW22948   0.409   3.049   3.674
 7350SOL    HW122949   0.335   2.984   3.659
 7350SOL    HW222950   0.371   3.142   3.680
 7351SOL     OW22951   3.809   4.316   6.659
 7351SOL    HW122952   3.800   4.414   6.677
 7351SOL    HW222953   3.810   4.301   6.560
 7352SOL     OW22954   1.513   1.903   3.632
 7352SOL    HW122955   1.415   1.890   3.616
 7352SOL    HW222956   1.564   1.863   3.556
 7353SOL     OW22957   0.563   1.535   5.338
 7353SOL    HW122958   0.510   1.495   5.413
 7353SOL    HW222959   0.592   1.463   5.275
 7354SOL     OW22960   0.152   0.805   6.306
 7354SOL    HW122961   0.102   0.811   6.393
 7354SOL    HW222962   0.177   0.710   6.289
 7355SOL     OW22963   1.630   5.728   1.097
 7355SOL    HW122964   1.598   5.822   1.087
 7355SOL    HW222965   1.564   5.666   1.056
 7356SOL     OW22966   5.097   2.516   6.414
 7356SOL    HW122967   5.190   2.479   6.417
 7356SOL    HW222968   5.033   2.447   6.448
 7357SOL     OW22969   4.718   0.802   1.441
 7357SOL    HW122970   4.762   0.881   1.399
 7357SOL    HW222971   4.692   0.737   1.370
 7358SOL     OW22972   2.580   2.023   2.425
 7358SOL    HW122973   2.558   2.061   2.335
 7358SOL    HW222974   2.509   2.048   2.490
 7359SOL     OW22975   3.743   2.885   1.166
 7359SOL    HW122976   3.687   2.815   1.211
 7359SOL    HW222977   3.767   2.853   1.074
 7360SOL     OW22978   2.065   2.292   5.508
 7360SOL    HW122979   2.084   2.387   5.532
 7360SOL    HW222980   2.115   2.269   5.424
 7361SOL     OW22981   4.700   6.187   1.867
 7361SOL    HW122982   4.715   6.233   1.780
 7361SOL    HW222983   4.716   6.089   1.856
 7362SOL     OW22984   0.734   6.889   4.743
 7362SOL    HW122985   0.730   6.912   4.841
 7362SOL    HW222986   0.830   6.893   4.713
 7363SOL     OW22987   4.642   1.708   0.013
 7363SOL    HW122988   4.681   1.746   0.096
 7363SOL    HW222989   4.623   1.783   6.968
 7364SOL     OW22990   4.165   6.374   1.397
 7364SOL    HW122991   4.076   6.384   1.351
 7364SOL    HW222992   4.157   6.307   1.470
 7365SOL     OW22993   2.768   6.363   2.395
 7365SOL    HW122994   2.713   6.291   2.353
 7365SOL    HW222995   2.859   6.364   2.353
 7366SOL     OW22996   1.420   5.241   0.368
 7366SOL    HW122997   1.438   5.286   0.281
 7366SOL    HW222998   1.481   5.279   0.438
 7367SOL     OW22999   4.352   3.599   0.988
 7367SOL    HW123000   4.342   3.641   1.078
 7367SOL    HW223001   4.419   3.525   0.993
 7368SOL     OW23002   3.156   3.107   4.056
 7368SOL    HW123003   3.072   3.148   4.020
 7368SOL    HW223004   3.235   3.151   4.014
 7369SOL     OW23005   5.255   3.782   0.340
 7369SOL    HW123006   5.291   3.870   0.308
 7369SOL    HW223007   5.318   3.742   0.407
 7370SOL     OW23008   2.060   0.877   6.068
 7370SOL    HW123009   2.039   0.975   6.058
 7370SOL    HW223010   2.152   0.859   6.033
 7371SOL     OW23011   2.971   5.482   4.090
 7371SOL    HW123012   2.944   5.426   4.169
 7371SOL    HW223013   2.892   5.534   4.058
 7372SOL     OW23014   3.039   0.170   5.432
 7372SOL    HW123015   3.132   0.184   5.466
 7372SOL    HW223016   2.982   0.248   5.459
 7373SOL     OW23017   4.342   1.377   3.572
 7373SOL    HW123018   4.385   1.350   3.659
 7373SOL    HW223019   4.243   1.368   3.580
 7374SOL     OW23020   2.234   2.901   5.415
 7374SOL    HW123021   2.326   2.862   5.405
 7374SOL    HW223022   2.225   2.980   5.353
 7375SOL     OW23023   1.637   2.137   4.197
 7375SOL    HW123024   1.543   2.128   4.164
 7375SOL    HW223025   1.701   2.120   4.122
 7376SOL     OW23026   3.176   2.530   0.090
 7376SOL    HW123027   3.228   2.494   0.013
 7376SOL    HW223028   3.091   2.571   0.057
 7377SOL     OW23029   4.347   5.126   2.124
 7377SOL    HW123030   4.271   5.163   2.178
 7377SOL    HW223031   4.420   5.195   2.118
 7378SOL     OW23032   0.037   1.997   4.574
 7378SOL    HW123033   7.004   1.974   4.493
 7378SOL    HW223034   0.082   1.914   4.609
 7379SOL     OW23035   4.054   1.492   2.977
 7379SOL    HW123036   4.116   1.414   2.977
 7379SOL    HW223037   4.055   1.535   2.887
 7380SOL     OW23038   0.540   3.221   5.736
 7380SOL    HW123039   0.464   3.260   5.787
 7380SOL    HW223040   0.592   3.294   5.691
 7381SOL     OW23041   4.856   2.916   2.342
 7381SOL    HW123042   4.932   2.852   2.358
 7381SOL    HW223043   4.771   2.864   2.332
 7382SOL     OW23044   6.938   5.303   4.426
 7382SOL    HW123045   6.932   5.258   4.337
 7382SOL    HW223046   6.848   5.338   4.452
 7383SOL     OW23047   6.824   6.838   2.668
 7383SOL    HW123048   6.917   6.811   2.691
 7383SOL    HW223049   6.796   6.791   2.584
 7384SOL     OW23050   5.238   1.180   1.845
 7384SOL    HW123051   5.163   1.238   1.877
 7384SOL    HW223052   5.213   1.142   1.756
 7385SOL     OW23053   3.839   5.824   2.369
 7385SOL    HW123054   3.779   5.755   2.328
 7385SOL    HW223055   3.876   5.789   2.455
 7386SOL     OW23056   0.869   2.764   5.449
 7386SOL    HW123057   0.869   2.727   5.542
 7386SOL    HW223058   0.932   2.711   5.392
 7387SOL     OW23059   4.824   6.311   4.783
 7387SOL    HW123060   4.924   6.316   4.789
 7387SOL    HW223061   4.784   6.318   4.874
 7388SOL     OW23062   0.060   5.696   3.461
 7388SOL    HW123063   0.033   5.658   3.373
 7388SOL    HW223064   7.003   5.691   3.525
 7389SOL     OW23065   1.624   4.783   6.652
 7389SOL    HW123066   1.591   4.750   6.741
 7389SOL    HW223067   1.597   4.719   6.580
 7390SOL     OW23068   1.316   1.852   6.452
 7390SOL    HW123069   1.415   1.843   6.444
 7390SOL    HW223070   1.294   1.934   6.505
 7391SOL     OW23071   4.726   3.878   5.312
 7391SOL    HW123072   4.631   3.849   5.323
 7391SOL    HW223073   4.786   3.801   5.333
 7392SOL     OW23074   2.421   5.905   6.188
 7392SOL    HW123075   2.521   5.912   6.188
 7392SOL    HW223076   2.384   5.976   6.128
 7393SOL     OW23077   5.807   5.221   1.775
 7393SOL    HW123078   5.839   5.297   1.831
 7393SOL    HW223079   5.848   5.227   1.684
 7394SOL     OW23080   3.478   2.644   6.407
 7394SOL    HW123081   3.509   2.722   6.461
 7394SOL    HW223082   3.460   2.674   6.313
 7395SOL     OW23083   1.115   0.997   6.894
 7395SOL    HW123084   1.171   0.914   6.887
 7395SOL    HW223085   1.115   1.029   6.989
 7396SOL     OW23086   1.494   1.011   6.778
 7396SOL    HW123087   1.470   0.936   6.839
 7396SOL    HW223088   1.427   1.084   6.787
 7397SOL     OW23089   6.284   5.145   4.475
 7397SOL    HW123090   6.331   5.075   4.528
 7397SOL    HW223091   6.206   5.104   4.427
 7398SOL     OW23092   3.512   5.029   4.238
 7398SOL    HW123093   3.525   5.040   4.139
 7398SOL    HW223094   3.436   5.086   4.268
 7399SOL     OW23095   0.625   3.866   5.215
 7399SOL    HW123096   0.582   3.795   5.272
 7399SOL    HW223097   0.656   3.941   5.273
 7400SOL     OW23098   3.182   4.254   0.101
 7400SOL    HW123099   3.169   4.219   0.008
 7400SOL    HW223100   3.154   4.185   0.167
 7401SOL     OW23101   0.577   0.906   3.580
 7401SOL    HW123102   0.663   0.920   3.531
 7401SOL    HW223103   0.512   0.977   3.554
 7402SOL     OW23104   2.192   6.912   4.224
 7402SOL    HW123105   2.100   6.918   4.186
 7402SOL    HW223106   2.194   6.845   4.299
 7403SOL     OW23107   2.219   3.106   3.413
 7403SOL    HW123108   2.210   3.204   3.397
 7403SOL    HW223109   2.247   3.061   3.328
 7404SOL     OW23110   2.306   6.673   1.122
 7404SOL    HW123111   2.253   6.673   1.037
 7404SOL    HW223112   2.308   6.580   1.159
 7405SOL     OW23113   1.018   5.098   4.452
 7405SOL    HW123114   1.013   5.012   4.403
 7405SOL    HW223115   0.934   5.150   4.437
 7406SOL     OW23116   1.356   3.698   2.330
 7406SOL    HW123117   1.268   3.675   2.288
 7406SOL    HW223118   1.346   3.702   2.429
 7407SOL     OW23119   0.310   6.993   4.937
 7407SOL    HW123120   0.236   6.933   4.907
 7407SOL    HW223121   0.297   0.064   4.896
 7408SOL     OW23122   1.091   4.075   4.925
 7408SOL    HW123123   1.189   4.075   4.906
 7408SOL    HW223124   1.049   4.154   4.880
 7409SOL     OW23125   0.353   0.982   4.566
 7409SOL    HW123126   0.337   1.059   4.628
 7409SOL    HW223127   0.450   0.960   4.564
 7410SOL     OW23128   6.650   5.103   0.849
 7410SOL    HW123129   6.695   5.132   0.765
 7410SOL    HW223130   6.551   5.117   0.841
 7411SOL     OW23131   2.953   7.011   4.236
 7411SOL    HW123132   2.984   6.916   4.246
 7411SOL    HW223133   3.028   0.046   4.200
 7412SOL     OW23134   3.682   1.038   1.084
 7412SOL    HW123135   3.664   1.135   1.104
 7412SOL    HW223136   3.778   1.027   1.057
 7413SOL     OW23137   0.215   4.728   3.939
 7413SOL    HW123138   0.265   4.701   3.856
 7413SOL    HW223139   0.251   4.676   4.017
 7414SOL     OW23140   6.974   0.092   2.685
 7414SOL    HW123141   0.017   0.020   2.656
 7414SOL    HW223142   6.909   0.055   2.751
 7415SOL     OW23143   0.559   3.891   2.971
 7415SOL    HW123144   0.575   3.866   3.066
 7415SOL    HW223145   0.562   3.808   2.914
 7416SOL     OW23146   3.675   0.576   3.664
 7416SOL    HW123147   3.599   0.585   3.728
 7416SOL    HW223148   3.717   0.486   3.675
 7417SOL     OW23149   1.495   6.899   6.605
 7417SOL    HW123150   1.539   6.811   6.585
 7417SOL    HW223151   1.547   6.973   6.565
 7418SOL     OW23152   3.470   4.926   1.067
 7418SOL    HW123153   3.405   4.928   0.990
 7418SOL    HW223154   3.563   4.917   1.031
 7419SOL     OW23155   6.446   1.871   4.911
 7419SOL    HW123156   6.437   1.957   4.862
 7419SOL    HW223157   6.540   1.837   4.901
 7420SOL     OW23158   6.320   6.477   2.861
 7420SOL    HW123159   6.282   6.569   2.858
 7420SOL    HW223160   6.357   6.458   2.952
 7421SOL     OW23161   3.006   3.012   1.785
 7421SOL    HW123162   2.964   3.048   1.868
 7421SOL    HW223163   3.096   2.973   1.806
 7422SOL     OW23164   0.173   3.435   2.565
 7422SOL    HW123165   0.268   3.462   2.549
 7422SOL    HW223166   0.130   3.411   2.478
 7423SOL     OW23167   0.051   3.759   6.290
 7423SOL    HW123168   6.982   3.801   6.274
 7423SOL    HW223169   0.113   3.785   6.216
 7424SOL     OW23170   6.015   1.402   4.085
 7424SOL    HW123171   5.948   1.477   4.089
 7424SOL    HW223172   6.038   1.384   3.989
 7425SOL     OW23173   4.138   4.878   6.637
 7425SOL    HW123174   4.121   4.893   6.735
 7425SOL    HW223175   4.228   4.836   6.625
 7426SOL     OW23176   0.853   1.953   6.877
 7426SOL    HW123177   0.923   2.020   6.902
 7426SOL    HW223178   0.801   1.987   6.798
 7427SOL     OW23179   2.818   6.111   5.050
 7427SOL    HW123180   2.729   6.150   5.073
 7427SOL    HW223181   2.873   6.179   5.003
 7428SOL     OW23182   3.324   1.246   5.635
 7428SOL    HW123183   3.242   1.234   5.579
 7428SOL    HW223184   3.296   1.264   5.730
 7429SOL     OW23185   6.152   0.319   3.152
 7429SOL    HW123186   6.105   0.350   3.235
 7429SOL    HW223187   6.193   0.398   3.106
 7430SOL     OW23188   0.339   4.560   5.735
 7430SOL    HW123189   0.364   4.654   5.757
 7430SOL    HW223190   0.289   4.520   5.812
 7431SOL     OW23191   0.335   4.060   2.143
 7431SOL    HW123192   0.261   4.049   2.209
 7431SOL    HW223193   0.423   4.059   2.190
 7432SOL     OW23194   0.369   0.063   3.724
 7432SOL    HW123195   0.418   7.013   3.673
 7432SOL    HW223196   0.413   0.078   3.813
 7433SOL     OW23197   6.596   5.386   0.382
 7433SOL    HW123198   6.686   5.369   0.341
 7433SOL    HW223199   6.600   5.467   0.441
 7434SOL     OW23200   4.053   0.856   6.438
 7434SOL    HW123201   3.999   0.821   6.362
 7434SOL    HW223202   3.993   0.880   6.514
 7435SOL     OW23203   3.194   6.688   6.854
 7435SOL    HW123204   3.193   6.787   6.866
 7435SOL    HW223205   3.218   6.666   6.759
 7436SOL     OW23206   0.005   2.927   6.262
 7436SOL    HW123207   6.957   2.983   6.309
 7436SOL    HW223208   6.983   2.882   6.183
 7437SOL     OW23209   0.049   5.426   6.912
 7437SOL    HW123210   0.017   5.408   6.820
 7437SOL    HW223211   6.991   5.425   6.975
 7438SOL     OW23212   0.766   4.321   0.582
 7438SOL    HW123213   0.789   4.379   0.503
 7438SOL    HW223214   0.837   4.332   0.653
 7439SOL     OW23215   2.676   0.034   4.018
 7439SOL    HW123216   2.658   0.057   4.114
 7439SOL    HW223217   2.611   6.983   3.989
 7440SOL     OW23218   0.828   3.154   4.303
 7440SOL    HW123219   0.850   3.212   4.224
 7440SOL    HW223220   0.822   3.211   4.385
 7441SOL     OW23221   6.040   6.847   4.372
 7441SOL    HW123222   5.997   6.757   4.382
 7441SOL    HW223223   6.139   6.839   4.386
 7442SOL     OW23224   0.583   0.630   5.910
 7442SOL    HW123225   0.616   0.573   5.986
 7442SOL    HW223226   0.489   0.659   5.928
 7443SOL     OW23227   0.334   1.313   1.111
 7443SOL    HW123228   0.308   1.394   1.058
 7443SOL    HW223229   0.280   1.310   1.195
 7444SOL     OW23230   0.324   3.275   5.197
 7444SOL    HW123231   0.308   3.199   5.135
 7444SOL    HW223232   0.261   3.269   5.275
 7445SOL     OW23233   4.007   0.967   1.186
 7445SOL    HW123234   3.976   0.942   1.094
 7445SOL    HW223235   3.930   0.966   1.249
 7446SOL     OW23236   5.374   4.825   0.212
 7446SOL    HW123237   5.445   4.895   0.214
 7446SOL    HW223238   5.412   4.737   0.241
 7447SOL     OW23239   2.940   3.798   6.712
 7447SOL    HW123240   3.013   3.742   6.674
 7447SOL    HW223241   2.865   3.740   6.742
 7448SOL     OW23242   5.401   5.990   5.857
 7448SOL    HW123243   5.458   5.983   5.775
 7448SOL    HW223244   5.308   6.017   5.830
 7449SOL     OW23245   4.993   2.676   2.091
 7449SOL    HW123246   4.947   2.692   2.004
 7449SOL    HW223247   4.941   2.609   2.144
 7450SOL     OW23248   5.226   2.712   4.611
 7450SOL    HW123249   5.200   2.738   4.705
 7450SOL    HW223250   5.325   2.704   4.605
 7451SOL     OW23251   1.599   0.239   3.638
 7451SOL    HW123252   1.666   0.264   3.568
 7451SOL    HW223253   1.593   0.312   3.706
 7452SOL     OW23254   0.891   0.079   4.948
 7452SOL    HW123255   0.968   0.121   4.996
 7452SOL    HW223256   0.822   0.050   5.014
 7453SOL     OW23257   5.402   5.820   5.484
 7453SOL    HW123258   5.458   5.758   5.431
 7453SOL    HW223259   5.458   5.895   5.519
 7454SOL     OW23260   1.138   3.145   1.891
 7454SOL    HW123261   1.225   3.137   1.941
 7454SOL    HW223262   1.088   3.058   1.898
 7455SOL     OW23263   6.855   1.501   1.531
 7455SOL    HW123264   6.791   1.543   1.595
 7455SOL    HW223265   6.832   1.531   1.438
 7456SOL     OW23266   1.226   1.926   4.853
 7456SOL    HW123267   1.145   1.984   4.861
 7456SOL    HW223268   1.291   1.968   4.789
 7457SOL     OW23269   4.042   0.708   6.082
 7457SOL    HW123270   4.139   0.701   6.106
 7457SOL    HW223271   3.997   0.621   6.099
 7458SOL     OW23272   1.423   0.382   6.637
 7458SOL    HW123273   1.374   0.362   6.722
 7458SOL    HW223274   1.429   0.481   6.625
 7459SOL     OW23275   4.797   0.036   0.459
 7459SOL    HW123276   4.812   6.965   0.421
 7459SOL    HW223277   4.885   0.083   0.470
 7460SOL     OW23278   1.990   4.292   0.869
 7460SOL    HW123279   2.051   4.371   0.874
 7460SOL    HW223280   1.984   4.249   0.959
 7461SOL     OW23281   4.973   1.683   5.843
 7461SOL    HW123282   4.917   1.762   5.818
 7461SOL    HW223283   4.915   1.611   5.881
 7462SOL     OW23284   1.661   2.714   2.007
 7462SOL    HW123285   1.624   2.627   2.038
 7462SOL    HW223286   1.640   2.727   1.910
 7463SOL     OW23287   3.664   3.900   1.403
 7463SOL    HW123288   3.622   3.840   1.335
 7463SOL    HW223289   3.617   3.887   1.491
 7464SOL     OW23290   3.471   6.583   6.469
 7464SOL    HW123291   3.508   6.652   6.407
 7464SOL    HW223292   3.541   6.555   6.535
 7465SOL     OW23293   1.670   0.664   0.941
 7465SOL    HW123294   1.759   0.648   0.898
 7465SOL    HW223295   1.673   0.751   0.990
 7466SOL     OW23296   0.291   0.898   6.918
 7466SOL    HW123297   0.341   0.965   6.864
 7466SOL    HW223298   0.314   0.806   6.887
 7467SOL     OW23299   6.478   2.144   1.009
 7467SOL    HW123300   6.493   2.051   1.039
 7467SOL    HW223301   6.392   2.178   1.047
 7468SOL     OW23302   5.324   2.409   2.545
 7468SOL    HW123303   5.293   2.456   2.628
 7468SOL    HW223304   5.405   2.454   2.510
 7469SOL     OW23305   0.675   0.269   0.313
 7469SOL    HW123306   0.654   0.221   0.398
 7469SOL    HW223307   0.598   0.260   0.250
 7470SOL     OW23308   0.334   3.298   3.614
 7470SOL    HW123309   0.315   3.312   3.517
 7470SOL    HW223310   0.301   3.376   3.667
 7471SOL     OW23311   6.432   0.048   4.072
 7471SOL    HW123312   6.459   6.981   4.114
 7471SOL    HW223313   6.339   0.041   4.037
 7472SOL     OW23314   5.793   6.743   4.174
 7472SOL    HW123315   5.823   6.745   4.079
 7472SOL    HW223316   5.844   6.672   4.223
 7473SOL     OW23317   0.366   4.644   3.189
 7473SOL    HW123318   0.452   4.669   3.233
 7473SOL    HW223319   0.306   4.599   3.256
 7474SOL     OW23320   2.523   0.821   4.983
 7474SOL    HW123321   2.613   0.837   5.024
 7474SOL    HW223322   2.455   0.807   5.056
 7475SOL     OW23323   3.593   1.572   2.325
 7475SOL    HW123324   3.640   1.615   2.402
 7475SOL    HW223325   3.623   1.477   2.316
 7476SOL     OW23326   4.108   6.423   4.229
 7476SOL    HW123327   4.122   6.521   4.225
 7476SOL    HW223328   4.143   6.380   4.146
 7477SOL     OW23329   5.078   1.500   3.833
 7477SOL    HW123330   5.106   1.424   3.775
 7477SOL    HW223331   5.041   1.465   3.919
 7478SOL     OW23332   4.020   3.998   6.195
 7478SOL    HW123333   4.074   3.945   6.129
 7478SOL    HW223334   3.926   4.005   6.163
 7479SOL     OW23335   4.331   2.648   0.682
 7479SOL    HW123336   4.291   2.662   0.591
 7479SOL    HW223337   4.321   2.552   0.709
 7480SOL     OW23338   6.127   4.974   1.545
 7480SOL    HW123339   6.028   4.987   1.553
 7480SOL    HW223340   6.174   5.059   1.569
 7481SOL     OW23341   5.313   5.193   1.764
 7481SOL    HW123342   5.225   5.226   1.797
 7481SOL    HW223343   5.310   5.184   1.665
 7482SOL     OW23344   4.574   1.671   2.412
 7482SOL    HW123345   4.514   1.609   2.363
 7482SOL    HW223346   4.557   1.765   2.383
 7483SOL     OW23347   4.364   1.961   4.944
 7483SOL    HW123348   4.325   2.013   5.020
 7483SOL    HW223349   4.294   1.901   4.905
 7484SOL     OW23350   6.425   6.879   2.357
 7484SOL    HW123351   6.371   6.939   2.297
 7484SOL    HW223352   6.467   6.934   2.429
 7485SOL     OW23353   2.978   6.002   5.482
 7485SOL    HW123354   3.070   5.983   5.516
 7485SOL    HW223355   2.974   5.981   5.384
 7486SOL     OW23356   2.324   0.039   5.743
 7486SOL    HW123357   2.350   6.964   5.724
 7486SOL    HW223358   2.333   0.093   5.660
 7487SOL     OW23359   2.254   6.364   2.617
 7487SOL    HW123360   2.276   6.266   2.613
 7487SOL    HW223361   2.238   6.398   2.524
 7488SOL     OW23362   1.748   6.640   4.984
 7488SOL    HW123363   1.703   6.653   4.895
 7488SOL    HW223364   1.703   6.696   5.053
 7489SOL     OW23365   4.994   2.837   5.448
 7489SOL    HW123366   5.037   2.903   5.385
 7489SOL    HW223367   4.916   2.881   5.494
 7490SOL     OW23368   0.760   1.772   1.247
 7490SOL    HW123369   0.832   1.734   1.305
 7490SOL    HW223370   0.793   1.856   1.204
 7491SOL     OW23371   0.276   4.592   6.626
 7491SOL    HW123372   0.253   4.575   6.531
 7491SOL    HW223373   0.339   4.669   6.632
 7492SOL     OW23374   2.861   1.320   4.735
 7492SOL    HW123375   2.813   1.342   4.650
 7492SOL    HW223376   2.839   1.226   4.762
 7493SOL     OW23377   6.039   4.666   6.401
 7493SOL    HW123378   5.988   4.741   6.357
 7493SOL    HW223379   6.137   4.679   6.386
 7494SOL     OW23380   6.261   1.186   2.639
 7494SOL    HW123381   6.200   1.262   2.617
 7494SOL    HW223382   6.350   1.201   2.596
 7495SOL     OW23383   2.296   1.647   0.857
 7495SOL    HW123384   2.298   1.555   0.818
 7495SOL    HW223385   2.347   1.709   0.797
 7496SOL     OW23386   0.819   3.569   6.085
 7496SOL    HW123387   0.760   3.547   6.163
 7496SOL    HW223388   0.898   3.621   6.117
 7497SOL     OW23389   2.723   4.727   1.130
 7497SOL    HW123390   2.642   4.782   1.108
 7497SOL    HW223391   2.792   4.785   1.173
 7498SOL     OW23392   1.932   0.750   4.573
 7498SOL    HW123393   1.944   0.846   4.596
 7498SOL    HW223394   1.938   0.739   4.473
 7499SOL     OW23395   6.026   1.068   3.417
 7499SOL    HW123396   5.984   1.049   3.329
 7499SOL    HW223397   6.063   0.984   3.456
 7500SOL     OW23398   4.136   6.370   3.225
 7500SOL    HW123399   4.220   6.327   3.191
 7500SOL    HW223400   4.160   6.450   3.281
 7501SOL     OW23401   6.998   4.416   4.568
 7501SOL    HW123402   6.994   4.416   4.468
 7501SOL    HW223403   0.004   4.508   4.600
 7502SOL     OW23404   1.386   0.675   5.209
 7502SOL    HW123405   1.292   0.646   5.227
 7502SOL    HW223406   1.429   0.706   5.294
 7503SOL     OW23407   2.414   1.477   0.082
 7503SOL    HW123408   2.365   1.550   0.130
 7503SOL    HW223409   2.397   1.390   0.128
 7504SOL     OW23410   3.242   0.262   3.461
 7504SOL    HW123411   3.329   0.213   3.461
 7504SOL    HW223412   3.229   0.307   3.372
 7505SOL     OW23413   2.284   0.504   5.306
 7505SOL    HW123414   2.344   0.472   5.233
 7505SOL    HW223415   2.194   0.461   5.297
 7506SOL     OW23416   3.928   0.205   2.450
 7506SOL    HW123417   3.897   0.154   2.531
 7506SOL    HW223418   3.967   0.292   2.478
 7507SOL     OW23419   0.093   0.777   0.990
 7507SOL    HW123420   0.068   0.872   1.006
 7507SOL    HW223421   0.193   0.770   0.979
 7508SOL     OW23422   5.395   0.156   2.184
 7508SOL    HW123423   5.477   0.131   2.234
 7508SOL    HW223424   5.320   0.171   2.248
 7509SOL     OW23425   5.499   4.218   0.877
 7509SOL    HW123426   5.440   4.244   0.801
 7509SOL    HW223427   5.466   4.133   0.918
 7510SOL     OW23428   2.790   4.188   5.648
 7510SOL    HW123429   2.872   4.155   5.695
 7510SOL    HW223430   2.786   4.288   5.655
 7511SOL     OW23431   1.302   0.596   3.271
 7511SOL    HW123432   1.358   0.552   3.341
 7511SOL    HW223433   1.251   0.672   3.312
 7512SOL     OW23434   2.907   4.371   1.442
 7512SOL    HW123435   2.999   4.363   1.406
 7512SOL    HW223436   2.869   4.461   1.417
 7513SOL     OW23437   1.661   2.185   1.355
 7513SOL    HW123438   1.665   2.233   1.442
 7513SOL    HW223439   1.753   2.180   1.316
 7514SOL     OW23440   2.963   5.618   2.500
 7514SOL    HW123441   3.012   5.593   2.416
 7514SOL    HW223442   2.960   5.539   2.561
 7515SOL     OW23443   2.020   6.309   2.272
 7515SOL    HW123444   2.017   6.260   2.358
 7515SOL    HW223445   1.973   6.257   2.201
 7516SOL     OW23446   0.327   6.005   4.347
 7516SOL    HW123447   0.240   6.048   4.370
 7516SOL    HW223448   0.328   5.982   4.249
 7517SOL     OW23449   6.594   3.457   1.562
 7517SOL    HW123450   6.643   3.544   1.554
 7517SOL    HW223451   6.599   3.407   1.475
 7518SOL     OW23452   3.890   5.929   3.795
 7518SOL    HW123453   3.825   6.005   3.799
 7518SOL    HW223454   3.865   5.867   3.721
 7519SOL     OW23455   0.410   0.000   3.361
 7519SOL    HW123456   0.461   6.971   3.431
 7519SOL    HW223457   0.322   0.029   3.398
 7520SOL     OW23458   2.807   0.076   1.838
 7520SOL    HW123459   2.898   0.035   1.848
 7520SOL    HW223460   2.739   0.016   1.881
 7521SOL     OW23461   4.578   4.468   5.785
 7521SOL    HW123462   4.607   4.408   5.860
 7521SOL    HW223463   4.485   4.501   5.803
 7522SOL     OW23464   2.930   0.951   6.250
 7522SOL    HW123465   2.905   1.047   6.262
 7522SOL    HW223466   2.847   0.895   6.247
 7523SOL     OW23467   5.198   0.770   5.625
 7523SOL    HW123468   5.191   0.700   5.554
 7523SOL    HW223469   5.152   0.737   5.708
 7524SOL     OW23470   0.837   2.652   6.462
 7524SOL    HW123471   0.853   2.583   6.533
 7524SOL    HW223472   0.888   2.628   6.380
 7525SOL     OW23473   2.787   6.800   6.896
 7525SOL    HW123474   2.706   6.740   6.892
 7525SOL    HW223475   2.760   6.889   6.932
 7526SOL     OW23476   3.504   2.891   2.428
 7526SOL    HW123477   3.598   2.861   2.443
 7526SOL    HW223478   3.471   2.856   2.341
 7527SOL     OW23479   4.142   5.879   3.466
 7527SOL    HW123480   4.121   5.781   3.466
 7527SOL    HW223481   4.148   5.912   3.560
 7528SOL     OW23482   4.083   2.161   6.508
 7528SOL    HW123483   4.143   2.136   6.584
 7528SOL    HW223484   4.103   2.104   6.429
 7529SOL     OW23485   6.054   0.902   4.522
 7529SOL    HW123486   6.021   0.816   4.561
 7529SOL    HW223487   6.043   0.901   4.423
 7530SOL     OW23488   6.185   3.628   2.401
 7530SOL    HW123489   6.234   3.541   2.408
 7530SOL    HW223490   6.188   3.661   2.307
 7531SOL     OW23491   4.153   2.185   4.143
 7531SOL    HW123492   4.088   2.190   4.220
 7531SOL    HW223493   4.246   2.188   4.179
 7532SOL     OW23494   5.345   5.442   1.596
 7532SOL    HW123495   5.348   5.429   1.497
 7532SOL    HW223496   5.418   5.389   1.639
 7533SOL     OW23497   2.137   0.729   2.966
 7533SOL    HW123498   2.150   0.630   2.974
 7533SOL    HW223499   2.218   0.776   3.001
 7534SOL     OW23500   3.302   6.932   5.420
 7534SOL    HW123501   3.234   6.859   5.422
 7534SOL    HW223502   3.316   6.962   5.325
 7535SOL     OW23503   2.738   0.860   5.564
 7535SOL    HW123504   2.825   0.833   5.524
 7535SOL    HW223505   2.754   0.905   5.652
 7536SOL     OW23506   5.461   4.712   4.742
 7536SOL    HW123507   5.545   4.659   4.736
 7536SOL    HW223508   5.481   4.809   4.729
 7537SOL     OW23509   2.198   5.330   4.729
 7537SOL    HW123510   2.195   5.237   4.765
 7537SOL    HW223511   2.142   5.390   4.786
 7538SOL     OW23512   3.201   2.854   1.897
 7538SOL    HW123513   3.171   2.780   1.837
 7538SOL    HW223514   3.299   2.870   1.884
 7539SOL     OW23515   2.454   2.627   4.452
 7539SOL    HW123516   2.443   2.536   4.411
 7539SOL    HW223517   2.476   2.693   4.380
 7540SOL     OW23518   2.574   0.644   5.597
 7540SOL    HW123519   2.631   0.724   5.577
 7540SOL    HW223520   2.478   0.670   5.591
 7541SOL     OW23521   6.676   3.223   4.469
 7541SOL    HW123522   6.769   3.191   4.492
 7541SOL    HW223523   6.638   3.272   4.547
 7542SOL     OW23524   0.642   5.919   6.849
 7542SOL    HW123525   0.552   5.927   6.891
 7542SOL    HW223526   0.632   5.879   6.758
 7543SOL     OW23527   4.203   2.128   0.850
 7543SOL    HW123528   4.249   2.048   0.811
 7543SOL    HW223529   4.165   2.103   0.940
 7544SOL     OW23530   0.606   2.501   3.823
 7544SOL    HW123531   0.672   2.547   3.764
 7544SOL    HW223532   0.598   2.405   3.797
 7545SOL     OW23533   5.578   6.465   2.957
 7545SOL    HW123534   5.586   6.443   3.054
 7545SOL    HW223535   5.598   6.562   2.943
 7546SOL     OW23536   4.367   1.036   1.550
 7546SOL    HW123537   4.394   1.116   1.495
 7546SOL    HW223538   4.424   1.032   1.632
 7547SOL     OW23539   4.291   6.648   0.731
 7547SOL    HW123540   4.375   6.619   0.684
 7547SOL    HW223541   4.228   6.571   0.736
 7548SOL     OW23542   3.234   1.899   0.687
 7548SOL    HW123543   3.182   1.840   0.626
 7548SOL    HW223544   3.283   1.844   0.755
 7549SOL     OW23545   5.867   1.863   1.126
 7549SOL    HW123546   5.948   1.805   1.132
 7549SOL    HW223547   5.875   1.923   1.046
 7550SOL     OW23548   2.269   4.617   1.830
 7550SOL    HW123549   2.283   4.711   1.861
 7550SOL    HW223550   2.325   4.555   1.885
 7551SOL     OW23551   4.752   4.287   0.094
 7551SOL    HW123552   4.691   4.364   0.112
 7551SOL    HW223553   4.840   4.303   0.140
 7552SOL     OW23554   2.001   5.621   3.966
 7552SOL    HW123555   1.984   5.533   4.009
 7552SOL    HW223556   2.085   5.617   3.913
 7553SOL     OW23557   4.268   4.940   5.107
 7553SOL    HW123558   4.239   5.019   5.053
 7553SOL    HW223559   4.358   4.959   5.148
 7554SOL     OW23560   4.987   0.592   0.906
 7554SOL    HW123561   5.062   0.562   0.848
 7554SOL    HW223562   4.991   0.544   0.994
 7555SOL     OW23563   1.744   4.990   4.716
 7555SOL    HW123564   1.779   5.084   4.708
 7555SOL    HW223565   1.811   4.934   4.766
 7556SOL     OW23566   0.702   2.484   5.803
 7556SOL    HW123567   0.614   2.527   5.786
 7556SOL    HW223568   0.700   2.389   5.770
 7557SOL     OW23569   5.476   3.139   6.656
 7557SOL    HW123570   5.476   3.234   6.686
 7557SOL    HW223571   5.515   3.134   6.564
 7558SOL     OW23572   2.552   2.229   3.330
 7558SOL    HW123573   2.641   2.194   3.302
 7558SOL    HW223574   2.562   2.323   3.362
 7559SOL     OW23575   6.634   5.870   1.033
 7559SOL    HW123576   6.600   5.883   1.126
 7559SOL    HW223577   6.558   5.873   0.969
 7560SOL     OW23578   5.555   6.404   0.157
 7560SOL    HW123579   5.541   6.462   0.077
 7560SOL    HW223580   5.649   6.370   0.158
 7561SOL     OW23581   0.524   3.400   0.630
 7561SOL    HW123582   0.542   3.497   0.645
 7561SOL    HW223583   0.589   3.363   0.564
 7562SOL     OW23584   5.143   6.151   4.541
 7562SOL    HW123585   5.190   6.230   4.502
 7562SOL    HW223586   5.211   6.080   4.562
 7563SOL     OW23587   2.519   6.698   0.747
 7563SOL    HW123588   2.608   6.737   0.769
 7563SOL    HW223589   2.517   6.601   0.773
 7564SOL     OW23590   4.904   1.413   2.802
 7564SOL    HW123591   4.834   1.366   2.856
 7564SOL    HW223592   4.864   1.444   2.716
 7565SOL     OW23593   4.966   4.886   0.073
 7565SOL    HW123594   5.039   4.821   0.096
 7565SOL    HW223595   4.943   4.876   6.996
 7566SOL     OW23596   0.981   5.100   3.068
 7566SOL    HW123597   1.028   5.071   3.151
 7566SOL    HW223598   0.919   5.028   3.038
 7567SOL     OW23599   1.921   2.550   4.941
 7567SOL    HW123600   1.979   2.489   4.886
 7567SOL    HW223601   1.978   2.604   5.002
 7568SOL     OW23602   5.663   6.158   3.596
 7568SOL    HW123603   5.702   6.167   3.687
 7568SOL    HW223604   5.735   6.135   3.531
 7569SOL     OW23605   3.990   4.654   6.500
 7569SOL    HW123606   4.066   4.610   6.451
 7569SOL    HW223607   4.025   4.729   6.556
 7570SOL     OW23608   5.347   4.708   5.701
 7570SOL    HW123609   5.334   4.730   5.604
 7570SOL    HW223610   5.380   4.789   5.749
 7571SOL     OW23611   5.575   4.951   2.602
 7571SOL    HW123612   5.648   4.884   2.609
 7571SOL    HW223613   5.486   4.905   2.605
 7572SOL     OW23614   4.876   0.443   3.563
 7572SOL    HW123615   4.841   0.442   3.657
 7572SOL    HW223616   4.975   0.424   3.564
 7573SOL     OW23617   5.970   6.091   4.503
 7573SOL    HW123618   5.910   6.142   4.565
 7573SOL    HW223619   5.924   6.007   4.474
 7574SOL     OW23620   6.728   0.916   4.679
 7574SOL    HW123621   6.711   0.963   4.593
 7574SOL    HW223622   6.825   0.894   4.688
 7575SOL     OW23623   4.587   0.271   5.851
 7575SOL    HW123624   4.613   0.367   5.844
 7575SOL    HW223625   4.666   0.217   5.881
 7576SOL     OW23626   6.151   6.011   0.620
 7576SOL    HW123627   6.130   5.915   0.640
 7576SOL    HW223628   6.161   6.024   0.522
 7577SOL     OW23629   6.695   6.901   5.302
 7577SOL    HW123630   6.709   6.873   5.207
 7577SOL    HW223631   6.717   6.825   5.363
 7578SOL     OW23632   2.317   6.029   3.519
 7578SOL    HW123633   2.385   6.098   3.544
 7578SOL    HW223634   2.309   6.026   3.419
 7579SOL     OW23635   4.688   1.923   2.289
 7579SOL    HW123636   4.655   1.858   2.220
 7579SOL    HW223637   4.694   2.014   2.249
 7580SOL     OW23638   1.421   4.390   3.821
 7580SOL    HW123639   1.361   4.470   3.817
 7580SOL    HW223640   1.499   4.404   3.760
 7581SOL     OW23641   5.072   0.699   1.308
 7581SOL    HW123642   5.102   0.769   1.244
 7581SOL    HW223643   5.146   0.678   1.372
 7582SOL     OW23644   3.046   0.971   0.128
 7582SOL    HW123645   3.007   1.062   0.135
 7582SOL    HW223646   3.087   0.946   0.216
 7583SOL     OW23647   6.225   3.314   1.306
 7583SOL    HW123648   6.182   3.330   1.217
 7583SOL    HW223649   6.182   3.235   1.350
 7584SOL     OW23650   3.034   6.987   0.850
 7584SOL    HW123651   2.946   0.012   0.860
 7584SOL    HW223652   3.020   6.888   0.837
 7585SOL     OW23653   1.743   3.136   5.964
 7585SOL    HW123654   1.840   3.150   5.944
 7585SOL    HW223655   1.702   3.078   5.892
 7586SOL     OW23656   3.461   0.772   3.867
 7586SOL    HW123657   3.441   0.677   3.889
 7586SOL    HW223658   3.464   0.825   3.952
 7587SOL     OW23659   3.492   1.312   6.482
 7587SOL    HW123660   3.501   1.370   6.401
 7587SOL    HW223661   3.478   1.370   6.562
 7588SOL     OW23662   0.816   3.509   2.154
 7588SOL    HW123663   0.765   3.575   2.099
 7588SOL    HW223664   0.891   3.472   2.101
 7589SOL     OW23665   6.111   6.911   1.035
 7589SOL    HW123666   6.152   6.820   1.045
 7589SOL    HW223667   6.175   6.971   0.987
 7590SOL     OW23668   2.835   2.004   6.480
 7590SOL    HW123669   2.773   1.926   6.491
 7590SOL    HW223670   2.796   2.069   6.415
 7591SOL     OW23671   6.640   4.933   0.558
 7591SOL    HW123672   6.544   4.957   0.575
 7591SOL    HW223673   6.698   5.011   0.581
 7592SOL     OW23674   6.857   4.317   6.837
 7592SOL    HW123675   6.795   4.381   6.792
 7592SOL    HW223676   6.951   4.352   6.832
 7593SOL     OW23677   4.845   2.495   0.749
 7593SOL    HW123678   4.904   2.419   0.723
 7593SOL    HW223679   4.789   2.523   0.671
 7594SOL     OW23680   0.203   4.420   2.173
 7594SOL    HW123681   0.287   4.373   2.199
 7594SOL    HW223682   0.219   4.519   2.171
 7595SOL     OW23683   6.692   2.394   5.873
 7595SOL    HW123684   6.688   2.357   5.780
 7595SOL    HW223685   6.768   2.458   5.880
 7596SOL     OW23686   4.145   5.529   3.106
 7596SOL    HW123687   4.126   5.547   3.010
 7596SOL    HW223688   4.236   5.564   3.129
 7597SOL     OW23689   2.847   5.608   1.940
 7597SOL    HW123690   2.825   5.574   2.032
 7597SOL    HW223691   2.945   5.603   1.926
 7598SOL     OW23692   7.000   1.183   3.007
 7598SOL    HW123693   6.905   1.168   2.979
 7598SOL    HW223694   7.002   1.243   3.088
 7599SOL     OW23695   5.708   1.771   3.587
 7599SOL    HW123696   5.608   1.776   3.583
 7599SOL    HW223697   5.738   1.679   3.562
 7600SOL     OW23698   1.829   0.676   2.548
 7600SOL    HW123699   1.824   0.699   2.645
 7600SOL    HW223700   1.787   0.749   2.495
 7601SOL     OW23701   2.243   5.840   2.786
 7601SOL    HW123702   2.302   5.799   2.716
 7601SOL    HW223703   2.159   5.787   2.795
 7602SOL     OW23704   1.683   4.267   6.007
 7602SOL    HW123705   1.732   4.230   5.929
 7602SOL    HW223706   1.748   4.293   6.079
 7603SOL     OW23707   1.007   5.839   5.932
 7603SOL    HW123708   0.931   5.779   5.908
 7603SOL    HW223709   1.041   5.815   6.023
 7604SOL     OW23710   2.323   4.243   4.209
 7604SOL    HW123711   2.346   4.300   4.288
 7604SOL    HW223712   2.379   4.271   4.130
 7605SOL     OW23713   1.275   6.233   0.376
 7605SOL    HW123714   1.183   6.270   0.393
 7605SOL    HW223715   1.337   6.308   0.355
 7606SOL     OW23716   0.025   2.747   3.391
 7606SOL    HW123717   6.953   2.752   3.352
 7606SOL    HW223718   0.055   2.839   3.417
 7607SOL     OW23719   4.688   6.312   0.269
 7607SOL    HW123720   4.738   6.273   0.191
 7607SOL    HW223721   4.691   6.248   0.345
 7608SOL     OW23722   3.488   4.137   2.727
 7608SOL    HW123723   3.403   4.114   2.680
 7608SOL    HW223724   3.566   4.116   2.668
 7609SOL     OW23725   0.237   4.297   3.462
 7609SOL    HW123726   0.311   4.302   3.530
 7609SOL    HW223727   0.152   4.272   3.507
 7610SOL     OW23728   6.324   6.885   6.646
 7610SOL    HW123729   6.308   6.832   6.730
 7610SOL    HW223730   6.248   6.871   6.583
 7611SOL     OW23731   0.856   2.229   0.278
 7611SOL    HW123732   0.827   2.134   0.293
 7611SOL    HW223733   0.813   2.288   0.345
 7612SOL     OW23734   4.888   2.820   4.871
 7612SOL    HW123735   4.858   2.729   4.899
 7612SOL    HW223736   4.894   2.880   4.951
 7613SOL     OW23737   5.627   2.448   1.799
 7613SOL    HW123738   5.565   2.450   1.877
 7613SOL    HW223739   5.654   2.354   1.780
 7614SOL     OW23740   5.082   2.841   1.718
 7614SOL    HW123741   5.045   2.875   1.631
 7614SOL    HW223742   5.007   2.827   1.783
 7615SOL     OW23743   4.491   3.896   6.109
 7615SOL    HW123744   4.479   3.991   6.137
 7615SOL    HW223745   4.448   3.836   6.177
 7616SOL     OW23746   0.033   4.674   4.619
 7616SOL    HW123747   6.957   4.696   4.604
 7616SOL    HW223748   0.089   4.754   4.596
 7617SOL     OW23749   3.119   5.415   3.020
 7617SOL    HW123750   3.185   5.490   3.031
 7617SOL    HW223751   3.035   5.450   2.979
 7618SOL     OW23752   0.527   2.264   6.932
 7618SOL    HW123753   0.513   2.165   6.925
 7618SOL    HW223754   0.566   2.298   6.846
 7619SOL     OW23755   5.508   3.267   5.216
 7619SOL    HW123756   5.455   3.214   5.150
 7619SOL    HW223757   5.605   3.245   5.208
 7620SOL     OW23758   3.645   5.267   6.936
 7620SOL    HW123759   3.571   5.288   6.873
 7620SOL    HW223760   3.723   5.327   6.919
 7621SOL     OW23761   0.384   1.543   0.544
 7621SOL    HW123762   0.364   1.557   0.641
 7621SOL    HW223763   0.383   1.445   0.523
 7622SOL     OW23764   4.867   5.009   1.870
 7622SOL    HW123765   4.891   5.006   1.773
 7622SOL    HW223766   4.934   4.956   1.923
 7623SOL     OW23767   4.558   4.635   6.838
 7623SOL    HW123768   4.612   4.621   6.755
 7623SOL    HW223769   4.568   4.730   6.869
 7624SOL     OW23770   6.965   2.584   4.577
 7624SOL    HW123771   6.923   2.537   4.500
 7624SOL    HW223772   0.041   2.558   4.585
 7625SOL     OW23773   4.558   0.697   1.621
 7625SOL    HW123774   4.550   0.745   1.708
 7625SOL    HW223775   4.620   0.748   1.561
 7626SOL     OW23776   6.716   6.306   4.361
 7626SOL    HW123777   6.796   6.305   4.422
 7626SOL    HW223778   6.741   6.264   4.273
 7627SOL     OW23779   5.155   3.029   0.048
 7627SOL    HW123780   5.192   3.014   6.976
 7627SOL    HW223781   5.199   2.965   0.111
 7628SOL     OW23782   3.522   0.836   1.719
 7628SOL    HW123783   3.579   0.754   1.709
 7628SOL    HW223784   3.432   0.809   1.754
 7629SOL     OW23785   6.758   0.241   3.037
 7629SOL    HW123786   6.821   0.175   2.997
 7629SOL    HW223787   6.664   0.214   3.016
 7630SOL     OW23788   5.591   6.526   1.835
 7630SOL    HW123789   5.605   6.562   1.927
 7630SOL    HW223790   5.671   6.547   1.778
 7631SOL     OW23791   0.652   0.835   5.272
 7631SOL    HW123792   0.661   0.902   5.345
 7631SOL    HW223793   0.566   0.786   5.282
 7632SOL     OW23794   3.591   2.485   1.689
 7632SOL    HW123795   3.520   2.436   1.639
 7632SOL    HW223796   3.639   2.422   1.750
 7633SOL     OW23797   4.125   2.335   0.335
 7633SOL    HW123798   4.128   2.428   0.371
 7633SOL    HW223799   4.146   2.337   0.237
 7634SOL     OW23800   0.899   1.730   2.725
 7634SOL    HW123801   0.844   1.781   2.791
 7634SOL    HW223802   0.842   1.660   2.682
 7635SOL     OW23803   2.613   6.323   5.069
 7635SOL    HW123804   2.701   6.367   5.053
 7635SOL    HW223805   2.576   6.289   4.983
 7636SOL     OW23806   1.733   2.201   3.568
 7636SOL    HW123807   1.683   2.191   3.655
 7636SOL    HW223808   1.687   2.149   3.497
 7637SOL     OW23809   2.913   6.284   2.753
 7637SOL    HW123810   2.948   6.363   2.702
 7637SOL    HW223811   2.917   6.304   2.851
 7638SOL     OW23812   3.828   5.644   1.842
 7638SOL    HW123813   3.789   5.732   1.813
 7638SOL    HW223814   3.859   5.652   1.937
 7639SOL     OW23815   1.499   2.328   0.708
 7639SOL    HW123816   1.420   2.372   0.665
 7639SOL    HW223817   1.582   2.378   0.683
 7640SOL     OW23818   3.295   1.950   0.315
 7640SOL    HW123819   3.371   1.909   0.265
 7640SOL    HW223820   3.254   2.023   0.261
 7641SOL     OW23821   0.782   4.737   1.789
 7641SOL    HW123822   0.823   4.782   1.868
 7641SOL    HW223823   0.723   4.663   1.821
 7642SOL     OW23824   2.619   1.774   2.495
 7642SOL    HW123825   2.618   1.873   2.479
 7642SOL    HW223826   2.576   1.727   2.418
 7643SOL     OW23827   4.975   2.710   3.999
 7643SOL    HW123828   5.016   2.730   4.087
 7643SOL    HW223829   5.021   2.630   3.958
 7644SOL     OW23830   5.751   2.290   2.520
 7644SOL    HW123831   5.845   2.260   2.508
 7644SOL    HW223832   5.690   2.228   2.471
 7645SOL     OW23833   4.395   4.104   5.417
 7645SOL    HW123834   4.323   4.143   5.359
 7645SOL    HW223835   4.390   4.004   5.413
 7646SOL     OW23836   2.093   2.320   2.099
 7646SOL    HW123837   2.139   2.291   2.016
 7646SOL    HW223838   2.140   2.281   2.179
 7647SOL     OW23839   0.096   3.486   2.302
 7647SOL    HW123840   0.110   3.434   2.218
 7647SOL    HW223841   0.153   3.568   2.301
 7648SOL     OW23842   3.595   1.116   3.607
 7648SOL    HW123843   3.569   1.024   3.637
 7648SOL    HW223844   3.654   1.109   3.526
 7649SOL     OW23845   1.127   1.492   2.990
 7649SOL    HW123846   1.149   1.410   3.043
 7649SOL    HW223847   1.179   1.570   3.026
 7650SOL     OW23848   5.044   2.840   1.246
 7650SOL    HW123849   4.978   2.765   1.245
 7650SOL    HW223850   5.119   2.817   1.308
 7651SOL     OW23851   2.485   6.860   5.206
 7651SOL    HW123852   2.504   6.942   5.260
 7651SOL    HW223853   2.388   6.836   5.214
 7652SOL     OW23854   6.933   3.777   3.933
 7652SOL    HW123855   7.006   3.722   3.974
 7652SOL    HW223856   6.883   3.825   4.004
 7653SOL     OW23857   2.546   1.568   0.707
 7653SOL    HW123858   2.606   1.645   0.731
 7653SOL    HW223859   2.596   1.504   0.648
 7654SOL     OW23860   5.144   3.568   4.357
 7654SOL    HW123861   5.140   3.482   4.407
 7654SOL    HW223862   5.092   3.560   4.272
 7655SOL     OW23863   3.425   0.092   3.387
 7655SOL    HW123864   3.519   0.068   3.413
 7655SOL    HW223865   3.363   0.018   3.413
 7656SOL     OW23866   1.967   4.998   6.356
 7656SOL    HW123867   1.981   4.946   6.441
 7656SOL    HW223868   2.046   5.057   6.339
 7657SOL     OW23869   2.830   2.331   3.062
 7657SOL    HW123870   2.815   2.257   3.127
 7657SOL    HW223871   2.765   2.405   3.080
 7658SOL     OW23872   3.877   6.458   5.997
 7658SOL    HW123873   3.794   6.505   6.027
 7658SOL    HW223874   3.868   6.360   6.013
 7659SOL     OW23875   5.484   5.575   6.606
 7659SOL    HW123876   5.420   5.605   6.535
 7659SOL    HW223877   5.519   5.655   6.654
 7660SOL     OW23878   0.446   6.892   4.092
 7660SOL    HW123879   0.409   6.980   4.062
 7660SOL    HW223880   0.539   6.881   4.057
 7661SOL     OW23881   5.530   2.487   4.538
 7661SOL    HW123882   5.453   2.434   4.502
 7661SOL    HW223883   5.553   2.561   4.475
 7662SOL     OW23884   0.659   2.338   2.236
 7662SOL    HW123885   0.692   2.263   2.179
 7662SOL    HW223886   0.560   2.330   2.249
 7663SOL     OW23887   6.999   6.694   6.299
 7663SOL    HW123888   6.905   6.710   6.269
 7663SOL    HW223889   6.999   6.670   6.396
 7664SOL     OW23890   3.925   0.599   2.022
 7664SOL    HW123891   3.854   0.530   2.006
 7664SOL    HW223892   4.011   0.568   1.981
 7665SOL     OW23893   4.878   0.044   4.907
 7665SOL    HW123894   4.894   6.993   4.976
 7665SOL    HW223895   4.796   0.021   4.855
 7666SOL     OW23896   1.250   6.816   1.503
 7666SOL    HW123897   1.226   6.801   1.407
 7666SOL    HW223898   1.250   6.915   1.522
 7667SOL     OW23899   4.509   5.755   1.921
 7667SOL    HW123900   4.592   5.789   1.964
 7667SOL    HW223901   4.465   5.689   1.982
 7668SOL     OW23902   2.903   4.345   0.844
 7668SOL    HW123903   2.870   4.285   0.918
 7668SOL    HW223904   2.994   4.379   0.868
 7669SOL     OW23905   5.795   1.842   6.186
 7669SOL    HW123906   5.829   1.867   6.095
 7669SOL    HW223907   5.732   1.764   6.178
 7670SOL     OW23908   1.244   4.927   6.356
 7670SOL    HW123909   1.191   4.867   6.298
 7670SOL    HW223910   1.220   4.912   6.452
 7671SOL     OW23911   4.572   0.595   4.845
 7671SOL    HW123912   4.606   0.533   4.775
 7671SOL    HW223913   4.635   0.594   4.923
 7672SOL     OW23914   5.979   6.603   3.699
 7672SOL    HW123915   6.044   6.678   3.689
 7672SOL    HW223916   5.983   6.567   3.792
 7673SOL     OW23917   2.143   5.032   6.985
 7673SOL    HW123918   2.193   4.981   0.034
 7673SOL    HW223919   2.194   5.115   6.961
 7674SOL     OW23920   6.082   2.303   3.969
 7674SOL    HW123921   5.984   2.307   3.989
 7674SOL    HW223922   6.096   2.309   3.870
 7675SOL     OW23923   4.857   0.171   2.458
 7675SOL    HW123924   4.925   0.240   2.481
 7675SOL    HW223925   4.794   0.207   2.389
 7676SOL     OW23926   1.719   2.018   0.483
 7676SOL    HW123927   1.772   1.991   0.563
 7676SOL    HW223928   1.631   2.056   0.513
 7677SOL     OW23929   0.174   4.111   2.371
 7677SOL    HW123930   0.216   4.198   2.397
 7677SOL    HW223931   0.075   4.117   2.383
 7678SOL     OW23932   2.450   1.627   5.438
 7678SOL    HW123933   2.542   1.593   5.419
 7678SOL    HW223934   2.451   1.678   5.524
 7679SOL     OW23935   2.361   5.947   5.883
 7679SOL    HW123936   2.358   6.027   5.943
 7679SOL    HW223937   2.332   5.972   5.791
 7680SOL     OW23938   1.693   1.910   0.228
 7680SOL    HW123939   1.603   1.874   0.205
 7680SOL    HW223940   1.692   1.950   0.320
 7681SOL     OW23941   2.916   6.821   0.297
 7681SOL    HW123942   2.988   6.828   0.227
 7681SOL    HW223943   2.842   6.884   0.274
 7682SOL     OW23944   3.577   0.558   1.701
 7682SOL    HW123945   3.485   0.527   1.728
 7682SOL    HW223946   3.592   0.538   1.605
 7683SOL     OW23947   6.805   1.994   3.876
 7683SOL    HW123948   6.817   1.990   3.777
 7683SOL    HW223949   6.883   2.043   3.916
 7684SOL     OW23950   4.025   1.878   1.430
 7684SOL    HW123951   4.030   1.804   1.498
 7684SOL    HW223952   4.096   1.865   1.361
 7685SOL     OW23953   3.113   3.482   0.194
 7685SOL    HW123954   3.117   3.389   0.156
 7685SOL    HW223955   3.201   3.506   0.235
 7686SOL     OW23956   5.387   6.906   2.998
 7686SOL    HW123957   5.351   6.883   3.088
 7686SOL    HW223958   5.442   6.989   3.005
 7687SOL     OW23959   6.058   5.080   5.402
 7687SOL    HW123960   6.025   5.057   5.493
 7687SOL    HW223961   6.088   5.175   5.400
 7688SOL     OW23962   0.283   6.705   5.323
 7688SOL    HW123963   0.297   6.738   5.417
 7688SOL    HW223964   0.204   6.753   5.283
 7689SOL     OW23965   5.211   6.070   2.839
 7689SOL    HW123966   5.138   6.130   2.871
 7689SOL    HW223967   5.250   6.020   2.917
 7690SOL     OW23968   6.388   5.101   0.771
 7690SOL    HW123969   6.299   5.080   0.810
 7690SOL    HW223970   6.379   5.116   0.672
 7691SOL     OW23971   5.303   3.022   4.097
 7691SOL    HW123972   5.364   3.001   4.174
 7691SOL    HW223973   5.219   3.063   4.132
 7692SOL     OW23974   1.254   6.459   1.549
 7692SOL    HW123975   1.326   6.528   1.547
 7692SOL    HW223976   1.276   6.390   1.618
 7693SOL     OW23977   3.383   6.925   1.478
 7693SOL    HW123978   3.400   7.005   1.535
 7693SOL    HW223979   3.464   6.867   1.477
 7694SOL     OW23980   0.154   4.165   4.032
 7694SOL    HW123981   0.183   4.238   4.094
 7694SOL    HW223982   0.064   4.132   4.060
 7695SOL     OW23983   3.747   6.288   0.236
 7695SOL    HW123984   3.655   6.304   0.273
 7695SOL    HW223985   3.790   6.375   0.215
 7696SOL     OW23986   6.509   1.609   4.356
 7696SOL    HW123987   6.493   1.688   4.296
 7696SOL    HW223988   6.494   1.637   4.451
 7697SOL     OW23989   2.627   0.260   1.716
 7697SOL    HW123990   2.555   0.199   1.683
 7697SOL    HW223991   2.702   0.205   1.754
 7698SOL     OW23992   0.179   1.963   4.236
 7698SOL    HW123993   0.099   1.954   4.296
 7698SOL    HW223994   0.197   1.876   4.191
 7699SOL     OW23995   3.832   5.492   6.932
 7699SOL    HW123996   3.927   5.463   6.920
 7699SOL    HW223997   3.825   5.548   7.015
 7700SOL     OW23998   4.897   6.112   4.602
 7700SOL    HW123999   4.853   6.169   4.672
 7700SOL    HW224000   4.991   6.141   4.589
 7701SOL     OW24001   6.787   1.579   6.526
 7701SOL    HW124002   6.772   1.532   6.613
 7701SOL    HW224003   6.818   1.672   6.543
 7702SOL     OW24004   2.751   6.664   6.152
 7702SOL    HW124005   2.804   6.736   6.107
 7702SOL    HW224006   2.813   6.602   6.200
 7703SOL     OW24007   6.407   0.412   5.061
 7703SOL    HW124008   6.362   0.385   4.976
 7703SOL    HW224009   6.368   0.499   5.093
 7704SOL     OW24010   5.360   4.727   5.398
 7704SOL    HW124011   5.348   4.817   5.356
 7704SOL    HW224012   5.456   4.714   5.422
 7705SOL     OW24013   3.865   4.742   6.068
 7705SOL    HW124014   3.833   4.672   6.131
 7705SOL    HW224015   3.788   4.781   6.018
 7706SOL     OW24016   4.576   1.701   5.418
 7706SOL    HW124017   4.538   1.754   5.342
 7706SOL    HW224018   4.516   1.623   5.437
 7707SOL     OW24019   1.277   5.945   6.576
 7707SOL    HW124020   1.202   5.899   6.528
 7707SOL    HW224021   1.266   5.932   6.675
 7708SOL     OW24022   5.669   6.629   5.237
 7708SOL    HW124023   5.753   6.619   5.184
 7708SOL    HW224024   5.674   6.713   5.291
 7709SOL     OW24025   5.585   4.213   1.392
 7709SOL    HW124026   5.673   4.171   1.413
 7709SOL    HW224027   5.575   4.222   1.293
 7710SOL     OW24028   4.117   0.768   0.945
 7710SOL    HW124029   4.194   0.773   1.008
 7710SOL    HW224030   4.130   0.833   0.871
 7711SOL     OW24031   6.261   5.688   5.426
 7711SOL    HW124032   6.219   5.768   5.468
 7711SOL    HW224033   6.197   5.647   5.361
 7712SOL     OW24034   5.585   4.726   2.069
 7712SOL    HW124035   5.511   4.679   2.021
 7712SOL    HW224036   5.584   4.700   2.165
 7713SOL     OW24037   1.200   5.069   0.384
 7713SOL    HW124038   1.283   5.123   0.370
 7713SOL    HW224039   1.157   5.052   0.295
 7714SOL     OW24040   6.435   4.862   5.345
 7714SOL    HW124041   6.442   4.762   5.353
 7714SOL    HW224042   6.478   4.905   5.424
 7715SOL     OW24043   4.913   2.032   0.315
 7715SOL    HW124044   4.837   2.077   0.362
 7715SOL    HW224045   5.000   2.065   0.353
 7716SOL     OW24046   6.366   4.233   3.756
 7716SOL    HW124047   6.356   4.301   3.683
 7716SOL    HW224048   6.365   4.279   3.845
 7717SOL     OW24049   1.744   0.980   4.906
 7717SOL    HW124050   1.690   0.995   4.823
 7717SOL    HW224051   1.751   0.883   4.925
 7718SOL     OW24052   2.051   1.944   3.317
 7718SOL    HW124053   2.034   2.015   3.248
 7718SOL    HW224054   2.111   1.874   3.278
 7719SOL     OW24055   0.246   3.636   4.360
 7719SOL    HW124056   0.305   3.599   4.432
 7719SOL    HW224057   0.152   3.605   4.375
 7720SOL     OW24058   0.292   6.943   0.714
 7720SOL    HW124059   0.292   6.952   0.615
 7720SOL    HW224060   0.356   6.872   0.741
 7721SOL     OW24061   1.140   4.860   2.434
 7721SOL    HW124062   1.154   4.905   2.522
 7721SOL    HW224063   1.223   4.810   2.409
 7722SOL     OW24064   0.555   5.628   3.310
 7722SOL    HW124065   0.614   5.681   3.249
 7722SOL    HW224066   0.469   5.609   3.263
 7723SOL     OW24067   6.600   3.719   0.063
 7723SOL    HW124068   6.563   3.641   0.013
 7723SOL    HW224069   6.693   3.697   0.093
 7724SOL     OW24070   2.361   4.244   1.827
 7724SOL    HW124071   2.313   4.278   1.745
 7724SOL    HW224072   2.445   4.198   1.799
 7725SOL     OW24073   5.017   3.177   3.736
 7725SOL    HW124074   4.951   3.216   3.801
 7725SOL    HW224075   5.110   3.199   3.766
 7726SOL     OW24076   1.158   6.305   4.850
 7726SOL    HW124077   1.193   6.300   4.756
 7726SOL    HW224078   1.064   6.271   4.852
 7727SOL     OW24079   6.905   0.802   2.855
 7727SOL    HW124080   6.989   0.854   2.842
 7727SOL    HW224081   6.926   0.705   2.864
 7728SOL     OW24082   1.106   5.214   3.393
 7728SOL    HW124083   1.155   5.296   3.422
 7728SOL    HW224084   1.008   5.235   3.385
 7729SOL     OW24085   6.004   3.253   0.539
 7729SOL    HW124086   6.051   3.286   0.457
 7729SOL    HW224087   5.960   3.330   0.586
 7730SOL     OW24088   5.647   5.563   2.156
 7730SOL    HW124089   5.700   5.646   2.139
 7730SOL    HW224090   5.680   5.489   2.096
 7731SOL     OW24091   6.898   1.113   0.664
 7731SOL    HW124092   6.967   1.168   0.711
 7731SOL    HW224093   6.807   1.147   0.687
 7732SOL     OW24094   4.610   6.214   0.605
 7732SOL    HW124095   4.561   6.287   0.651
 7732SOL    HW224096   4.691   6.189   0.659
 7733SOL     OW24097   3.911   6.989   2.283
 7733SOL    HW124098   3.887   6.942   2.367
 7733SOL    HW224099   3.920   0.067   2.301
 7734SOL     OW24100   2.480   4.918   3.450
 7734SOL    HW124101   2.515   4.918   3.544
 7734SOL    HW224102   2.400   4.977   3.443
 7735SOL     OW24103   4.843   6.178   6.214
 7735SOL    HW124104   4.879   6.161   6.306
 7735SOL    HW224105   4.805   6.270   6.210
 7736SOL     OW24106   4.141   3.820   6.825
 7736SOL    HW124107   4.124   3.793   6.919
 7736SOL    HW224108   4.190   3.908   6.823
 7737SOL     OW24109   4.180   0.855   2.248
 7737SOL    HW124110   4.180   0.800   2.331
 7737SOL    HW224111   4.188   0.795   2.168
 7738SOL     OW24112   1.835   5.571   6.424
 7738SOL    HW124113   1.829   5.471   6.424
 7738SOL    HW224114   1.809   5.605   6.334
 7739SOL     OW24115   0.675   1.518   1.870
 7739SOL    HW124116   0.742   1.582   1.908
 7739SOL    HW224117   0.583   1.549   1.892
 7740SOL     OW24118   1.686   0.587   2.997
 7740SOL    HW124119   1.609   0.523   2.987
 7740SOL    HW224120   1.666   0.652   3.070
 7741SOL     OW24121   1.079   5.930   4.733
 7741SOL    HW124122   1.035   5.883   4.657
 7741SOL    HW224123   1.127   6.011   4.699
 7742SOL     OW24124   5.934   2.146   3.195
 7742SOL    HW124125   5.989   2.229   3.208
 7742SOL    HW224126   5.964   2.076   3.259
 7743SOL     OW24127   4.800   1.824   6.421
 7743SOL    HW124128   4.761   1.913   6.396
 7743SOL    HW224129   4.746   1.751   6.380
 7744SOL     OW24130   1.128   6.072   3.504
 7744SOL    HW124131   1.193   6.015   3.554
 7744SOL    HW224132   1.071   6.122   3.570
 7745SOL     OW24133   3.065   0.894   5.586
 7745SOL    HW124134   3.117   0.839   5.521
 7745SOL    HW224135   3.064   0.990   5.556
 7746SOL     OW24136   1.971   6.520   0.005
 7746SOL    HW124137   1.995   6.493   6.932
 7746SOL    HW224138   1.901   6.457   0.041
 7747SOL     OW24139   4.346   5.751   1.308
 7747SOL    HW124140   4.429   5.696   1.301
 7747SOL    HW224141   4.345   5.798   1.397
 7748SOL     OW24142   3.557   3.536   5.630
 7748SOL    HW124143   3.624   3.474   5.590
 7748SOL    HW224144   3.497   3.572   5.559
 7749SOL     OW24145   3.017   3.069   5.507
 7749SOL    HW124146   3.068   3.100   5.427
 7749SOL    HW224147   2.922   3.100   5.501
 7750SOL     OW24148   6.693   6.250   1.644
 7750SOL    HW124149   6.687   6.266   1.545
 7750SOL    HW224150   6.624   6.304   1.691
 7751SOL     OW24151   1.667   1.551   2.236
 7751SOL    HW124152   1.733   1.559   2.311
 7751SOL    HW224153   1.587   1.607   2.255
 7752SOL     OW24154   5.216   0.070   5.626
 7752SOL    HW124155   5.245   0.008   5.554
 7752SOL    HW224156   5.275   0.151   5.627
 7753SOL     OW24157   2.532   1.487   4.709
 7753SOL    HW124158   2.530   1.545   4.627
 7753SOL    HW224159   2.519   1.392   4.682
 7754SOL     OW24160   3.643   6.097   1.379
 7754SOL    HW124161   3.733   6.077   1.339
 7754SOL    HW224162   3.635   6.195   1.397
 7755SOL     OW24163   1.184   2.225   6.105
 7755SOL    HW124164   1.261   2.180   6.060
 7755SOL    HW224165   1.109   2.236   6.040
 7756SOL     OW24166   3.091   6.291   1.691
 7756SOL    HW124167   3.121   6.355   1.621
 7756SOL    HW224168   2.991   6.291   1.696
 7757SOL     OW24169   6.711   5.053   1.240
 7757SOL    HW124170   6.698   5.149   1.214
 7757SOL    HW224171   6.635   5.023   1.298
 7758SOL     OW24172   1.337   6.797   5.752
 7758SOL    HW124173   1.345   6.892   5.721
 7758SOL    HW224174   1.370   6.790   5.846
 7759SOL     OW24175   2.738   1.308   5.640
 7759SOL    HW124176   2.832   1.310   5.672
 7759SOL    HW224177   2.684   1.374   5.693
 7760SOL     OW24178   5.342   2.119   2.489
 7760SOL    HW124179   5.363   2.215   2.508
 7760SOL    HW224180   5.248   2.111   2.457
 7761SOL     OW24181   6.762   5.758   4.983
 7761SOL    HW124182   6.681   5.812   4.960
 7761SOL    HW224183   6.833   5.775   4.915
 7762SOL     OW24184   1.916   0.061   3.634
 7762SOL    HW124185   1.951   0.138   3.687
 7762SOL    HW224186   1.820   0.047   3.656
 7763SOL     OW24187   2.485   0.002   6.406
 7763SOL    HW124188   2.495   0.100   6.387
 7763SOL    HW224189   2.575   6.978   6.401
 7764SOL     OW24190   3.394   3.966   6.091
 7764SOL    HW124191   3.315   3.965   6.152
 7764SOL    HW224192   3.402   3.878   6.045
 7765SOL     OW24193   6.493   3.193   5.101
 7765SOL    HW124194   6.469   3.280   5.058
 7765SOL    HW224195   6.554   3.210   5.179
 7766SOL     OW24196   6.680   4.263   0.648
 7766SOL    HW124197   6.731   4.345   0.621
 7766SOL    HW224198   6.632   4.281   0.735
 7767SOL     OW24199   4.676   6.548   2.292
 7767SOL    HW124200   4.703   6.623   2.352
 7767SOL    HW224201   4.606   6.580   2.228
 7768SOL     OW24202   4.710   4.629   3.799
 7768SOL    HW124203   4.636   4.602   3.736
 7768SOL    HW224204   4.798   4.624   3.751
 7769SOL     OW24205   4.131   1.489   4.687
 7769SOL    HW124206   4.081   1.525   4.765
 7769SOL    HW224207   4.224   1.527   4.686
 7770SOL     OW24208   7.015   3.242   4.474
 7770SOL    HW124209   0.094   3.259   4.479
 7770SOL    HW224210   6.999   3.162   4.416
 7771SOL     OW24211   2.745   1.477   6.176
 7771SOL    HW124212   2.833   1.431   6.161
 7771SOL    HW224213   2.759   1.576   6.181
 7772SOL     OW24214   5.204   0.086   1.061
 7772SOL    HW124215   5.172   0.042   1.145
 7772SOL    HW224216   5.294   0.050   1.037
 7773SOL     OW24217   2.581   5.611   5.625
 7773SOL    HW124218   2.659   5.672   5.637
 7773SOL    HW224219   2.576   5.547   5.702
 7774SOL     OW24220   4.729   2.347   4.581
 7774SOL    HW124221   4.720   2.380   4.486
 7774SOL    HW224222   4.689   2.414   4.643
 7775SOL     OW24223   3.773   6.882   0.121
 7775SOL    HW124224   3.865   6.894   0.158
 7775SOL    HW224225   3.774   6.894   0.022
 7776SOL     OW24226   0.810   6.573   6.192
 7776SOL    HW124227   0.910   6.562   6.196
 7776SOL    HW224228   0.770   6.496   6.144
 7777SOL     OW24229   6.821   5.481   4.958
 7777SOL    HW124230   6.848   5.575   4.978
 7777SOL    HW224231   6.721   5.475   4.956
 7778SOL     OW24232   5.752   4.163   2.331
 7778SOL    HW124233   5.770   4.067   2.353
 7778SOL    HW224234   5.689   4.168   2.253
 7779SOL     OW24235   2.631   0.648   2.553
 7779SOL    HW124236   2.548   0.592   2.563
 7779SOL    HW224237   2.605   0.741   2.530
 7780SOL     OW24238   0.672   5.885   5.862
 7780SOL    HW124239   0.598   5.933   5.815
 7780SOL    HW224240   0.701   5.938   5.942
 7781SOL     OW24241   0.838   4.085   0.414
 7781SOL    HW124242   0.883   4.137   0.342
 7781SOL    HW224243   0.814   4.146   0.489
 7782SOL     OW24244   5.527   5.254   4.117
 7782SOL    HW124245   5.434   5.236   4.085
 7782SOL    HW224246   5.572   5.316   4.052
 7783SOL     OW24247   0.441   0.077   6.043
 7783SOL    HW124248   0.506   0.033   6.105
 7783SOL    HW224249   0.489   0.105   5.959
 7784SOL     OW24250   2.825   2.690   1.652
 7784SOL    HW124251   2.810   2.760   1.582
 7784SOL    HW224252   2.922   2.688   1.676
 7785SOL     OW24253   1.275   6.521   4.076
 7785SOL    HW124254   1.346   6.555   4.015
 7785SOL    HW224255   1.317   6.488   4.161
 7786SOL     OW24256   4.201   0.774   6.661
 7786SOL    HW124257   4.125   0.784   6.596
 7786SOL    HW224258   4.232   0.864   6.691
 7787SOL     OW24259   1.690   2.934   0.285
 7787SOL    HW124260   1.598   2.921   0.321
 7787SOL    HW224261   1.745   2.985   0.351
 7788SOL     OW24262   1.359   6.273   2.168
 7788SOL    HW124263   1.314   6.189   2.136
 7788SOL    HW224264   1.455   6.272   2.142
 7789SOL     OW24265   3.251   0.180   6.685
 7789SOL    HW124266   3.348   0.204   6.697
 7789SOL    HW224267   3.194   0.254   6.721
 7790SOL     OW24268   6.292   4.962   2.716
 7790SOL    HW124269   6.354   4.885   2.734
 7790SOL    HW224270   6.302   4.991   2.621
 7791SOL     OW24271   2.806   5.784   2.338
 7791SOL    HW124272   2.893   5.735   2.342
 7791SOL    HW224273   2.773   5.786   2.244
 7792SOL     OW24274   0.998   0.300   2.851
 7792SOL    HW124275   0.903   0.272   2.844
 7792SOL    HW224276   1.035   0.271   2.940
 7793SOL     OW24277   4.784   0.615   0.252
 7793SOL    HW124278   4.778   0.532   0.308
 7793SOL    HW224279   4.744   0.597   0.162
 7794SOL     OW24280   0.311   5.293   1.655
 7794SOL    HW124281   0.318   5.246   1.743
 7794SOL    HW224282   0.246   5.368   1.663
 7795SOL     OW24283   3.381   5.578   5.656
 7795SOL    HW124284   3.387   5.555   5.558
 7795SOL    HW224285   3.471   5.609   5.688
 7796SOL     OW24286   3.052   2.790   5.624
 7796SOL    HW124287   3.074   2.785   5.527
 7796SOL    HW224288   3.058   2.885   5.655
 7797SOL     OW24289   0.547   5.903   1.571
 7797SOL    HW124290   0.469   5.851   1.606
 7797SOL    HW224291   0.554   5.891   1.472
 7798SOL     OW24292   1.868   1.257   2.727
 7798SOL    HW124293   1.905   1.166   2.744
 7798SOL    HW224294   1.773   1.260   2.757
 7799SOL     OW24295   2.400   5.530   3.066
 7799SOL    HW124296   2.469   5.474   3.110
 7799SOL    HW224297   2.382   5.495   2.974
 7800SOL     OW24298   0.077   5.882   3.088
 7800SOL    HW124299   0.144   5.852   3.019
 7800SOL    HW224300   0.076   5.982   3.091
 7801SOL     OW24301   1.710   1.120   3.150
 7801SOL    HW124302   1.670   1.209   3.127
 7801SOL    HW224303   1.807   1.120   3.125
 7802SOL     OW24304   6.849   4.045   6.910
 7802SOL    HW124305   6.821   3.999   6.825
 7802SOL    HW224306   6.858   4.143   6.893
 7803SOL     OW24307   4.572   1.874   6.839
 7803SOL    HW124308   4.514   1.956   6.834
 7803SOL    HW224309   4.661   1.895   6.799
 7804SOL     OW24310   3.867   1.875   4.636
 7804SOL    HW124311   3.936   1.901   4.568
 7804SOL    HW224312   3.780   1.857   4.589
 7805SOL     OW24313   4.966   3.611   2.680
 7805SOL    HW124314   5.035   3.610   2.607
 7805SOL    HW224315   4.927   3.703   2.687
 7806SOL     OW24316   6.437   2.030   6.192
 7806SOL    HW124317   6.345   2.044   6.229
 7806SOL    HW224318   6.503   2.036   6.267
 7807SOL     OW24319   1.209   3.942   5.180
 7807SOL    HW124320   1.126   3.954   5.235
 7807SOL    HW224321   1.208   4.006   5.103
 7808SOL     OW24322   5.137   4.138   2.822
 7808SOL    HW124323   5.089   4.205   2.765
 7808SOL    HW224324   5.159   4.180   2.910
 7809SOL     OW24325   5.226   4.788   4.851
 7809SOL    HW124326   5.301   4.768   4.787
 7809SOL    HW224327   5.159   4.715   4.848
 7810SOL     OW24328   3.488   6.717   4.938
 7810SOL    HW124329   3.549   6.776   4.886
 7810SOL    HW224330   3.540   6.641   4.978
 7811SOL     OW24331   1.926   5.893   2.826
 7811SOL    HW124332   1.908   5.832   2.903
 7811SOL    HW224333   1.918   5.842   2.740
 7812SOL     OW24334   2.426   3.161   5.396
 7812SOL    HW124335   2.353   3.219   5.359
 7812SOL    HW224336   2.455   3.096   5.326
 7813SOL     OW24337   4.361   2.866   1.258
 7813SOL    HW124338   4.418   2.818   1.324
 7813SOL    HW224339   4.297   2.802   1.215
 7814SOL     OW24340   6.972   3.705   2.830
 7814SOL    HW124341   7.000   3.798   2.803
 7814SOL    HW224342   0.033   3.649   2.844
 7815SOL     OW24343   5.422   2.403   5.336
 7815SOL    HW124344   5.429   2.386   5.434
 7815SOL    HW224345   5.326   2.402   5.309
 7816SOL     OW24346   0.531   2.423   6.041
 7816SOL    HW124347   0.611   2.475   6.012
 7816SOL    HW224348   0.502   2.363   5.967
 7817SOL     OW24349   4.582   3.865   5.669
 7817SOL    HW124350   4.488   3.893   5.651
 7817SOL    HW224351   4.645   3.929   5.624
 7818SOL     OW24352   5.051   1.113   2.605
 7818SOL    HW124353   5.029   1.017   2.588
 7818SOL    HW224354   5.043   1.165   2.521
 7819SOL     OW24355   7.009   3.240   3.683
 7819SOL    HW124356   0.044   3.281   3.610
 7819SOL    HW224357   6.997   3.306   3.757
 7820SOL     OW24358   2.207   1.297   5.648
 7820SOL    HW124359   2.172   1.229   5.583
 7820SOL    HW224360   2.280   1.256   5.703
 7821SOL     OW24361   5.323   5.872   0.421
 7821SOL    HW124362   5.270   5.892   0.504
 7821SOL    HW224363   5.287   5.789   0.379
 7822SOL     OW24364   1.012   1.473   6.057
 7822SOL    HW124365   1.084   1.464   6.126
 7822SOL    HW224366   0.933   1.418   6.084
 7823SOL     OW24367   1.215   4.007   6.269
 7823SOL    HW124368   1.165   3.933   6.314
 7823SOL    HW224369   1.158   4.088   6.265
 7824SOL     OW24370   6.393   0.283   4.548
 7824SOL    HW124371   6.354   0.366   4.588
 7824SOL    HW224372   6.336   0.254   4.471
 7825SOL     OW24373   2.185   2.698   1.510
 7825SOL    HW124374   2.106   2.727   1.564
 7825SOL    HW224375   2.250   2.774   1.503
 7826SOL     OW24376   4.941   2.105   6.530
 7826SOL    HW124377   4.907   2.032   6.589
 7826SOL    HW224378   5.040   2.098   6.521
 7827SOL     OW24379   3.212   4.852   1.224
 7827SOL    HW124380   3.214   4.941   1.178
 7827SOL    HW224381   3.300   4.837   1.270
 7828SOL     OW24382   0.166   5.396   0.407
 7828SOL    HW124383   0.183   5.311   0.358
 7828SOL    HW224384   0.253   5.437   0.433
 7829SOL     OW24385   1.882   3.095   1.321
 7829SOL    HW124386   1.956   3.029   1.315
 7829SOL    HW224387   1.903   3.163   1.392
 7830SOL     OW24388   5.700   3.674   5.882
 7830SOL    HW124389   5.746   3.666   5.970
 7830SOL    HW224390   5.683   3.582   5.846
 7831SOL     OW24391   1.103   5.077   0.115
 7831SOL    HW124392   1.190   5.084   0.066
 7831SOL    HW224393   1.052   4.999   0.080
 7832SOL     OW24394   3.443   0.545   4.647
 7832SOL    HW124395   3.365   0.603   4.620
 7832SOL    HW224396   3.520   0.603   4.670
 7833SOL     OW24397   1.027   1.010   0.594
 7833SOL    HW124398   1.098   1.075   0.619
 7833SOL    HW224399   0.941   1.035   0.639
 7834SOL     OW24400   0.200   1.557   2.709
 7834SOL    HW124401   0.180   1.470   2.753
 7834SOL    HW224402   0.281   1.599   2.752
 7835SOL     OW24403   2.304   2.546   5.164
 7835SOL    HW124404   2.352   2.613   5.220
 7835SOL    HW224405   2.367   2.510   5.094
 7836SOL     OW24406   3.396   0.921   6.145
 7836SOL    HW124407   3.382   0.874   6.232
 7836SOL    HW224408   3.312   0.916   6.090
 7837SOL     OW24409   6.387   6.331   1.551
 7837SOL    HW124410   6.307   6.392   1.555
 7837SOL    HW224411   6.418   6.310   1.643
 7838SOL     OW24412   4.599   6.314   6.397
 7838SOL    HW124413   4.618   6.369   6.478
 7838SOL    HW224414   4.647   6.227   6.404
 7839SOL     OW24415   6.700   4.351   4.770
 7839SOL    HW124416   6.763   4.286   4.728
 7839SOL    HW224417   6.608   4.338   4.732
 7840SOL     OW24418   4.858   3.777   3.964
 7840SOL    HW124419   4.768   3.811   3.937
 7840SOL    HW224420   4.909   3.750   3.883
 7841SOL     OW24421   5.624   1.621   6.506
 7841SOL    HW124422   5.601   1.551   6.439
 7841SOL    HW224423   5.721   1.612   6.531
 7842SOL     OW24424   1.381   1.032   3.331
 7842SOL    HW124425   1.457   1.016   3.394
 7842SOL    HW224426   1.342   1.122   3.349
 7843SOL     OW24427   5.831   4.499   1.759
 7843SOL    HW124428   5.901   4.438   1.796
 7843SOL    HW224429   5.799   4.462   1.671
 7844SOL     OW24430   4.358   0.544   3.865
 7844SOL    HW124431   4.342   0.588   3.954
 7844SOL    HW224432   4.435   0.481   3.873
 7845SOL     OW24433   0.719   0.992   4.216
 7845SOL    HW124434   0.763   0.908   4.248
 7845SOL    HW224435   0.729   0.998   4.116
 7846SOL     OW24436   2.247   0.248   1.723
 7846SOL    HW124437   2.171   0.187   1.700
 7846SOL    HW224438   2.303   0.264   1.641
 7847SOL     OW24439   0.373   2.029   1.218
 7847SOL    HW124440   0.357   1.989   1.308
 7847SOL    HW224441   0.298   2.006   1.157
 7848SOL     OW24442   3.112   4.349   1.268
 7848SOL    HW124443   3.178   4.318   1.199
 7848SOL    HW224444   3.057   4.424   1.230
 7849SOL     OW24445   5.738   4.052   4.515
 7849SOL    HW124446   5.679   4.016   4.587
 7849SOL    HW224447   5.736   4.152   4.517
 7850SOL     OW24448   0.559   0.607   3.862
 7850SOL    HW124449   0.643   0.562   3.893
 7850SOL    HW224450   0.555   0.605   3.762
 7851SOL     OW24451   6.880   6.886   0.873
 7851SOL    HW124452   6.897   6.984   0.864
 7851SOL    HW224453   6.898   6.841   0.786
 7852SOL     OW24454   3.143   6.798   6.405
 7852SOL    HW124455   3.051   6.818   6.439
 7852SOL    HW224456   3.197   6.756   6.478
 7853SOL     OW24457   4.105   1.463   1.366
 7853SOL    HW124458   4.082   1.531   1.296
 7853SOL    HW224459   4.042   1.386   1.361
 7854SOL     OW24460   3.587   4.433   1.073
 7854SOL    HW124461   3.673   4.382   1.076
 7854SOL    HW224462   3.605   4.528   1.046
 7855SOL     OW24463   4.463   5.480   6.000
 7855SOL    HW124464   4.372   5.466   6.039
 7855SOL    HW224465   4.490   5.399   5.949
 7856SOL     OW24466   6.175   4.526   4.281
 7856SOL    HW124467   6.261   4.562   4.246
 7856SOL    HW224468   6.190   4.437   4.323
 7857SOL     OW24469   6.832   2.622   5.624
 7857SOL    HW124470   6.906   2.565   5.658
 7857SOL    HW224471   6.839   2.714   5.663
 7858SOL     OW24472   5.096   5.285   3.599
 7858SOL    HW124473   5.036   5.306   3.521
 7858SOL    HW224474   5.120   5.188   3.598
 7859SOL     OW24475   6.632   4.209   5.970
 7859SOL    HW124476   6.649   4.228   5.874
 7859SOL    HW224477   6.568   4.133   5.979
 7860SOL     OW24478   3.900   6.086   2.536
 7860SOL    HW124479   3.803   6.108   2.546
 7860SOL    HW224480   3.919   6.064   2.440
 7861SOL     OW24481   4.384   5.552   2.118
 7861SOL    HW124482   4.444   5.476   2.094
 7861SOL    HW224483   4.302   5.549   2.061
 7862SOL     OW24484   2.830   4.325   1.702
 7862SOL    HW124485   2.861   4.401   1.760
 7862SOL    HW224486   2.848   4.347   1.606
 7863SOL     OW24487   0.247   5.946   3.776
 7863SOL    HW124488   0.187   5.906   3.707
 7863SOL    HW224489   0.316   5.879   3.803
 7864SOL     OW24490   6.815   6.099   6.064
 7864SOL    HW124491   6.821   6.033   6.139
 7864SOL    HW224492   6.813   6.049   5.977
 7865SOL     OW24493   4.743   6.641   3.978
 7865SOL    HW124494   4.683   6.608   3.905
 7865SOL    HW224495   4.740   6.578   4.055
 7866SOL     OW24496   2.636   2.171   1.144
 7866SOL    HW124497   2.689   2.086   1.139
 7866SOL    HW224498   2.633   2.203   1.239
 7867SOL     OW24499   5.667   4.995   2.932
 7867SOL    HW124500   5.694   4.918   2.873
 7867SOL    HW224501   5.621   5.064   2.876
 7868SOL     OW24502   5.320   6.836   2.755
 7868SOL    HW124503   5.384   6.786   2.698
 7868SOL    HW224504   5.364   6.861   2.841
 7869SOL     OW24505   6.238   3.820   0.841
 7869SOL    HW124506   6.241   3.759   0.920
 7869SOL    HW224507   6.296   3.784   0.769
 7870SOL     OW24508   5.468   6.308   3.739
 7870SOL    HW124509   5.492   6.243   3.811
 7870SOL    HW224510   5.551   6.336   3.691
 7871SOL     OW24511   6.044   4.285   3.166
 7871SOL    HW124512   6.094   4.222   3.225
 7871SOL    HW224513   5.947   4.281   3.188
 7872SOL     OW24514   1.068   4.266   1.793
 7872SOL    HW124515   0.985   4.221   1.760
 7872SOL    HW224516   1.072   4.360   1.758
 7873SOL     OW24517   5.563   0.178   5.597
 7873SOL    HW124518   5.525   0.125   5.673
 7873SOL    HW224519   5.634   0.124   5.552
 7874SOL     OW24520   6.132   1.291   6.887
 7874SOL    HW124521   6.139   1.379   6.933
 7874SOL    HW224522   6.215   1.238   6.905
 7875SOL     OW24523   4.047   3.659   6.391
 7875SOL    HW124524   4.097   3.702   6.466
 7875SOL    HW224525   3.952   3.643   6.419
 7876SOL     OW24526   6.959   6.548   4.686
 7876SOL    HW124527   6.943   6.625   4.625
 7876SOL    HW224528   0.035   6.547   4.714
 7877SOL     OW24529   0.744   2.870   2.418
 7877SOL    HW124530   0.789   2.953   2.386
 7877SOL    HW224531   0.723   2.810   2.340
 7878SOL     OW24532   4.694   4.972   3.861
 7878SOL    HW124533   4.649   4.965   3.772
 7878SOL    HW224534   4.728   5.066   3.873
 7879SOL     OW24535   4.431   6.238   3.167
 7879SOL    HW124536   4.400   6.198   3.253
 7879SOL    HW224537   4.429   6.168   3.095
 7880SOL     OW24538   0.248   6.028   1.589
 7880SOL    HW124539   0.270   6.051   1.683
 7880SOL    HW224540   0.319   6.064   1.528
 7881SOL     OW24541   6.872   3.261   4.713
 7881SOL    HW124542   6.794   3.317   4.739
 7881SOL    HW224543   6.918   3.302   4.634
 7882SOL     OW24544   1.981   2.297   3.598
 7882SOL    HW124545   1.960   2.384   3.644
 7882SOL    HW224546   1.899   2.239   3.598
 7883SOL     OW24547   1.802   0.299   1.293
 7883SOL    HW124548   1.737   0.253   1.233
 7883SOL    HW224549   1.836   0.382   1.248
 7884SOL     OW24550   1.327   4.169   3.572
 7884SOL    HW124551   1.375   4.143   3.656
 7884SOL    HW224552   1.391   4.211   3.508
 7885SOL     OW24553   5.613   5.996   2.852
 7885SOL    HW124554   5.677   5.955   2.787
 7885SOL    HW224555   5.570   6.076   2.810
 7886SOL     OW24556   4.952   3.664   1.051
 7886SOL    HW124557   4.864   3.695   1.017
 7886SOL    HW224558   4.946   3.648   1.150
 7887SOL     OW24559   3.421   2.793   5.242
 7887SOL    HW124560   3.360   2.725   5.282
 7887SOL    HW224561   3.514   2.757   5.240
 7888SOL     OW24562   0.546   0.579   4.782
 7888SOL    HW124563   0.582   0.508   4.842
 7888SOL    HW224564   0.617   0.607   4.717
 7889SOL     OW24565   0.536   5.195   6.335
 7889SOL    HW124566   0.439   5.170   6.345
 7889SOL    HW224567   0.593   5.127   6.380
 7890SOL     OW24568   1.117   3.240   3.962
 7890SOL    HW124569   1.074   3.258   3.873
 7890SOL    HW224570   1.209   3.279   3.962
 7891SOL     OW24571   1.059   3.300   4.436
 7891SOL    HW124572   0.979   3.309   4.496
 7891SOL    HW224573   1.056   3.371   4.365
 7892SOL     OW24574   1.194   2.115   4.318
 7892SOL    HW124575   1.157   2.173   4.391
 7892SOL    HW224576   1.181   2.019   4.342
 7893SOL     OW24577   5.700   6.006   2.455
 7893SOL    HW124578   5.600   6.016   2.458
 7893SOL    HW224579   5.741   6.073   2.517
 7894SOL     OW24580   3.093   0.961   0.613
 7894SOL    HW124581   3.085   1.049   0.566
 7894SOL    HW224582   3.177   0.960   0.668
 7895SOL     OW24583   3.915   6.308   4.696
 7895SOL    HW124584   3.953   6.393   4.732
 7895SOL    HW224585   3.935   6.301   4.598
 7896SOL     OW24586   5.368   3.008   1.735
 7896SOL    HW124587   5.308   2.984   1.812
 7896SOL    HW224588   5.314   3.017   1.652
 7897SOL     OW24589   3.203   3.301   6.924
 7897SOL    HW124590   3.260   3.381   6.908
 7897SOL    HW224591   3.106   3.326   6.916
 7898SOL     OW24592   4.581   0.385   3.609
 7898SOL    HW124593   4.641   0.461   3.634
 7898SOL    HW224594   4.633   0.316   3.559
 7899SOL     OW24595   5.343   6.627   2.128
 7899SOL    HW124596   5.310   6.665   2.215
 7899SOL    HW224597   5.325   6.693   2.055
 7900SOL     OW24598   0.604   3.981   0.549
 7900SOL    HW124599   0.683   4.020   0.502
 7900SOL    HW224600   0.537   3.951   0.482
 7901SOL     OW24601   5.248   1.164   5.754
 7901SOL    HW124602   5.179   1.214   5.807
 7901SOL    HW224603   5.204   1.117   5.678
 7902SOL     OW24604   6.741   6.342   3.489
 7902SOL    HW124605   6.788   6.264   3.531
 7902SOL    HW224606   6.729   6.414   3.558
 7903SOL     OW24607   4.296   1.964   3.160
 7903SOL    HW124608   4.360   1.940   3.233
 7903SOL    HW224609   4.209   1.993   3.200
 7904SOL     OW24610   6.073   0.586   3.657
 7904SOL    HW124611   6.109   0.500   3.620
 7904SOL    HW224612   5.976   0.575   3.677
 7905SOL     OW24613   5.817   1.532   0.301
 7905SOL    HW124614   5.753   1.581   0.361
 7905SOL    HW224615   5.878   1.599   0.257
 7906SOL     OW24616   1.235   5.749   0.574
 7906SOL    HW124617   1.312   5.759   0.637
 7906SOL    HW224618   1.209   5.653   0.568
 7907SOL     OW24619   5.891   0.979   3.184
 7907SOL    HW124620   5.792   0.975   3.176
 7907SOL    HW224621   5.933   0.912   3.122
 7908SOL     OW24622   1.194   1.590   6.491
 7908SOL    HW124623   1.188   1.536   6.407
 7908SOL    HW224624   1.237   1.678   6.472
 7909SOL     OW24625   4.846   4.175   3.430
 7909SOL    HW124626   4.940   4.167   3.463
 7909SOL    HW224627   4.835   4.259   3.378
 7910SOL     OW24628   1.545   3.449   1.122
 7910SOL    HW124629   1.611   3.519   1.093
 7910SOL    HW224630   1.456   3.492   1.136
 7911SOL     OW24631   0.727   3.990   1.168
 7911SOL    HW124632   0.766   3.999   1.076
 7911SOL    HW224633   0.795   4.014   1.236
 7912SOL     OW24634   5.071   4.176   0.849
 7912SOL    HW124635   5.083   4.081   0.821
 7912SOL    HW224636   4.993   4.184   0.910
 7913SOL     OW24637   1.496   4.660   0.823
 7913SOL    HW124638   1.532   4.712   0.746
 7913SOL    HW224639   1.492   4.718   0.904
 7914SOL     OW24640   0.086   4.223   0.524
 7914SOL    HW124641   0.063   4.319   0.534
 7914SOL    HW224642   0.112   4.204   0.430
 7915SOL     OW24643   4.589   1.697   2.769
 7915SOL    HW124644   4.526   1.774   2.759
 7915SOL    HW224645   4.544   1.623   2.820
 7916SOL     OW24646   0.696   0.027   5.153
 7916SOL    HW124647   0.748   0.021   5.239
 7916SOL    HW224648   0.603   7.014   5.169
 7917SOL     OW24649   4.173   2.679   5.477
 7917SOL    HW124650   4.078   2.673   5.508
 7917SOL    HW224651   4.212   2.766   5.507
 7918SOL     OW24652   0.308   1.017   5.038
 7918SOL    HW124653   0.252   0.950   5.086
 7918SOL    HW224654   0.395   0.975   5.011
 7919SOL     OW24655   1.051   5.043   2.011
 7919SOL    HW124656   1.091   4.958   1.976
 7919SOL    HW224657   0.958   5.052   1.975
 7920SOL     OW24658   5.022   0.877   1.981
 7920SOL    HW124659   5.039   0.802   2.044
 7920SOL    HW224660   4.992   0.958   2.032
 7921SOL     OW24661   5.834   0.727   1.564
 7921SOL    HW124662   5.846   0.663   1.639
 7921SOL    HW224663   5.879   0.691   1.482
 7922SOL     OW24664   0.429   6.103   0.171
 7922SOL    HW124665   0.476   6.135   0.088
 7922SOL    HW224666   0.495   6.055   0.229
 7923SOL     OW24667   3.507   1.714   6.428
 7923SOL    HW124668   3.408   1.703   6.437
 7923SOL    HW224669   3.549   1.713   6.519
 7924SOL     OW24670   4.875   0.189   1.680
 7924SOL    HW124671   4.834   0.183   1.771
 7924SOL    HW224672   4.968   0.225   1.688
 7925SOL     OW24673   1.380   6.786   0.728
 7925SOL    HW124674   1.444   6.854   0.764
 7925SOL    HW224675   1.287   6.822   0.733
 7926SOL     OW24676   4.880   1.422   6.636
 7926SOL    HW124677   4.978   1.414   6.649
 7926SOL    HW224678   4.833   1.358   6.697
 7927SOL     OW24679   4.793   6.877   1.782
 7927SOL    HW124680   4.693   6.872   1.793
 7927SOL    HW224681   4.829   6.953   1.835
 7928SOL     OW24682   0.362   1.599   3.821
 7928SOL    HW124683   0.379   1.693   3.849
 7928SOL    HW224684   0.422   1.576   3.744
 7929SOL     OW24685   4.140   3.946   5.938
 7929SOL    HW124686   4.135   3.866   5.998
 7929SOL    HW224687   4.064   3.944   5.873
 7930SOL     OW24688   3.917   5.423   6.578
 7930SOL    HW124689   3.982   5.494   6.607
 7930SOL    HW224690   3.876   5.449   6.491
 7931SOL     OW24691   4.233   2.663   0.419
 7931SOL    HW124692   4.136   2.684   0.407
 7931SOL    HW224693   4.284   2.693   0.338
 7932SOL     OW24694   0.970   4.745   0.789
 7932SOL    HW124695   1.055   4.794   0.806
 7932SOL    HW224696   0.911   4.751   0.869
 7933SOL     OW24697   6.728   0.228   5.871
 7933SOL    HW124698   6.761   0.228   5.966
 7933SOL    HW224699   6.648   0.287   5.864
 7934SOL     OW24700   1.443   4.899   0.159
 7934SOL    HW124701   1.521   4.918   0.219
 7934SOL    HW224702   1.417   4.982   0.110
 7935SOL     OW24703   5.188   5.498   2.203
 7935SOL    HW124704   5.240   5.422   2.164
 7935SOL    HW224705   5.139   5.545   2.130
 7936SOL     OW24706   2.914   5.422   3.416
 7936SOL    HW124707   3.003   5.387   3.387
 7936SOL    HW224708   2.927   5.502   3.475
 7937SOL     OW24709   1.936   5.795   4.183
 7937SOL    HW124710   1.857   5.852   4.158
 7937SOL    HW224711   1.981   5.761   4.101
 7938SOL     OW24712   5.629   5.753   5.149
 7938SOL    HW124713   5.636   5.852   5.164
 7938SOL    HW224714   5.542   5.733   5.105
 7939SOL     OW24715   1.226   1.598   5.907
 7939SOL    HW124716   1.166   1.552   5.972
 7939SOL    HW224717   1.184   1.596   5.816
 7940SOL     OW24718   3.482   1.912   2.644
 7940SOL    HW124719   3.482   1.925   2.545
 7940SOL    HW224720   3.433   1.987   2.688
 7941SOL     OW24721   5.046   6.783   2.753
 7941SOL    HW124722   4.999   6.825   2.676
 7941SOL    HW224723   5.145   6.794   2.742
 7942SOL     OW24724   1.156   3.080   3.140
 7942SOL    HW124725   1.211   3.161   3.122
 7942SOL    HW224726   1.159   3.058   3.238
 7943SOL     OW24727   0.816   4.226   5.716
 7943SOL    HW124728   0.813   4.129   5.692
 7943SOL    HW224729   0.723   4.260   5.732
 7944SOL     OW24730   0.405   2.805   1.826
 7944SOL    HW124731   0.441   2.760   1.908
 7944SOL    HW224732   0.480   2.844   1.773
 7945SOL     OW24733   6.352   5.395   2.604
 7945SOL    HW124734   6.334   5.487   2.640
 7945SOL    HW224735   6.346   5.329   2.678
 7946SOL     OW24736   3.538   6.519   6.009
 7946SOL    HW124737   3.444   6.552   6.013
 7946SOL    HW224738   3.602   6.595   6.024
 7947SOL     OW24739   2.349   2.020   5.136
 7947SOL    HW124740   2.295   2.069   5.204
 7947SOL    HW224741   2.288   1.984   5.065
 7948SOL     OW24742   0.745   5.452   0.783
 7948SOL    HW124743   0.834   5.430   0.743
 7948SOL    HW224744   0.678   5.383   0.755
 7949SOL     OW24745   4.453   4.125   6.252
 7949SOL    HW124746   4.477   4.061   6.326
 7949SOL    HW224747   4.361   4.159   6.266
 7950SOL     OW24748   4.721   5.922   4.725
 7950SOL    HW124749   4.625   5.950   4.715
 7950SOL    HW224750   4.779   5.987   4.676
 7951SOL     OW24751   2.018   5.283   2.344
 7951SOL    HW124752   2.039   5.191   2.312
 7951SOL    HW224753   1.974   5.278   2.434
 7952SOL     OW24754   6.904   3.406   6.960
 7952SOL    HW124755   6.949   3.469   6.897
 7952SOL    HW224756   6.913   3.439   0.033
 7953SOL     OW24757   4.375   2.180   1.752
 7953SOL    HW124758   4.354   2.126   1.671
 7953SOL    HW224759   4.453   2.239   1.734
 7954SOL     OW24760   3.769   4.238   6.402
 7954SOL    HW124761   3.773   4.334   6.373
 7954SOL    HW224762   3.683   4.197   6.372
 7955SOL     OW24763   2.157   1.317   6.665
 7955SOL    HW124764   2.216   1.369   6.728
 7955SOL    HW224765   2.116   1.380   6.599
 7956SOL     OW24766   5.540   1.482   1.711
 7956SOL    HW124767   5.542   1.413   1.638
 7956SOL    HW224768   5.572   1.441   1.796
 7957SOL     OW24769   2.137   1.167   6.885
 7957SOL    HW124770   2.133   1.221   6.801
 7957SOL    HW224771   2.176   1.077   6.865
 7958SOL     OW24772   5.369   4.114   6.053
 7958SOL    HW124773   5.358   4.019   6.024
 7958SOL    HW224774   5.306   4.172   6.001
 7959SOL     OW24775   5.192   6.914   6.967
 7959SOL    HW124776   5.099   6.952   6.963
 7959SOL    HW224777   5.221   6.909   0.042
 7960SOL     OW24778   1.065   1.291   5.828
 7960SOL    HW124779   0.985   1.238   5.800
 7960SOL    HW224780   1.045   1.338   5.914
 7961SOL     OW24781   6.448   0.130   0.582
 7961SOL    HW124782   6.362   0.099   0.543
 7961SOL    HW224783   6.490   0.056   0.634
 7962SOL     OW24784   0.473   1.887   5.900
 7962SOL    HW124785   0.563   1.919   5.872
 7962SOL    HW224786   0.448   1.928   5.987
 7963SOL     OW24787   6.507   5.629   4.014
 7963SOL    HW124788   6.491   5.660   4.108
 7963SOL    HW224789   6.503   5.529   4.011
 7964SOL     OW24790   5.960   3.136   2.188
 7964SOL    HW124791   5.889   3.127   2.258
 7964SOL    HW224792   5.916   3.155   2.100
 7965SOL     OW24793   4.307   1.970   6.059
 7965SOL    HW124794   4.354   1.886   6.033
 7965SOL    HW224795   4.277   2.018   5.977
 7966SOL     OW24796   3.884   2.840   5.882
 7966SOL    HW124797   3.916   2.891   5.801
 7966SOL    HW224798   3.804   2.787   5.858
 7967SOL     OW24799   1.896   5.741   1.856
 7967SOL    HW124800   1.862   5.824   1.811
 7967SOL    HW224801   1.965   5.766   1.923
 7968SOL     OW24802   6.209   2.242   4.921
 7968SOL    HW124803   6.231   2.201   5.010
 7968SOL    HW224804   6.191   2.340   4.934
 7969SOL     OW24805   5.236   6.042   0.637
 7969SOL    HW124806   5.264   6.135   0.659
 7969SOL    HW224807   5.260   5.981   0.712
 7970SOL     OW24808   5.985   3.556   2.585
 7970SOL    HW124809   6.003   3.465   2.620
 7970SOL    HW224810   6.046   3.576   2.508
 7971SOL     OW24811   2.966   1.104   1.566
 7971SOL    HW124812   2.936   1.038   1.635
 7971SOL    HW224813   3.066   1.101   1.558
 7972SOL     OW24814   3.362   3.445   1.861
 7972SOL    HW124815   3.335   3.541   1.867
 7972SOL    HW224816   3.429   3.434   1.788
 7973SOL     OW24817   5.457   4.012   4.606
 7973SOL    HW124818   5.459   4.085   4.674
 7973SOL    HW224819   5.434   4.050   4.516
 7974SOL     OW24820   6.000   0.933   5.894
 7974SOL    HW124821   5.936   0.892   5.959
 7974SOL    HW224822   6.040   1.015   5.934
 7975SOL     OW24823   5.251   0.395   0.990
 7975SOL    HW124824   5.212   0.422   0.902
 7975SOL    HW224825   5.221   0.302   1.012
 7976SOL     OW24826   1.122   0.312   6.212
 7976SOL    HW124827   1.210   0.356   6.196
 7976SOL    HW224828   1.136   0.226   6.261
 7977SOL     OW24829   4.263   5.859   2.431
 7977SOL    HW124830   4.355   5.890   2.408
 7977SOL    HW224831   4.199   5.891   2.361
 7978SOL     OW24832   0.261   2.582   6.315
 7978SOL    HW124833   0.334   2.536   6.366
 7978SOL    HW224834   0.262   2.679   6.336
 7979SOL     OW24835   1.958   4.402   5.724
 7979SOL    HW124836   1.902   4.328   5.685
 7979SOL    HW224837   2.040   4.413   5.668
 7980SOL     OW24838   2.800   5.387   6.845
 7980SOL    HW124839   2.727   5.405   6.911
 7980SOL    HW224840   2.816   5.469   6.790
 7981SOL     OW24841   0.568   5.317   1.553
 7981SOL    HW124842   0.601   5.223   1.546
 7981SOL    HW224843   0.468   5.316   1.562
 7982SOL     OW24844   1.368   1.670   6.162
 7982SOL    HW124845   1.322   1.675   6.073
 7982SOL    HW224846   1.399   1.761   6.189
 7983SOL     OW24847   6.241   2.187   1.132
 7983SOL    HW124848   6.239   2.286   1.118
 7983SOL    HW224849   6.179   2.163   1.206
 7984SOL     OW24850   0.425   1.305   0.403
 7984SOL    HW124851   0.477   1.238   0.455
 7984SOL    HW224852   0.487   1.357   0.344
 7985SOL     OW24853   2.495   1.787   4.748
 7985SOL    HW124854   2.592   1.778   4.723
 7985SOL    HW224855   2.486   1.775   4.847
 7986SOL     OW24856   3.123   0.945   6.079
 7986SOL    HW124857   3.061   0.933   6.157
 7986SOL    HW224858   3.078   0.916   5.995
 7987SOL     OW24859   1.882   3.073   0.456
 7987SOL    HW124860   1.961   3.017   0.481
 7987SOL    HW224861   1.913   3.166   0.432
 7988SOL     OW24862   1.305   0.889   2.527
 7988SOL    HW124863   1.398   0.925   2.529
 7988SOL    HW224864   1.241   0.964   2.510
 7989SOL     OW24865   2.676   3.427   0.135
 7989SOL    HW124866   2.630   3.338   0.141
 7989SOL    HW224867   2.609   3.498   0.114
 7990SOL     OW24868   2.569   5.378   4.543
 7990SOL    HW124869   2.560   5.306   4.474
 7990SOL    HW224870   2.481   5.425   4.553
 7991SOL     OW24871   6.127   1.818   3.832
 7991SOL    HW124872   6.036   1.831   3.794
 7991SOL    HW224873   6.128   1.848   3.928
 7992SOL     OW24874   1.360   0.520   0.289
 7992SOL    HW124875   1.314   0.470   0.363
 7992SOL    HW224876   1.332   0.616   0.292
 7993SOL     OW24877   0.183   0.022   1.521
 7993SOL    HW124878   0.216   6.948   1.526
 7993SOL    HW224879   0.118   0.039   1.595
 7994SOL     OW24880   4.621   0.627   3.180
 7994SOL    HW124881   4.632   0.658   3.086
 7994SOL    HW224882   4.544   0.675   3.222
 7995SOL     OW24883   5.872   5.325   3.196
 7995SOL    HW124884   5.822   5.313   3.282
 7995SOL    HW224885   5.965   5.288   3.207
 7996SOL     OW24886   3.636   6.277   4.650
 7996SOL    HW124887   3.731   6.298   4.673
 7996SOL    HW224888   3.633   6.222   4.567
 7997SOL     OW24889   7.002   1.803   0.202
 7997SOL    HW124890   0.049   1.815   0.275
 7997SOL    HW224891   0.002   1.865   0.127
 7998SOL     OW24892   3.544   6.945   6.867
 7998SOL    HW124893   3.493   6.982   6.945
 7998SOL    HW224894   3.494   6.867   6.829
 7999SOL     OW24895   0.809   0.834   5.807
 7999SOL    HW124896   0.853   0.744   5.804
 7999SOL    HW224897   0.729   0.829   5.868
 8000SOL     OW24898   5.567   6.692   5.914
 8000SOL    HW124899   5.621   6.755   5.970
 8000SOL    HW224900   5.616   6.673   5.829
 8001SOL     OW24901   4.191   5.879   1.550
 8001SOL    HW124902   4.258   5.944   1.515
 8001SOL    HW224903   4.228   5.834   1.631
 8002SOL     OW24904   0.884   0.510   5.514
 8002SOL    HW124905   0.904   0.525   5.611
 8002SOL    HW224906   0.787   0.527   5.497
 8003SOL     OW24907   2.282   5.490   1.550
 8003SOL    HW124908   2.325   5.580   1.545
 8003SOL    HW224909   2.189   5.496   1.515
 8004SOL     OW24910   2.032   3.651   3.162
 8004SOL    HW124911   2.096   3.578   3.138
 8004SOL    HW224912   1.939   3.623   3.139
 8005SOL     OW24913   2.184   0.342   3.542
 8005SOL    HW124914   2.233   0.406   3.600
 8005SOL    HW224915   2.155   0.263   3.596
 8006SOL     OW24916   2.233   6.092   5.269
 8006SOL    HW124917   2.193   6.170   5.221
 8006SOL    HW224918   2.299   6.045   5.210
 8007SOL     OW24919   5.989   1.777   6.374
 8007SOL    HW124920   5.974   1.811   6.467
 8007SOL    HW224921   5.911   1.801   6.317
 8008SOL     OW24922   3.534   5.957   6.672
 8008SOL    HW124923   3.453   5.993   6.626
 8008SOL    HW224924   3.516   5.948   6.770
 8009SOL     OW24925   4.549   0.882   0.392
 8009SOL    HW124926   4.549   0.870   0.293
 8009SOL    HW224927   4.638   0.915   0.423
 8010SOL     OW24928   2.641   1.904   5.153
 8010SOL    HW124929   2.550   1.944   5.166
 8010SOL    HW224930   2.701   1.934   5.227
 8011SOL     OW24931   3.575   1.899   1.386
 8011SOL    HW124932   3.600   1.979   1.440
 8011SOL    HW224933   3.478   1.903   1.363
 8012SOL     OW24934   1.485   2.779   6.873
 8012SOL    HW124935   1.526   2.845   6.936
 8012SOL    HW224936   1.541   2.696   6.869
 8013SOL     OW24937   1.803   4.154   3.251
 8013SOL    HW124938   1.788   4.119   3.159
 8013SOL    HW224939   1.722   4.137   3.307
 8014SOL     OW24940   2.132   0.247   4.502
 8014SOL    HW124941   2.072   0.166   4.496
 8014SOL    HW224942   2.204   0.230   4.569
 8015SOL     OW24943   1.754   0.577   6.145
 8015SOL    HW124944   1.807   0.651   6.186
 8015SOL    HW224945   1.792   0.554   6.056
 8016SOL     OW24946   3.987   1.145   5.037
 8016SOL    HW124947   3.891   1.124   5.056
 8016SOL    HW224948   4.008   1.116   4.943
 8017SOL     OW24949   6.661   6.892   6.834
 8017SOL    HW124950   6.749   6.856   6.865
 8017SOL    HW224951   6.611   6.932   6.911
 8018SOL     OW24952   3.199   2.660   0.395
 8018SOL    HW124953   3.206   2.759   0.379
 8018SOL    HW224954   3.150   2.618   0.318
 8019SOL     OW24955   1.893   4.488   1.449
 8019SOL    HW124956   1.864   4.437   1.368
 8019SOL    HW224957   1.981   4.532   1.431
 8020SOL     OW24958   6.390   0.091   6.421
 8020SOL    HW124959   6.405   0.188   6.402
 8020SOL    HW224960   6.429   0.068   6.510
 8021SOL     OW24961   1.769   3.040   1.779
 8021SOL    HW124962   1.684   3.092   1.775
 8021SOL    HW224963   1.756   2.952   1.732
 8022SOL     OW24964   6.335   0.568   2.059
 8022SOL    HW124965   6.297   0.478   2.037
 8022SOL    HW224966   6.374   0.608   1.976
 8023SOL     OW24967   5.879   4.376   2.425
 8023SOL    HW124968   5.965   4.353   2.471
 8023SOL    HW224969   5.838   4.293   2.387
 8024SOL     OW24970   1.209   4.929   6.089
 8024SOL    HW124971   1.257   4.975   6.163
 8024SOL    HW224972   1.276   4.900   6.020
 8025SOL     OW24973   1.568   5.339   0.935
 8025SOL    HW124974   1.666   5.338   0.956
 8025SOL    HW224975   1.551   5.288   0.851
 8026SOL     OW24976   6.793   4.585   0.993
 8026SOL    HW124977   6.734   4.505   1.000
 8026SOL    HW224978   6.736   4.668   0.990
 8027SOL     OW24979   3.292   6.636   6.003
 8027SOL    HW124980   3.211   6.609   6.055
 8027SOL    HW224981   3.274   6.722   5.954
 8028SOL     OW24982   3.475   4.977   5.096
 8028SOL    HW124983   3.547   4.944   5.157
 8028SOL    HW224984   3.405   4.906   5.086
 8029SOL     OW24985   5.199   2.345   2.106
 8029SOL    HW124986   5.115   2.323   2.056
 8029SOL    HW224987   5.175   2.371   2.200
 8030SOL     OW24988   5.989   5.227   1.158
 8030SOL    HW124989   6.000   5.135   1.119
 8030SOL    HW224990   5.902   5.265   1.128
 8031SOL     OW24991   6.803   6.290   2.897
 8031SOL    HW124992   6.861   6.363   2.933
 8031SOL    HW224993   6.724   6.330   2.849
 8032SOL     OW24994   5.280   3.947   1.430
 8032SOL    HW124995   5.240   4.020   1.486
 8032SOL    HW224996   5.247   3.858   1.463
 8033SOL     OW24997   4.593   2.944   6.984
 8033SOL    HW124998   4.531   2.988   0.029
 8033SOL    HW224999   4.687   2.974   7.003
 8034SOL     OW25000   5.022   6.956   5.771
 8034SOL    HW125001   4.981   6.894   5.704
 8034SOL    HW225002   5.083   7.020   5.724
 8035SOL     OW25003   5.166   1.875   2.240
 8035SOL    HW125004   5.101   1.842   2.308
 8035SOL    HW225005   5.234   1.803   2.222
 8036SOL     OW25006   6.667   3.545   3.551
 8036SOL    HW125007   6.737   3.553   3.480
 8036SOL    HW225008   6.708   3.563   3.640
 8037SOL     OW25009   1.397   3.803   0.071
 8037SOL    HW125010   1.369   3.712   0.103
 8037SOL    HW225011   1.332   3.836   0.002
 8038SOL     OW25012   4.332   6.763   2.959
 8038SOL    HW125013   4.381   6.798   2.879
 8038SOL    HW225014   4.256   6.705   2.928
 8039SOL     OW25015   6.934   1.936   4.324
 8039SOL    HW125016   6.893   1.844   4.325
 8039SOL    HW225017   6.866   2.001   4.290
 8040SOL     OW25018   1.408   6.277   6.768
 8040SOL    HW125019   1.389   6.283   6.670
 8040SOL    HW225020   1.450   6.189   6.789
 8041SOL     OW25021   3.128   0.908   2.812
 8041SOL    HW125022   3.197   0.838   2.791
 8041SOL    HW225023   3.037   0.868   2.804
 8042SOL     OW25024   4.733   4.052   5.543
 8042SOL    HW125025   4.704   4.040   5.449
 8042SOL    HW225026   4.768   4.144   5.557
 8043SOL     OW25027   3.834   4.974   0.242
 8043SOL    HW125028   3.883   4.895   0.205
 8043SOL    HW225029   3.753   4.993   0.186
 8044SOL     OW25030   3.615   3.565   0.472
 8044SOL    HW125031   3.652   3.599   0.559
 8044SOL    HW225032   3.626   3.635   0.402
 8045SOL     OW25033   6.019   2.244   2.529
 8045SOL    HW125034   6.046   2.183   2.454
 8045SOL    HW225035   6.064   2.215   2.613
 8046SOL     OW25036   0.584   4.711   2.119
 8046SOL    HW125037   0.638   4.627   2.115
 8046SOL    HW225038   0.645   4.790   2.111
 8047SOL     OW25039   3.246   6.613   6.597
 8047SOL    HW125040   3.184   6.549   6.554
 8047SOL    HW225041   3.333   6.615   6.547
 8048SOL     OW25042   3.093   2.354   0.316
 8048SOL    HW125043   3.128   2.401   0.235
 8048SOL    HW225044   3.026   2.413   0.362
 8049SOL     OW25045   0.654   6.817   0.459
 8049SOL    HW125046   0.708   6.734   0.465
 8049SOL    HW225047   0.595   6.813   0.378
 8050SOL     OW25048   1.997   3.490   3.737
 8050SOL    HW125049   1.926   3.519   3.800
 8050SOL    HW225050   1.957   3.429   3.668
 8051SOL     OW25051   5.093   6.344   4.914
 8051SOL    HW125052   5.152   6.342   4.833
 8051SOL    HW225053   5.142   6.385   4.990
 8052SOL     OW25054   3.036   2.260   1.282
 8052SOL    HW125055   3.073   2.220   1.366
 8052SOL    HW225056   2.957   2.317   1.304
 8053SOL     OW25057   3.156   3.181   5.313
 8053SOL    HW125058   3.165   3.240   5.394
 8053SOL    HW225059   3.202   3.224   5.235
 8054SOL     OW25060   6.881   4.169   4.619
 8054SOL    HW125061   6.922   4.256   4.592
 8054SOL    HW225062   6.952   4.099   4.621
 8055SOL     OW25063   6.539   0.527   5.542
 8055SOL    HW125064   6.515   0.620   5.513
 8055SOL    HW225065   6.585   0.530   5.631
 8056SOL     OW25066   3.116   0.608   4.883
 8056SOL    HW125067   3.205   0.583   4.921
 8056SOL    HW225068   3.100   0.556   4.799
 8057SOL     OW25069   2.448   2.518   2.808
 8057SOL    HW125070   2.522   2.478   2.754
 8057SOL    HW225071   2.386   2.445   2.838
 8058SOL     OW25072   2.964   6.497   2.590
 8058SOL    HW125073   2.871   6.530   2.600
 8058SOL    HW225074   2.977   6.462   2.497
 8059SOL     OW25075   2.811   1.145   5.214
 8059SOL    HW125076   2.909   1.154   5.195
 8059SOL    HW225077   2.763   1.227   5.183
 8060SOL     OW25078   0.562   2.389   6.303
 8060SOL    HW125079   0.528   2.463   6.361
 8060SOL    HW225080   0.570   2.422   6.209
 8061SOL     OW25081   0.833   0.163   2.238
 8061SOL    HW125082   0.761   0.221   2.200
 8061SOL    HW225083   0.863   0.200   2.325
 8062SOL     OW25084   4.127   5.093   4.126
 8062SOL    HW125085   4.104   5.190   4.116
 8062SOL    HW225086   4.195   5.082   4.199
 8063SOL     OW25087   2.474   1.010   3.326
 8063SOL    HW125088   2.468   0.927   3.271
 8063SOL    HW225089   2.549   1.067   3.293
 8064SOL     OW25090   6.016   2.324   0.207
 8064SOL    HW125091   5.943   2.295   0.268
 8064SOL    HW225092   5.982   2.331   0.114
 8065SOL     OW25093   2.762   6.526   4.598
 8065SOL    HW125094   2.693   6.458   4.573
 8065SOL    HW225095   2.777   6.524   4.697
 8066SOL     OW25096   6.289   6.955   5.088
 8066SOL    HW125097   6.333   6.949   5.178
 8066SOL    HW225098   6.326   6.884   5.029
 8067SOL     OW25099   4.985   2.229   3.008
 8067SOL    HW125100   4.918   2.294   2.974
 8067SOL    HW225101   4.942   2.139   3.020
 8068SOL     OW25102   0.384   5.003   1.113
 8068SOL    HW125103   0.456   5.059   1.155
 8068SOL    HW225104   0.420   4.911   1.097
 8069SOL     OW25105   2.164   4.437   1.671
 8069SOL    HW125106   2.214   4.482   1.745
 8069SOL    HW225107   2.096   4.501   1.633
 8070SOL     OW25108   3.808   2.910   0.310
 8070SOL    HW125109   3.830   2.880   0.218
 8070SOL    HW225110   3.774   3.004   0.307
 8071SOL     OW25111   2.826   6.615   5.508
 8071SOL    HW125112   2.755   6.546   5.522
 8071SOL    HW225113   2.891   6.582   5.440
 8072SOL     OW25114   3.338   1.601   1.334
 8072SOL    HW125115   3.379   1.667   1.271
 8072SOL    HW225116   3.360   1.628   1.428
 8073SOL     OW25117   3.375   5.550   5.339
 8073SOL    HW125118   3.438   5.473   5.343
 8073SOL    HW225119   3.287   5.520   5.304
 8074SOL     OW25120   2.864   1.712   0.622
 8074SOL    HW125121   2.930   1.780   0.591
 8074SOL    HW225122   2.812   1.678   0.544
 8075SOL     OW25123   6.792   0.077   0.176
 8075SOL    HW125124   6.833   0.060   0.266
 8075SOL    HW225125   6.831   0.161   0.138
 8076SOL     OW25126   6.132   6.671   5.201
 8076SOL    HW125127   6.068   6.699   5.130
 8076SOL    HW225128   6.225   6.696   5.173
 8077SOL     OW25129   3.145   6.041   2.791
 8077SOL    HW125130   3.096   6.046   2.704
 8077SOL    HW225131   3.100   5.974   2.850
 8078SOL     OW25132   0.796   2.063   1.349
 8078SOL    HW125133   0.788   2.080   1.447
 8078SOL    HW225134   0.890   2.083   1.320
 8079SOL     OW25135   6.702   1.601   3.514
 8079SOL    HW125136   6.608   1.604   3.479
 8079SOL    HW225137   6.702   1.564   3.607
 8080SOL     OW25138   1.425   1.865   2.569
 8080SOL    HW125139   1.401   1.915   2.485
 8080SOL    HW225140   1.472   1.926   2.632
 8081SOL     OW25141   6.167   5.505   6.300
 8081SOL    HW125142   6.091   5.441   6.311
 8081SOL    HW225143   6.134   5.591   6.264
 8082SOL     OW25144   3.095   0.755   2.534
 8082SOL    HW125145   3.041   0.716   2.460
 8082SOL    HW225146   3.181   0.704   2.543
 8083SOL     OW25147   5.104   2.473   3.930
 8083SOL    HW125148   5.194   2.483   3.887
 8083SOL    HW225149   5.058   2.392   3.893
 8084SOL     OW25150   2.754   0.396   0.248
 8084SOL    HW125151   2.797   0.485   0.235
 8084SOL    HW225152   2.668   0.392   0.197
 8085SOL     OW25153   5.444   5.753   2.522
 8085SOL    HW125154   5.456   5.754   2.621
 8085SOL    HW225155   5.518   5.701   2.480
 8086SOL     OW25156   0.039   0.671   1.534
 8086SOL    HW125157   0.082   0.622   1.610
 8086SOL    HW225158   6.977   0.717   1.567
 8087SOL     OW25159   1.212   0.344   0.110
 8087SOL    HW125160   1.278   0.409   0.147
 8087SOL    HW225161   1.244   0.251   0.127
 8088SOL     OW25162   5.784   0.784   0.824
 8088SOL    HW125163   5.752   0.811   0.915
 8088SOL    HW225164   5.813   0.865   0.774
 8089SOL     OW25165   5.182   2.638   0.081
 8089SOL    HW125166   5.222   2.547   0.070
 8089SOL    HW225167   5.243   2.707   0.041
 8090SOL     OW25168   3.981   0.846   5.822
 8090SOL    HW125169   3.983   0.926   5.881
 8090SOL    HW225170   4.008   0.765   5.874
 8091SOL     OW25171   1.636   3.638   4.852
 8091SOL    HW125172   1.663   3.732   4.873
 8091SOL    HW225173   1.554   3.614   4.904
 8092SOL     OW25174   5.064   2.023   5.094
 8092SOL    HW125175   5.057   1.937   5.044
 8092SOL    HW225176   5.048   2.100   5.032
 8093SOL     OW25177   2.709   5.328   3.538
 8093SOL    HW125178   2.798   5.371   3.521
 8093SOL    HW225179   2.696   5.253   3.473
 8094SOL     OW25180   0.208   2.738   4.512
 8094SOL    HW125181   0.194   2.697   4.422
 8094SOL    HW225182   0.136   2.804   4.531
 8095SOL     OW25183   0.678   4.112   4.846
 8095SOL    HW125184   0.591   4.081   4.808
 8095SOL    HW225185   0.739   4.035   4.858
 8096SOL     OW25186   2.441   0.469   1.990
 8096SOL    HW125187   2.474   0.389   1.940
 8096SOL    HW225188   2.400   0.441   2.076
 8097SOL     OW25189   4.814   6.818   5.088
 8097SOL    HW125190   4.727   6.794   5.132
 8097SOL    HW225191   4.889   6.770   5.133
 8098SOL     OW25192   2.250   6.552   3.795
 8098SOL    HW125193   2.265   6.609   3.714
 8098SOL    HW225194   2.327   6.562   3.858
 8099SOL     OW25195   4.789   6.413   4.147
 8099SOL    HW125196   4.704   6.371   4.179
 8099SOL    HW225197   4.841   6.346   4.093
 8100SOL     OW25198   6.495   1.175   6.610
 8100SOL    HW125199   6.569   1.221   6.561
 8100SOL    HW225200   6.448   1.112   6.547
 8101SOL     OW25201   2.046   5.950   1.218
 8101SOL    HW125202   2.009   5.932   1.309
 8101SOL    HW225203   1.981   5.918   1.149
 8102SOL     OW25204   0.605   3.652   2.838
 8102SOL    HW125205   0.695   3.610   2.830
 8102SOL    HW225206   0.545   3.593   2.892
 8103SOL     OW25207   3.185   6.947   1.265
 8103SOL    HW125208   3.110   6.886   1.291
 8103SOL    HW225209   3.255   6.946   1.336
 8104SOL     OW25210   1.606   0.884   6.393
 8104SOL    HW125211   1.679   0.952   6.386
 8104SOL    HW225212   1.645   0.793   6.406
 8105SOL     OW25213   6.898   2.994   2.730
 8105SOL    HW125214   6.971   2.973   2.795
 8105SOL    HW225215   6.815   3.016   2.780
 8106SOL     OW25216   3.319   5.389   3.593
 8106SOL    HW125217   3.344   5.429   3.681
 8106SOL    HW225218   3.320   5.461   3.523
 8107SOL     OW25219   1.198   5.456   3.785
 8107SOL    HW125220   1.185   5.439   3.687
 8107SOL    HW225221   1.262   5.532   3.798
 8108SOL     OW25222   6.740   2.796   6.936
 8108SOL    HW125223   6.712   2.720   6.994
 8108SOL    HW225224   6.840   2.800   6.933
 8109SOL     OW25225   6.882   3.379   6.610
 8109SOL    HW125226   6.800   3.326   6.590
 8109SOL    HW225227   6.960   3.340   6.562
 8110SOL     OW25228   4.250   5.509   2.405
 8110SOL    HW125229   4.294   5.495   2.316
 8110SOL    HW225230   4.257   5.605   2.431
 8111SOL     OW25231   5.033   1.200   4.681
 8111SOL    HW125232   5.066   1.126   4.622
 8111SOL    HW225233   4.934   1.192   4.691
 8112SOL     OW25234   2.190   3.035   4.322
 8112SOL    HW125235   2.165   3.107   4.258
 8112SOL    HW225236   2.141   3.048   4.408
 8113SOL     OW25237   0.369   3.924   0.959
 8113SOL    HW125238   0.449   3.867   0.977
 8113SOL    HW225239   0.393   3.994   0.892
 8114SOL     OW25240   2.056   3.809   2.558
 8114SOL    HW125241   1.980   3.745   2.571
 8114SOL    HW225242   2.095   3.832   2.648
 8115SOL     OW25243   3.784   6.753   6.565
 8115SOL    HW125244   3.686   6.776   6.562
 8115SOL    HW225245   3.805   6.688   6.492
 8116SOL     OW25246   4.119   5.086   0.116
 8116SOL    HW125247   4.207   5.107   0.158
 8116SOL    HW225248   4.046   5.129   0.169
 8117SOL     OW25249   1.593   0.330   3.268
 8117SOL    HW125250   1.691   0.319   3.250
 8117SOL    HW225251   1.542   0.327   3.182
 8118SOL     OW25252   5.196   4.216   5.891
 8118SOL    HW125253   5.170   4.136   5.837
 8118SOL    HW225254   5.119   4.279   5.896
 8119SOL     OW25255   5.668   6.324   6.190
 8119SOL    HW125256   5.686   6.322   6.289
 8119SOL    HW225257   5.608   6.402   6.169
 8120SOL     OW25258   3.337   4.294   1.111
 8120SOL    HW125259   3.361   4.252   1.198
 8120SOL    HW225260   3.404   4.364   1.088
 8121SOL     OW25261   0.570   5.154   1.255
 8121SOL    HW125262   0.601   5.248   1.244
 8121SOL    HW225263   0.610   5.115   1.338
 8122SOL     OW25264   0.347   4.524   2.738
 8122SOL    HW125265   0.262   4.567   2.709
 8122SOL    HW225266   0.334   4.482   2.828
 8123SOL     OW25267   6.781   1.826   6.695
 8123SOL    HW125268   6.719   1.819   6.772
 8123SOL    HW225269   6.863   1.876   6.723
 8124SOL     OW25270   4.788   5.852   1.963
 8124SOL    HW125271   4.815   5.761   1.993
 8124SOL    HW225272   4.868   5.910   1.954
 8125SOL     OW25273   1.598   2.080   3.360
 8125SOL    HW125274   1.508   2.098   3.399
 8125SOL    HW225275   1.606   2.126   3.272
 8126SOL     OW25276   5.189   4.743   3.207
 8126SOL    HW125277   5.243   4.792   3.138
 8126SOL    HW225278   5.170   4.651   3.176
 8127SOL     OW25279   2.320   3.420   6.235
 8127SOL    HW125280   2.392   3.442   6.168
 8127SOL    HW225281   2.349   3.451   6.326
 8128SOL     OW25282   2.659   2.411   2.330
 8128SOL    HW125283   2.704   2.360   2.257
 8128SOL    HW225284   2.597   2.479   2.291
 8129SOL     OW25285   3.945   1.088   5.965
 8129SOL    HW125286   3.860   1.069   5.916
 8129SOL    HW225287   3.936   1.060   6.060
 8130SOL     OW25288   0.637   4.641   6.637
 8130SOL    HW125289   0.587   4.590   6.567
 8130SOL    HW225290   0.644   4.586   6.720
 8131SOL     OW25291   2.452   1.932   1.469
 8131SOL    HW125292   2.375   1.931   1.405
 8131SOL    HW225293   2.525   1.872   1.436
 8132SOL     OW25294   5.355   6.735   5.088
 8132SOL    HW125295   5.301   6.687   5.019
 8132SOL    HW225296   5.371   6.673   5.165
 8133SOL     OW25297   2.963   5.214   2.332
 8133SOL    HW125298   2.985   5.304   2.294
 8133SOL    HW225299   3.008   5.144   2.277
 8134SOL     OW25300   0.355   2.002   6.711
 8134SOL    HW125301   0.266   1.981   6.670
 8134SOL    HW225302   0.371   2.100   6.708
 8135SOL     OW25303   2.780   0.363   1.471
 8135SOL    HW125304   2.709   0.419   1.514
 8135SOL    HW225305   2.770   0.367   1.372
 8136SOL     OW25306   4.425   5.537   2.776
 8136SOL    HW125307   4.328   5.546   2.798
 8136SOL    HW225308   4.448   5.597   2.700
 8137SOL     OW25309   3.020   1.675   5.211
 8137SOL    HW125310   2.999   1.760   5.163
 8137SOL    HW225311   2.987   1.597   5.157
 8138SOL     OW25312   5.001   1.211   1.105
 8138SOL    HW125313   4.958   1.234   1.017
 8138SOL    HW225314   5.035   1.295   1.147
 8139SOL     OW25315   0.195   0.510   1.707
 8139SOL    HW125316   0.266   0.567   1.748
 8139SOL    HW225317   0.146   0.460   1.779
 8140SOL     OW25318   5.932   0.506   5.914
 8140SOL    HW125319   5.839   0.502   5.877
 8140SOL    HW225320   5.932   0.558   5.999
 8141SOL     OW25321   4.398   5.165   4.960
 8141SOL    HW125322   4.323   5.198   4.903
 8141SOL    HW225323   4.459   5.108   4.904
 8142SOL     OW25324   0.256   5.292   0.033
 8142SOL    HW125325   0.176   5.334   7.011
 8142SOL    HW225326   0.328   5.279   6.985
 8143SOL     OW25327   5.693   4.400   0.424
 8143SOL    HW125328   5.772   4.368   0.371
 8143SOL    HW225329   5.645   4.322   0.464
 8144SOL     OW25330   6.068   6.189   6.690
 8144SOL    HW125331   5.997   6.166   6.622
 8144SOL    HW225332   6.127   6.109   6.703
 8145SOL     OW25333   5.097   6.206   1.443
 8145SOL    HW125334   5.162   6.182   1.515
 8145SOL    HW225335   5.089   6.306   1.437
 8146SOL     OW25336   4.018   0.849   4.781
 8146SOL    HW125337   4.105   0.810   4.812
 8146SOL    HW225338   3.976   0.788   4.714
 8147SOL     OW25339   6.109   2.177   2.098
 8147SOL    HW125340   6.040   2.241   2.064
 8147SOL    HW225341   6.183   2.170   2.032
 8148SOL     OW25342   5.059   4.521   1.483
 8148SOL    HW125343   5.155   4.523   1.453
 8148SOL    HW225344   5.056   4.528   1.582
 8149SOL     OW25345   2.320   5.887   2.139
 8149SOL    HW125346   2.366   5.867   2.225
 8149SOL    HW225347   2.377   5.855   2.062
 8150SOL     OW25348   0.294   4.474   6.859
 8150SOL    HW125349   0.306   4.540   6.785
 8150SOL    HW225350   0.383   4.437   6.884
 8151SOL     OW25351   6.206   2.285   1.584
 8151SOL    HW125352   6.239   2.327   1.668
 8151SOL    HW225353   6.281   2.277   1.519
 8152SOL     OW25354   0.545   2.188   2.717
 8152SOL    HW125355   0.581   2.167   2.626
 8152SOL    HW225356   0.608   2.250   2.764
 8153SOL     OW25357   3.313   0.563   2.524
 8153SOL    HW125358   3.410   0.541   2.529
 8153SOL    HW225359   3.262   0.481   2.494
 8154SOL     OW25360   2.866   5.792   3.877
 8154SOL    HW125361   2.827   5.727   3.943
 8154SOL    HW225362   2.965   5.798   3.889
 8155SOL     OW25363   2.333   3.743   1.501
 8155SOL    HW125364   2.310   3.707   1.592
 8155SOL    HW225365   2.248   3.765   1.452
 8156SOL     OW25366   5.021   6.855   6.147
 8156SOL    HW125367   5.079   6.898   6.216
 8156SOL    HW225368   4.932   6.900   6.145
 8157SOL     OW25369   5.814   5.381   6.567
 8157SOL    HW125370   5.844   5.361   6.474
 8157SOL    HW225371   5.871   5.331   6.632
 8158SOL     OW25372   0.135   5.090   1.147
 8158SOL    HW125373   0.229   5.070   1.119
 8158SOL    HW225374   0.071   5.050   1.081
 8159SOL     OW25375   2.565   6.314   2.703
 8159SOL    HW125376   2.658   6.315   2.665
 8159SOL    HW225377   2.519   6.399   2.680
 8160SOL     OW25378   4.553   1.381   2.066
 8160SOL    HW125379   4.552   1.467   2.116
 8160SOL    HW225380   4.460   1.358   2.037
 8161SOL     OW25381   5.121   1.401   0.265
 8161SOL    HW125382   5.147   1.321   0.320
 8161SOL    HW225383   5.076   1.370   0.181
 8162SOL     OW25384   6.739   6.716   6.185
 8162SOL    HW125385   6.642   6.733   6.204
 8162SOL    HW225386   6.753   6.709   6.086
 8163SOL     OW25387   2.743   3.685   5.679
 8163SOL    HW125388   2.817   3.640   5.730
 8163SOL    HW225389   2.779   3.767   5.634
 8164SOL     OW25390   5.988   3.582   0.695
 8164SOL    HW125391   5.893   3.615   0.700
 8164SOL    HW225392   6.037   3.633   0.624
 8165SOL     OW25393   0.813   4.904   6.546
 8165SOL    HW125394   0.877   4.874   6.617
 8165SOL    HW225395   0.751   4.829   6.522
 8166SOL     OW25396   2.537   1.237   2.159
 8166SOL    HW125397   2.492   1.147   2.158
 8166SOL    HW225398   2.635   1.225   2.172
 8167SOL     OW25399   5.949   1.184   4.236
 8167SOL    HW125400   5.973   1.275   4.202
 8167SOL    HW225401   5.850   1.180   4.253
 8168SOL     OW25402   3.224   1.275   3.052
 8168SOL    HW125403   3.269   1.338   2.989
 8168SOL    HW225404   3.143   1.319   3.092
 8169SOL     OW25405   5.154   3.452   1.409
 8169SOL    HW125406   5.093   3.420   1.481
 8169SOL    HW225407   5.149   3.390   1.331
 8170SOL     OW25408   1.675   5.716   2.616
 8170SOL    HW125409   1.745   5.646   2.619
 8170SOL    HW225410   1.625   5.717   2.703
 8171SOL     OW25411   1.081   1.648   6.894
 8171SOL    HW125412   1.039   1.579   6.834
 8171SOL    HW225413   1.015   1.675   6.964
 8172SOL     OW25414   0.761   0.898   1.652
 8172SOL    HW125415   0.802   0.886   1.562
 8172SOL    HW225416   0.760   0.810   1.700
 8173SOL     OW25417   3.744   2.013   0.376
 8173SOL    HW125418   3.821   1.951   0.362
 8173SOL    HW225419   3.753   2.059   0.465
 8174SOL     OW25420   4.764   1.907   0.543
 8174SOL    HW125421   4.860   1.931   0.535
 8174SOL    HW225422   4.715   1.978   0.594
 8175SOL     OW25423   0.212   2.575   5.988
 8175SOL    HW125424   0.164   2.663   5.994
 8175SOL    HW225425   0.235   2.544   6.080
 8176SOL     OW25426   2.650   5.528   2.123
 8176SOL    HW125427   2.729   5.493   2.174
 8176SOL    HW225428   2.598   5.451   2.086
 8177SOL     OW25429   1.881   6.198   4.298
 8177SOL    HW125430   1.965   6.152   4.324
 8177SOL    HW225431   1.898   6.296   4.287
 8178SOL     OW25432   1.928   6.709   6.635
 8178SOL    HW125433   2.010   6.765   6.636
 8178SOL    HW225434   1.954   6.612   6.630
 8179SOL     OW25435   3.689   2.711   0.042
 8179SOL    HW125436   3.694   2.710   6.963
 8179SOL    HW225437   3.601   2.746   0.071
 8180SOL     OW25438   6.662   0.285   4.502
 8180SOL    HW125439   6.567   0.288   4.535
 8180SOL    HW225440   6.664   0.250   4.409
 8181SOL     OW25441   2.092   1.157   2.424
 8181SOL    HW125442   2.002   1.189   2.393
 8181SOL    HW225443   2.163   1.209   2.378
 8182SOL     OW25444   3.970   1.705   6.667
 8182SOL    HW125445   3.913   1.787   6.664
 8182SOL    HW225446   4.050   1.718   6.609
 8183SOL     OW25447   0.475   2.193   5.291
 8183SOL    HW125448   0.543   2.122   5.271
 8183SOL    HW225449   0.490   2.272   5.233
 8184SOL     OW25450   5.590   1.638   5.610
 8184SOL    HW125451   5.496   1.620   5.579
 8184SOL    HW225452   5.653   1.627   5.533
 8185SOL     OW25453   3.275   0.638   0.355
 8185SOL    HW125454   3.235   0.729   0.352
 8185SOL    HW225455   3.208   0.571   0.323
 8186SOL     OW25456   2.989   6.126   6.774
 8186SOL    HW125457   3.017   6.042   6.820
 8186SOL    HW225458   3.057   6.151   6.705
 8187SOL     OW25459   1.780   2.170   4.890
 8187SOL    HW125460   1.872   2.135   4.877
 8187SOL    HW225461   1.763   2.244   4.825
 8188SOL     OW25462   5.597   1.847   2.625
 8188SOL    HW125463   5.515   1.887   2.666
 8188SOL    HW225464   5.592   1.854   2.526
 8189SOL     OW25465   5.333   4.043   2.042
 8189SOL    HW125466   5.420   4.014   2.003
 8189SOL    HW225467   5.346   4.128   2.093
 8190SOL     OW25468   5.488   5.603   4.352
 8190SOL    HW125469   5.424   5.540   4.397
 8190SOL    HW225470   5.467   5.697   4.380
 8191SOL     OW25471   2.393   5.416   3.712
 8191SOL    HW125472   2.491   5.408   3.692
 8191SOL    HW225473   2.343   5.433   3.628
 8192SOL     OW25474   2.628   5.862   0.208
 8192SOL    HW125475   2.682   5.802   0.267
 8192SOL    HW225476   2.544   5.889   0.256
 8193SOL     OW25477   6.678   0.219   4.223
 8193SOL    HW125478   6.646   0.313   4.227
 8193SOL    HW225479   6.622   0.167   4.159
 8194SOL     OW25480   6.154   2.750   0.093
 8194SOL    HW125481   6.252   2.762   0.108
 8194SOL    HW225482   6.116   2.692   0.165
 8195SOL     OW25483   0.789   1.132   0.724
 8195SOL    HW125484   0.854   1.208   0.720
 8195SOL    HW225485   0.740   1.134   0.811
 8196SOL     OW25486   3.656   6.949   5.729
 8196SOL    HW125487   3.672   0.014   5.678
 8196SOL    HW225488   3.561   6.920   5.715
 8197SOL     OW25489   5.294   1.650   5.998
 8197SOL    HW125490   5.224   1.702   5.949
 8197SOL    HW225491   5.315   1.566   5.948
 8198SOL     OW25492   3.264   0.000   2.186
 8198SOL    HW125493   3.215   0.005   2.099
 8198SOL    HW225494   3.349   0.052   2.180
 8199SOL     OW25495   6.858   4.024   0.388
 8199SOL    HW125496   6.799   4.000   0.465
 8199SOL    HW225497   6.814   4.097   0.334
 8200SOL     OW25498   4.328   3.995   1.209
 8200SOL    HW125499   4.290   4.043   1.288
 8200SOL    HW225500   4.339   3.898   1.232
 8201SOL     OW25501   5.384   0.792   4.672
 8201SOL    HW125502   5.471   0.753   4.643
 8201SOL    HW225503   5.400   0.875   4.725
 8202SOL     OW25504   1.256   5.818   4.354
 8202SOL    HW125505   1.175   5.822   4.412
 8202SOL    HW225506   1.228   5.816   4.258
 8203SOL     OW25507   4.692   3.364   0.369
 8203SOL    HW125508   4.656   3.442   0.420
 8203SOL    HW225509   4.659   3.367   0.275
 8204SOL     OW25510   3.418   5.616   0.926
 8204SOL    HW125511   3.412   5.550   1.001
 8204SOL    HW225512   3.506   5.605   0.880
 8205SOL     OW25513   6.128   4.724   1.937
 8205SOL    HW125514   6.226   4.742   1.949
 8205SOL    HW225515   6.102   4.642   1.987
 8206SOL     OW25516   3.196   2.277   5.544
 8206SOL    HW125517   3.111   2.313   5.506
 8206SOL    HW225518   3.222   2.194   5.495
 8207SOL     OW25519   3.556   4.783   5.308
 8207SOL    HW125520   3.536   4.685   5.308
 8207SOL    HW225521   3.639   4.800   5.255
 8208SOL     OW25522   2.185   6.714   1.366
 8208SOL    HW125523   2.246   6.736   1.290
 8208SOL    HW225524   2.194   6.617   1.390
 8209SOL     OW25525   0.787   1.175   5.197
 8209SOL    HW125526   0.742   1.095   5.238
 8209SOL    HW225527   0.717   1.235   5.157
 8210SOL     OW25528   3.553   1.213   0.178
 8210SOL    HW125529   3.637   1.244   0.221
 8210SOL    HW225530   3.541   1.261   0.090
 8211SOL     OW25531   3.540   4.030   4.214
 8211SOL    HW125532   3.619   3.984   4.253
 8211SOL    HW225533   3.463   4.023   4.277
 8212SOL     OW25534   2.983   0.775   0.783
 8212SOL    HW125535   2.999   0.869   0.753
 8212SOL    HW225536   3.036   0.712   0.726
 8213SOL     OW25537   4.707   5.251   3.543
 8213SOL    HW125538   4.743   5.300   3.622
 8213SOL    HW225539   4.612   5.226   3.559
 8214SOL     OW25540   2.226   6.054   4.208
 8214SOL    HW125541   2.266   5.992   4.141
 8214SOL    HW225542   2.248   6.149   4.184
 8215SOL     OW25543   4.431   5.372   0.302
 8215SOL    HW125544   4.517   5.422   0.290
 8215SOL    HW225545   4.435   5.319   0.387
 8216SOL     OW25546   5.600   6.734   3.272
 8216SOL    HW125547   5.579   6.831   3.257
 8216SOL    HW225548   5.697   6.725   3.296
 8217SOL     OW25549   2.079   4.204   2.304
 8217SOL    HW125550   2.152   4.264   2.269
 8217SOL    HW225551   2.100   4.110   2.279
 8218SOL     OW25552   1.883   6.943   4.667
 8218SOL    HW125553   1.949   6.922   4.739
 8218SOL    HW225554   1.792   6.953   4.707
 8219SOL     OW25555   2.945   4.558   1.221
 8219SOL    HW125556   2.995   4.629   1.270
 8219SOL    HW225557   2.849   4.586   1.212
 8220SOL     OW25558   3.560   4.270   5.278
 8220SOL    HW125559   3.657   4.293   5.287
 8220SOL    HW225560   3.548   4.203   5.205
 8221SOL     OW25561   6.176   4.085   3.299
 8221SOL    HW125562   6.244   4.081   3.372
 8221SOL    HW225563   6.199   4.018   3.228
 8222SOL     OW25564   5.996   2.196   0.489
 8222SOL    HW125565   5.989   2.293   0.511
 8222SOL    HW225566   5.905   2.158   0.477
 8223SOL     OW25567   0.015   4.803   5.614
 8223SOL    HW125568   0.002   4.865   5.537
 8223SOL    HW225569   0.079   4.844   5.679
 8224SOL     OW25570   4.258   1.872   1.250
 8224SOL    HW125571   4.310   1.826   1.322
 8224SOL    HW225572   4.243   1.809   1.174
 8225SOL     OW25573   4.254   0.054   0.833
 8225SOL    HW125574   4.249   0.026   0.928
 8225SOL    HW225575   4.267   0.153   0.828
 8226SOL     OW25576   3.512   0.690   0.223
 8226SOL    HW125577   3.428   0.663   0.270
 8226SOL    HW225578   3.490   0.721   0.130
 8227SOL     OW25579   5.620   1.129   2.387
 8227SOL    HW125580   5.692   1.072   2.347
 8227SOL    HW225581   5.628   1.128   2.486
 8228SOL     OW25582   0.420   1.250   5.411
 8228SOL    HW125583   0.384   1.219   5.499
 8228SOL    HW225584   0.517   1.227   5.404
 8229SOL     OW25585   4.267   4.620   1.060
 8229SOL    HW125586   4.174   4.639   1.092
 8229SOL    HW225587   4.263   4.571   0.973
 8230SOL     OW25588   4.192   7.009   5.431
 8230SOL    HW125589   4.189   0.062   5.500
 8230SOL    HW225590   4.284   6.972   5.426
 8231SOL     OW25591   3.382   1.513   2.484
 8231SOL    HW125592   3.442   1.506   2.564
 8231SOL    HW225593   3.436   1.538   2.404
 8232SOL     OW25594   5.402   1.384   2.150
 8232SOL    HW125595   5.395   1.302   2.093
 8232SOL    HW225596   5.408   1.358   2.246
 8233SOL     OW25597   1.071   0.278   5.584
 8233SOL    HW125598   1.131   0.263   5.662
 8233SOL    HW225599   0.999   0.343   5.608
 8234SOL     OW25600   3.384   3.128   0.242
 8234SOL    HW125601   3.462   3.183   0.274
 8234SOL    HW225602   3.320   3.187   0.192
 8235SOL     OW25603   6.958   4.611   0.103
 8235SOL    HW125604   0.003   4.675   0.063
 8235SOL    HW225605   6.890   4.585   0.033
 8236SOL     OW25606   0.121   6.113   5.747
 8236SOL    HW125607   0.077   6.181   5.806
 8236SOL    HW225608   0.162   6.160   5.668
 8237SOL     OW25609   4.291   5.585   6.348
 8237SOL    HW125610   4.283   5.490   6.376
 8237SOL    HW225611   4.324   5.641   6.424
 8238SOL     OW25612   1.228   5.458   6.677
 8238SOL    HW125613   1.287   5.477   6.599
 8238SOL    HW225614   1.132   5.460   6.648
 8239SOL     OW25615   0.307   1.164   4.809
 8239SOL    HW125616   0.217   1.153   4.765
 8239SOL    HW225617   0.320   1.091   4.876
 8240SOL     OW25618   2.954   3.407   3.020
 8240SOL    HW125619   2.917   3.489   2.976
 8240SOL    HW225620   2.950   3.331   2.956
 8241SOL     OW25621   1.268   3.278   0.141
 8241SOL    HW125622   1.242   3.269   0.045
 8241SOL    HW225623   1.367   3.294   0.146
 8242SOL     OW25624   0.865   3.539   4.700
 8242SOL    HW125625   0.845   3.441   4.690
 8242SOL    HW225626   0.940   3.551   4.765
 8243SOL     OW25627   0.780   4.505   5.608
 8243SOL    HW125628   0.811   4.432   5.669
 8243SOL    HW225629   0.680   4.506   5.605
 8244SOL     OW25630   1.153   0.798   3.404
 8244SOL    HW125631   1.122   0.883   3.360
 8244SOL    HW225632   1.087   0.772   3.475
 8245SOL     OW25633   4.458   1.931   3.395
 8245SOL    HW125634   4.377   1.895   3.441
 8245SOL    HW225635   4.534   1.866   3.404
 8246SOL     OW25636   1.000   4.189   6.083
 8246SOL    HW125637   0.935   4.203   6.157
 8246SOL    HW225638   0.978   4.104   6.035
 8247SOL     OW25639   3.150   5.141   3.648
 8247SOL    HW125640   3.189   5.217   3.596
 8247SOL    HW225641   3.108   5.175   3.732
 8248SOL     OW25642   1.419   6.086   4.308
 8248SOL    HW125643   1.381   6.001   4.344
 8248SOL    HW225644   1.518   6.087   4.323
 8249SOL     OW25645   2.429   1.798   5.658
 8249SOL    HW125646   2.471   1.799   5.749
 8249SOL    HW225647   2.330   1.806   5.667
 8250SOL     OW25648   3.347   1.623   0.749
 8250SOL    HW125649   3.252   1.613   0.776
 8250SOL    HW225650   3.359   1.592   0.654
 8251SOL     OW25651   6.494   2.144   4.356
 8251SOL    HW125652   6.523   2.152   4.452
 8251SOL    HW225653   6.396   2.122   4.353
 8252SOL     OW25654   2.446   2.018   6.578
 8252SOL    HW125655   2.381   1.943   6.591
 8252SOL    HW225656   2.488   2.041   6.666
 8253SOL     OW25657   4.033   5.886   6.497
 8253SOL    HW125658   4.101   5.841   6.439
 8253SOL    HW225659   3.950   5.902   6.443
 8254SOL     OW25660   6.184   4.889   6.175
 8254SOL    HW125661   6.152   4.809   6.125
 8254SOL    HW225662   6.110   4.925   6.232
 8255SOL     OW25663   0.865   6.869   6.123
 8255SOL    HW125664   0.921   6.950   6.142
 8255SOL    HW225665   0.918   6.787   6.145
 8256SOL     OW25666   6.963   6.689   3.307
 8256SOL    HW125667   6.970   6.603   3.357
 8256SOL    HW225668   7.000   6.678   3.215
 8257SOL     OW25669   5.583   4.236   4.205
 8257SOL    HW125670   5.618   4.195   4.121
 8257SOL    HW225671   5.658   4.248   4.270
 8258SOL     OW25672   5.618   2.511   1.012
 8258SOL    HW125673   5.648   2.573   0.939
 8258SOL    HW225674   5.681   2.519   1.089
 8259SOL     OW25675   4.042   1.902   4.378
 8259SOL    HW125676   4.003   1.985   4.338
 8259SOL    HW225677   4.024   1.824   4.318
 8260SOL     OW25678   1.687   6.573   0.244
 8260SOL    HW125679   1.783   6.596   0.263
 8260SOL    HW225680   1.660   6.617   0.158
 8261SOL     OW25681   5.595   6.502   3.455
 8261SOL    HW125682   5.596   6.419   3.400
 8261SOL    HW225683   5.574   6.581   3.397
 8262SOL     OW25684   0.262   5.170   0.252
 8262SOL    HW125685   0.289   5.074   0.242
 8262SOL    HW225686   0.257   5.213   0.162
 8263SOL     OW25687   6.884   2.741   6.497
 8263SOL    HW125688   6.958   2.808   6.501
 8263SOL    HW225689   6.812   2.774   6.436
 8264SOL     OW25690   1.508   0.066   1.393
 8264SOL    HW125691   1.600   0.090   1.424
 8264SOL    HW225692   1.448   0.056   1.473
 8265SOL     OW25693   4.348   0.394   1.752
 8265SOL    HW125694   4.410   0.467   1.725
 8265SOL    HW225695   4.387   0.306   1.724
 8266SOL     OW25696   3.147   0.390   4.695
 8266SOL    HW125697   3.137   0.301   4.741
 8266SOL    HW225698   3.137   0.378   4.596
 8267SOL     OW25699   1.434   5.046   2.166
 8267SOL    HW125700   1.509   5.104   2.135
 8267SOL    HW225701   1.461   4.997   2.249
 8268SOL     OW25702   2.500   3.967   6.757
 8268SOL    HW125703   2.416   4.007   6.719
 8268SOL    HW225704   2.564   3.948   6.682
 8269SOL     OW25705   4.741   2.718   2.994
 8269SOL    HW125706   4.739   2.738   3.092
 8269SOL    HW225707   4.662   2.662   2.969
 8270SOL     OW25708   2.571   6.822   5.946
 8270SOL    HW125709   2.479   6.788   5.963
 8270SOL    HW225710   2.596   6.887   6.017
 8271SOL     OW25711   5.821   6.263   4.644
 8271SOL    HW125712   5.733   6.220   4.662
 8271SOL    HW225713   5.825   6.352   4.689
 8272SOL     OW25714   0.420   0.205   2.042
 8272SOL    HW125715   0.421   0.209   1.942
 8272SOL    HW225716   0.343   0.150   2.072
 8273SOL     OW25717   3.037   0.098   0.251
 8273SOL    HW125718   3.061   0.006   0.221
 8273SOL    HW225719   3.082   0.116   0.339
 8274SOL     OW25720   4.055   4.340   6.785
 8274SOL    HW125721   3.970   4.351   6.734
 8274SOL    HW225722   4.075   4.424   6.836
 8275SOL     OW25723   6.353   0.107   4.723
 8275SOL    HW125724   6.427   0.096   4.790
 8275SOL    HW225725   6.379   0.175   4.655
 8276SOL     OW25726   6.560   2.560   5.665
 8276SOL    HW125727   6.528   2.627   5.598
 8276SOL    HW225728   6.655   2.578   5.688
 8277SOL     OW25729   2.285   5.174   5.489
 8277SOL    HW125730   2.360   5.165   5.424
 8277SOL    HW225731   2.240   5.262   5.476
 8278SOL     OW25732   3.425   1.170   6.046
 8278SOL    HW125733   3.430   1.079   6.088
 8278SOL    HW225734   3.507   1.222   6.070
 8279SOL     OW25735   5.173   5.901   6.907
 8279SOL    HW125736   5.175   5.834   6.833
 8279SOL    HW225737   5.264   5.906   6.950
 8280SOL     OW25738   4.295   2.637   6.790
 8280SOL    HW125739   4.268   2.548   6.754
 8280SOL    HW225740   4.363   2.625   6.862
 8281SOL     OW25741   1.860   4.533   0.612
 8281SOL    HW125742   1.903   4.475   0.543
 8281SOL    HW225743   1.926   4.555   0.684
 8282SOL     OW25744   3.108   2.252   1.018
 8282SOL    HW125745   3.082   2.344   0.989
 8282SOL    HW225746   3.081   2.238   1.113
 8283SOL     OW25747   0.491   5.089   3.660
 8283SOL    HW125748   0.461   5.184   3.660
 8283SOL    HW225749   0.436   5.036   3.596
 8284SOL     OW25750   1.995   2.662   2.646
 8284SOL    HW125751   2.060   2.729   2.611
 8284SOL    HW225752   2.034   2.617   2.727
 8285SOL     OW25753   3.460   3.709   5.986
 8285SOL    HW125754   3.558   3.705   6.003
 8285SOL    HW225755   3.442   3.690   5.890
 8286SOL     OW25756   5.572   1.162   4.486
 8286SOL    HW125757   5.599   1.172   4.391
 8286SOL    HW225758   5.596   1.071   4.518
 8287SOL     OW25759   1.231   6.815   4.553
 8287SOL    HW125760   1.205   6.838   4.460
 8287SOL    HW225761   1.201   6.722   4.574
 8288SOL     OW25762   1.815   2.218   2.148
 8288SOL    HW125763   1.903   2.246   2.110
 8288SOL    HW225764   1.763   2.170   2.077
 8289SOL     OW25765   6.186   1.186   5.696
 8289SOL    HW125766   6.122   1.112   5.717
 8289SOL    HW225767   6.138   1.274   5.699
 8290SOL     OW25768   4.111   3.475   1.584
 8290SOL    HW125769   4.064   3.398   1.541
 8290SOL    HW225770   4.083   3.482   1.680
 8291SOL     OW25771   5.882   6.608   6.371
 8291SOL    HW125772   5.837   6.521   6.395
 8291SOL    HW225773   5.822   6.684   6.394
 8292SOL     OW25774   1.760   4.655   5.574
 8292SOL    HW125775   1.854   4.665   5.541
 8292SOL    HW225776   1.760   4.615   5.665
 8293SOL     OW25777   2.014   4.743   1.805
 8293SOL    HW125778   2.098   4.689   1.798
 8293SOL    HW225779   1.935   4.683   1.794
 8294SOL     OW25780   6.707   3.850   5.460
 8294SOL    HW125781   6.792   3.899   5.440
 8294SOL    HW225782   6.728   3.767   5.512
 8295SOL     OW25783   4.792   3.976   3.258
 8295SOL    HW125784   4.796   4.037   3.337
 8295SOL    HW225785   4.813   3.882   3.287
 8296SOL     OW25786   3.470   6.025   6.954
 8296SOL    HW125787   3.422   5.950   7.000
 8296SOL    HW225788   3.421   6.110   6.969
 8297SOL     OW25789   6.056   3.971   1.885
 8297SOL    HW125790   6.126   3.916   1.930
 8297SOL    HW225791   5.993   4.008   1.953
 8298SOL     OW25792   0.746   0.717   6.272
 8298SOL    HW125793   0.750   0.701   6.370
 8298SOL    HW225794   0.839   0.729   6.236
 8299SOL     OW25795   0.237   3.996   1.397
 8299SOL    HW125796   0.242   3.923   1.329
 8299SOL    HW225797   0.168   3.973   1.465
 8300SOL     OW25798   5.977   5.620   4.503
 8300SOL    HW125799   5.922   5.551   4.456
 8300SOL    HW225800   5.929   5.708   4.502
 8301SOL     OW25801   4.525   0.146   6.765
 8301SOL    HW125802   4.513   0.067   6.825
 8301SOL    HW225803   4.458   0.217   6.790
 8302SOL     OW25804   3.090   6.755   5.153
 8302SOL    HW125805   3.019   6.825   5.145
 8302SOL    HW225806   3.147   6.755   5.071
 8303SOL     OW25807   6.890   0.347   2.573
 8303SOL    HW125808   6.904   0.252   2.600
 8303SOL    HW225809   6.814   0.386   2.626
 8304SOL     OW25810   5.872   4.033   3.377
 8304SOL    HW125811   5.793   3.974   3.358
 8304SOL    HW225812   5.848   4.128   3.356
 8305SOL     OW25813   4.769   5.416   4.171
 8305SOL    HW125814   4.758   5.498   4.227
 8305SOL    HW225815   4.679   5.380   4.146
 8306SOL     OW25816   6.433   0.875   2.676
 8306SOL    HW125817   6.498   0.950   2.665
 8306SOL    HW225818   6.460   0.819   2.754
 8307SOL     OW25819   1.176   5.210   0.863
 8307SOL    HW125820   1.219   5.260   0.938
 8307SOL    HW225821   1.086   5.248   0.845
 8308SOL     OW25822   1.448   4.471   0.366
 8308SOL    HW125823   1.535   4.510   0.396
 8308SOL    HW225824   1.376   4.539   0.379
 8309SOL     OW25825   6.627   5.072   5.020
 8309SOL    HW125826   6.633   4.983   5.065
 8309SOL    HW225827   6.531   5.096   5.004
 8310SOL     OW25828   0.746   6.321   1.004
 8310SOL    HW125829   0.677   6.393   0.997
 8310SOL    HW225830   0.702   6.235   1.030
 8311SOL     OW25831   5.485   6.613   4.205
 8311SOL    HW125832   5.535   6.667   4.137
 8311SOL    HW225833   5.498   6.654   4.296
 8312SOL     OW25834   5.404   0.304   0.539
 8312SOL    HW125835   5.395   0.403   0.531
 8312SOL    HW225836   5.345   0.260   0.471
 8313SOL     OW25837   3.392   6.878   5.692
 8313SOL    HW125838   3.379   6.782   5.717
 8313SOL    HW225839   3.382   6.889   5.593
 8314SOL     OW25840   5.475   6.238   6.539
 8314SOL    HW125841   5.465   6.308   6.468
 8314SOL    HW225842   5.549   6.264   6.601
 8315SOL     OW25843   3.701   3.775   3.976
 8315SOL    HW125844   3.609   3.769   3.936
 8315SOL    HW225845   3.708   3.858   4.031
 8316SOL     OW25846   0.970   3.146   6.887
 8316SOL    HW125847   1.046   3.196   6.844
 8316SOL    HW225848   0.978   3.154   6.987
 8317SOL     OW25849   2.047   2.079   4.829
 8317SOL    HW125850   2.065   2.032   4.915
 8317SOL    HW225851   2.100   2.164   4.826
 8318SOL     OW25852   4.253   1.008   6.120
 8318SOL    HW125853   4.277   0.928   6.176
 8318SOL    HW225854   4.209   1.076   6.177
 8319SOL     OW25855   1.144   0.494   5.923
 8319SOL    HW125856   1.219   0.560   5.931
 8319SOL    HW225857   1.145   0.433   6.002
 8320SOL     OW25858   3.389   3.992   3.559
 8320SOL    HW125859   3.394   4.052   3.639
 8320SOL    HW225860   3.318   4.025   3.497
 8321SOL     OW25861   0.088   0.560   6.515
 8321SOL    HW125862   0.012   0.624   6.508
 8321SOL    HW225863   0.063   0.474   6.471
 8322SOL     OW25864   0.181   1.150   0.378
 8322SOL    HW125865   0.257   1.212   0.396
 8322SOL    HW225866   0.190   1.069   0.435
 8323SOL     OW25867   5.009   4.791   1.412
 8323SOL    HW125868   4.954   4.779   1.330
 8323SOL    HW225869   5.041   4.702   1.445
 8324SOL     OW25870   6.062   0.594   0.027
 8324SOL    HW125871   6.023   0.602   6.955
 8324SOL    HW225872   6.130   0.667   0.040
 8325SOL     OW25873   1.200   5.301   5.038
 8325SOL    HW125874   1.198   5.209   5.078
 8325SOL    HW225875   1.106   5.336   5.030
 8326SOL     OW25876   3.118   3.836   0.486
 8326SOL    HW125877   3.211   3.801   0.473
 8326SOL    HW225878   3.052   3.764   0.463
 8327SOL     OW25879   0.467   0.594   5.361
 8327SOL    HW125880   0.534   0.572   5.291
 8327SOL    HW225881   0.426   0.509   5.395
 8328SOL     OW25882   0.907   6.169   5.918
 8328SOL    HW125883   0.854   6.158   5.834
 8328SOL    HW225884   0.874   6.105   5.988
 8329SOL     OW25885   0.973   2.604   5.251
 8329SOL    HW125886   1.036   2.529   5.233
 8329SOL    HW225887   0.880   2.575   5.229
 8330SOL     OW25888   3.650   1.047   6.261
 8330SOL    HW125889   3.735   0.996   6.244
 8330SOL    HW225890   3.571   0.989   6.241
 8331SOL     OW25891   2.122   1.997   0.454
 8331SOL    HW125892   2.093   1.951   0.370
 8331SOL    HW225893   2.114   2.096   0.442
 8332SOL     OW25894   5.331   5.025   2.227
 8332SOL    HW125895   5.340   5.002   2.130
 8332SOL    HW225896   5.276   5.107   2.237
 8333SOL     OW25897   1.931   5.423   0.876
 8333SOL    HW125898   1.873   5.478   0.815
 8333SOL    HW225899   1.884   5.338   0.899
 8334SOL     OW25900   3.498   1.471   6.260
 8334SOL    HW125901   3.400   1.489   6.262
 8334SOL    HW225902   3.547   1.553   6.289
 8335SOL     OW25903   4.312   2.759   6.487
 8335SOL    HW125904   4.397   2.759   6.434
 8335SOL    HW225905   4.315   2.686   6.555
 8336SOL     OW25906   1.579   3.542   2.217
 8336SOL    HW125907   1.565   3.459   2.163
 8336SOL    HW225908   1.491   3.573   2.253
 8337SOL     OW25909   1.310   0.745   4.745
 8337SOL    HW125910   1.246   0.818   4.719
 8337SOL    HW225911   1.355   0.769   4.831
 8338SOL     OW25912   3.871   4.938   2.399
 8338SOL    HW125913   3.813   4.884   2.339
 8338SOL    HW225914   3.923   5.004   2.345
 8339SOL     OW25915   6.911   0.949   0.359
 8339SOL    HW125916   6.969   0.874   0.327
 8339SOL    HW225917   6.906   0.947   0.459
 8340SOL     OW25918   5.056   2.882   0.669
 8340SOL    HW125919   5.152   2.887   0.643
 8340SOL    HW225920   5.044   2.921   0.760
 8341SOL     OW25921   3.557   0.532   6.328
 8341SOL    HW125922   3.563   0.568   6.234
 8341SOL    HW225923   3.463   0.503   6.346
 8342SOL     OW25924   3.192   6.084   0.351
 8342SOL    HW125925   3.191   6.059   0.448
 8342SOL    HW225926   3.272   6.043   0.307
 8343SOL     OW25927   6.611   5.296   4.070
 8343SOL    HW125928   6.607   5.258   3.977
 8343SOL    HW225929   6.539   5.256   4.126
 8344SOL     OW25930   0.492   4.400   4.019
 8344SOL    HW125931   0.504   4.301   4.008
 8344SOL    HW225932   0.561   4.448   3.964
 8345SOL     OW25933   5.120   1.375   3.521
 8345SOL    HW125934   5.109   1.284   3.482
 8345SOL    HW225935   5.169   1.433   3.456
 8346SOL     OW25936   4.227   3.112   6.221
 8346SOL    HW125937   4.218   3.017   6.190
 8346SOL    HW225938   4.136   3.150   6.241
 8347SOL     OW25939   2.104   6.739   6.328
 8347SOL    HW125940   2.196   6.724   6.293
 8347SOL    HW225941   2.066   6.653   6.361
 8348SOL     OW25942   2.670   6.915   1.418
 8348SOL    HW125943   2.715   6.970   1.348
 8348SOL    HW225944   2.698   6.947   1.509
 8349SOL     OW25945   1.055   6.653   1.752
 8349SOL    HW125946   0.971   6.644   1.699
 8349SOL    HW225947   1.133   6.630   1.693
 8350SOL     OW25948   2.843   0.073   6.573
 8350SOL    HW125949   2.891   7.020   6.621
 8350SOL    HW225950   2.810   0.039   6.485
 8351SOL     OW25951   6.162   5.481   4.145
 8351SOL    HW125952   6.171   5.542   4.223
 8351SOL    HW225953   6.243   5.488   4.087
 8352SOL     OW25954   2.975   6.076   2.578
 8352SOL    HW125955   2.915   6.066   2.499
 8352SOL    HW225956   2.945   6.153   2.634
 8353SOL     OW25957   1.203   3.928   1.562
 8353SOL    HW125958   1.216   3.980   1.647
 8353SOL    HW225959   1.163   3.838   1.584
 8354SOL     OW25960   3.743   6.691   4.231
 8354SOL    HW125961   3.756   6.619   4.163
 8354SOL    HW225962   3.735   6.779   4.185
 8355SOL     OW25963   1.359   0.444   6.177
 8355SOL    HW125964   1.447   0.400   6.158
 8355SOL    HW225965   1.374   0.533   6.219
 8356SOL     OW25966   1.410   5.680   2.014
 8356SOL    HW125967   1.408   5.731   1.928
 8356SOL    HW225968   1.352   5.599   2.005
 8357SOL     OW25969   3.626   5.679   6.252
 8357SOL    HW125970   3.669   5.651   6.166
 8357SOL    HW225971   3.540   5.726   6.232
 8358SOL     OW25972   1.170   2.815   5.993
 8358SOL    HW125973   1.269   2.822   5.977
 8358SOL    HW225974   1.127   2.904   5.981
 8359SOL     OW25975   2.292   1.432   4.474
 8359SOL    HW125976   2.283   1.518   4.525
 8359SOL    HW225977   2.233   1.363   4.515
 8360SOL     OW25978   4.769   0.076   0.859
 8360SOL    HW125979   4.704   0.106   0.929
 8360SOL    HW225980   4.743   7.005   0.827
 8361SOL     OW25981   2.440   6.765   6.474
 8361SOL    HW125982   2.386   6.730   6.551
 8361SOL    HW225983   2.438   6.865   6.475
 8362SOL     OW25984   6.042   1.756   0.527
 8362SOL    HW125985   6.045   1.773   0.428
 8362SOL    HW225986   6.056   1.842   0.576
 8363SOL     OW25987   4.057   1.879   0.567
 8363SOL    HW125988   4.040   1.978   0.573
 8363SOL    HW225989   3.999   1.831   0.632
 8364SOL     OW25990   0.883   3.322   4.081
 8364SOL    HW125991   0.815   3.294   4.014
 8364SOL    HW225992   0.975   3.308   4.043
 8365SOL     OW25993   2.074   2.508   2.864
 8365SOL    HW125994   2.143   2.456   2.813
 8365SOL    HW225995   2.054   2.461   2.950
 8366SOL     OW25996   4.169   5.252   1.218
 8366SOL    HW125997   4.146   5.314   1.293
 8366SOL    HW225998   4.126   5.163   1.234
 8367SOL     OW25999   2.827   5.346   5.077
 8367SOL    HW126000   2.804   5.314   5.169
 8367SOL    HW226001   2.759   5.313   5.012
 8368SOL     OW26002   1.023   6.155   6.820
 8368SOL    HW126003   1.051   6.077   6.878
 8368SOL    HW226004   0.998   6.232   6.878
 8369SOL     OW26005   0.905   1.323   1.035
 8369SOL    HW126006   0.853   1.407   1.048
 8369SOL    HW226007   0.842   1.245   1.035
 8370SOL     OW26008   2.564   1.778   6.810
 8370SOL    HW126009   2.525   1.718   6.740
 8370SOL    HW226010   2.602   1.860   6.766
 8371SOL     OW26011   1.647   3.188   5.549
 8371SOL    HW126012   1.652   3.128   5.628
 8371SOL    HW226013   1.567   3.166   5.494
 8372SOL     OW26014   2.254   6.439   1.325
 8372SOL    HW126015   2.278   6.425   1.421
 8372SOL    HW226016   2.211   6.356   1.289
 8373SOL     OW26017   0.904   1.531   4.401
 8373SOL    HW126018   0.957   1.553   4.483
 8373SOL    HW226019   0.885   1.615   4.351
 8374SOL     OW26020   0.992   0.358   4.506
 8374SOL    HW126021   0.963   0.378   4.600
 8374SOL    HW226022   0.943   0.417   4.443
 8375SOL     OW26023   3.596   0.621   5.355
 8375SOL    HW126024   3.650   0.621   5.439
 8375SOL    HW226025   3.643   0.566   5.286
 8376SOL     OW26026   1.728   1.419   3.700
 8376SOL    HW126027   1.629   1.433   3.704
 8376SOL    HW226028   1.762   1.399   3.792
 8377SOL     OW26029   5.182   5.628   0.678
 8377SOL    HW126030   5.181   5.534   0.712
 8377SOL    HW226031   5.158   5.628   0.581
 8378SOL     OW26032   5.445   5.389   3.011
 8378SOL    HW126033   5.377   5.452   2.974
 8378SOL    HW226034   5.400   5.322   3.069
 8379SOL     OW26035   4.733   2.351   1.257
 8379SOL    HW126036   4.739   2.362   1.356
 8379SOL    HW226037   4.774   2.431   1.213
 8380SOL     OW26038   0.027   6.609   6.996
 8380SOL    HW126039   7.013   6.530   0.027
 8380SOL    HW226040   0.036   6.687   0.037
 8381SOL     OW26041   0.487   2.461   3.410
 8381SOL    HW126042   0.553   2.476   3.336
 8381SOL    HW226043   0.411   2.526   3.401
 8382SOL     OW26044   2.407   0.564   1.170
 8382SOL    HW126045   2.392   0.566   1.071
 8382SOL    HW226046   2.379   0.475   1.206
 8383SOL     OW26047   2.450   0.470   5.084
 8383SOL    HW126048   2.532   0.505   5.129
 8383SOL    HW226049   2.455   0.489   4.986
 8384SOL     OW26050   0.223   1.698   0.724
 8384SOL    HW126051   0.155   1.669   0.791
 8384SOL    HW226052   0.219   1.637   0.644
 8385SOL     OW26053   4.803   3.082   0.711
 8385SOL    HW126054   4.711   3.107   0.682
 8385SOL    HW226055   4.798   3.007   0.777
 8386SOL     OW26056   2.275   5.620   1.245
 8386SOL    HW126057   2.186   5.608   1.290
 8386SOL    HW226058   2.338   5.665   1.309
 8387SOL     OW26059   2.107   1.284   1.697
 8387SOL    HW126060   2.027   1.335   1.726
 8387SOL    HW226061   2.181   1.347   1.675
 8388SOL     OW26062   1.441   0.048   0.778
 8388SOL    HW126063   1.403   0.053   0.870
 8388SOL    HW226064   1.367   0.055   0.711
 8389SOL     OW26065   1.482   3.278   3.995
 8389SOL    HW126066   1.428   3.332   3.930
 8389SOL    HW226067   1.468   3.313   4.087
 8390SOL     OW26068   3.501   0.258   6.741
 8390SOL    HW126069   3.476   0.292   6.832
 8390SOL    HW226070   3.597   0.279   6.724
 8391SOL     OW26071   5.137   5.357   0.729
 8391SOL    HW126072   5.053   5.316   0.694
 8391SOL    HW226073   5.158   5.318   0.819
 8392SOL     OW26074   6.612   5.491   5.280
 8392SOL    HW126075   6.575   5.471   5.189
 8392SOL    HW226076   6.688   5.429   5.299
 8393SOL     OW26077   0.292   0.527   3.927
 8393SOL    HW126078   0.385   0.546   3.895
 8393SOL    HW226079   0.294   0.502   4.023
 8394SOL     OW26080   0.701   1.820   2.501
 8394SOL    HW126081   0.629   1.808   2.569
 8394SOL    HW226082   0.661   1.818   2.409
 8395SOL     OW26083   0.919   6.456   3.804
 8395SOL    HW126084   0.980   6.433   3.880
 8395SOL    HW226085   0.951   6.540   3.760
 8396SOL     OW26086   4.494   4.410   2.463
 8396SOL    HW126087   4.578   4.402   2.409
 8396SOL    HW226088   4.419   4.363   2.417
 8397SOL     OW26089   2.164   6.801   2.640
 8397SOL    HW126090   2.203   6.826   2.552
 8397SOL    HW226091   2.104   6.873   2.672
 8398SOL     OW26092   3.345   1.636   6.943
 8398SOL    HW126093   3.307   1.706   7.004
 8398SOL    HW226094   3.290   1.630   6.860
 8399SOL     OW26095   6.646   6.425   0.041
 8399SOL    HW126096   6.580   6.425   0.116
 8399SOL    HW226097   6.649   6.335   7.019
 8400SOL     OW26098   0.899   0.773   3.250
 8400SOL    HW126099   0.959   0.748   3.175
 8400SOL    HW226100   0.818   0.714   3.249
 8401SOL     OW26101   4.311   2.916   5.560
 8401SOL    HW126102   4.410   2.925   5.572
 8401SOL    HW226103   4.264   2.971   5.629
 8402SOL     OW26104   3.155   1.521   5.616
 8402SOL    HW126105   3.155   1.607   5.667
 8402SOL    HW226106   3.236   1.468   5.640
 8403SOL     OW26107   0.501   1.380   3.183
 8403SOL    HW126108   0.547   1.401   3.270
 8403SOL    HW226109   0.561   1.325   3.126
 8404SOL     OW26110   5.643   6.479   6.435
 8404SOL    HW126111   5.555   6.510   6.472
 8404SOL    HW226112   5.702   6.449   6.510
 8405SOL     OW26113   1.959   1.442   0.145
 8405SOL    HW126114   2.010   1.489   0.073
 8405SOL    HW226115   1.936   1.349   0.115
 8406SOL     OW26116   3.885   0.944   0.927
 8406SOL    HW126117   3.806   0.911   0.874
 8406SOL    HW226118   3.942   1.002   0.869
 8407SOL     OW26119   5.715   5.470   4.447
 8407SOL    HW126120   5.744   5.407   4.375
 8407SOL    HW226121   5.631   5.516   4.418
 8408SOL     OW26122   4.691   1.360   3.169
 8408SOL    HW126123   4.745   1.286   3.208
 8408SOL    HW226124   4.638   1.405   3.241
 8409SOL     OW26125   6.293   2.547   3.899
 8409SOL    HW126126   6.367   2.487   3.867
 8409SOL    HW226127   6.223   2.492   3.945
 8410SOL     OW26128   4.183   0.821   1.911
 8410SOL    HW126129   4.148   0.914   1.910
 8410SOL    HW226130   4.281   0.822   1.933
 8411SOL     OW26131   1.907   5.406   4.106
 8411SOL    HW126132   1.835   5.386   4.172
 8411SOL    HW226133   1.887   5.360   4.020
 8412SOL     OW26134   4.044   1.639   1.589
 8412SOL    HW126135   4.067   1.592   1.504
 8412SOL    HW226136   4.007   1.572   1.654
 8413SOL     OW26137   4.855   4.568   0.535
 8413SOL    HW126138   4.776   4.620   0.567
 8413SOL    HW226139   4.890   4.609   0.451
 8414SOL     OW26140   3.753   0.178   1.690
 8414SOL    HW126141   3.812   0.257   1.711
 8414SOL    HW226142   3.767   0.149   1.596
 8415SOL     OW26143   0.517   4.855   3.844
 8415SOL    HW126144   0.508   4.929   3.777
 8415SOL    HW226145   0.612   4.849   3.873
 8416SOL     OW26146   4.859   4.922   3.420
 8416SOL    HW126147   4.931   4.856   3.400
 8416SOL    HW226148   4.855   4.938   3.519
 8417SOL     OW26149   1.413   5.851   5.433
 8417SOL    HW126150   1.485   5.907   5.392
 8417SOL    HW226151   1.334   5.848   5.372
 8418SOL     OW26152   5.577   4.988   1.752
 8418SOL    HW126153   5.659   4.948   1.794
 8418SOL    HW226154   5.502   4.922   1.756
 8419SOL     OW26155   4.767   0.876   1.817
 8419SOL    HW126156   4.859   0.877   1.777
 8419SOL    HW226157   4.750   0.787   1.860
 8420SOL     OW26158   3.680   6.501   1.130
 8420SOL    HW126159   3.612   6.489   1.057
 8420SOL    HW226160   3.703   6.598   1.138
 8421SOL     OW26161   3.199   6.476   1.512
 8421SOL    HW126162   3.248   6.509   1.431
 8421SOL    HW226163   3.226   6.530   1.591
 8422SOL     OW26164   4.775   5.921   1.059
 8422SOL    HW126165   4.756   5.850   1.126
 8422SOL    HW226166   4.712   5.998   1.071
 8423SOL     OW26167   4.147   4.119   6.422
 8423SOL    HW126168   4.150   4.218   6.434
 8423SOL    HW226169   4.083   4.096   6.349
 8424SOL     OW26170   2.587   2.484   3.088
 8424SOL    HW126171   2.605   2.545   3.011
 8424SOL    HW226172   2.529   2.409   3.058
 8425SOL     OW26173   6.715   5.463   1.139
 8425SOL    HW126174   6.753   5.540   1.089
 8425SOL    HW226175   6.738   5.378   1.093
 8426SOL     OW26176   3.872   3.041   4.196
 8426SOL    HW126177   3.861   3.012   4.291
 8426SOL    HW226178   3.949   3.104   4.189
 8427SOL     OW26179   1.328   4.127   5.706
 8427SOL    HW126180   1.331   4.064   5.783
 8427SOL    HW226181   1.357   4.218   5.735
 8428SOL     OW26182   6.622   4.574   1.837
 8428SOL    HW126183   6.717   4.544   1.836
 8428SOL    HW226184   6.562   4.497   1.818
 8429SOL     OW26185   2.093   4.469   4.309
 8429SOL    HW126186   2.140   4.409   4.374
 8429SOL    HW226187   2.055   4.414   4.234
 8430SOL     OW26188   4.114   5.237   3.150
 8430SOL    HW126189   4.198   5.198   3.188
 8430SOL    HW226190   4.129   5.333   3.128
 8431SOL     OW26191   2.209   5.152   1.178
 8431SOL    HW126192   2.294   5.115   1.215
 8431SOL    HW226193   2.133   5.127   1.237
 8432SOL     OW26194   4.659   5.413   6.180
 8432SOL    HW126195   4.711   5.357   6.116
 8432SOL    HW226196   4.586   5.462   6.131
 8433SOL     OW26197   6.997   2.534   6.289
 8433SOL    HW126198   0.076   2.549   6.288
 8433SOL    HW226199   6.958   2.581   6.368
 8434SOL     OW26200   2.796   0.284   4.910
 8434SOL    HW126201   2.884   0.238   4.895
 8434SOL    HW226202   2.779   0.347   4.835
 8435SOL     OW26203   4.926   1.890   1.487
 8435SOL    HW126204   4.862   1.928   1.421
 8435SOL    HW226205   4.982   1.820   1.443
 8436SOL     OW26206   3.929   6.765   4.018
 8436SOL    HW126207   3.900   6.670   4.006
 8436SOL    HW226208   3.919   6.791   4.114
 8437SOL     OW26209   1.740   0.011   2.498
 8437SOL    HW126210   1.758   6.937   2.528
 8437SOL    HW226211   1.708   0.064   2.576
 8438SOL     OW26212   3.129   4.874   2.381
 8438SOL    HW126213   3.067   4.799   2.404
 8438SOL    HW226214   3.093   4.924   2.302
 8439SOL     OW26215   6.697   5.800   1.821
 8439SOL    HW126216   6.603   5.819   1.851
 8439SOL    HW226217   6.723   5.864   1.749
 8440SOL     OW26218   0.532   0.721   2.814
 8440SOL    HW126219   0.626   0.699   2.842
 8440SOL    HW226220   0.491   0.640   2.772
 8441SOL     OW26221   6.592   6.348   0.474
 8441SOL    HW126222   6.670   6.316   0.421
 8441SOL    HW226223   6.576   6.287   0.552
 8442SOL     OW26224   3.489   3.226   6.192
 8442SOL    HW126225   3.474   3.324   6.182
 8442SOL    HW226226   3.536   3.191   6.111
 8443SOL     OW26227   1.348   6.691   3.013
 8443SOL    HW126228   1.444   6.682   2.986
 8443SOL    HW226229   1.334   6.644   3.100
 8444SOL     OW26230   3.249   6.336   3.649
 8444SOL    HW126231   3.317   6.408   3.659
 8444SOL    HW226232   3.245   6.306   3.554
 8445SOL     OW26233   3.378   5.046   2.142
 8445SOL    HW126234   3.395   5.033   2.239
 8445SOL    HW226235   3.307   5.115   2.129
 8446SOL     OW26236   4.915   5.558   1.495
 8446SOL    HW126237   4.986   5.609   1.545
 8446SOL    HW226238   4.917   5.585   1.399
 8447SOL     OW26239   5.683   2.162   2.145
 8447SOL    HW126240   5.591   2.125   2.132
 8447SOL    HW226241   5.676   2.260   2.165
 8448SOL     OW26242   6.807   3.511   5.090
 8448SOL    HW126243   6.895   3.480   5.054
 8448SOL    HW226244   6.816   3.605   5.123
 8449SOL     OW26245   0.301   2.955   4.264
 8449SOL    HW126246   0.280   2.863   4.297
 8449SOL    HW226247   0.363   2.948   4.185
 8450SOL     OW26248   2.044   5.897   2.129
 8450SOL    HW126249   2.022   5.993   2.112
 8450SOL    HW226250   2.143   5.884   2.122
 8451SOL     OW26251   4.076   2.977   0.179
 8451SOL    HW126252   4.169   2.988   0.144
 8451SOL    HW226253   4.045   2.884   0.162
 8452SOL     OW26254   0.309   0.287   1.550
 8452SOL    HW126255   0.255   0.204   1.533
 8452SOL    HW226256   0.254   0.353   1.601
 8453SOL     OW26257   6.117   4.417   6.259
 8453SOL    HW126258   6.124   4.512   6.289
 8453SOL    HW226259   6.044   4.410   6.191
 8454SOL     OW26260   1.286   5.625   1.581
 8454SOL    HW126261   1.237   5.538   1.595
 8454SOL    HW226262   1.220   5.700   1.581
 8455SOL     OW26263   5.005   2.305   0.641
 8455SOL    HW126264   5.050   2.216   0.647
 8455SOL    HW226265   5.000   2.334   0.545
 8456SOL     OW26266   5.451   4.708   3.426
 8456SOL    HW126267   5.415   4.801   3.412
 8456SOL    HW226268   5.452   4.659   3.339
 8457SOL     OW26269   6.618   6.491   5.961
 8457SOL    HW126270   6.648   6.443   6.044
 8457SOL    HW226271   6.679   6.569   5.944
 8458SOL     OW26272   2.139   1.048   6.547
 8458SOL    HW126273   2.219   1.004   6.588
 8458SOL    HW226274   2.148   1.148   6.556
 8459SOL     OW26275   3.075   6.530   0.970
 8459SOL    HW126276   2.991   6.533   1.023
 8459SOL    HW226277   3.148   6.490   1.025
 8460SOL     OW26278   4.746   2.413   5.749
 8460SOL    HW126279   4.701   2.477   5.813
 8460SOL    HW226280   4.835   2.450   5.723
 8461SOL     OW26281   1.012   4.028   2.261
 8461SOL    HW126282   0.980   3.958   2.325
 8461SOL    HW226283   1.059   4.100   2.312
 8462SOL     OW26284   3.105   2.517   0.634
 8462SOL    HW126285   3.013   2.547   0.660
 8462SOL    HW226286   3.141   2.578   0.564
 8463SOL     OW26287   6.974   1.301   0.388
 8463SOL    HW126288   6.918   1.267   0.313
 8463SOL    HW226289   0.039   1.248   0.393
 8464SOL     OW26290   6.936   4.438   4.891
 8464SOL    HW126291   6.978   4.529   4.883
 8464SOL    HW226292   6.859   4.431   4.827
 8465SOL     OW26293   3.364   2.142   0.697
 8465SOL    HW126294   3.368   2.167   0.601
 8465SOL    HW226295   3.323   2.051   0.707
 8466SOL     OW26296   6.063   6.716   4.915
 8466SOL    HW126297   6.030   6.624   4.935
 8466SOL    HW226298   5.986   6.776   4.893
 8467SOL     OW26299   4.259   1.094   1.225
 8467SOL    HW126300   4.284   1.140   1.310
 8467SOL    HW226301   4.167   1.056   1.233
 8468SOL     OW26302   5.952   3.364   0.123
 8468SOL    HW126303   5.917   3.430   0.058
 8468SOL    HW226304   5.878   3.301   0.150
 8469SOL     OW26305   2.883   2.051   5.553
 8469SOL    HW126306   2.924   2.100   5.631
 8469SOL    HW226307   2.804   1.998   5.585
 8470SOL     OW26308   1.295   4.672   0.135
 8470SOL    HW126309   1.353   4.751   0.114
 8470SOL    HW226310   1.281   4.666   0.234
 8471SOL     OW26311   3.922   0.303   5.649
 8471SOL    HW126312   3.961   0.393   5.669
 8471SOL    HW226313   3.969   0.233   5.703
 8472SOL     OW26314   5.453   0.996   5.307
 8472SOL    HW126315   5.542   1.005   5.262
 8472SOL    HW226316   5.384   0.970   5.240
 8473SOL     OW26317   5.706   5.627   0.371
 8473SOL    HW126318   5.709   5.576   0.457
 8473SOL    HW226319   5.743   5.719   0.385
 8474SOL     OW26320   3.680   4.026   2.118
 8474SOL    HW126321   3.626   4.109   2.132
 8474SOL    HW226322   3.647   3.978   2.037
 8475SOL     OW26323   6.751   2.791   2.587
 8475SOL    HW126324   6.822   2.861   2.595
 8475SOL    HW226325   6.790   2.701   2.605
 8476SOL     OW26326   6.606   1.987   1.618
 8476SOL    HW126327   6.596   2.087   1.618
 8476SOL    HW226328   6.559   1.949   1.538
 8477SOL     OW26329   4.197   6.591   2.687
 8477SOL    HW126330   4.182   6.589   2.785
 8477SOL    HW226331   4.273   6.530   2.664
 8478SOL     OW26332   0.533   0.783   5.540
 8478SOL    HW126333   0.493   0.740   5.459
 8478SOL    HW226334   0.593   0.718   5.587
 8479SOL     OW26335   1.394   3.141   1.099
 8479SOL    HW126336   1.425   3.058   1.145
 8479SOL    HW226337   1.447   3.219   1.131
 8480SOL     OW26338   5.251   3.855   6.788
 8480SOL    HW126339   5.195   3.911   6.727
 8480SOL    HW226340   5.237   3.885   6.883
 8481SOL     OW26341   5.124   2.450   4.894
 8481SOL    HW126342   5.035   2.407   4.877
 8481SOL    HW226343   5.118   2.508   4.975
 8482SOL     OW26344   5.198   0.202   2.390
 8482SOL    HW126345   5.212   0.289   2.342
 8482SOL    HW226346   5.197   0.218   2.489
 8483SOL     OW26347   2.985   5.713   3.177
 8483SOL    HW126348   2.962   5.752   3.266
 8483SOL    HW226349   2.902   5.685   3.130
 8484SOL     OW26350   6.912   6.310   4.547
 8484SOL    HW126351   6.924   6.242   4.620
 8484SOL    HW226352   6.935   6.400   4.581
 8485SOL     OW26353   3.940   2.652   0.478
 8485SOL    HW126354   3.892   2.565   0.471
 8485SOL    HW226355   3.879   2.721   0.516
 8486SOL     OW26356   1.749   0.766   2.801
 8486SOL    HW126357   1.696   0.732   2.878
 8486SOL    HW226358   1.833   0.808   2.834
 8487SOL     OW26359   5.625   2.067   6.308
 8487SOL    HW126360   5.705   2.008   6.298
 8487SOL    HW226361   5.645   2.139   6.375
 8488SOL     OW26362   5.024   6.181   2.439
 8488SOL    HW126363   4.992   6.185   2.344
 8488SOL    HW226364   5.120   6.208   2.442
 8489SOL     OW26365   6.479   1.014   1.700
 8489SOL    HW126366   6.464   1.008   1.798
 8489SOL    HW226367   6.577   1.027   1.682
 8490SOL     OW26368   2.980   6.621   5.817
 8490SOL    HW126369   2.942   6.529   5.808
 8490SOL    HW226370   2.948   6.662   5.902
 8491SOL     OW26371   1.692   6.088   2.478
 8491SOL    HW126372   1.620   6.084   2.548
 8491SOL    HW226373   1.774   6.130   2.518
 8492SOL     OW26374   5.823   4.920   4.211
 8492SOL    HW126375   5.819   4.965   4.122
 8492SOL    HW226376   5.872   4.833   4.202
 8493SOL     OW26377   1.580   2.018   6.997
 8493SOL    HW126378   1.614   2.008   0.071
 8493SOL    HW226379   1.611   1.940   6.942
 8494SOL     OW26380   4.110   5.101   2.546
 8494SOL    HW126381   4.153   5.068   2.462
 8494SOL    HW226382   4.061   5.027   2.590
 8495SOL     OW26383   0.262   5.162   0.610
 8495SOL    HW126384   0.178   5.209   0.584
 8495SOL    HW226385   0.297   5.202   0.695
 8496SOL     OW26386   6.711   1.002   2.758
 8496SOL    HW126387   6.695   1.061   2.837
 8496SOL    HW226388   6.764   0.922   2.786
 8497SOL     OW26389   0.175   1.026   3.140
 8497SOL    HW126390   0.247   1.022   3.071
 8497SOL    HW226391   0.088   1.047   3.096
 8498SOL     OW26392   6.686   6.530   3.137
 8498SOL    HW126393   6.623   6.468   3.184
 8498SOL    HW226394   6.724   6.594   3.204
 8499SOL     OW26395   1.022   4.119   6.787
 8499SOL    HW126396   1.026   4.022   6.765
 8499SOL    HW226397   1.049   4.173   6.707
 8500SOL     OW26398   1.677   6.708   5.780
 8500SOL    HW126399   1.636   6.672   5.696
 8500SOL    HW226400   1.608   6.707   5.853
 8501SOL     OW26401   0.455   2.522   6.512
 8501SOL    HW126402   0.504   2.453   6.565
 8501SOL    HW226403   0.478   2.613   6.545
 8502SOL     OW26404   0.213   3.106   1.654
 8502SOL    HW126405   0.282   3.040   1.625
 8502SOL    HW226406   0.122   3.065   1.643
 8503SOL     OW26407   0.315   5.871   5.255
 8503SOL    HW126408   0.380   5.798   5.276
 8503SOL    HW226409   0.365   5.952   5.223
 8504SOL     OW26410   1.616   5.805   2.158
 8504SOL    HW126411   1.547   5.747   2.116
 8504SOL    HW226412   1.646   5.763   2.244
 8505SOL     OW26413   6.300   3.508   2.720
 8505SOL    HW126414   6.252   3.478   2.638
 8505SOL    HW226415   6.235   3.516   2.795
 8506SOL     OW26416   1.227   0.815   6.664
 8506SOL    HW126417   1.319   0.776   6.655
 8506SOL    HW226418   1.191   0.836   6.573
 8507SOL     OW26419   3.986   6.572   4.947
 8507SOL    HW126420   3.958   6.571   4.851
 8507SOL    HW226421   3.935   6.644   4.995
 8508SOL     OW26422   4.265   1.626   5.398
 8508SOL    HW126423   4.307   1.581   5.477
 8508SOL    HW226424   4.233   1.556   5.334
 8509SOL     OW26425   5.597   0.028   3.218
 8509SOL    HW126426   5.519   0.080   3.182
 8509SOL    HW226427   5.653   0.088   3.275
 8510SOL     OW26428   5.371   3.964   2.635
 8510SOL    HW126429   5.441   3.958   2.564
 8510SOL    HW226430   5.287   4.002   2.596
 8511SOL     OW26431   6.190   2.932   2.714
 8511SOL    HW126432   6.212   2.835   2.701
 8511SOL    HW226433   6.105   2.941   2.764
 8512SOL     OW26434   2.952   0.048   2.589
 8512SOL    HW126435   2.981   0.137   2.555
 8512SOL    HW226436   2.878   0.061   2.655
 8513SOL     OW26437   0.183   5.553   0.903
 8513SOL    HW126438   0.141   5.526   0.817
 8513SOL    HW226439   0.126   5.523   0.979
 8514SOL     OW26440   2.581   0.675   3.340
 8514SOL    HW126441   2.616   0.679   3.434
 8514SOL    HW226442   2.494   0.625   3.340
 8515SOL     OW26443   4.690   2.435   0.969
 8515SOL    HW126444   4.726   2.480   0.887
 8515SOL    HW226445   4.595   2.408   0.953
 8516SOL     OW26446   0.108   1.996   2.301
 8516SOL    HW126447   0.204   1.977   2.320
 8516SOL    HW226448   0.070   2.053   2.374
 8517SOL     OW26449   0.886   2.688   5.703
 8517SOL    HW126450   0.833   2.655   5.781
 8517SOL    HW226451   0.982   2.665   5.715
 8518SOL     OW26452   4.377   4.295   0.185
 8518SOL    HW126453   4.279   4.317   0.182
 8518SOL    HW226454   4.430   4.372   0.150
 8519SOL     OW26455   1.900   5.660   2.150
 8519SOL    HW126456   1.815   5.674   2.100
 8519SOL    HW226457   1.952   5.745   2.153
 8520SOL     OW26458   3.804   1.232   0.340
 8520SOL    HW126459   3.898   1.266   0.350
 8520SOL    HW226460   3.740   1.306   0.361
 8521SOL     OW26461   2.012   5.800   5.644
 8521SOL    HW126462   2.015   5.706   5.609
 8521SOL    HW226463   2.014   5.798   5.744
 8522SOL     OW26464   1.020   5.550   2.358
 8522SOL    HW126465   1.042   5.457   2.388
 8522SOL    HW226466   1.039   5.615   2.432
 8523SOL     OW26467   2.959   6.866   6.717
 8523SOL    HW126468   2.898   6.829   6.787
 8523SOL    HW226469   2.956   6.808   6.636
 8524SOL     OW26470   1.272   2.833   4.419
 8524SOL    HW126471   1.252   2.928   4.397
 8524SOL    HW226472   1.327   2.793   4.346
 8525SOL     OW26473   6.333   4.044   3.523
 8525SOL    HW126474   6.352   4.130   3.570
 8525SOL    HW226475   6.418   3.991   3.514
 8526SOL     OW26476   2.446   3.604   1.298
 8526SOL    HW126477   2.405   3.655   1.373
 8526SOL    HW226478   2.459   3.665   1.220
 8527SOL     OW26479   3.887   6.816   5.016
 8527SOL    HW126480   3.821   6.888   4.998
 8527SOL    HW226481   3.980   6.853   5.009
 8528SOL     OW26482   5.447   3.192   5.833
 8528SOL    HW126483   5.445   3.217   5.930
 8528SOL    HW226484   5.486   3.101   5.823
 8529SOL     OW26485   0.954   0.111   0.057
 8529SOL    HW126486   0.882   0.171   0.023
 8529SOL    HW226487   0.941   0.095   0.155
 8530SOL     OW26488   0.986   5.174   5.867
 8530SOL    HW126489   1.013   5.236   5.940
 8530SOL    HW226490   1.043   5.190   5.786
 8531SOL     OW26491   5.777   4.293   3.327
 8531SOL    HW126492   5.680   4.274   3.344
 8531SOL    HW226493   5.791   4.392   3.324
 8532SOL     OW26494   4.328   4.729   4.896
 8532SOL    HW126495   4.322   4.785   4.979
 8532SOL    HW226496   4.346   4.634   4.922
 8533SOL     OW26497   1.880   0.668   5.242
 8533SOL    HW126498   1.832   0.647   5.157
 8533SOL    HW226499   1.925   0.757   5.233
 8534SOL     OW26500   0.105   4.645   2.686
 8534SOL    HW126501   0.053   4.647   2.601
 8534SOL    HW226502   0.148   4.734   2.701
 8535SOL     OW26503   0.959   2.122   4.838
 8535SOL    HW126504   0.894   2.185   4.881
 8535SOL    HW226505   0.915   2.076   4.762
 8536SOL     OW26506   6.104   2.494   5.024
 8536SOL    HW126507   6.148   2.584   5.035
 8536SOL    HW226508   6.006   2.507   5.010
 8537SOL     OW26509   6.509   1.566   0.852
 8537SOL    HW126510   6.480   1.475   0.882
 8537SOL    HW226511   6.522   1.624   0.932
 8538SOL     OW26512   0.998   0.587   5.100
 8538SOL    HW126513   0.969   0.606   5.007
 8538SOL    HW226514   1.074   0.522   5.100
 8539SOL     OW26515   6.165   2.148   2.749
 8539SOL    HW126516   6.190   2.058   2.712
 8539SOL    HW226517   6.135   2.137   2.844
 8540SOL     OW26518   3.900   1.787   0.290
 8540SOL    HW126519   3.822   1.739   0.331
 8540SOL    HW226520   3.921   1.746   0.201
 8541SOL     OW26521   2.698   1.487   5.383
 8541SOL    HW126522   2.772   1.530   5.435
 8541SOL    HW226523   2.680   1.395   5.421
 8542SOL     OW26524   3.233   4.645   6.714
 8542SOL    HW126525   3.161   4.579   6.738
 8542SOL    HW226526   3.270   4.685   6.798
 8543SOL     OW26527   2.953   1.608   5.464
 8543SOL    HW126528   3.030   1.561   5.506
 8543SOL    HW226529   2.974   1.628   5.368
 8544SOL     OW26530   5.121   3.034   5.307
 8544SOL    HW126531   5.113   3.133   5.312
 8544SOL    HW226532   5.216   3.006   5.322
 8545SOL     OW26533   3.303   6.547   4.584
 8545SOL    HW126534   3.334   6.509   4.671
 8545SOL    HW226535   3.223   6.605   4.600
 8546SOL     OW26536   5.444   0.356   1.237
 8546SOL    HW126537   5.370   0.374   1.303
 8546SOL    HW226538   5.406   0.354   1.144
 8547SOL     OW26539   6.473   0.888   5.186
 8547SOL    HW126540   6.415   0.966   5.210
 8547SOL    HW226541   6.552   0.919   5.135
 8548SOL     OW26542   0.663   2.902   5.361
 8548SOL    HW126543   0.751   2.867   5.393
 8548SOL    HW226544   0.616   2.947   5.437
 8549SOL     OW26545   0.872   2.353   4.150
 8549SOL    HW126546   0.881   2.444   4.190
 8549SOL    HW226547   0.896   2.284   4.219
 8550SOL     OW26548   1.042   3.694   6.147
 8550SOL    HW126549   1.119   3.685   6.085
 8550SOL    HW226550   1.073   3.735   6.233
 8551SOL     OW26551   2.453   2.466   6.812
 8551SOL    HW126552   2.520   2.530   6.773
 8551SOL    HW226553   2.423   2.498   6.901
 8552SOL     OW26554   3.115   0.364   1.872
 8552SOL    HW126555   3.082   0.396   1.783
 8552SOL    HW226556   3.119   0.441   1.936
 8553SOL     OW26557   4.121   4.137   0.391
 8553SOL    HW126558   4.045   4.156   0.453
 8553SOL    HW226559   4.207   4.165   0.434
 8554SOL     OW26560   0.812   6.349   1.598
 8554SOL    HW126561   0.721   6.308   1.593
 8554SOL    HW226562   0.849   6.339   1.691
 8555SOL     OW26563   4.252   1.535   3.336
 8555SOL    HW126564   4.350   1.522   3.346
 8555SOL    HW226565   4.215   1.574   3.421
 8556SOL     OW26566   1.762   6.297   5.720
 8556SOL    HW126567   1.806   6.272   5.633
 8556SOL    HW226568   1.664   6.311   5.704
 8557SOL     OW26569   6.448   1.300   0.960
 8557SOL    HW126570   6.528   1.241   0.961
 8557SOL    HW226571   6.387   1.275   0.884
 8558SOL     OW26572   2.386   4.866   2.975
 8558SOL    HW126573   2.385   4.892   3.071
 8558SOL    HW226574   2.324   4.789   2.960
 8559SOL     OW26575   1.199   6.587   2.706
 8559SOL    HW126576   1.236   6.680   2.704
 8559SOL    HW226577   1.263   6.524   2.661
 8560SOL     OW26578   1.526   5.544   1.535
 8560SOL    HW126579   1.444   5.598   1.555
 8560SOL    HW226580   1.590   5.551   1.611
 8561SOL     OW26581   4.132   0.035   3.260
 8561SOL    HW126582   4.224   0.017   3.226
 8561SOL    HW226583   4.065   7.005   3.205
 8562SOL     OW26584   4.326   0.325   6.876
 8562SOL    HW126585   4.243   0.350   6.827
 8562SOL    HW226586   4.301   0.293   6.968
 8563SOL     OW26587   0.819   5.499   2.167
 8563SOL    HW126588   0.761   5.448   2.230
 8563SOL    HW226589   0.887   5.551   2.219
 8564SOL     OW26590   3.418   6.048   6.349
 8564SOL    HW126591   3.484   6.005   6.287
 8564SOL    HW226592   3.453   6.137   6.377
 8565SOL     OW26593   3.885   5.175   1.647
 8565SOL    HW126594   3.984   5.185   1.639
 8565SOL    HW226595   3.865   5.085   1.687
 8566SOL     OW26596   2.458   0.995   2.205
 8566SOL    HW126597   2.510   0.911   2.186
 8566SOL    HW226598   2.383   0.973   2.269
 8567SOL     OW26599   1.702   1.578   1.969
 8567SOL    HW126600   1.802   1.575   1.964
 8567SOL    HW226601   1.672   1.556   2.061
 8568SOL     OW26602   6.655   1.266   0.650
 8568SOL    HW126603   6.633   1.364   0.644
 8568SOL    HW226604   6.674   1.231   0.558
 8569SOL     OW26605   5.085   1.873   6.005
 8569SOL    HW126606   5.019   1.833   5.942
 8569SOL    HW226607   5.056   1.855   6.099
 8570SOL     OW26608   2.015   1.932   4.169
 8570SOL    HW126609   2.065   1.867   4.113
 8570SOL    HW226610   2.077   1.972   4.237
 8571SOL     OW26611   1.068   0.578   4.701
 8571SOL    HW126612   1.160   0.608   4.726
 8571SOL    HW226613   1.011   0.572   4.783
 8572SOL     OW26614   1.872   4.090   5.848
 8572SOL    HW126615   1.782   4.050   5.833
 8572SOL    HW226616   1.942   4.020   5.833
 8573SOL     OW26617   2.705   6.241   6.706
 8573SOL    HW126618   2.772   6.286   6.765
 8573SOL    HW226619   2.713   6.142   6.716
 8574SOL     OW26620   6.272   6.852   5.894
 8574SOL    HW126621   6.227   6.801   5.967
 8574SOL    HW226622   6.248   6.812   5.805
 8575SOL     OW26623   3.623   0.763   2.667
 8575SOL    HW126624   3.660   0.841   2.718
 8575SOL    HW226625   3.524   0.767   2.669
 8576SOL     OW26626   1.948   4.705   4.236
 8576SOL    HW126627   1.860   4.717   4.282
 8576SOL    HW226628   1.991   4.620   4.267
 8577SOL     OW26629   1.491   0.635   5.859
 8577SOL    HW126630   1.447   0.664   5.774
 8577SOL    HW226631   1.491   0.712   5.924
 8578SOL     OW26632   6.015   5.563   5.980
 8578SOL    HW126633   6.104   5.526   6.007
 8578SOL    HW226634   6.017   5.586   5.883
 8579SOL     OW26635   1.650   6.250   2.216
 8579SOL    HW126636   1.666   6.182   2.287
 8579SOL    HW226637   1.684   6.216   2.129
 8580SOL     OW26638   1.738   6.351   0.685
 8580SOL    HW126639   1.734   6.258   0.724
 8580SOL    HW226640   1.803   6.353   0.610
 8581SOL     OW26641   4.048   4.738   1.824
 8581SOL    HW126642   4.146   4.725   1.839
 8581SOL    HW226643   4.008   4.655   1.785
 8582SOL     OW26644   4.889   4.515   5.393
 8582SOL    HW126645   4.882   4.503   5.294
 8582SOL    HW226646   4.840   4.441   5.439
 8583SOL     OW26647   3.515   6.695   2.740
 8583SOL    HW126648   3.585   6.626   2.724
 8583SOL    HW226649   3.425   6.651   2.743
 8584SOL     OW26650   6.963   0.359   5.306
 8584SOL    HW126651   6.962   0.283   5.371
 8584SOL    HW226652   0.031   0.405   5.310
 8585SOL     OW26653   6.192   1.715   0.952
 8585SOL    HW126654   6.240   1.694   0.867
 8585SOL    HW226655   6.247   1.777   1.007
 8586SOL     OW26656   4.614   6.613   1.273
 8586SOL    HW126657   4.625   6.592   1.176
 8586SOL    HW226658   4.517   6.622   1.294
 8587SOL     OW26659   1.189   1.452   4.879
 8587SOL    HW126660   1.265   1.490   4.826
 8587SOL    HW226661   1.224   1.399   4.955
 8588SOL     OW26662   4.574   1.196   0.122
 8588SOL    HW126663   4.583   1.130   0.048
 8588SOL    HW226664   4.485   1.185   0.166
 8589SOL     OW26665   6.701   2.799   5.217
 8589SOL    HW126666   6.698   2.888   5.172
 8589SOL    HW226667   6.638   2.736   5.171
 8590SOL     OW26668   0.315   0.737   2.248
 8590SOL    HW126669   0.282   0.812   2.191
 8590SOL    HW226670   0.409   0.756   2.276
 8591SOL     OW26671   6.805   4.514   0.382
 8591SOL    HW126672   6.743   4.515   0.304
 8591SOL    HW226673   6.900   4.519   0.350
 8592SOL     OW26674   0.302   2.849   0.172
 8592SOL    HW126675   0.351   2.828   0.087
 8592SOL    HW226676   0.300   2.767   0.230
 8593SOL     OW26677   3.656   0.893   6.593
 8593SOL    HW126678   3.644   0.794   6.593
 8593SOL    HW226679   3.590   0.934   6.530
 8594SOL     OW26680   5.947   2.341   6.002
 8594SOL    HW126681   6.040   2.345   6.039
 8594SOL    HW226682   5.905   2.431   6.007
 8595SOL     OW26683   6.362   1.189   3.621
 8595SOL    HW126684   6.300   1.158   3.694
 8595SOL    HW226685   6.419   1.113   3.591
 8596SOL     OW26686   1.433   4.648   2.741
 8596SOL    HW126687   1.453   4.550   2.737
 8596SOL    HW226688   1.502   4.694   2.797
 8597SOL     OW26689   5.524   2.234   0.685
 8597SOL    HW126690   5.578   2.249   0.768
 8597SOL    HW226691   5.502   2.322   0.643
 8598SOL     OW26692   5.318   0.357   5.628
 8598SOL    HW126693   5.269   0.403   5.703
 8598SOL    HW226694   5.412   0.388   5.626
 8599SOL     OW26695   0.892   2.560   4.414
 8599SOL    HW126696   0.987   2.532   4.431
 8599SOL    HW226697   0.891   2.655   4.384
 8600SOL     OW26698   5.454   3.658   0.481
 8600SOL    HW126699   5.526   3.621   0.422
 8600SOL    HW226700   5.408   3.582   0.529
 8601SOL     OW26701   6.912   1.980   3.637
 8601SOL    HW126702   6.922   1.882   3.650
 8601SOL    HW226703   6.832   1.998   3.579
 8602SOL     OW26704   2.589   6.511   3.215
 8602SOL    HW126705   2.689   6.512   3.211
 8602SOL    HW226706   2.552   6.542   3.127
 8603SOL     OW26707   5.359   0.098   6.868
 8603SOL    HW126708   5.269   0.058   6.889
 8603SOL    HW226709   5.382   0.166   6.937
 8604SOL     OW26710   1.122   2.745   6.242
 8604SOL    HW126711   1.082   2.817   6.298
 8604SOL    HW226712   1.122   2.773   6.146
 8605SOL     OW26713   0.884   4.772   3.579
 8605SOL    HW126714   0.830   4.854   3.601
 8605SOL    HW226715   0.883   4.710   3.657
 8606SOL     OW26716   2.787   2.064   0.315
 8606SOL    HW126717   2.749   2.042   0.405
 8606SOL    HW226718   2.744   2.005   0.246
 8607SOL     OW26719   2.786   4.430   6.964
 8607SOL    HW126720   2.776   4.396   6.870
 8607SOL    HW226721   2.739   4.518   6.972
 8608SOL     OW26722   2.167   4.858   2.028
 8608SOL    HW126723   2.083   4.811   1.999
 8608SOL    HW226724   2.150   4.907   2.113
 8609SOL     OW26725   4.743   0.536   4.121
 8609SOL    HW126726   4.778   0.618   4.167
 8609SOL    HW226727   4.807   0.460   4.134
 8610SOL     OW26728   6.951   0.275   3.243
 8610SOL    HW126729   6.874   0.305   3.186
 8610SOL    HW226730   7.013   0.352   3.258
 8611SOL     OW26731   3.121   1.064   4.022
 8611SOL    HW126732   3.070   1.031   4.101
 8611SOL    HW226733   3.219   1.066   4.044
 8612SOL     OW26734   2.757   3.508   1.641
 8612SOL    HW126735   2.848   3.519   1.680
 8612SOL    HW226736   2.741   3.412   1.618
 8613SOL     OW26737   3.097   2.470   1.496
 8613SOL    HW126738   3.133   2.408   1.566
 8613SOL    HW226739   3.172   2.507   1.442
 8614SOL     OW26740   1.719   2.448   3.499
 8614SOL    HW126741   1.683   2.481   3.586
 8614SOL    HW226742   1.726   2.348   3.501
 8615SOL     OW26743   4.742   1.969   5.098
 8615SOL    HW126744   4.832   1.951   5.138
 8615SOL    HW226745   4.751   2.034   5.022
 8616SOL     OW26746   2.479   4.485   1.932
 8616SOL    HW126747   2.564   4.536   1.921
 8616SOL    HW226748   2.492   4.392   1.896
 8617SOL     OW26749   5.613   1.326   3.994
 8617SOL    HW126750   5.528   1.376   3.978
 8617SOL    HW226751   5.681   1.354   3.926
 8618SOL     OW26752   6.100   4.603   1.171
 8618SOL    HW126753   6.073   4.628   1.078
 8618SOL    HW226754   6.130   4.685   1.220
 8619SOL     OW26755   3.921   5.424   3.538
 8619SOL    HW126756   3.848   5.478   3.495
 8619SOL    HW226757   3.920   5.332   3.501
 8620SOL     OW26758   2.010   0.007   4.456
 8620SOL    HW126759   1.956   6.996   4.534
 8620SOL    HW226760   1.962   7.004   4.371
 8621SOL     OW26761   4.940   3.078   2.121
 8621SOL    HW126762   4.915   3.027   2.203
 8621SOL    HW226763   4.869   3.065   2.051
 8622SOL     OW26764   5.688   4.658   1.433
 8622SOL    HW126765   5.657   4.727   1.499
 8622SOL    HW226766   5.788   4.654   1.434
 8623SOL     OW26767   0.925   3.860   4.869
 8623SOL    HW126768   0.988   3.936   4.884
 8623SOL    HW226769   0.957   3.780   4.920
 8624SOL     OW26770   3.902   3.697   5.458
 8624SOL    HW126771   3.818   3.747   5.481
 8624SOL    HW226772   3.980   3.741   5.502
 8625SOL     OW26773   4.355   0.807   5.865
 8625SOL    HW126774   4.279   0.867   5.840
 8625SOL    HW226775   4.425   0.808   5.794
 8626SOL     OW26776   3.655   3.255   6.417
 8626SOL    HW126777   3.743   3.210   6.408
 8626SOL    HW226778   3.598   3.232   6.337
 8627SOL     OW26779   2.043   1.622   2.397
 8627SOL    HW126780   2.106   1.686   2.442
 8627SOL    HW226781   2.093   1.565   2.332
 8628SOL     OW26782   6.540   6.604   6.894
 8628SOL    HW126783   6.608   6.668   6.859
 8628SOL    HW226784   6.584   6.538   6.954
 8629SOL     OW26785   1.536   6.231   5.565
 8629SOL    HW126786   1.500   6.297   5.499
 8629SOL    HW226787   1.466   6.211   5.634
 8630SOL     OW26788   4.808   4.025   4.416
 8630SOL    HW126789   4.840   3.957   4.350
 8630SOL    HW226790   4.818   4.117   4.377
 8631SOL     OW26791   1.714   6.123   6.307
 8631SOL    HW126792   1.639   6.057   6.301
 8631SOL    HW226793   1.714   6.183   6.227
 8632SOL     OW26794   4.139   3.927   5.224
 8632SOL    HW126795   4.231   3.911   5.261
 8632SOL    HW226796   4.099   4.007   5.268
 8633SOL     OW26797   5.939   3.390   5.755
 8633SOL    HW126798   5.868   3.349   5.698
 8633SOL    HW226799   6.025   3.342   5.742
 8634SOL     OW26800   4.991   4.416   0.188
 8634SOL    HW126801   5.052   4.385   0.262
 8634SOL    HW226802   5.005   4.514   0.173
 8635SOL     OW26803   5.415   2.800   7.019
 8635SOL    HW126804   5.418   2.864   0.075
 8635SOL    HW226805   5.479   2.828   6.948
 8636SOL     OW26806   4.706   5.705   0.842
 8636SOL    HW126807   4.691   5.615   0.882
 8636SOL    HW226808   4.663   5.775   0.898
 8637SOL     OW26809   1.889   1.383   6.231
 8637SOL    HW126810   1.831   1.436   6.169
 8637SOL    HW226811   1.925   1.304   6.182
 8638SOL     OW26812   3.952   2.393   5.391
 8638SOL    HW126813   4.018   2.448   5.341
 8638SOL    HW226814   3.954   2.299   5.357
 8639SOL     OW26815   4.256   3.459   6.996
 8639SOL    HW126816   4.245   3.554   0.002
 8639SOL    HW226817   4.169   3.410   7.010
 8640SOL     OW26818   4.094   3.221   0.766
 8640SOL    HW126819   4.070   3.137   0.718
 8640SOL    HW226820   4.145   3.199   0.849
 8641SOL     OW26821   3.957   4.893   4.402
 8641SOL    HW126822   3.986   4.851   4.316
 8641SOL    HW226823   3.882   4.957   4.383
 8642SOL     OW26824   0.803   0.141   3.231
 8642SOL    HW126825   0.884   0.142   3.172
 8642SOL    HW226826   0.830   0.119   3.325
 8643SOL     OW26827   2.295   0.205   0.193
 8643SOL    HW126828   2.217   0.214   0.131
 8643SOL    HW226829   2.266   0.157   0.276
 8644SOL     OW26830   6.140   2.804   6.259
 8644SOL    HW126831   6.063   2.779   6.317
 8644SOL    HW226832   6.211   2.734   6.266
 8645SOL     OW26833   4.507   4.811   1.658
 8645SOL    HW126834   4.463   4.796   1.570
 8645SOL    HW226835   4.598   4.770   1.657
 8646SOL     OW26836   0.544   1.977   6.970
 8646SOL    HW126837   0.620   1.988   6.906
 8646SOL    HW226838   0.500   1.889   6.954
 8647SOL     OW26839   2.656   5.096   0.238
 8647SOL    HW126840   2.748   5.107   0.199
 8647SOL    HW226841   2.647   5.003   0.274
 8648SOL     OW26842   6.184   6.377   0.815
 8648SOL    HW126843   6.248   6.437   0.768
 8648SOL    HW226844   6.091   6.414   0.805
 8649SOL     OW26845   5.456   6.587   0.416
 8649SOL    HW126846   5.519   6.647   0.465
 8649SOL    HW226847   5.502   6.549   0.336
 8650SOL     OW26848   1.536   6.731   4.825
 8650SOL    HW126849   1.441   6.756   4.845
 8650SOL    HW226850   1.580   6.806   4.776
 8651SOL     OW26851   3.724   1.668   0.478
 8651SOL    HW126852   3.663   1.747   0.476
 8651SOL    HW226853   3.726   1.630   0.570
 8652SOL     OW26854   1.201   5.066   3.650
 8652SOL    HW126855   1.180   4.988   3.592
 8652SOL    HW226856   1.121   5.091   3.703
 8653SOL     OW26857   6.633   1.236   5.866
 8653SOL    HW126858   6.611   1.323   5.911
 8653SOL    HW226859   6.601   1.238   5.772
 8654SOL     OW26860   0.231   4.814   0.747
 8654SOL    HW126861   0.143   4.769   0.762
 8654SOL    HW226862   0.300   4.772   0.806
 8655SOL     OW26863   5.757   0.841   4.803
 8655SOL    HW126864   5.721   0.770   4.863
 8655SOL    HW226865   5.746   0.931   4.847
 8656SOL     OW26866   5.477   0.719   1.865
 8656SOL    HW126867   5.529   0.651   1.916
 8656SOL    HW226868   5.508   0.722   1.770
 8657SOL     OW26869   5.921   5.787   0.064
 8657SOL    HW126870   5.914   5.687   0.066
 8657SOL    HW226871   5.891   5.824   0.151
 8658SOL     OW26872   6.400   5.888   0.915
 8658SOL    HW126873   6.369   5.975   0.878
 8658SOL    HW226874   6.323   5.824   0.919
 8659SOL     OW26875   4.406   2.451   2.683
 8659SOL    HW126876   4.317   2.496   2.680
 8659SOL    HW226877   4.461   2.478   2.604
 8660SOL     OW26878   0.160   2.733   2.492
 8660SOL    HW126879   0.260   2.727   2.488
 8660SOL    HW226880   0.120   2.644   2.472
 8661SOL     OW26881   5.798   4.073   1.455
 8661SOL    HW126882   5.789   3.985   1.408
 8661SOL    HW226883   5.890   4.109   1.439
 8662SOL     OW26884   4.042   5.969   2.248
 8662SOL    HW126885   4.018   5.951   2.153
 8662SOL    HW226886   3.991   5.907   2.308
 8663SOL     OW26887   2.755   4.981   2.365
 8663SOL    HW126888   2.805   4.895   2.370
 8663SOL    HW226889   2.820   5.056   2.350
 8664SOL     OW26890   2.247   5.233   2.098
 8664SOL    HW126891   2.193   5.314   2.076
 8664SOL    HW226892   2.340   5.245   2.062
 8665SOL     OW26893   6.221   5.603   4.382
 8665SOL    HW126894   6.131   5.633   4.415
 8665SOL    HW226895   6.264   5.545   4.451
 8666SOL     OW26896   5.048   0.448   4.509
 8666SOL    HW126897   5.014   0.370   4.457
 8666SOL    HW226898   5.146   0.437   4.525
 8667SOL     OW26899   4.814   1.530   4.110
 8667SOL    HW126900   4.838   1.624   4.133
 8667SOL    HW226901   4.894   1.471   4.121
 8668SOL     OW26902   5.195   3.321   5.055
 8668SOL    HW126903   5.207   3.262   4.976
 8668SOL    HW226904   5.151   3.269   5.129
 8669SOL     OW26905   0.529   6.457   6.035
 8669SOL    HW126906   0.614   6.458   5.981
 8669SOL    HW226907   0.527   6.537   6.095
 8670SOL     OW26908   4.746   5.323   5.890
 8670SOL    HW126909   4.812   5.391   5.858
 8670SOL    HW226910   4.685   5.297   5.815
 8671SOL     OW26911   0.297   1.656   2.297
 8671SOL    HW126912   0.272   1.705   2.380
 8671SOL    HW226913   0.393   1.675   2.275
 8672SOL     OW26914   0.784   0.288   3.602
 8672SOL    HW126915   0.685   0.294   3.590
 8672SOL    HW226916   0.823   0.228   3.533
 8673SOL     OW26917   6.527   1.442   0.265
 8673SOL    HW126918   6.509   1.370   0.197
 8673SOL    HW226919   6.621   1.433   0.298
 8674SOL     OW26920   6.910   4.986   2.715
 8674SOL    HW126921   6.837   4.969   2.782
 8674SOL    HW226922   6.885   4.947   2.627
 8675SOL     OW26923   4.476   1.145   5.281
 8675SOL    HW126924   4.377   1.156   5.280
 8675SOL    HW226925   4.501   1.077   5.350
 8676SOL     OW26926   5.169   0.364   1.419
 8676SOL    HW126927   5.192   0.458   1.447
 8676SOL    HW226928   5.081   0.364   1.372
 8677SOL     OW26929   1.681   6.115   5.924
 8677SOL    HW126930   1.705   6.189   5.986
 8677SOL    HW226931   1.699   6.144   5.830
 8678SOL     OW26932   0.882   0.093   0.573
 8678SOL    HW126933   0.889   0.193   0.566
 8678SOL    HW226934   0.787   0.066   0.559
 8679SOL     OW26935   2.105   1.032   3.606
 8679SOL    HW126936   2.014   1.071   3.626
 8679SOL    HW226937   2.159   1.099   3.555
 8680SOL     OW26938   6.111   2.572   6.593
 8680SOL    HW126939   6.085   2.632   6.517
 8680SOL    HW226940   6.140   2.628   6.671
 8681SOL     OW26941   4.777   5.199   1.332
 8681SOL    HW126942   4.703   5.161   1.389
 8681SOL    HW226943   4.767   5.298   1.326
 8682SOL     OW26944   6.706   0.759   1.213
 8682SOL    HW126945   6.790   0.706   1.222
 8682SOL    HW226946   6.628   0.696   1.210
 8683SOL     OW26947   1.662   2.837   5.006
 8683SOL    HW126948   1.597   2.824   4.931
 8683SOL    HW226949   1.693   2.932   5.007
 8684SOL     OW26950   0.020   2.927   4.518
 8684SOL    HW126951   6.946   2.896   4.534
 8684SOL    HW226952   0.040   3.004   4.578
 8685SOL     OW26953   5.491   3.364   6.827
 8685SOL    HW126954   5.392   3.374   6.816
 8685SOL    HW226955   5.510   3.294   6.896
 8686SOL     OW26956   6.037   6.855   2.111
 8686SOL    HW126957   5.971   6.881   2.041
 8686SOL    HW226958   6.066   6.760   2.096
 8687SOL     OW26959   5.850   5.054   3.117
 8687SOL    HW126960   5.787   5.025   3.045
 8687SOL    HW226961   5.852   5.153   3.121
 8688SOL     OW26962   1.067   3.833   6.803
 8688SOL    HW126963   1.115   3.895   6.864
 8688SOL    HW226964   1.134   3.776   6.754
 8689SOL     OW26965   4.417   3.203   0.250
 8689SOL    HW126966   4.438   3.296   0.220
 8689SOL    HW226967   4.395   3.203   0.347
 8690SOL     OW26968   0.764   2.827   2.885
 8690SOL    HW126969   0.770   2.815   2.786
 8690SOL    HW226970   0.695   2.766   2.922
 8691SOL     OW26971   3.066   2.023   5.339
 8691SOL    HW126972   3.055   2.070   5.252
 8691SOL    HW226973   2.986   2.039   5.396
 8692SOL     OW26974   3.663   0.617   4.809
 8692SOL    HW126975   3.695   0.538   4.860
 8692SOL    HW226976   3.620   0.683   4.871
 8693SOL     OW26977   6.109   1.257   5.966
 8693SOL    HW126978   6.036   1.267   6.034
 8693SOL    HW226979   6.094   1.322   5.892
 8694SOL     OW26980   5.979   2.077   4.929
 8694SOL    HW126981   6.020   2.167   4.939
 8694SOL    HW226982   5.905   2.081   4.862
 8695SOL     OW26983   4.202   2.788   5.906
 8695SOL    HW126984   4.106   2.805   5.928
 8695SOL    HW226985   4.235   2.858   5.843
 8696SOL     OW26986   2.444   5.889   5.099
 8696SOL    HW126987   2.386   5.811   5.077
 8696SOL    HW226988   2.525   5.858   5.148
 8697SOL     OW26989   0.426   4.316   6.193
 8697SOL    HW126990   0.507   4.269   6.158
 8697SOL    HW226991   0.417   4.404   6.147
 8698SOL     OW26992   5.445   6.220   5.433
 8698SOL    HW126993   5.449   6.309   5.479
 8698SOL    HW226994   5.512   6.158   5.475
 8699SOL     OW26995   1.941   2.919   6.111
 8699SOL    HW126996   2.027   2.970   6.123
 8699SOL    HW226997   1.956   2.845   6.046
 8700SOL     OW26998   1.497   1.091   5.015
 8700SOL    HW126999   1.475   1.102   5.112
 8700SOL    HW227000   1.591   1.061   5.005
 8701SOL     OW27001   1.925   1.201   0.021
 8701SOL    HW127002   1.839   1.180   6.996
 8701SOL    HW227003   2.002   1.172   6.983
 8702SOL     OW27004   5.125   4.874   1.997
 8702SOL    HW127005   5.125   4.819   1.914
 8702SOL    HW227006   5.099   4.817   2.075
 8703SOL     OW27007   3.114   5.195   6.488
 8703SOL    HW127008   3.024   5.151   6.489
 8703SOL    HW227009   3.104   5.293   6.508
 8704SOL     OW27010   6.574   3.850   3.465
 8704SOL    HW127011   6.555   3.753   3.454
 8704SOL    HW227012   6.672   3.866   3.462
 8705SOL     OW27013   4.694   1.640   6.113
 8705SOL    HW127014   4.651   1.611   6.199
 8705SOL    HW227015   4.662   1.732   6.090
 8706SOL     OW27016   5.207   2.044   0.013
 8706SOL    HW127017   5.258   1.987   0.077
 8706SOL    HW227018   5.111   2.015   0.011
 8707SOL     OW27019   0.916   2.892   4.363
 8707SOL    HW127020   1.006   2.876   4.323
 8707SOL    HW227021   0.889   2.987   4.346
 8708SOL     OW27022   4.038   1.656   4.220
 8708SOL    HW127023   4.130   1.622   4.236
 8708SOL    HW227024   3.971   1.586   4.245
 8709SOL     OW27025   6.900   6.932   6.637
 8709SOL    HW127026   6.982   6.961   6.587
 8709SOL    HW227027   6.878   7.002   6.706
 8710SOL     OW27028   2.064   2.613   3.522
 8710SOL    HW127029   2.162   2.628   3.525
 8710SOL    HW227030   2.033   2.577   3.610
 8711SOL     OW27031   1.548   6.260   1.911
 8711SOL    HW127032   1.624   6.326   1.913
 8711SOL    HW227033   1.548   6.213   1.823
 8712SOL     OW27034   3.262   1.384   4.071
 8712SOL    HW127035   3.326   1.446   4.025
 8712SOL    HW227036   3.187   1.361   4.009
 8713SOL     OW27037   6.878   4.372   1.334
 8713SOL    HW127038   6.946   4.310   1.294
 8713SOL    HW227039   6.911   4.466   1.328
 8714SOL     OW27040   0.862   6.921   6.742
 8714SOL    HW127041   0.936   6.981   6.711
 8714SOL    HW227042   0.887   6.826   6.724
 8715SOL     OW27043   3.889   1.449   6.658
 8715SOL    HW127044   3.832   1.431   6.578
 8715SOL    HW227045   3.915   1.546   6.659
 8716SOL     OW27046   0.548   6.492   1.049
 8716SOL    HW127047   0.505   6.581   1.066
 8716SOL    HW227048   0.479   6.420   1.051
 8717SOL     OW27049   1.701   3.766   6.001
 8717SOL    HW127050   1.714   3.855   6.044
 8717SOL    HW227051   1.781   3.709   6.019
 8718SOL     OW27052   2.415   2.906   6.712
 8718SOL    HW127053   2.378   2.899   6.805
 8718SOL    HW227054   2.375   2.834   6.655
 8719SOL     OW27055   4.420   0.538   0.138
 8719SOL    HW127056   4.336   0.495   0.171
 8719SOL    HW227057   4.426   0.527   0.039
 8720SOL     OW27058   6.899   5.853   6.278
 8720SOL    HW127059   6.988   5.814   6.256
 8720SOL    HW227060   6.882   5.843   6.376
 8721SOL     OW27061   6.279   0.203   0.151
 8721SOL    HW127062   6.367   0.240   0.181
 8721SOL    HW227063   6.283   0.181   0.053
 8722SOL     OW27064   3.601   0.960   6.928
 8722SOL    HW127065   3.515   0.924   6.964
 8722SOL    HW227066   3.669   0.963   7.001
 8723SOL     OW27067   5.542   6.951   2.316
 8723SOL    HW127068   5.607   6.893   2.364
 8723SOL    HW227069   5.451   6.939   2.356
 8724SOL     OW27070   5.837   0.859   4.305
 8724SOL    HW127071   5.843   0.762   4.328
 8724SOL    HW227072   5.923   0.889   4.264
 8725SOL     OW27073   0.757   6.223   5.240
 8725SOL    HW127074   0.667   6.228   5.284
 8725SOL    HW227075   0.824   6.190   5.306
 8726SOL     OW27076   6.534   0.567   0.356
 8726SOL    HW127077   6.502   0.493   0.415
 8726SOL    HW227078   6.466   0.641   0.355
 8727SOL     OW27079   5.672   6.713   6.782
 8727SOL    HW127080   5.631   6.708   6.691
 8727SOL    HW227081   5.634   6.791   6.832
 8728SOL     OW27082   5.396   1.726   2.139
 8728SOL    HW127083   5.355   1.669   2.067
 8728SOL    HW227084   5.418   1.669   2.218
 8729SOL     OW27085   2.902   5.381   5.598
 8729SOL    HW127086   2.874   5.443   5.525
 8729SOL    HW227087   2.975   5.424   5.651
 8730SOL     OW27088   5.236   4.507   3.594
 8730SOL    HW127089   5.231   4.434   3.526
 8730SOL    HW227090   5.331   4.521   3.621
 8731SOL     OW27091   0.665   2.978   3.155
 8731SOL    HW127092   0.737   2.953   3.090
 8731SOL    HW227093   0.613   2.896   3.180
 8732SOL     OW27094   5.797   4.468   2.172
 8732SOL    HW127095   5.776   4.443   2.267
 8732SOL    HW227096   5.715   4.459   2.116
 8733SOL     OW27097   0.928   6.084   0.726
 8733SOL    HW127098   0.930   6.113   0.822
 8733SOL    HW227099   1.010   6.118   0.679
 8734SOL     OW27100   6.577   3.090   2.400
 8734SOL    HW127101   6.545   3.004   2.361
 8734SOL    HW227102   6.660   3.119   2.352
 8735SOL     OW27103   0.993   3.308   5.348
 8735SOL    HW127104   0.957   3.274   5.434
 8735SOL    HW227105   1.016   3.405   5.357
 8736SOL     OW27106   0.595   5.347   2.285
 8736SOL    HW127107   0.581   5.262   2.335
 8736SOL    HW227108   0.581   5.425   2.346
 8737SOL     OW27109   2.511   6.519   6.777
 8737SOL    HW127110   2.494   6.432   6.822
 8737SOL    HW227111   2.512   6.592   6.846
 8738SOL     OW27112   2.204   5.041   3.439
 8738SOL    HW127113   2.133   5.000   3.382
 8738SOL    HW227114   2.208   5.139   3.423
 8739SOL     OW27115   5.582   4.577   5.707
 8739SOL    HW127116   5.602   4.513   5.781
 8739SOL    HW227117   5.496   4.624   5.725
 8740SOL     OW27118   3.636   2.077   2.816
 8740SOL    HW127119   3.584   2.156   2.782
 8740SOL    HW227120   3.700   2.047   2.745
 8741SOL     OW27121   2.226   0.307   2.696
 8741SOL    HW127122   2.280   0.224   2.685
 8741SOL    HW227123   2.159   0.294   2.768
 8742SOL     OW27124   3.877   0.013   1.876
 8742SOL    HW127125   3.798   0.038   1.821
 8742SOL    HW227126   3.916   0.095   1.918
 8743SOL     OW27127   1.860   0.784   1.238
 8743SOL    HW127128   1.853   0.835   1.323
 8743SOL    HW227129   1.831   0.843   1.162
 8744SOL     OW27130   4.557   2.836   0.441
 8744SOL    HW127131   4.531   2.924   0.481
 8744SOL    HW227132   4.654   2.818   0.462
 8745SOL     OW27133   6.483   2.623   6.634
 8745SOL    HW127134   6.549   2.617   6.559
 8745SOL    HW227135   6.436   2.536   6.645
 8746SOL     OW27136   4.763   5.631   4.818
 8746SOL    HW127137   4.844   5.586   4.856
 8746SOL    HW227138   4.776   5.730   4.820
 8747SOL     OW27139   6.982   1.271   2.468
 8747SOL    HW127140   6.970   1.360   2.512
 8747SOL    HW227141   6.915   1.207   2.504
 8748SOL     OW27142   0.688   2.438   4.519
 8748SOL    HW127143   0.759   2.494   4.477
 8748SOL    HW227144   0.706   2.431   4.617
 8749SOL     OW27145   1.890   1.080   5.176
 8749SOL    HW127146   1.840   1.057   5.092
 8749SOL    HW227147   1.986   1.097   5.154
 8750SOL     OW27148   3.958   3.433   5.448
 8750SOL    HW127149   4.044   3.406   5.491
 8750SOL    HW227150   3.947   3.532   5.455
 8751SOL     OW27151   6.956   0.621   1.204
 8751SOL    HW127152   0.013   0.594   1.260
 8751SOL    HW227153   6.988   0.677   1.127
 8752SOL     OW27154   4.489   3.151   6.309
 8752SOL    HW127155   4.399   3.134   6.270
 8752SOL    HW227156   4.490   3.241   6.353
 8753SOL     OW27157   2.371   3.542   6.976
 8753SOL    HW127158   2.282   3.495   6.976
 8753SOL    HW227159   2.433   3.495   6.912
 8754SOL     OW27160   3.053   4.745   5.890
 8754SOL    HW127161   3.093   4.768   5.802
 8754SOL    HW227162   3.076   4.650   5.913
 8755SOL     OW27163   2.262   1.162   1.079
 8755SOL    HW127164   2.341   1.120   1.125
 8755SOL    HW227165   2.294   1.222   1.006
 8756SOL     OW27166   1.555   2.904   3.490
 8756SOL    HW127167   1.611   2.918   3.571
 8756SOL    HW227168   1.537   2.806   3.478
 8757SOL     OW27169   5.338   5.835   6.472
 8757SOL    HW127170   5.284   5.809   6.392
 8757SOL    HW227171   5.278   5.835   6.553
 8758SOL     OW27172   4.868   6.319   3.468
 8758SOL    HW127173   4.942   6.386   3.467
 8758SOL    HW227174   4.844   6.293   3.375
 8759SOL     OW27175   6.106   2.041   6.790
 8759SOL    HW127176   6.161   2.112   6.745
 8759SOL    HW227177   6.094   2.065   6.887
 8760SOL     OW27178   2.454   1.764   4.421
 8760SOL    HW127179   2.381   1.728   4.479
 8760SOL    HW227180   2.528   1.697   4.414
 8761SOL     OW27181   6.118   1.780   1.754
 8761SOL    HW127182   6.172   1.724   1.691
 8761SOL    HW227183   6.060   1.843   1.702
 8762SOL     OW27184   1.170   5.752   4.104
 8762SOL    HW127185   1.237   5.679   4.120
 8762SOL    HW227186   1.078   5.712   4.097
 8763SOL     OW27187   5.735   0.184   5.227
 8763SOL    HW127188   5.749   0.169   5.129
 8763SOL    HW227189   5.754   0.280   5.248
 8764SOL     OW27190   4.918   5.977   5.788
 8764SOL    HW127191   4.832   5.989   5.838
 8764SOL    HW227192   4.984   6.046   5.818
 8765SOL     OW27193   5.669   1.037   4.962
 8765SOL    HW127194   5.672   1.137   4.969
 8765SOL    HW227195   5.706   0.997   5.045
 8766SOL     OW27196   4.127   4.185   5.306
 8766SOL    HW127197   4.165   4.273   5.277
 8766SOL    HW227198   4.027   4.190   5.304
 8767SOL     OW27199   3.920   6.975   3.122
 8767SOL    HW127200   3.901   6.984   3.024
 8767SOL    HW227201   3.869   6.897   3.159
 8768SOL     OW27202   0.846   2.128   0.933
 8768SOL    HW127203   0.914   2.073   0.885
 8768SOL    HW227204   0.772   2.069   0.964
 8769SOL     OW27205   0.497   1.176   1.902
 8769SOL    HW127206   0.582   1.216   1.867
 8769SOL    HW227207   0.487   1.199   1.999
 8770SOL     OW27208   5.346   4.599   2.091
 8770SOL    HW127209   5.318   4.655   2.170
 8770SOL    HW227210   5.265   4.565   2.044
 8771SOL     OW27211   0.264   2.852   6.355
 8771SOL    HW127212   0.314   2.901   6.283
 8771SOL    HW227213   0.170   2.886   6.358
 8772SOL     OW27214   4.721   0.514   5.916
 8772SOL    HW127215   4.763   0.446   5.976
 8772SOL    HW227216   4.774   0.521   5.831
 8773SOL     OW27217   5.517   2.660   3.059
 8773SOL    HW127218   5.530   2.719   2.980
 8773SOL    HW227219   5.595   2.668   3.121
 8774SOL     OW27220   0.434   0.282   6.838
 8774SOL    HW127221   0.435   0.333   6.752
 8774SOL    HW227222   0.349   0.229   6.845
 8775SOL     OW27223   5.365   1.197   5.446
 8775SOL    HW127224   5.272   1.164   5.463
 8775SOL    HW227225   5.411   1.133   5.384
 8776SOL     OW27226   5.067   3.257   1.655
 8776SOL    HW127227   5.129   3.224   1.584
 8776SOL    HW227228   5.121   3.303   1.726
 8777SOL     OW27229   0.511   3.638   3.398
 8777SOL    HW127230   0.433   3.676   3.447
 8777SOL    HW227231   0.489   3.547   3.364
 8778SOL     OW27232   4.965   3.388   5.934
 8778SOL    HW127233   5.046   3.446   5.924
 8778SOL    HW227234   4.891   3.441   5.975
 8779SOL     OW27235   2.978   5.402   2.661
 8779SOL    HW127236   2.904   5.343   2.628
 8779SOL    HW227237   2.973   5.408   2.761
 8780SOL     OW27238   0.528   6.497   3.319
 8780SOL    HW127239   0.553   6.508   3.415
 8780SOL    HW227240   0.604   6.457   3.269
 8781SOL     OW27241   4.646   6.894   3.054
 8781SOL    HW127242   4.634   6.979   3.003
 8781SOL    HW227243   4.718   6.840   3.012
 8782SOL     OW27244   5.878   1.460   1.703
 8782SOL    HW127245   5.794   1.454   1.756
 8782SOL    HW227246   5.957   1.456   1.764
 8783SOL     OW27247   6.517   4.053   3.987
 8783SOL    HW127248   6.558   3.963   3.975
 8783SOL    HW227249   6.459   4.075   3.908
 8784SOL     OW27250   6.591   6.138   0.649
 8784SOL    HW127251   6.615   6.067   0.583
 8784SOL    HW227252   6.507   6.112   0.697
 8785SOL     OW27253   0.065   4.899   6.129
 8785SOL    HW127254   0.061   4.811   6.176
 8785SOL    HW227255   7.002   4.911   6.074
 8786SOL     OW27256   3.521   1.641   2.072
 8786SOL    HW127257   3.539   1.615   2.167
 8786SOL    HW227258   3.427   1.672   2.062
 8787SOL     OW27259   3.510   0.728   2.358
 8787SOL    HW127260   3.589   0.788   2.351
 8787SOL    HW227261   3.522   0.666   2.435
 8788SOL     OW27262   6.749   1.111   5.268
 8788SOL    HW127263   6.729   1.074   5.359
 8788SOL    HW227264   6.682   1.182   5.245
 8789SOL     OW27265   6.726   4.408   5.332
 8789SOL    HW127266   6.689   4.317   5.313
 8789SOL    HW227267   6.803   4.400   5.395
 8790SOL     OW27268   6.704   1.282   6.469
 8790SOL    HW127269   6.649   1.358   6.436
 8790SOL    HW227270   6.753   1.309   6.551
 8791SOL     OW27271   4.840   6.470   5.236
 8791SOL    HW127272   4.898   6.539   5.192
 8791SOL    HW227273   4.764   6.447   5.175
 8792SOL     OW27274   3.143   4.971   2.979
 8792SOL    HW127275   3.081   5.049   2.977
 8792SOL    HW227276   3.120   4.908   2.904
 8793SOL     OW27277   0.744   4.999   3.614
 8793SOL    HW127278   0.655   5.041   3.635
 8793SOL    HW227279   0.751   4.986   3.515
 8794SOL     OW27280   6.436   0.916   3.512
 8794SOL    HW127281   6.469   0.846   3.576
 8794SOL    HW227282   6.336   0.910   3.506
 8795SOL     OW27283   1.073   4.911   4.768
 8795SOL    HW127284   1.019   4.939   4.848
 8795SOL    HW227285   1.169   4.906   4.794
 8796SOL     OW27286   6.188   3.600   3.342
 8796SOL    HW127287   6.108   3.542   3.360
 8796SOL    HW227288   6.240   3.561   3.265
 8797SOL     OW27289   0.090   0.329   4.263
 8797SOL    HW127290   0.054   0.415   4.299
 8797SOL    HW227291   0.190   0.334   4.261
 8798SOL     OW27292   4.461   6.291   5.914
 8798SOL    HW127293   4.395   6.220   5.936
 8798SOL    HW227294   4.452   6.366   5.980
 8799SOL     OW27295   2.883   4.748   2.445
 8799SOL    HW127296   2.838   4.782   2.527
 8799SOL    HW227297   2.894   4.649   2.451
 8800SOL     OW27298   5.738   5.333   5.505
 8800SOL    HW127299   5.832   5.366   5.517
 8800SOL    HW227300   5.697   5.318   5.595
 8801SOL     OW27301   6.056   1.835   4.792
 8801SOL    HW127302   6.055   1.921   4.844
 8801SOL    HW227303   6.104   1.849   4.705
 8802SOL     OW27304   1.477   5.389   5.576
 8802SOL    HW127305   1.500   5.459   5.508
 8802SOL    HW227306   1.526   5.408   5.661
 8803SOL     OW27307   6.540   0.811   0.046
 8803SOL    HW127308   6.564   0.714   0.044
 8803SOL    HW227309   6.556   0.851   6.977
 8804SOL     OW27310   1.729   6.282   1.065
 8804SOL    HW127311   1.703   6.349   1.134
 8804SOL    HW227312   1.672   6.293   0.984
 8805SOL     OW27313   3.764   5.494   3.960
 8805SOL    HW127314   3.811   5.494   3.871
 8805SOL    HW227315   3.760   5.588   3.994
 8806SOL     OW27316   2.241   4.924   0.632
 8806SOL    HW127317   2.176   4.899   0.704
 8806SOL    HW227318   2.320   4.862   0.636
 8807SOL     OW27319   4.479   1.764   6.602
 8807SOL    HW127320   4.543   1.687   6.594
 8807SOL    HW227321   4.504   1.821   6.680
 8808SOL     OW27322   0.271   2.322   6.567
 8808SOL    HW127323   0.175   2.299   6.585
 8808SOL    HW227324   0.303   2.387   6.637
 8809SOL     OW27325   2.387   4.317   3.469
 8809SOL    HW127326   2.458   4.283   3.530
 8809SOL    HW227327   2.364   4.246   3.402
 8810SOL     OW27328   5.728   1.022   5.235
 8810SOL    HW127329   5.786   1.087   5.185
 8810SOL    HW227330   5.787   0.959   5.286
 8811SOL     OW27331   3.793   0.323   2.961
 8811SOL    HW127332   3.728   0.270   3.014
 8811SOL    HW227333   3.751   0.409   2.931
 8812SOL     OW27334   3.264   0.622   0.023
 8812SOL    HW127335   3.354   0.587   7.014
 8812SOL    HW227336   3.214   0.654   6.963
 8813SOL     OW27337   1.734   4.408   2.621
 8813SOL    HW127338   1.785   4.454   2.694
 8813SOL    HW227339   1.791   4.402   2.539
 8814SOL     OW27340   5.633   6.785   0.525
 8814SOL    HW127341   5.730   6.789   0.548
 8814SOL    HW227342   5.606   6.871   0.482
 8815SOL     OW27343   5.345   0.105   1.540
 8815SOL    HW127344   5.287   0.156   1.477
 8815SOL    HW227345   5.395   0.170   1.599
 8816SOL     OW27346   0.611   6.979   6.791
 8816SOL    HW127347   0.707   6.970   6.765
 8816SOL    HW227348   0.566   6.890   6.787
 8817SOL     OW27349   0.200   3.518   4.085
 8817SOL    HW127350   0.224   3.425   4.110
 8817SOL    HW227351   0.204   3.577   4.166
 8818SOL     OW27352   0.743   6.331   3.544
 8818SOL    HW127353   0.665   6.384   3.577
 8818SOL    HW227354   0.809   6.392   3.500
 8819SOL     OW27355   5.844   4.814   5.392
 8819SOL    HW127356   5.918   4.791   5.454
 8819SOL    HW227357   5.881   4.854   5.308
 8820SOL     OW27358   2.733   1.794   4.638
 8820SOL    HW127359   2.722   1.886   4.601
 8820SOL    HW227360   2.826   1.783   4.673
 8821SOL     OW27361   1.536   5.289   0.103
 8821SOL    HW127362   1.626   5.318   0.070
 8821SOL    HW227363   1.471   5.363   0.092
 8822SOL     OW27364   0.585   0.299   3.251
 8822SOL    HW127365   0.502   0.255   3.285
 8822SOL    HW227366   0.662   0.235   3.260
 8823SOL     OW27367   2.577   0.756   2.169
 8823SOL    HW127368   2.516   0.679   2.187
 8823SOL    HW227369   2.655   0.725   2.114
 8824SOL     OW27370   0.947   0.793   1.080
 8824SOL    HW127371   0.961   0.867   1.015
 8824SOL    HW227372   1.036   0.759   1.111
 8825SOL     OW27373   0.578   0.581   1.701
 8825SOL    HW127374   0.494   0.597   1.752
 8825SOL    HW227375   0.648   0.647   1.730
 8826SOL     OW27376   0.935   3.222   1.425
 8826SOL    HW127377   0.839   3.195   1.440
 8826SOL    HW227378   0.991   3.187   1.499
 8827SOL     OW27379   3.811   0.149   2.714
 8827SOL    HW127380   3.816   0.201   2.798
 8827SOL    HW227381   3.731   0.089   2.717
 8828SOL     OW27382   3.434   4.672   6.541
 8828SOL    HW127383   3.354   4.661   6.600
 8828SOL    HW227384   3.509   4.713   6.593
 8829SOL     OW27385   6.116   2.125   1.370
 8829SOL    HW127386   6.132   2.166   1.460
 8829SOL    HW227387   6.142   2.029   1.372
 8830SOL     OW27388   1.798   1.917   3.014
 8830SOL    HW127389   1.825   1.962   2.929
 8830SOL    HW227390   1.852   1.834   3.026
 8831SOL     OW27391   5.855   3.091   2.527
 8831SOL    HW127392   5.859   3.117   2.624
 8831SOL    HW227393   5.767   3.048   2.508
 8832SOL     OW27394   0.625   6.407   4.213
 8832SOL    HW127395   0.556   6.479   4.210
 8832SOL    HW227396   0.601   6.341   4.284
 8833SOL     OW27397   3.640   3.811   0.313
 8833SOL    HW127398   3.615   3.888   0.254
 8833SOL    HW227399   3.734   3.824   0.346
 8834SOL     OW27400   6.123   3.471   5.082
 8834SOL    HW127401   6.057   3.485   5.008
 8834SOL    HW227402   6.079   3.423   5.158
 8835SOL     OW27403   5.868   1.604   6.652
 8835SOL    HW127404   5.814   1.580   6.732
 8835SOL    HW227405   5.944   1.663   6.679
 8836SOL     OW27406   5.286   2.367   0.186
 8836SOL    HW127407   5.295   2.284   0.241
 8836SOL    HW227408   5.205   2.361   0.128
 8837SOL     OW27409   6.813   6.999   1.735
 8837SOL    HW127410   6.732   6.941   1.747
 8837SOL    HW227411   6.821   0.007   1.640
 8838SOL     OW27412   0.737   4.737   2.367
 8838SOL    HW127413   0.652   4.758   2.319
 8838SOL    HW227414   0.722   4.661   2.430
 8839SOL     OW27415   3.771   5.468   2.525
 8839SOL    HW127416   3.677   5.465   2.559
 8839SOL    HW227417   3.815   5.553   2.557
 8840SOL     OW27418   5.713   0.248   1.827
 8840SOL    HW127419   5.800   0.199   1.831
 8840SOL    HW227420   5.698   0.282   1.734
 8841SOL     OW27421   5.169   1.393   2.604
 8841SOL    HW127422   5.262   1.393   2.642
 8841SOL    HW227423   5.103   1.399   2.678
 8842SOL     OW27424   3.274   3.768   3.657
 8842SOL    HW127425   3.323   3.849   3.623
 8842SOL    HW227426   3.177   3.789   3.665
 8843SOL     OW27427   1.610   3.091   4.314
 8843SOL    HW127428   1.654   3.046   4.392
 8843SOL    HW227429   1.542   3.029   4.274
 8844SOL     OW27430   0.134   1.740   4.676
 8844SOL    HW127431   0.098   1.663   4.625
 8844SOL    HW227432   0.107   1.733   4.772
 8845SOL     OW27433   2.584   4.839   0.318
 8845SOL    HW127434   2.636   4.825   0.402
 8845SOL    HW227435   2.522   4.762   0.303
 8846SOL     OW27436   5.384   4.649   4.399
 8846SOL    HW127437   5.395   4.748   4.398
 8846SOL    HW227438   5.304   4.625   4.453
 8847SOL     OW27439   1.985   1.059   3.122
 8847SOL    HW127440   1.995   1.014   3.033
 8847SOL    HW227441   1.996   0.991   3.195
 8848SOL     OW27442   3.134   1.915   2.176
 8848SOL    HW127443   3.089   2.004   2.182
 8848SOL    HW227444   3.181   1.896   2.262
 8849SOL     OW27445   3.160   4.886   3.515
 8849SOL    HW127446   3.159   4.981   3.547
 8849SOL    HW227447   3.254   4.853   3.510
 8850SOL     OW27448   2.671   1.164   0.823
 8850SOL    HW127449   2.691   1.183   0.726
 8850SOL    HW227450   2.640   1.247   0.868
 8851SOL     OW27451   1.213   4.469   1.997
 8851SOL    HW127452   1.195   4.484   2.094
 8851SOL    HW227453   1.167   4.386   1.967
 8852SOL     OW27454   4.930   3.242   6.162
 8852SOL    HW127455   5.009   3.180   6.164
 8852SOL    HW227456   4.923   3.285   6.072
 8853SOL     OW27457   3.275   0.585   4.326
 8853SOL    HW127458   3.227   0.516   4.380
 8853SOL    HW227459   3.220   0.610   4.246
 8854SOL     OW27460   2.527   0.661   6.439
 8854SOL    HW127461   2.615   0.641   6.482
 8854SOL    HW227462   2.456   0.664   6.509
 8855SOL     OW27463   0.124   6.292   0.429
 8855SOL    HW127464   0.116   6.268   0.526
 8855SOL    HW227465   0.154   6.387   0.420
 8856SOL     OW27466   6.084   0.078   5.732
 8856SOL    HW127467   6.072   0.164   5.782
 8856SOL    HW227468   6.023   0.009   5.770
 8857SOL     OW27469   6.350   1.974   3.732
 8857SOL    HW127470   6.279   1.928   3.787
 8857SOL    HW227471   6.321   1.976   3.636
 8858SOL     OW27472   2.152   3.358   5.572
 8858SOL    HW127473   2.101   3.419   5.511
 8858SOL    HW227474   2.100   3.273   5.584
 8859SOL     OW27475   0.068   6.874   5.290
 8859SOL    HW127476   0.044   6.914   5.202
 8859SOL    HW227477   0.033   6.933   5.363
 8860SOL     OW27478   1.823   4.105   2.961
 8860SOL    HW127479   1.776   4.190   2.940
 8860SOL    HW227480   1.770   4.028   2.925
 8861SOL     OW27481   3.430   2.361   6.321
 8861SOL    HW127482   3.337   2.336   6.347
 8861SOL    HW227483   3.431   2.453   6.282
 8862SOL     OW27484   6.358   1.472   3.589
 8862SOL    HW127485   6.327   1.501   3.679
 8862SOL    HW227486   6.395   1.379   3.594
 8863SOL     OW27487   1.668   5.746   4.668
 8863SOL    HW127488   1.583   5.794   4.690
 8863SOL    HW227489   1.706   5.707   4.752
 8864SOL     OW27490   2.324   3.425   6.512
 8864SOL    HW127491   2.297   3.331   6.531
 8864SOL    HW227492   2.295   3.485   6.586
 8865SOL     OW27493   2.991   1.731   4.773
 8865SOL    HW127494   3.079   1.682   4.780
 8865SOL    HW227495   2.958   1.753   4.864
 8866SOL     OW27496   5.123   6.815   3.936
 8866SOL    HW127497   5.100   6.801   4.032
 8866SOL    HW227498   5.068   6.753   3.879
 8867SOL     OW27499   5.142   2.862   2.658
 8867SOL    HW127500   5.055   2.829   2.621
 8867SOL    HW227501   5.124   2.932   2.727
 8868SOL     OW27502   6.030   3.857   0.604
 8868SOL    HW127503   6.101   3.926   0.614
 8868SOL    HW227504   5.946   3.889   0.648
 8869SOL     OW27505   4.339   5.492   3.487
 8869SOL    HW127506   4.371   5.397   3.480
 8869SOL    HW227507   4.414   5.550   3.520
 8870SOL     OW27508   3.472   0.135   0.395
 8870SOL    HW127509   3.528   0.126   0.313
 8870SOL    HW227510   3.509   0.207   0.453
 8871SOL     OW27511   3.588   1.229   3.913
 8871SOL    HW127512   3.655   1.156   3.903
 8871SOL    HW227513   3.546   1.249   3.824
 8872SOL     OW27514   1.801   3.975   4.252
 8872SOL    HW127515   1.732   3.995   4.321
 8872SOL    HW227516   1.878   3.927   4.294
 8873SOL     OW27517   6.465   6.305   1.806
 8873SOL    HW127518   6.528   6.255   1.865
 8873SOL    HW227519   6.377   6.317   1.853
 8874SOL     OW27520   1.957   6.803   1.059
 8874SOL    HW127521   1.875   6.832   1.008
 8874SOL    HW227522   1.960   6.703   1.062
 8875SOL     OW27523   1.125   2.878   5.105
 8875SOL    HW127524   1.040   2.870   5.155
 8875SOL    HW227525   1.112   2.843   5.012
 8876SOL     OW27526   0.784   0.175   4.721
 8876SOL    HW127527   0.825   0.127   4.799
 8876SOL    HW227528   0.833   0.152   4.637
 8877SOL     OW27529   3.072   0.820   4.713
 8877SOL    HW127530   3.151   0.813   4.652
 8877SOL    HW227531   3.080   0.751   4.786
 8878SOL     OW27532   0.461   5.438   0.500
 8878SOL    HW127533   0.485   5.520   0.551
 8878SOL    HW227534   0.483   5.357   0.555
 8879SOL     OW27535   5.968   4.948   1.085
 8879SOL    HW127536   5.905   4.870   1.078
 8879SOL    HW227537   6.062   4.915   1.072
 8880SOL     OW27538   6.944   5.786   4.310
 8880SOL    HW127539   6.915   5.828   4.224
 8880SOL    HW227540   6.897   5.830   4.387
 8881SOL     OW27541   6.177   0.098   4.023
 8881SOL    HW127542   6.133   0.112   3.934
 8881SOL    HW227543   6.107   0.075   4.091
 8882SOL     OW27544   5.139   1.296   0.676
 8882SOL    HW127545   5.040   1.306   0.678
 8882SOL    HW227546   5.167   1.229   0.745
 8883SOL     OW27547   0.937   1.000   5.468
 8883SOL    HW127548   0.842   0.974   5.482
 8883SOL    HW227549   0.959   0.997   5.371
 8884SOL     OW27550   5.849   6.041   6.536
 8884SOL    HW127551   5.908   6.074   6.462
 8884SOL    HW227552   5.756   6.030   6.502
 8885SOL     OW27553   6.756   3.909   1.522
 8885SOL    HW127554   6.773   3.871   1.613
 8885SOL    HW227555   6.812   3.991   1.510
 8886SOL     OW27556   3.338   6.599   5.718
 8886SOL    HW127557   3.429   6.573   5.688
 8886SOL    HW227558   3.333   6.598   5.818
 8887SOL     OW27559   3.144   1.150   0.950
 8887SOL    HW127560   3.224   1.195   0.989
 8887SOL    HW227561   3.169   1.058   0.919
 8888SOL     OW27562   0.606   2.040   1.025
 8888SOL    HW127563   0.600   2.067   1.121
 8888SOL    HW227564   0.538   1.969   1.006
 8889SOL     OW27565   5.511   6.495   5.540
 8889SOL    HW127566   5.610   6.482   5.549
 8889SOL    HW227567   5.477   6.548   5.618
 8890SOL     OW27568   6.804   5.934   4.151
 8890SOL    HW127569   6.821   6.025   4.189
 8890SOL    HW227570   6.816   5.937   4.052
 8891SOL     OW27571   6.155   3.250   6.310
 8891SOL    HW127572   6.244   3.296   6.309
 8891SOL    HW227573   6.162   3.164   6.360
 8892SOL     OW27574   3.363   5.980   3.521
 8892SOL    HW127575   3.264   5.967   3.515
 8892SOL    HW227576   3.391   6.055   3.460
 8893SOL     OW27577   1.285   0.755   1.831
 8893SOL    HW127578   1.309   0.800   1.917
 8893SOL    HW227579   1.186   0.758   1.818
 8894SOL     OW27580   3.959   3.029   5.651
 8894SOL    HW127581   3.983   3.023   5.554
 8894SOL    HW227582   3.903   3.110   5.666
 8895SOL     OW27583   6.692   1.558   1.748
 8895SOL    HW127584   6.663   1.570   1.843
 8895SOL    HW227585   6.624   1.503   1.700
 8896SOL     OW27586   1.797   3.340   4.862
 8896SOL    HW127587   1.816   3.413   4.796
 8896SOL    HW227588   1.832   3.366   4.951
 8897SOL     OW27589   2.076   1.746   2.937
 8897SOL    HW127590   2.023   1.669   2.903
 8897SOL    HW227591   2.171   1.717   2.950
 8898SOL     OW27592   6.265   3.586   4.666
 8898SOL    HW127593   6.226   3.675   4.643
 8898SOL    HW227594   6.197   3.514   4.652
 8899SOL     OW27595   1.678   4.625   0.425
 8899SOL    HW127596   1.734   4.640   0.343
 8899SOL    HW227597   1.737   4.599   0.502
 8900SOL     OW27598   5.751   3.783   2.969
 8900SOL    HW127599   5.680   3.750   3.032
 8900SOL    HW227600   5.812   3.847   3.018
 8901SOL     OW27601   2.569   1.030   4.177
 8901SOL    HW127602   2.490   0.982   4.139
 8901SOL    HW227603   2.574   1.013   4.276
 8902SOL     OW27604   3.088   5.950   7.013
 8902SOL    HW127605   3.150   5.905   6.949
 8902SOL    HW227606   3.141   5.992   0.067
 8903SOL     OW27607   1.669   1.011   4.323
 8903SOL    HW127608   1.645   1.103   4.353
 8903SOL    HW227609   1.593   0.949   4.339
 8904SOL     OW27610   6.534   5.522   3.604
 8904SOL    HW127611   6.587   5.449   3.561
 8904SOL    HW227612   6.592   5.572   3.667
 8905SOL     OW27613   2.185   3.854   4.593
 8905SOL    HW127614   2.168   3.809   4.681
 8905SOL    HW227615   2.181   3.953   4.605
 8906SOL     OW27616   0.255   6.642   6.848
 8906SOL    HW127617   0.171   6.619   6.896
 8906SOL    HW227618   0.330   6.652   6.914
 8907SOL     OW27619   3.388   1.866   4.926
 8907SOL    HW127620   3.348   1.775   4.934
 8907SOL    HW227621   3.369   1.918   5.009
 8908SOL     OW27622   1.651   2.954   0.012
 8908SOL    HW127623   1.679   2.919   0.102
 8908SOL    HW227624   1.652   3.054   0.014
 8909SOL     OW27625   1.782   0.723   4.926
 8909SOL    HW127626   1.742   0.647   4.977
 8909SOL    HW227627   1.865   0.692   4.879
 8910SOL     OW27628   1.823   3.400   6.270
 8910SOL    HW127629   1.909   3.445   6.249
 8910SOL    HW227630   1.768   3.391   6.187
 8911SOL     OW27631   4.114   2.159   4.827
 8911SOL    HW127632   4.028   2.108   4.826
 8911SOL    HW227633   4.101   2.246   4.875
 8912SOL     OW27634   4.110   1.627   6.915
 8912SOL    HW127635   4.083   1.625   6.818
 8912SOL    HW227636   4.031   1.604   6.972
 8913SOL     OW27637   4.555   5.304   0.759
 8913SOL    HW127638   4.558   5.386   0.816
 8913SOL    HW227639   4.550   5.223   0.817
 8914SOL     OW27640   4.298   0.507   5.085
 8914SOL    HW127641   4.283   0.544   5.177
 8914SOL    HW227642   4.303   0.408   5.089
 8915SOL     OW27643   0.971   3.080   3.695
 8915SOL    HW127644   0.991   3.121   3.606
 8915SOL    HW227645   0.962   3.152   3.764
 8916SOL     OW27646   0.408   3.428   1.880
 8916SOL    HW127647   0.472   3.352   1.868
 8916SOL    HW227648   0.329   3.397   1.933
 8917SOL     OW27649   5.563   4.869   6.335
 8917SOL    HW127650   5.495   4.825   6.393
 8917SOL    HW227651   5.632   4.913   6.391
 8918SOL     OW27652   6.802   5.678   0.976
 8918SOL    HW127653   6.734   5.750   0.992
 8918SOL    HW227654   6.858   5.702   0.897
 8919SOL     OW27655   4.598   3.495   0.599
 8919SOL    HW127656   4.519   3.455   0.646
 8919SOL    HW227657   4.596   3.594   0.610
 8920SOL     OW27658   7.014   6.568   6.564
 8920SOL    HW127659   0.094   6.572   6.560
 8920SOL    HW227660   6.984   6.591   6.657
 8921SOL     OW27661   2.462   1.978   3.436
 8921SOL    HW127662   2.482   2.065   3.482
 8921SOL    HW227663   2.546   1.942   3.395
 8922SOL     OW27664   2.737   4.605   1.413
 8922SOL    HW127665   2.716   4.608   1.511
 8922SOL    HW227666   2.656   4.575   1.363
 8923SOL     OW27667   1.363   3.444   5.840
 8923SOL    HW127668   1.445   3.451   5.783
 8923SOL    HW227669   1.294   3.390   5.793
 8924SOL     OW27670   3.208   5.797   5.751
 8924SOL    HW127671   3.280   5.740   5.713
 8924SOL    HW227672   3.212   5.794   5.851
 8925SOL     OW27673   1.062   0.625   2.115
 8925SOL    HW127674   1.048   0.723   2.105
 8925SOL    HW227675   1.142   0.609   2.174
 8926SOL     OW27676   6.127   3.385   0.321
 8926SOL    HW127677   6.119   3.476   0.363
 8926SOL    HW227678   6.061   3.377   0.246
 8927SOL     OW27679   1.574   2.163   5.143
 8927SOL    HW127680   1.661   2.163   5.094
 8927SOL    HW227681   1.578   2.095   5.216
 8928SOL     OW27682   6.760   0.945   5.068
 8928SOL    HW127683   6.762   1.021   5.133
 8928SOL    HW227684   6.837   0.954   5.005
 8929SOL     OW27685   0.538   3.389   3.770
 8929SOL    HW127686   0.472   3.350   3.834
 8929SOL    HW227687   0.513   3.366   3.676
 8930SOL     OW27688   1.966   4.916   4.877
 8930SOL    HW127689   1.958   4.896   4.975
 8930SOL    HW227690   2.012   4.840   4.831
 8931SOL     OW27691   3.779   3.003   0.742
 8931SOL    HW127692   3.720   2.987   0.664
 8931SOL    HW227693   3.746   3.083   0.793
 8932SOL     OW27694   5.306   0.581   6.855
 8932SOL    HW127695   5.232   0.596   6.920
 8932SOL    HW227696   5.270   0.581   6.762
 8933SOL     OW27697   1.090   1.959   5.584
 8933SOL    HW127698   1.077   1.939   5.681
 8933SOL    HW227699   1.004   1.941   5.535
 8934SOL     OW27700   2.734   6.038   3.902
 8934SOL    HW127701   2.768   5.948   3.931
 8934SOL    HW227702   2.703   6.033   3.808
 8935SOL     OW27703   4.980   4.333   1.745
 8935SOL    HW127704   5.052   4.270   1.774
 8935SOL    HW227705   4.905   4.281   1.705
 8936SOL     OW27706   0.572   3.713   0.924
 8936SOL    HW127707   0.646   3.756   0.872
 8936SOL    HW227708   0.609   3.668   1.005
 8937SOL     OW27709   0.279   0.588   4.195
 8937SOL    HW127710   0.318   0.662   4.249
 8937SOL    HW227711   0.313   0.501   4.228
 8938SOL     OW27712   0.033   1.185   0.116
 8938SOL    HW127713   0.089   1.166   0.196
 8938SOL    HW227714   6.959   1.157   0.133
 8939SOL     OW27715   6.206   2.931   4.746
 8939SOL    HW127716   6.267   2.955   4.821
 8939SOL    HW227717   6.168   3.015   4.707
 8940SOL     OW27718   5.367   2.050   0.596
 8940SOL    HW127719   5.384   1.960   0.637
 8940SOL    HW227720   5.435   2.115   0.630
 8941SOL     OW27721   4.913   2.092   1.951
 8941SOL    HW127722   4.901   2.050   1.861
 8941SOL    HW227723   4.956   2.181   1.941
 8942SOL     OW27724   0.769   5.221   4.387
 8942SOL    HW127725   0.786   5.307   4.338
 8942SOL    HW227726   0.742   5.151   4.321
 8943SOL     OW27727   4.096   4.814   0.151
 8943SOL    HW127728   4.098   4.796   0.249
 8943SOL    HW227729   4.104   4.912   0.134
 8944SOL     OW27730   4.945   4.767   4.644
 8944SOL    HW127731   4.872   4.728   4.700
 8944SOL    HW227732   4.940   4.867   4.647
 8945SOL     OW27733   6.731   2.094   4.917
 8945SOL    HW127734   6.699   2.103   4.823
 8945SOL    HW227735   6.759   1.999   4.934
 8946SOL     OW27736   3.524   0.349   4.459
 8946SOL    HW127737   3.484   0.421   4.516
 8946SOL    HW227738   3.624   0.349   4.469
 8947SOL     OW27739   1.638   3.750   6.367
 8947SOL    HW127740   1.714   3.802   6.327
 8947SOL    HW227741   1.595   3.804   6.440
 8948SOL     OW27742   6.311   5.647   3.576
 8948SOL    HW127743   6.400   5.608   3.553
 8948SOL    HW227744   6.251   5.576   3.612
 8949SOL     OW27745   3.904   5.903   0.107
 8949SOL    HW127746   3.863   5.954   0.031
 8949SOL    HW227747   3.909   5.962   0.187
 8950SOL     OW27748   4.519   3.442   1.415
 8950SOL    HW127749   4.469   3.425   1.500
 8950SOL    HW227750   4.601   3.386   1.413
 8951SOL     OW27751   2.194   0.928   4.429
 8951SOL    HW127752   2.165   0.848   4.377
 8951SOL    HW227753   2.115   0.967   4.476
 8952SOL     OW27754   1.945   5.246   2.921
 8952SOL    HW127755   2.024   5.221   2.864
 8952SOL    HW227756   1.974   5.313   2.989
 8953SOL     OW27757   1.752   4.737   1.186
 8953SOL    HW127758   1.810   4.656   1.189
 8953SOL    HW227759   1.803   4.815   1.222
 8954SOL     OW27760   0.157   6.600   3.904
 8954SOL    HW127761   0.174   6.698   3.918
 8954SOL    HW227762   0.063   6.578   3.931
 8955SOL     OW27763   0.168   3.017   2.465
 8955SOL    HW127764   0.135   2.923   2.469
 8955SOL    HW227765   0.153   3.062   2.553
 8956SOL     OW27766   0.725   0.355   6.403
 8956SOL    HW127767   0.748   0.258   6.394
 8956SOL    HW227768   0.805   0.410   6.380
 8957SOL     OW27769   1.618   4.944   1.635
 8957SOL    HW127770   1.579   5.036   1.635
 8957SOL    HW227771   1.717   4.949   1.647
 8958SOL     OW27772   1.578   2.712   5.348
 8958SOL    HW127773   1.574   2.615   5.325
 8958SOL    HW227774   1.532   2.765   5.277
 8959SOL     OW27775   1.120   3.624   2.239
 8959SOL    HW127776   1.112   3.651   2.143
 8959SOL    HW227777   1.033   3.586   2.271
 8960SOL     OW27778   6.618   5.222   3.798
 8960SOL    HW127779   6.713   5.250   3.792
 8960SOL    HW227780   6.572   5.239   3.710
 8961SOL     OW27781   4.221   1.371   3.852
 8961SOL    HW127782   4.309   1.324   3.846
 8961SOL    HW227783   4.180   1.375   3.761
 8962SOL     OW27784   6.955   6.293   1.758
 8962SOL    HW127785   6.933   6.314   1.853
 8962SOL    HW227786   6.872   6.294   1.703
 8963SOL     OW27787   3.452   6.457   4.785
 8963SOL    HW127788   3.470   6.512   4.867
 8963SOL    HW227789   3.538   6.423   4.748
 8964SOL     OW27790   4.861   4.038   3.007
 8964SOL    HW127791   4.823   4.046   3.100
 8964SOL    HW227792   4.859   3.942   2.979
 8965SOL     OW27793   3.625   5.276   0.231
 8965SOL    HW127794   3.636   5.321   0.142
 8965SOL    HW227795   3.544   5.217   0.228
 8966SOL     OW27796   6.603   4.835   6.659
 8966SOL    HW127797   6.621   4.878   6.570
 8966SOL    HW227798   6.665   4.757   6.672
 8967SOL     OW27799   4.360   0.648   2.806
 8967SOL    HW127800   4.297   0.571   2.795
 8967SOL    HW227801   4.354   0.707   2.726
 8968SOL     OW27802   2.952   4.767   1.429
 8968SOL    HW127803   2.867   4.714   1.422
 8968SOL    HW227804   2.930   4.864   1.437
 8969SOL     OW27805   0.356   0.822   3.384
 8969SOL    HW127806   0.390   0.822   3.478
 8969SOL    HW227807   0.263   0.860   3.382
 8970SOL     OW27808   1.518   2.485   6.878
 8970SOL    HW127809   1.611   2.453   6.895
 8970SOL    HW227810   1.459   2.406   6.861
 8971SOL     OW27811   4.576   6.567   1.802
 8971SOL    HW127812   4.499   6.557   1.740
 8971SOL    HW227813   4.591   6.664   1.821
 8972SOL     OW27814   5.151   4.317   0.386
 8972SOL    HW127815   5.185   4.380   0.455
 8972SOL    HW227816   5.130   4.229   0.429
 8973SOL     OW27817   0.030   2.550   2.806
 8973SOL    HW127818   0.117   2.568   2.761
 8973SOL    HW227819   6.980   2.532   2.737
 8974SOL     OW27820   2.046   3.800   3.935
 8974SOL    HW127821   2.085   3.727   3.991
 8974SOL    HW227822   2.115   3.836   3.873
 8975SOL     OW27823   0.251   6.991   0.045
 8975SOL    HW127824   0.267   0.048   0.106
 8975SOL    HW227825   0.339   6.953   0.016
 8976SOL     OW27826   0.088   6.190   0.736
 8976SOL    HW127827   0.006   6.243   0.712
 8976SOL    HW227828   0.086   6.170   0.834
 8977SOL     OW27829   0.015   4.445   6.679
 8977SOL    HW127830   0.106   4.478   6.703
 8977SOL    HW227831   0.023   4.368   6.615
 8978SOL     OW27832   5.292   6.347   4.733
 8978SOL    HW127833   5.341   6.331   4.647
 8978SOL    HW227834   5.307   6.269   4.794
 8979SOL     OW27835   1.161   5.533   6.109
 8979SOL    HW127836   1.079   5.479   6.127
 8979SOL    HW227837   1.234   5.473   6.077
 8980SOL     OW27838   5.291   2.145   5.689
 8980SOL    HW127839   5.316   2.105   5.777
 8980SOL    HW227840   5.261   2.073   5.627
 8981SOL     OW27841   5.078   2.307   5.642
 8981SOL    HW127842   5.160   2.250   5.655
 8981SOL    HW227843   4.998   2.248   5.635
 8982SOL     OW27844   6.557   2.269   1.680
 8982SOL    HW127845   6.546   2.368   1.692
 8982SOL    HW227846   6.479   2.222   1.721
 8983SOL     OW27847   1.232   5.273   1.140
 8983SOL    HW127848   1.258   5.357   1.187
 8983SOL    HW227849   1.302   5.203   1.153
 8984SOL     OW27850   6.285   0.127   4.340
 8984SOL    HW127851   6.299   0.100   4.245
 8984SOL    HW227852   6.194   0.096   4.370
 8985SOL     OW27853   4.092   2.386   1.110
 8985SOL    HW127854   4.034   2.322   1.058
 8985SOL    HW227855   4.109   2.349   1.201
 8986SOL     OW27856   5.392   4.250   2.328
 8986SOL    HW127857   5.449   4.241   2.410
 8986SOL    HW227858   5.449   4.243   2.247
 8987SOL     OW27859   3.369   0.576   1.008
 8987SOL    HW127860   3.298   0.508   0.990
 8987SOL    HW227861   3.332   0.668   0.993
 8988SOL     OW27862   2.154   5.249   0.192
 8988SOL    HW127863   2.226   5.185   0.217
 8988SOL    HW227864   2.150   5.323   0.259
 8989SOL     OW27865   4.806   2.920   2.799
 8989SOL    HW127866   4.831   3.003   2.848
 8989SOL    HW227867   4.778   2.850   2.865
 8990SOL     OW27868   2.243   6.156   1.267
 8990SOL    HW127869   2.324   6.153   1.208
 8990SOL    HW227870   2.186   6.075   1.249
 8991SOL     OW27871   2.609   2.238   1.396
 8991SOL    HW127872   2.699   2.211   1.429
 8991SOL    HW227873   2.594   2.335   1.412
 8992SOL     OW27874   0.309   3.074   0.793
 8992SOL    HW127875   0.329   3.171   0.806
 8992SOL    HW227876   0.282   3.057   0.699
 8993SOL     OW27877   5.262   2.570   2.754
 8993SOL    HW127878   5.303   2.633   2.688
 8993SOL    HW227879   5.185   2.615   2.799
 8994SOL     OW27880   1.864   5.109   4.256
 8994SOL    HW127881   1.765   5.094   4.266
 8994SOL    HW227882   1.900   5.051   4.183
 8995SOL     OW27883   1.339   2.323   5.399
 8995SOL    HW127884   1.364   2.334   5.495
 8995SOL    HW227885   1.312   2.228   5.383
 8996SOL     OW27886   0.835   3.853   1.833
 8996SOL    HW127887   0.899   3.871   1.908
 8996SOL    HW227888   0.793   3.764   1.846
 8997SOL     OW27889   5.656   1.047   6.500
 8997SOL    HW127890   5.621   1.140   6.511
 8997SOL    HW227891   5.689   1.035   6.406
 8998SOL     OW27892   0.141   1.708   4.948
 8998SOL    HW127893   0.194   1.701   5.032
 8998SOL    HW227894   0.068   1.640   4.949
 8999SOL     OW27895   5.062   0.833   6.213
 8999SOL    HW127896   4.975   0.878   6.235
 8999SOL    HW227897   5.107   0.806   6.298
 9000SOL     OW27898   2.650   4.291   6.724
 9000SOL    HW127899   2.566   4.303   6.670
 9000SOL    HW227900   2.699   4.211   6.690
 9001SOL     OW27901   1.014   4.496   2.658
 9001SOL    HW127902   1.086   4.532   2.717
 9001SOL    HW227903   1.039   4.509   2.562
 9002SOL     OW27904   7.005   5.503   6.041
 9002SOL    HW127905   6.974   5.460   6.125
 9002SOL    HW227906   6.992   5.602   6.047
 9003SOL     OW27907   5.956   2.219   0.939
 9003SOL    HW127908   5.976   2.230   1.036
 9003SOL    HW227909   5.987   2.129   0.908
 9004SOL     OW27910   4.994   6.472   2.106
 9004SOL    HW127911   4.965   6.496   2.199
 9004SOL    HW227912   4.973   6.548   2.044
 9005SOL     OW27913   5.169   2.637   3.460
 9005SOL    HW127914   5.137   2.543   3.471
 9005SOL    HW227915   5.098   2.691   3.415
 9006SOL     OW27916   1.275   5.778   0.899
 9006SOL    HW127917   1.209   5.801   0.971
 9006SOL    HW227918   1.325   5.695   0.926
 9007SOL     OW27919   3.376   5.417   4.223
 9007SOL    HW127920   3.448   5.372   4.170
 9007SOL    HW227921   3.370   5.513   4.196
 9008SOL     OW27922   6.568   4.805   2.469
 9008SOL    HW127923   6.553   4.866   2.391
 9008SOL    HW227924   6.548   4.711   2.441
 9009SOL     OW27925   2.883   6.529   1.185
 9009SOL    HW127926   2.790   6.563   1.173
 9009SOL    HW227927   2.904   6.523   1.283
 9010SOL     OW27928   1.141   6.346   5.212
 9010SOL    HW127929   1.065   6.406   5.238
 9010SOL    HW227930   1.160   6.356   5.115
 9011SOL     OW27931   3.838   2.314   1.473
 9011SOL    HW127932   3.759   2.255   1.462
 9011SOL    HW227933   3.912   2.263   1.517
 9012SOL     OW27934   1.881   5.580   0.450
 9012SOL    HW127935   1.798   5.556   0.400
 9012SOL    HW227936   1.858   5.604   0.544
 9013SOL     OW27937   6.428   5.648   4.652
 9013SOL    HW127938   6.389   5.561   4.622
 9013SOL    HW227939   6.508   5.670   4.595
 9014SOL     OW27940   1.533   1.592   0.503
 9014SOL    HW127941   1.443   1.582   0.460
 9014SOL    HW227942   1.598   1.626   0.435
 9015SOL     OW27943   6.508   1.318   6.881
 9015SOL    HW127944   6.559   1.262   6.947
 9015SOL    HW227945   6.448   1.381   6.930
 9016SOL     OW27946   6.439   6.032   6.003
 9016SOL    HW127947   6.516   6.051   5.942
 9016SOL    HW227948   6.450   5.941   6.043
 9017SOL     OW27949   5.459   1.920   3.349
 9017SOL    HW127950   5.546   1.883   3.318
 9017SOL    HW227951   5.441   2.006   3.301
 9018SOL     OW27952   3.795   1.445   5.267
 9018SOL    HW127953   3.787   1.440   5.367
 9018SOL    HW227954   3.706   1.428   5.225
 9019SOL     OW27955   1.430   6.896   0.138
 9019SOL    HW127956   1.459   6.819   0.196
 9019SOL    HW227957   1.508   6.930   0.086
 9020SOL     OW27958   1.842   3.903   2.306
 9020SOL    HW127959   1.941   3.903   2.319
 9020SOL    HW227960   1.800   3.968   2.369
 9021SOL     OW27961   6.936   6.399   3.904
 9021SOL    HW127962   7.015   6.338   3.912
 9021SOL    HW227963   6.920   6.420   3.807
 9022SOL     OW27964   2.658   0.453   0.500
 9022SOL    HW127965   2.703   0.423   0.415
 9022SOL    HW227966   2.559   0.440   0.492
 9023SOL     OW27967   4.098   3.277   3.594
 9023SOL    HW127968   4.149   3.267   3.509
 9023SOL    HW227969   4.115   3.367   3.633
 9024SOL     OW27970   1.858   5.929   6.052
 9024SOL    HW127971   1.797   5.976   5.989
 9024SOL    HW227972   1.925   5.876   6.001
 9025SOL     OW27973   6.281   6.022   1.749
 9025SOL    HW127974   6.201   5.963   1.763
 9025SOL    HW227975   6.272   6.105   1.804
 9026SOL     OW27976   3.751   3.444   3.866
 9026SOL    HW127977   3.774   3.477   3.775
 9026SOL    HW227978   3.809   3.366   3.889
 9027SOL     OW27979   2.481   1.764   3.815
 9027SOL    HW127980   2.457   1.676   3.855
 9027SOL    HW227981   2.424   1.781   3.735
 9028SOL     OW27982   2.166   4.525   6.589
 9028SOL    HW127983   2.128   4.492   6.676
 9028SOL    HW227984   2.092   4.541   6.525
 9029SOL     OW27985   3.802   5.383   4.897
 9029SOL    HW127986   3.826   5.341   4.985
 9029SOL    HW227987   3.703   5.383   4.886
 9030SOL     OW27988   1.508   0.642   2.478
 9030SOL    HW127989   1.459   0.677   2.558
 9030SOL    HW227990   1.570   0.713   2.444
 9031SOL     OW27991   3.105   4.952   6.077
 9031SOL    HW127992   3.046   4.963   6.157
 9031SOL    HW227993   3.075   4.872   6.024
 9032SOL     OW27994   3.957   3.049   1.231
 9032SOL    HW127995   3.863   3.033   1.200
 9032SOL    HW227996   4.019   3.042   1.153
 9033SOL     OW27997   1.819   3.194   4.112
 9033SOL    HW127998   1.746   3.258   4.136
 9033SOL    HW227999   1.811   3.169   4.015
 9034SOL     OW28000   2.715   6.730   5.265
 9034SOL    HW128001   2.747   6.743   5.358
 9034SOL    HW228002   2.635   6.788   5.248
 9035SOL     OW28003   0.595   6.733   5.625
 9035SOL    HW128004   0.519   6.667   5.628
 9035SOL    HW228005   0.558   6.825   5.608
 9036SOL     OW28006   2.450   2.215   5.681
 9036SOL    HW128007   2.428   2.311   5.665
 9036SOL    HW228008   2.443   2.164   5.595
 9037SOL     OW28009   1.792   3.766   6.696
 9037SOL    HW128010   1.800   3.818   6.611
 9037SOL    HW228011   1.859   3.800   6.762
 9038SOL     OW28012   5.637   1.058   5.910
 9038SOL    HW128013   5.538   1.052   5.925
 9038SOL    HW228014   5.655   1.126   5.839
 9039SOL     OW28015   2.201   4.406   5.199
 9039SOL    HW128016   2.176   4.309   5.195
 9039SOL    HW228017   2.122   4.462   5.171
 9040SOL     OW28018   2.927   1.066   3.488
 9040SOL    HW128019   2.936   1.068   3.389
 9040SOL    HW228020   2.907   1.157   3.522
 9041SOL     OW28021   0.818   1.557   2.396
 9041SOL    HW128022   0.916   1.572   2.384
 9041SOL    HW228023   0.774   1.642   2.422
 9042SOL     OW28024   2.530   6.815   3.651
 9042SOL    HW128025   2.581   6.774   3.575
 9042SOL    HW228026   2.459   6.875   3.614
 9043SOL     OW28027   2.156   1.829   5.642
 9043SOL    HW128028   2.145   1.832   5.543
 9043SOL    HW228029   2.149   1.921   5.680
 9044SOL     OW28030   6.402   0.921   0.894
 9044SOL    HW128031   6.496   0.916   0.862
 9044SOL    HW228032   6.341   0.880   0.826
 9045SOL     OW28033   3.565   1.175   2.653
 9045SOL    HW128034   3.484   1.179   2.595
 9045SOL    HW228035   3.541   1.133   2.741
 9046SOL     OW28036   3.738   3.901   5.121
 9046SOL    HW128037   3.795   3.983   5.119
 9046SOL    HW228038   3.717   3.873   5.028
 9047SOL     OW28039   1.839   4.357   5.430
 9047SOL    HW128040   1.829   4.271   5.379
 9047SOL    HW228041   1.823   4.339   5.527
 9048SOL     OW28042   0.422   3.552   5.628
 9048SOL    HW128043   0.452   3.526   5.536
 9048SOL    HW228044   0.338   3.503   5.651
 9049SOL     OW28045   4.924   6.489   6.723
 9049SOL    HW128046   4.863   6.514   6.648
 9049SOL    HW228047   4.952   6.572   6.772
 9050SOL     OW28048   1.178   5.104   6.617
 9050SOL    HW128049   1.243   5.172   6.583
 9050SOL    HW228050   1.137   5.137   6.702
 9051SOL     OW28051   4.427   5.949   1.111
 9051SOL    HW128052   4.357   6.017   1.091
 9051SOL    HW228053   4.386   5.872   1.161
 9052SOL     OW28054   2.546   4.693   4.461
 9052SOL    HW128055   2.453   4.710   4.429
 9052SOL    HW228056   2.607   4.679   4.383
 9053SOL     OW28057   2.508   2.267   3.924
 9053SOL    HW128058   2.446   2.316   3.862
 9053SOL    HW228059   2.456   2.199   3.976
 9054SOL     OW28060   1.812   0.862   2.126
 9054SOL    HW128061   1.828   0.916   2.043
 9054SOL    HW228062   1.898   0.824   2.158
 9055SOL     OW28063   0.513   4.063   3.491
 9055SOL    HW128064   0.505   4.034   3.396
 9055SOL    HW228065   0.450   4.009   3.547
 9056SOL     OW28066   5.070   0.389   1.679
 9056SOL    HW128067   4.988   0.443   1.657
 9056SOL    HW228068   5.109   0.353   1.594
 9057SOL     OW28069   6.570   4.723   5.631
 9057SOL    HW128070   6.540   4.806   5.679
 9057SOL    HW228071   6.646   4.745   5.571
 9058SOL     OW28072   2.374   2.084   4.105
 9058SOL    HW128073   2.435   2.048   4.175
 9058SOL    HW228074   2.307   2.014   4.080
 9059SOL     OW28075   6.915   0.528   2.916
 9059SOL    HW128076   7.004   0.494   2.946
 9059SOL    HW228077   6.851   0.527   2.993
 9060SOL     OW28078   6.747   3.985   2.731
 9060SOL    HW128079   6.661   3.940   2.757
 9060SOL    HW228080   6.736   4.026   2.641
 9061SOL     OW28081   4.416   5.644   3.204
 9061SOL    HW128082   4.489   5.639   3.136
 9061SOL    HW228083   4.417   5.562   3.261
 9062SOL     OW28084   0.833   5.084   1.811
 9062SOL    HW128085   0.828   5.182   1.831
 9062SOL    HW228086   0.741   5.044   1.815
 9063SOL     OW28087   3.172   0.624   1.967
 9063SOL    HW128088   3.199   0.666   1.880
 9063SOL    HW228089   3.153   0.696   2.034
 9064SOL     OW28090   6.266   4.257   4.345
 9064SOL    HW128091   6.352   4.233   4.301
 9064SOL    HW228092   6.283   4.307   4.429
 9065SOL     OW28093   2.707   6.074   5.806
 9065SOL    HW128094   2.780   6.014   5.839
 9065SOL    HW228095   2.747   6.148   5.752
 9066SOL     OW28096   6.090   0.336   6.090
 9066SOL    HW128097   6.024   0.382   6.031
 9066SOL    HW228098   6.142   0.269   6.037
 9067SOL     OW28099   6.398   6.313   4.242
 9067SOL    HW128100   6.327   6.286   4.307
 9067SOL    HW228101   6.488   6.302   4.285
 9068SOL     OW28102   3.335   0.040   5.171
 9068SOL    HW128103   3.306   0.135   5.182
 9068SOL    HW228104   3.402   0.034   5.097
 9069SOL     OW28105   4.423   1.954   2.723
 9069SOL    HW128106   4.346   1.923   2.779
 9069SOL    HW228107   4.439   2.052   2.740
 9070SOL     OW28108   1.727   2.536   6.202
 9070SOL    HW128109   1.644   2.521   6.256
 9070SOL    HW228110   1.771   2.449   6.184
 9071SOL     OW28111   4.841   0.274   6.592
 9071SOL    HW128112   4.938   0.263   6.571
 9071SOL    HW228113   4.826   0.257   6.690
 9072SOL     OW28114   5.145   6.665   1.180
 9072SOL    HW128115   5.050   6.650   1.205
 9072SOL    HW228116   5.149   6.713   1.093
 9073SOL     OW28117   3.481   6.425   1.593
 9073SOL    HW128118   3.428   6.344   1.617
 9073SOL    HW228119   3.534   6.408   1.511
 9074SOL     OW28120   1.739   0.776   1.544
 9074SOL    HW128121   1.694   0.819   1.623
 9074SOL    HW228122   1.697   0.687   1.527
 9075SOL     OW28123   0.176   0.029   2.060
 9075SOL    HW128124   0.118   0.092   2.110
 9075SOL    HW228125   0.123   7.002   1.989
 9076SOL     OW28126   4.599   1.581   3.713
 9076SOL    HW128127   4.509   1.575   3.756
 9076SOL    HW228128   4.664   1.522   3.761
 9077SOL     OW28129   4.714   1.549   6.383
 9077SOL    HW128130   4.693   1.531   6.479
 9077SOL    HW228131   4.813   1.552   6.371
 9078SOL     OW28132   5.227   4.660   6.793
 9078SOL    HW128133   5.170   4.579   6.808
 9078SOL    HW228134   5.315   4.646   6.839
 9079SOL     OW28135   1.443   0.075   4.879
 9079SOL    HW128136   1.394   0.028   4.952
 9079SOL    HW228137   1.410   0.170   4.873
 9080SOL     OW28138   5.897   2.788   0.065
 9080SOL    HW128139   5.866   2.723   0.135
 9080SOL    HW228140   5.997   2.791   0.065
 9081SOL     OW28141   3.558   1.413   1.933
 9081SOL    HW128142   3.553   1.500   1.984
 9081SOL    HW228143   3.579   1.339   1.996
 9082SOL     OW28144   2.174   6.371   5.202
 9082SOL    HW128145   2.204   6.392   5.295
 9082SOL    HW228146   2.166   6.456   5.149
 9083SOL     OW28147   3.914   3.757   6.662
 9083SOL    HW128148   3.874   3.845   6.638
 9083SOL    HW228149   3.991   3.771   6.725
 9084SOL     OW28150   1.133   2.328   6.426
 9084SOL    HW128151   1.175   2.248   6.468
 9084SOL    HW228152   1.129   2.316   6.327
 9085SOL     OW28153   2.395   5.757   1.486
 9085SOL    HW128154   2.448   5.825   1.436
 9085SOL    HW228155   2.330   5.803   1.547
 9086SOL     OW28156   5.631   4.275   1.105
 9086SOL    HW128157   5.727   4.293   1.088
 9086SOL    HW228158   5.588   4.240   1.021
 9087SOL     OW28159   5.208   3.010   2.300
 9087SOL    HW128160   5.209   3.075   2.224
 9087SOL    HW228161   5.218   3.058   2.386
 9088SOL     OW28162   6.358   6.990   1.256
 9088SOL    HW128163   6.428   0.030   1.295
 9088SOL    HW228164   6.278   6.989   1.316
 9089SOL     OW28165   3.784   5.752   5.241
 9089SOL    HW128166   3.724   5.832   5.237
 9089SOL    HW228167   3.817   5.731   5.149
 9090SOL     OW28168   5.170   0.343   3.570
 9090SOL    HW128169   5.227   0.282   3.626
 9090SOL    HW228170   5.163   0.306   3.478
 9091SOL     OW28171   2.841   3.413   0.885
 9091SOL    HW128172   2.807   3.483   0.822
 9091SOL    HW228173   2.809   3.434   0.978
 9092SOL     OW28174   0.780   1.185   7.009
 9092SOL    HW128175   0.770   1.216   6.914
 9092SOL    HW228176   0.690   1.178   0.032
 9093SOL     OW28177   1.106   6.432   6.589
 9093SOL    HW128178   1.112   6.336   6.563
 9093SOL    HW228179   1.123   6.442   6.687
 9094SOL     OW28180   0.816   5.139   2.633
 9094SOL    HW128181   0.806   5.238   2.621
 9094SOL    HW228182   0.846   5.098   2.547
 9095SOL     OW28183   4.685   4.065   5.864
 9095SOL    HW128184   4.632   4.000   5.810
 9095SOL    HW228185   4.728   4.017   5.940
 9096SOL     OW28186   5.612   3.772   2.730
 9096SOL    HW128187   5.647   3.807   2.817
 9096SOL    HW228188   5.598   3.848   2.666
 9097SOL     OW28189   0.309   3.320   6.836
 9097SOL    HW128190   0.267   3.333   6.925
 9097SOL    HW228191   0.271   3.386   6.771
 9098SOL     OW28192   3.385   2.437   6.918
 9098SOL    HW128193   3.460   2.436   6.984
 9098SOL    HW228194   3.403   2.507   6.849
 9099SOL     OW28195   3.334   3.560   0.589
 9099SOL    HW128196   3.418   3.514   0.620
 9099SOL    HW228197   3.285   3.596   0.668
 9100SOL     OW28198   0.787   3.204   2.823
 9100SOL    HW128199   0.783   3.237   2.729
 9100SOL    HW228200   0.878   3.165   2.840
 9101SOL     OW28201   2.190   2.897   2.944
 9101SOL    HW128202   2.253   2.839   2.893
 9101SOL    HW228203   2.240   2.948   3.014
 9102SOL     OW28204   3.284   6.618   1.749
 9102SOL    HW128205   3.223   6.678   1.802
 9102SOL    HW228206   3.305   6.536   1.802
 9103SOL     OW28207   6.429   3.774   6.809
 9103SOL    HW128208   6.366   3.843   6.774
 9103SOL    HW228209   6.382   3.686   6.817
 9104SOL     OW28210   4.348   6.405   2.947
 9104SOL    HW128211   4.392   6.367   3.028
 9104SOL    HW228212   4.402   6.380   2.866
 9105SOL     OW28213   1.976   0.981   0.530
 9105SOL    HW128214   1.994   0.884   0.511
 9105SOL    HW228215   1.981   1.033   0.445
 9106SOL     OW28216   5.900   4.164   6.630
 9106SOL    HW128217   5.808   4.126   6.622
 9106SOL    HW228218   5.897   4.263   6.615
 9107SOL     OW28219   3.318   0.579   5.741
 9107SOL    HW128220   3.277   0.598   5.831
 9107SOL    HW228221   3.368   0.493   5.745
 9108SOL     OW28222   5.470   3.850   5.862
 9108SOL    HW128223   5.552   3.798   5.885
 9108SOL    HW228224   5.496   3.939   5.825
 9109SOL     OW28225   1.335   2.680   2.790
 9109SOL    HW128226   1.389   2.677   2.874
 9109SOL    HW228227   1.373   2.614   2.724
 9110SOL     OW28228   2.044   4.300   4.097
 9110SOL    HW128229   2.035   4.270   4.002
 9110SOL    HW228230   2.117   4.248   4.142
 9111SOL     OW28231   3.706   3.085   6.853
 9111SOL    HW128232   3.760   3.080   6.937
 9111SOL    HW228233   3.734   3.165   6.800
 9112SOL     OW28234   0.947   4.375   5.011
 9112SOL    HW128235   0.996   4.391   4.926
 9112SOL    HW228236   0.860   4.330   4.991
 9113SOL     OW28237   4.658   6.839   0.746
 9113SOL    HW128238   4.577   6.880   0.704
 9113SOL    HW228239   4.714   6.796   0.675
 9114SOL     OW28240   1.417   4.883   1.028
 9114SOL    HW128241   1.381   4.826   1.101
 9114SOL    HW228242   1.443   4.972   1.065
 9115SOL     OW28243   0.839   5.514   5.715
 9115SOL    HW128244   0.799   5.423   5.723
 9115SOL    HW228245   0.810   5.570   5.793
 9116SOL     OW28246   6.762   1.486   0.374
 9116SOL    HW128247   6.712   1.515   0.456
 9116SOL    HW228248   6.837   1.426   0.401
 9117SOL     OW28249   5.655   2.769   0.553
 9117SOL    HW128250   5.581   2.728   0.606
 9117SOL    HW228251   5.723   2.808   0.615
 9118SOL     OW28252   6.117   5.479   0.340
 9118SOL    HW128253   6.120   5.565   0.289
 9118SOL    HW228254   6.167   5.490   0.426
 9119SOL     OW28255   5.170   1.071   1.565
 9119SOL    HW128256   5.152   1.164   1.595
 9119SOL    HW228257   5.105   1.045   1.494
 9120SOL     OW28258   5.962   2.065   5.987
 9120SOL    HW128259   5.911   2.053   5.902
 9120SOL    HW228260   5.944   2.155   6.025
 9121SOL     OW28261   2.733   2.510   6.184
 9121SOL    HW128262   2.721   2.601   6.224
 9121SOL    HW228263   2.826   2.479   6.199
 9122SOL     OW28264   1.872   4.234   2.147
 9122SOL    HW128265   1.941   4.226   2.219
 9122SOL    HW228266   1.877   4.154   2.087
 9123SOL     OW28267   3.197   0.064   4.369
 9123SOL    HW128268   3.195   6.987   4.345
 9123SOL    HW228269   3.182   0.074   4.468
 9124SOL     OW28270   5.393   6.438   6.049
 9124SOL    HW128271   5.336   6.420   5.969
 9124SOL    HW228272   5.460   6.509   6.027
 9125SOL     OW28273   5.072   4.122   1.935
 9125SOL    HW128274   5.162   4.080   1.952
 9125SOL    HW228275   5.024   4.134   2.022
 9126SOL     OW28276   5.749   2.569   1.274
 9126SOL    HW128277   5.798   2.539   1.356
 9126SOL    HW228278   5.651   2.572   1.293
 9127SOL     OW28279   6.467   1.337   6.151
 9127SOL    HW128280   6.453   1.418   6.208
 9127SOL    HW228281   6.564   1.323   6.136
 9128SOL     OW28282   5.111   1.726   5.236
 9128SOL    HW128283   5.195   1.774   5.263
 9128SOL    HW228284   5.036   1.754   5.296
 9129SOL     OW28285   0.196   2.847   1.173
 9129SOL    HW128286   0.282   2.812   1.136
 9129SOL    HW228287   0.161   2.919   1.112
 9130SOL     OW28288   0.043   3.327   0.383
 9130SOL    HW128289   0.117   3.392   0.399
 9130SOL    HW228290   0.017   3.285   0.470
 9131SOL     OW28291   6.913   2.875   5.692
 9131SOL    HW128292   6.956   2.929   5.619
 9131SOL    HW228293   6.857   2.934   5.749
 9132SOL     OW28294   0.364   5.273   4.348
 9132SOL    HW128295   0.408   5.220   4.421
 9132SOL    HW228296   0.352   5.215   4.268
 9133SOL     OW28297   3.980   5.976   1.977
 9133SOL    HW128298   3.980   6.074   1.954
 9133SOL    HW228299   4.051   5.930   1.924
 9134SOL     OW28300   4.799   6.218   0.034
 9134SOL    HW128301   4.766   6.303   7.012
 9134SOL    HW228302   4.771   6.140   6.998
 9135SOL     OW28303   6.031   6.753   1.667
 9135SOL    HW128304   6.117   6.799   1.689
 9135SOL    HW228305   6.004   6.774   1.573
 9136SOL     OW28306   5.614   5.636   6.232
 9136SOL    HW128307   5.597   5.726   6.193
 9136SOL    HW228308   5.539   5.574   6.208
 9137SOL     OW28309   4.968   2.096   1.160
 9137SOL    HW128310   4.907   2.018   1.177
 9137SOL    HW228311   4.916   2.181   1.166
 9138SOL     OW28312   0.459   6.042   5.768
 9138SOL    HW128313   0.412   6.017   5.683
 9138SOL    HW228314   0.396   6.030   5.845
 9139SOL     OW28315   2.283   1.675   4.594
 9139SOL    HW128316   2.358   1.711   4.651
 9139SOL    HW228317   2.198   1.720   4.620
 9140SOL     OW28318   6.398   3.384   2.933
 9140SOL    HW128319   6.383   3.286   2.924
 9140SOL    HW228320   6.397   3.426   2.842
 9141SOL     OW28321   5.879   0.562   6.759
 9141SOL    HW128322   5.907   0.502   6.685
 9141SOL    HW228323   5.841   0.646   6.720
 9142SOL     OW28324   0.119   2.367   1.367
 9142SOL    HW128325   0.086   2.372   1.273
 9142SOL    HW228326   0.130   2.271   1.394
 9143SOL     OW28327   6.184   3.265   1.022
 9143SOL    HW128328   6.194   3.320   0.939
 9143SOL    HW228329   6.138   3.179   1.000
 9144SOL     OW28330   2.389   4.872   5.469
 9144SOL    HW128331   2.483   4.847   5.446
 9144SOL    HW228332   2.364   4.955   5.420
 9145SOL     OW28333   0.119   5.618   0.245
 9145SOL    HW128334   0.067   5.673   0.310
 9145SOL    HW228335   0.128   5.524   0.280
 9146SOL     OW28336   5.114   3.075   2.829
 9146SOL    HW128337   5.200   3.116   2.858
 9146SOL    HW228338   5.041   3.103   2.891
 9147SOL     OW28339   6.351   0.554   4.647
 9147SOL    HW128340   6.448   0.577   4.637
 9147SOL    HW228341   6.321   0.578   4.740
 9148SOL     OW28342   4.916   6.193   0.508
 9148SOL    HW128343   4.902   6.118   0.443
 9148SOL    HW228344   4.894   6.161   0.600
 9149SOL     OW28345   5.917   3.379   3.704
 9149SOL    HW128346   5.987   3.352   3.771
 9149SOL    HW228347   5.900   3.477   3.712
 9150SOL     OW28348   3.083   4.908   1.800
 9150SOL    HW128349   3.172   4.882   1.839
 9150SOL    HW228350   3.040   4.827   1.759
 9151SOL     OW28351   1.651   4.480   3.674
 9151SOL    HW128352   1.712   4.414   3.718
 9151SOL    HW228353   1.697   4.569   3.667
 9152SOL     OW28354   2.114   4.333   4.780
 9152SOL    HW128355   2.179   4.405   4.802
 9152SOL    HW228356   2.148   4.245   4.814
 9153SOL     OW28357   1.093   3.433   0.321
 9153SOL    HW128358   1.152   3.379   0.261
 9153SOL    HW228359   1.036   3.372   0.376
 9154SOL     OW28360   4.223   4.527   6.333
 9154SOL    HW128361   4.258   4.488   6.418
 9154SOL    HW228362   4.221   4.457   6.262
 9155SOL     OW28363   1.830   3.970   2.056
 9155SOL    HW128364   1.739   3.976   2.014
 9155SOL    HW228365   1.821   3.933   2.148
 9156SOL     OW28366   0.906   2.369   1.038
 9156SOL    HW128367   0.891   2.279   0.997
 9156SOL    HW228368   0.869   2.371   1.130
 9157SOL     OW28369   6.487   4.589   5.293
 9157SOL    HW128370   6.466   4.542   5.207
 9157SOL    HW228371   6.581   4.570   5.320
 9158SOL     OW28372   5.809   3.037   4.670
 9158SOL    HW128373   5.737   2.978   4.635
 9158SOL    HW228374   5.773   3.093   4.745
 9159SOL     OW28375   2.035   0.757   2.201
 9159SOL    HW128376   2.105   0.796   2.142
 9159SOL    HW228377   2.072   0.743   2.293
 9160SOL     OW28378   5.782   0.050   5.479
 9160SOL    HW128379   5.806   0.105   5.399
 9160SOL    HW228380   5.851   6.999   5.492
 9161SOL     OW28381   5.128   4.196   4.775
 9161SOL    HW128382   5.055   4.249   4.733
 9161SOL    HW228383   5.102   4.173   4.869
 9162SOL     OW28384   4.589   1.165   4.505
 9162SOL    HW128385   4.562   1.210   4.590
 9162SOL    HW228386   4.671   1.208   4.469
 9163SOL     OW28387   1.459   2.550   4.657
 9163SOL    HW128388   1.496   2.544   4.565
 9163SOL    HW228389   1.433   2.459   4.689
 9164SOL     OW28390   2.925   0.290   6.268
 9164SOL    HW128391   2.975   0.265   6.185
 9164SOL    HW228392   2.970   0.250   6.348
 9165SOL     OW28393   6.395   1.862   5.853
 9165SOL    HW128394   6.466   1.906   5.909
 9165SOL    HW228395   6.310   1.914   5.859
 9166SOL     OW28396   3.980   6.223   1.836
 9166SOL    HW128397   4.003   6.163   1.759
 9166SOL    HW228398   3.953   6.312   1.801
 9167SOL     OW28399   2.285   2.248   6.699
 9167SOL    HW128400   2.326   2.316   6.759
 9167SOL    HW228401   2.356   2.183   6.670
 9168SOL     OW28402   0.187   0.190   6.771
 9168SOL    HW128403   0.155   0.177   6.865
 9168SOL    HW228404   0.122   0.148   6.708
 9169SOL     OW28405   5.794   0.454   5.213
 9169SOL    HW128406   5.758   0.522   5.276
 9169SOL    HW228407   5.889   0.434   5.236
 9170SOL     OW28408   1.562   5.937   6.885
 9170SOL    HW128409   1.616   5.882   6.822
 9170SOL    HW228410   1.465   5.924   6.867
 9171SOL     OW28411   4.043   4.939   0.823
 9171SOL    HW128412   4.059   5.026   0.776
 9171SOL    HW228413   3.956   4.899   0.791
 9172SOL     OW28414   3.877   0.982   2.532
 9172SOL    HW128415   3.848   0.972   2.436
 9172SOL    HW228416   3.934   0.904   2.558
 9173SOL     OW28417   6.664   3.451   5.644
 9173SOL    HW128418   6.692   3.386   5.714
 9173SOL    HW228419   6.639   3.538   5.686
 9174SOL     OW28420   5.700   3.983   1.701
 9174SOL    HW128421   5.634   3.915   1.669
 9174SOL    HW228422   5.733   4.037   1.624
 9175SOL     OW28423   0.363   0.237   5.396
 9175SOL    HW128424   0.460   0.252   5.414
 9175SOL    HW228425   0.335   0.150   5.436
 9176SOL     OW28426   2.335   0.987   4.020
 9176SOL    HW128427   2.254   1.005   4.075
 9176SOL    HW228428   2.373   1.074   3.988
 9177SOL     OW28429   0.562   4.678   4.956
 9177SOL    HW128430   0.538   4.704   4.863
 9177SOL    HW228431   0.643   4.729   4.986
 9178SOL     OW28432   1.585   4.820   0.591
 9178SOL    HW128433   1.490   4.850   0.585
 9178SOL    HW228434   1.602   4.750   0.522
 9179SOL     OW28435   2.448   4.414   4.012
 9179SOL    HW128436   2.530   4.472   4.010
 9179SOL    HW228437   2.370   4.467   4.044
 9180SOL     OW28438   6.248   2.644   3.396
 9180SOL    HW128439   6.325   2.645   3.459
 9180SOL    HW228440   6.276   2.601   3.310
 9181SOL     OW28441   4.500   2.086   5.200
 9181SOL    HW128442   4.575   2.058   5.139
 9181SOL    HW228443   4.443   2.007   5.221
 9182SOL     OW28444   2.789   6.241   1.721
 9182SOL    HW128445   2.735   6.288   1.791
 9182SOL    HW228446   2.729   6.185   1.664
 9183SOL     OW28447   5.023   5.730   0.174
 9183SOL    HW128448   4.975   5.811   0.139
 9183SOL    HW228449   5.009   5.654   0.111
 9184SOL     OW28450   4.483   2.012   0.354
 9184SOL    HW128451   4.438   1.923   0.358
 9184SOL    HW228452   4.577   2.000   0.322
 9185SOL     OW28453   4.712   6.915   4.573
 9185SOL    HW128454   4.696   6.817   4.584
 9185SOL    HW228455   4.701   6.941   4.477
 9186SOL     OW28456   5.654   6.021   4.649
 9186SOL    HW128457   5.575   6.067   4.609
 9186SOL    HW228458   5.636   5.998   4.744
 9187SOL     OW28459   2.586   2.074   0.555
 9187SOL    HW128460   2.496   2.032   0.551
 9187SOL    HW228461   2.588   2.155   0.495
 9188SOL     OW28462   1.208   6.745   0.185
 9188SOL    HW128463   1.250   6.836   0.187
 9188SOL    HW228464   1.140   6.738   0.257
 9189SOL     OW28465   2.953   6.064   2.072
 9189SOL    HW128466   2.856   6.049   2.091
 9189SOL    HW228467   2.972   6.162   2.067
 9190SOL     OW28468   2.488   4.636   5.611
 9190SOL    HW128469   2.407   4.674   5.566
 9190SOL    HW228470   2.570   4.681   5.577
 9191SOL     OW28471   6.792   1.905   6.437
 9191SOL    HW128472   6.808   1.905   6.536
 9191SOL    HW228473   6.725   1.976   6.414
 9192SOL     OW28474   1.093   2.584   5.845
 9192SOL    HW128475   1.118   2.670   5.889
 9192SOL    HW228476   1.057   2.521   5.914
 9193SOL     OW28477   3.516   4.187   6.292
 9193SOL    HW128478   3.544   4.169   6.198
 9193SOL    HW228479   3.424   4.228   6.292
 9194SOL     OW28480   3.292   1.015   3.611
 9194SOL    HW128481   3.363   0.945   3.620
 9194SOL    HW228482   3.233   0.992   3.534
 9195SOL     OW28483   1.254   1.735   3.063
 9195SOL    HW128484   1.317   1.755   3.137
 9195SOL    HW228485   1.167   1.781   3.079
 9196SOL     OW28486   5.707   0.431   2.658
 9196SOL    HW128487   5.735   0.337   2.637
 9196SOL    HW228488   5.766   0.495   2.610
 9197SOL     OW28489   1.740   4.969   1.038
 9197SOL    HW128490   1.735   4.882   1.087
 9197SOL    HW228491   1.666   4.974   0.971
 9198SOL     OW28492   5.792   4.779   6.721
 9198SOL    HW128493   5.798   4.771   6.622
 9198SOL    HW228494   5.808   4.874   6.748
 9199SOL     OW28495   1.114   3.568   5.393
 9199SOL    HW128496   1.060   3.651   5.377
 9199SOL    HW228497   1.109   3.544   5.490
 9200SOL     OW28498   2.851   6.385   6.907
 9200SOL    HW128499   2.920   6.345   6.968
 9200SOL    HW228500   2.880   6.476   6.878
 9201SOL     OW28501   6.655   3.311   0.514
 9201SOL    HW128502   6.687   3.390   0.567
 9201SOL    HW228503   6.648   3.232   0.575
 9202SOL     OW28504   0.963   6.629   2.601
 9202SOL    HW128505   0.952   6.711   2.545
 9202SOL    HW228506   1.059   6.621   2.629
 9203SOL     OW28507   0.215   3.786   5.515
 9203SOL    HW128508   0.181   3.875   5.546
 9203SOL    HW228509   0.271   3.745   5.587
 9204SOL     OW28510   5.171   3.106   6.184
 9204SOL    HW128511   5.235   3.114   6.108
 9204SOL    HW228512   5.201   3.165   6.259
 9205SOL     OW28513   5.409   6.157   3.467
 9205SOL    HW128514   5.489   6.167   3.526
 9205SOL    HW228515   5.438   6.129   3.375
 9206SOL     OW28516   3.618   5.347   3.577
 9206SOL    HW128517   3.518   5.341   3.587
 9206SOL    HW228518   3.662   5.278   3.634
 9207SOL     OW28519   4.976   4.035   5.764
 9207SOL    HW128520   5.015   4.052   5.673
 9207SOL    HW228521   4.877   4.049   5.761
 9208SOL     OW28522   5.870   4.716   3.839
 9208SOL    HW128523   5.945   4.688   3.898
 9208SOL    HW228524   5.822   4.635   3.805
 9209SOL     OW28525   4.391   0.327   0.356
 9209SOL    HW128526   4.291   0.320   0.360
 9209SOL    HW228527   4.419   0.417   0.390
 9210SOL     OW28528   0.429   1.201   2.189
 9210SOL    HW128529   0.433   1.114   2.237
 9210SOL    HW228530   0.460   1.274   2.249
 9211SOL     OW28531   0.332   2.961   6.081
 9211SOL    HW128532   0.262   2.890   6.081
 9211SOL    HW228533   0.369   2.971   5.989
 9212SOL     OW28534   4.475   5.774   4.222
 9212SOL    HW128535   4.573   5.758   4.211
 9212SOL    HW228536   4.460   5.844   4.291
 9213SOL     OW28537   5.761   3.092   5.238
 9213SOL    HW128538   5.756   3.075   5.336
 9213SOL    HW228539   5.728   3.012   5.188
 9214SOL     OW28540   6.839   3.873   6.195
 9214SOL    HW128541   6.835   3.969   6.167
 9214SOL    HW228542   6.758   3.851   6.249
 9215SOL     OW28543   0.940   2.777   1.452
 9215SOL    HW128544   0.937   2.744   1.358
 9215SOL    HW228545   0.858   2.745   1.501
 9216SOL     OW28546   3.727   0.389   2.064
 9216SOL    HW128547   3.659   0.458   2.087
 9216SOL    HW228548   3.682   0.311   2.019
 9217SOL     OW28549   7.015   2.933   6.631
 9217SOL    HW128550   0.000   3.008   6.698
 9217SOL    HW228551   0.046   2.855   6.666
 9218SOL     OW28552   1.983   0.770   6.759
 9218SOL    HW128553   1.982   0.671   6.747
 9218SOL    HW228554   1.912   0.796   6.825
 9219SOL     OW28555   5.694   3.412   0.533
 9219SOL    HW128556   5.700   3.492   0.592
 9219SOL    HW228557   5.644   3.436   0.449
 9220SOL     OW28558   1.620   6.372   1.460
 9220SOL    HW128559   1.573   6.453   1.424
 9220SOL    HW228560   1.663   6.395   1.548
 9221SOL     OW28561   2.588   0.835   3.129
 9221SOL    HW128562   2.679   0.847   3.088
 9221SOL    HW228563   2.592   0.766   3.201
 9222SOL     OW28564   2.626   6.016   6.514
 9222SOL    HW128565   2.559   6.089   6.529
 9222SOL    HW228566   2.590   5.930   6.548
 9223SOL     OW28567   1.160   2.216   3.674
 9223SOL    HW128568   1.186   2.172   3.760
 9223SOL    HW228569   1.099   2.157   3.622
 9224SOL     OW28570   1.307   5.212   4.152
 9224SOL    HW128571   1.398   5.247   4.132
 9224SOL    HW228572   1.301   5.187   4.249
 9225SOL     OW28573   2.925   6.673   6.533
 9225SOL    HW128574   2.978   6.588   6.538
 9225SOL    HW228575   2.827   6.651   6.542
 9226SOL     OW28576   6.264   0.117   1.705
 9226SOL    HW128577   6.344   0.130   1.764
 9226SOL    HW228578   6.181   0.125   1.760
 9227SOL     OW28579   1.641   6.115   0.772
 9227SOL    HW128580   1.600   6.116   0.681
 9227SOL    HW228581   1.571   6.137   0.840
 9228SOL     OW28582   1.762   2.094   5.937
 9228SOL    HW128583   1.708   2.045   6.005
 9228SOL    HW228584   1.755   2.047   5.849
 9229SOL     OW28585   0.965   5.489   5.236
 9229SOL    HW128586   0.922   5.579   5.247
 9229SOL    HW228587   1.063   5.497   5.254
 9230SOL     OW28588   4.861   2.453   3.309
 9230SOL    HW128589   4.900   2.486   3.223
 9230SOL    HW228590   4.831   2.531   3.364
 9231SOL     OW28591   0.393   3.487   4.565
 9231SOL    HW128592   0.432   3.522   4.650
 9231SOL    HW228593   0.462   3.490   4.493
 9232SOL     OW28594   4.238   5.076   0.485
 9232SOL    HW128595   4.199   5.125   0.563
 9232SOL    HW228596   4.205   4.981   0.486
 9233SOL     OW28597   5.661   5.199   2.059
 9233SOL    HW128598   5.673   5.125   2.126
 9233SOL    HW228599   5.746   5.252   2.053
 9234SOL     OW28600   3.278   6.352   6.320
 9234SOL    HW128601   3.333   6.324   6.242
 9234SOL    HW228602   3.326   6.423   6.371
 9235SOL     OW28603   1.547   3.428   2.889
 9235SOL    HW128604   1.592   3.407   2.975
 9235SOL    HW228605   1.452   3.453   2.906
 9236SOL     OW28606   2.009   4.724   6.087
 9236SOL    HW128607   2.074   4.648   6.096
 9236SOL    HW228608   1.917   4.692   6.106
 9237SOL     OW28609   1.886   5.899   4.614
 9237SOL    HW128610   1.941   5.905   4.531
 9237SOL    HW228611   1.832   5.815   4.612
 9238SOL     OW28612   2.976   1.738   6.890
 9238SOL    HW128613   2.944   1.824   6.849
 9238SOL    HW228614   3.023   1.759   6.976
 9239SOL     OW28615   6.545   4.205   0.196
 9239SOL    HW128616   6.591   4.123   0.162
 9239SOL    HW228617   6.606   4.283   0.187
 9240SOL     OW28618   4.814   1.479   1.336
 9240SOL    HW128619   4.796   1.489   1.434
 9240SOL    HW228620   4.799   1.567   1.290
 9241SOL     OW28621   0.535   5.136   5.804
 9241SOL    HW128622   0.612   5.092   5.758
 9241SOL    HW228623   0.525   5.230   5.770
 9242SOL     OW28624   1.272   4.833   6.700
 9242SOL    HW128625   1.336   4.821   6.776
 9242SOL    HW228626   1.265   4.930   6.677
 9243SOL     OW28627   6.528   6.859   1.496
 9243SOL    HW128628   6.499   6.928   1.430
 9243SOL    HW228629   6.556   6.776   1.449
 9244SOL     OW28630   4.666   5.599   6.367
 9244SOL    HW128631   4.625   5.523   6.418
 9244SOL    HW228632   4.697   5.565   6.278
 9245SOL     OW28633   1.701   5.110   2.968
 9245SOL    HW128634   1.793   5.147   2.952
 9245SOL    HW228635   1.697   5.070   3.060
 9246SOL     OW28636   0.064   5.780   2.527
 9246SOL    HW128637   7.010   5.818   2.583
 9246SOL    HW228638   0.090   5.690   2.563
 9247SOL     OW28639   1.348   6.820   2.721
 9247SOL    HW128640   1.426   6.768   2.686
 9247SOL    HW228641   1.375   6.915   2.735
 9248SOL     OW28642   2.310   2.295   4.328
 9248SOL    HW128643   2.384   2.241   4.289
 9248SOL    HW228644   2.297   2.378   4.273
 9249SOL     OW28645   3.904   3.856   0.390
 9249SOL    HW128646   3.951   3.926   0.336
 9249SOL    HW228647   3.933   3.765   0.360
 9250SOL     OW28648   5.582   3.358   3.996
 9250SOL    HW128649   5.523   3.432   4.030
 9250SOL    HW228650   5.576   3.280   4.059
 9251SOL     OW28651   4.107   1.719   2.475
 9251SOL    HW128652   4.122   1.692   2.570
 9251SOL    HW228653   4.063   1.645   2.425
 9252SOL     OW28654   5.707   0.241   4.556
 9252SOL    HW128655   5.716   0.304   4.633
 9252SOL    HW228656   5.764   0.272   4.480
 9253SOL     OW28657   5.875   6.550   5.059
 9253SOL    HW128658   5.797   6.501   5.021
 9253SOL    HW228659   5.925   6.490   5.121
 9254SOL     OW28660   6.412   4.653   2.983
 9254SOL    HW128661   6.323   4.688   2.953
 9254SOL    HW228662   6.463   4.620   2.904
 9255SOL     OW28663   4.676   3.839   0.263
 9255SOL    HW128664   4.696   3.937   0.271
 9255SOL    HW228665   4.762   3.788   0.257
 9256SOL     OW28666   3.740   6.902   2.487
 9256SOL    HW128667   3.777   6.900   2.579
 9256SOL    HW228668   3.650   6.947   2.488
 9257SOL     OW28669   0.225   3.528   2.979
 9257SOL    HW128670   0.227   3.554   3.075
 9257SOL    HW228671   0.222   3.610   2.921
 9258SOL     OW28672   3.128   3.240   3.514
 9258SOL    HW128673   3.114   3.151   3.558
 9258SOL    HW228674   3.226   3.256   3.503
 9259SOL     OW28675   1.536   2.600   0.146
 9259SOL    HW128676   1.501   2.677   0.199
 9259SOL    HW228677   1.490   2.596   0.058
 9260SOL     OW28678   5.276   1.853   4.902
 9260SOL    HW128679   5.239   1.771   4.859
 9260SOL    HW228680   5.325   1.907   4.834
 9261SOL     OW28681   4.570   0.847   0.133
 9261SOL    HW128682   4.549   0.896   0.049
 9261SOL    HW228683   4.612   0.759   0.111
 9262SOL     OW28684   0.042   4.158   5.888
 9262SOL    HW128685   6.993   4.172   5.816
 9262SOL    HW228686   7.017   4.133   5.973
 9263SOL     OW28687   5.021   5.936   1.474
 9263SOL    HW128688   4.924   5.932   1.498
 9263SOL    HW228689   5.048   6.032   1.462
 9264SOL     OW28690   5.213   4.500   0.564
 9264SOL    HW128691   5.140   4.454   0.613
 9264SOL    HW228692   5.194   4.599   0.561
 9265SOL     OW28693   3.359   1.980   6.941
 9265SOL    HW128694   3.381   1.901   6.884
 9265SOL    HW228695   3.386   2.063   6.894
 9266SOL     OW28696   2.435   7.009   1.648
 9266SOL    HW128697   2.364   0.002   1.716
 9266SOL    HW228698   2.432   0.063   1.581
 9267SOL     OW28699   6.962   2.726   5.113
 9267SOL    HW128700   6.956   2.654   5.044
 9267SOL    HW228701   6.870   2.753   5.143
 9268SOL     OW28702   0.604   5.459   1.796
 9268SOL    HW128703   0.588   5.401   1.717
 9268SOL    HW228704   0.526   5.520   1.809
 9269SOL     OW28705   3.016   1.408   6.106
 9269SOL    HW128706   3.108   1.443   6.091
 9269SOL    HW228707   3.006   1.320   6.059
 9270SOL     OW28708   4.683   6.396   6.153
 9270SOL    HW128709   4.608   6.413   6.089
 9270SOL    HW228710   4.649   6.397   6.247
 9271SOL     OW28711   0.136   0.372   7.002
 9271SOL    HW128712   0.090   0.434   6.938
 9271SOL    HW228713   0.233   0.394   7.008
 9272SOL     OW28714   1.479   5.741   4.176
 9272SOL    HW128715   1.520   5.707   4.261
 9272SOL    HW228716   1.411   5.811   4.198
 9273SOL     OW28717   6.293   6.248   3.704
 9273SOL    HW128718   6.323   6.318   3.769
 9273SOL    HW228719   6.216   6.198   3.742
 9274SOL     OW28720   6.571   2.533   6.982
 9274SOL    HW128721   6.498   2.601   6.986
 9274SOL    HW228722   6.567   2.475   0.044
 9275SOL     OW28723   0.020   1.367   6.626
 9275SOL    HW128724   6.992   1.355   6.713
 9275SOL    HW228725   0.019   1.463   6.600
 9276SOL     OW28726   2.124   3.895   2.312
 9276SOL    HW128727   2.120   3.858   2.405
 9276SOL    HW228728   2.146   3.823   2.248
 9277SOL     OW28729   5.161   3.321   0.066
 9277SOL    HW128730   5.165   3.221   0.074
 9277SOL    HW228731   5.249   3.360   0.094
 9278SOL     OW28732   1.531   0.817   6.085
 9278SOL    HW128733   1.611   0.866   6.121
 9278SOL    HW228734   1.452   0.877   6.084
 9279SOL     OW28735   4.835   1.174   1.509
 9279SOL    HW128736   4.839   1.242   1.582
 9279SOL    HW228737   4.754   1.189   1.453
 9280SOL     OW28738   2.022   1.910   3.589
 9280SOL    HW128739   2.038   1.930   3.492
 9280SOL    HW228740   1.989   1.816   3.599
 9281SOL     OW28741   2.587   4.670   0.878
 9281SOL    HW128742   2.609   4.575   0.857
 9281SOL    HW228743   2.671   4.721   0.897
 9282SOL     OW28744   4.655   1.181   3.979
 9282SOL    HW128745   4.582   1.155   4.041
 9282SOL    HW228746   4.733   1.120   3.991
 9283SOL     OW28747   5.704   0.466   3.662
 9283SOL    HW128748   5.653   0.525   3.723
 9283SOL    HW228749   5.667   0.473   3.569
 9284SOL     OW28750   3.369   3.516   6.165
 9284SOL    HW128751   3.428   3.584   6.122
 9284SOL    HW228752   3.353   3.541   6.260
 9285SOL     OW28753   4.893   3.134   1.004
 9285SOL    HW128754   4.911   3.204   0.935
 9285SOL    HW228755   4.823   3.071   0.971
 9286SOL     OW28756   5.447   6.195   0.301
 9286SOL    HW128757   5.505   6.185   0.382
 9286SOL    HW228758   5.472   6.280   0.253
 9287SOL     OW28759   3.326   5.098   6.330
 9287SOL    HW128760   3.364   5.176   6.280
 9287SOL    HW228761   3.251   5.129   6.388
 9288SOL     OW28762   4.455   1.238   3.786
 9288SOL    HW128763   4.450   1.155   3.729
 9288SOL    HW228764   4.503   1.217   3.871
 9289SOL     OW28765   3.725   1.318   2.333
 9289SOL    HW128766   3.732   1.247   2.262
 9289SOL    HW228767   3.768   1.284   2.417
 9290SOL     OW28768   5.343   1.189   3.226
 9290SOL    HW128769   5.281   1.160   3.299
 9290SOL    HW228770   5.312   1.152   3.139
 9291SOL     OW28771   1.496   6.816   4.481
 9291SOL    HW128772   1.397   6.821   4.494
 9291SOL    HW228773   1.528   6.724   4.501
 9292SOL     OW28774   0.786   3.754   0.120
 9292SOL    HW128775   0.799   3.658   0.096
 9292SOL    HW228776   0.842   3.777   0.199
 9293SOL     OW28777   5.437   4.207   6.657
 9293SOL    HW128778   5.483   4.139   6.600
 9293SOL    HW228779   5.367   4.254   6.603
 9294SOL     OW28780   3.821   0.389   5.197
 9294SOL    HW128781   3.893   0.330   5.233
 9294SOL    HW228782   3.861   0.459   5.138
 9295SOL     OW28783   5.302   2.307   4.380
 9295SOL    HW128784   5.258   2.305   4.470
 9295SOL    HW228785   5.235   2.285   4.310
 9296SOL     OW28786   0.332   6.222   6.922
 9296SOL    HW128787   0.284   6.163   6.858
 9296SOL    HW228788   0.386   6.290   6.871
 9297SOL     OW28789   6.357   0.767   0.326
 9297SOL    HW128790   6.328   0.768   0.231
 9297SOL    HW228791   6.316   0.845   0.374
 9298SOL     OW28792   0.686   0.517   5.210
 9298SOL    HW128793   0.771   0.567   5.191
 9298SOL    HW228794   0.662   0.462   5.131
 9299SOL     OW28795   0.643   2.810   4.730
 9299SOL    HW128796   0.548   2.805   4.763
 9299SOL    HW228797   0.700   2.855   4.798
 9300SOL     OW28798   0.819   4.706   5.415
 9300SOL    HW128799   0.821   4.640   5.489
 9300SOL    HW228800   0.800   4.660   5.329
 9301SOL     OW28801   4.928   4.519   3.589
 9301SOL    HW128802   4.882   4.462   3.520
 9301SOL    HW228803   4.966   4.600   3.545
 9302SOL     OW28804   2.139   3.302   3.879
 9302SOL    HW128805   2.128   3.389   3.831
 9302SOL    HW228806   2.077   3.235   3.839
 9303SOL     OW28807   2.676   5.146   0.828
 9303SOL    HW128808   2.623   5.176   0.749
 9303SOL    HW228809   2.710   5.053   0.813
 9304SOL     OW28810   4.099   4.826   2.250
 9304SOL    HW128811   4.030   4.808   2.180
 9304SOL    HW228812   4.058   4.819   2.341
 9305SOL     OW28813   3.360   0.978   0.710
 9305SOL    HW128814   3.426   0.978   0.634
 9305SOL    HW228815   3.409   0.959   0.795
 9306SOL     OW28816   0.347   4.534   4.531
 9306SOL    HW128817   0.323   4.611   4.471
 9306SOL    HW228818   0.411   4.473   4.484
 9307SOL     OW28819   1.950   3.495   1.930
 9307SOL    HW128820   1.887   3.566   1.962
 9307SOL    HW228821   2.042   3.515   1.964
 9308SOL     OW28822   1.824   3.615   0.212
 9308SOL    HW128823   1.840   3.708   0.179
 9308SOL    HW228824   1.758   3.617   0.288
 9309SOL     OW28825   3.424   4.591   6.095
 9309SOL    HW128826   3.402   4.497   6.069
 9309SOL    HW228827   3.343   4.649   6.084
 9310SOL     OW28828   4.607   5.029   6.590
 9310SOL    HW128829   4.542   5.079   6.533
 9310SOL    HW228830   4.689   5.085   6.606
 9311SOL     OW28831   4.468   5.115   2.640
 9311SOL    HW128832   4.414   5.031   2.642
 9311SOL    HW228833   4.407   5.194   2.630
 9312SOL     OW28834   1.285   3.492   1.187
 9312SOL    HW128835   1.241   3.461   1.103
 9312SOL    HW228836   1.232   3.462   1.266
 9313SOL     OW28837   0.702   0.663   1.267
 9313SOL    HW128838   0.639   0.647   1.343
 9313SOL    HW228839   0.781   0.603   1.277
 9314SOL     OW28840   5.213   5.292   6.641
 9314SOL    HW128841   5.264   5.297   6.726
 9314SOL    HW228842   5.198   5.385   6.606
 9315SOL     OW28843   6.012   0.312   4.704
 9315SOL    HW128844   6.074   0.379   4.744
 9315SOL    HW228845   5.927   0.310   4.757
 9316SOL     OW28846   4.282   5.796   5.604
 9316SOL    HW128847   4.221   5.874   5.614
 9316SOL    HW228848   4.231   5.711   5.618
 9317SOL     OW28849   5.590   5.145   3.545
 9317SOL    HW128850   5.663   5.089   3.506
 9317SOL    HW228851   5.582   5.125   3.643
 9318SOL     OW28852   6.128   0.674   5.378
 9318SOL    HW128853   6.118   0.578   5.355
 9318SOL    HW228854   6.180   0.683   5.463
 9319SOL     OW28855   1.813   3.345   0.291
 9319SOL    HW128856   1.799   3.442   0.271
 9319SOL    HW228857   1.906   3.319   0.264
 9320SOL     OW28858   3.940   0.151   5.013
 9320SOL    HW128859   4.017   0.095   4.981
 9320SOL    HW228860   3.951   0.169   5.110
 9321SOL     OW28861   6.971   0.262   3.672
 9321SOL    HW128862   0.035   0.312   3.650
 9321SOL    HW228863   6.934   0.221   3.589
 9322SOL     OW28864   0.644   4.309   6.895
 9322SOL    HW128865   0.725   4.274   6.941
 9322SOL    HW228866   0.565   4.250   6.915
 9323SOL     OW28867   1.154   0.581   5.340
 9323SOL    HW128868   1.170   0.595   5.437
 9323SOL    HW228869   1.070   0.527   5.328
 9324SOL     OW28870   1.189   4.324   0.641
 9324SOL    HW128871   1.111   4.348   0.698
 9324SOL    HW228872   1.273   4.357   0.683
 9325SOL     OW28873   5.040   0.329   0.341
 9325SOL    HW128874   5.034   0.374   0.252
 9325SOL    HW228875   5.030   0.397   0.414
 9326SOL     OW28876   2.116   5.595   0.158
 9326SOL    HW128877   2.077   5.503   0.154
 9326SOL    HW228878   2.129   5.621   0.254
 9327SOL     OW28879   5.620   0.710   2.736
 9327SOL    HW128880   5.673   0.777   2.684
 9327SOL    HW228881   5.616   0.624   2.685
 9328SOL     OW28882   2.763   0.867   5.144
 9328SOL    HW128883   2.856   0.848   5.111
 9328SOL    HW228884   2.761   0.958   5.186
 9329SOL     OW28885   5.985   3.522   1.196
 9329SOL    HW128886   5.927   3.479   1.127
 9329SOL    HW228887   5.973   3.475   1.284
 9330SOL     OW28888   6.268   6.636   6.336
 9330SOL    HW128889   6.336   6.600   6.400
 9330SOL    HW228890   6.224   6.716   6.376
 9331SOL     OW28891   2.470   1.177   6.954
 9331SOL    HW128892   2.386   1.221   6.985
 9331SOL    HW228893   2.509   1.227   6.877
 9332SOL     OW28894   3.920   4.019   1.646
 9332SOL    HW128895   3.917   3.936   1.590
 9332SOL    HW228896   3.912   4.099   1.586
 9333SOL     OW28897   4.449   3.862   0.430
 9333SOL    HW128898   4.521   3.837   0.366
 9333SOL    HW228899   4.443   3.962   0.437
 9334SOL     OW28900   6.182   5.884   3.416
 9334SOL    HW128901   6.238   5.964   3.435
 9334SOL    HW228902   6.178   5.825   3.497
 9335SOL     OW28903   0.940   1.413   6.834
 9335SOL    HW128904   0.972   1.403   6.929
 9335SOL    HW228905   0.965   1.331   6.783
 9336SOL     OW28906   3.230   5.979   5.548
 9336SOL    HW128907   3.235   5.921   5.629
 9336SOL    HW228908   3.286   5.939   5.475
 9337SOL     OW28909   4.265   1.957   4.481
 9337SOL    HW128910   4.341   1.908   4.439
 9337SOL    HW228911   4.181   1.941   4.428
 9338SOL     OW28912   5.244   0.442   2.237
 9338SOL    HW128913   5.184   0.506   2.189
 9338SOL    HW228914   5.334   0.443   2.194
 9339SOL     OW28915   5.745   6.992   1.592
 9339SOL    HW128916   5.673   6.991   1.661
 9339SOL    HW228917   5.706   6.968   1.503
 9340SOL     OW28918   5.425   4.376   4.452
 9340SOL    HW128919   5.401   4.336   4.540
 9340SOL    HW228920   5.381   4.465   4.442
 9341SOL     OW28921   6.938   5.711   0.752
 9341SOL    HW128922   7.003   5.637   0.769
 9341SOL    HW228923   6.986   5.788   0.708
 9342SOL     OW28924   1.825   6.452   3.865
 9342SOL    HW128925   1.813   6.353   3.871
 9342SOL    HW228926   1.882   6.483   3.941
 9343SOL     OW28927   5.821   4.058   2.768
 9343SOL    HW128928   5.803   4.021   2.859
 9343SOL    HW228929   5.911   4.028   2.738
 9344SOL     OW28930   4.878   6.381   2.812
 9344SOL    HW128931   4.802   6.444   2.821
 9344SOL    HW228932   4.965   6.431   2.816
 9345SOL     OW28933   5.928   5.291   2.361
 9345SOL    HW128934   6.008   5.350   2.358
 9345SOL    HW228935   5.956   5.199   2.391
 9346SOL     OW28936   6.021   1.458   1.284
 9346SOL    HW128937   6.011   1.543   1.335
 9346SOL    HW228938   6.091   1.401   1.328
 9347SOL     OW28939   2.723   3.633   0.784
 9347SOL    HW128940   2.788   3.628   0.709
 9347SOL    HW228941   2.633   3.661   0.750
 9348SOL     OW28942   3.221   6.269   2.159
 9348SOL    HW128943   3.295   6.326   2.195
 9348SOL    HW228944   3.253   6.176   2.146
 9349SOL     OW28945   6.105   5.462   3.660
 9349SOL    HW128946   6.045   5.514   3.598
 9349SOL    HW228947   6.051   5.431   3.739
 9350SOL     OW28948   0.644   3.064   5.146
 9350SOL    HW128949   0.549   3.068   5.114
 9350SOL    HW228950   0.645   3.032   5.241
 9351SOL     OW28951   2.891   0.227   0.065
 9351SOL    HW128952   2.842   0.293   0.122
 9351SOL    HW228953   2.944   0.165   0.123
 9352SOL     OW28954   3.895   1.357   6.280
 9352SOL    HW128955   3.934   1.448   6.295
 9352SOL    HW228956   3.798   1.365   6.256
 9353SOL     OW28957   0.619   4.564   0.731
 9353SOL    HW128958   0.595   4.494   0.663
 9353SOL    HW228959   0.681   4.630   0.689
 9354SOL     OW28960   0.174   2.098   6.155
 9354SOL    HW128961   0.090   2.116   6.206
 9354SOL    HW228962   0.234   2.178   6.160
 9355SOL     OW28963   0.386   2.011   4.377
 9355SOL    HW128964   0.418   2.106   4.378
 9355SOL    HW228965   0.298   2.005   4.330
 9356SOL     OW28966   4.817   0.411   2.153
 9356SOL    HW128967   4.731   0.446   2.190
 9356SOL    HW228968   4.819   0.312   2.160
 9357SOL     OW28969   1.955   2.687   6.009
 9357SOL    HW128970   2.010   2.614   6.050
 9357SOL    HW228971   1.864   2.652   5.988
 9358SOL     OW28972   6.474   3.268   2.074
 9358SOL    HW128973   6.565   3.251   2.037
 9358SOL    HW228974   6.428   3.338   2.018
 9359SOL     OW28975   1.891   4.492   5.996
 9359SOL    HW128976   1.941   4.428   6.054
 9359SOL    HW228977   1.928   4.489   5.903
 9360SOL     OW28978   1.281   4.425   6.372
 9360SOL    HW128979   1.260   4.510   6.419
 9360SOL    HW228980   1.235   4.423   6.283
 9361SOL     OW28981   1.926   5.226   2.602
 9361SOL    HW128982   1.847   5.259   2.653
 9361SOL    HW228983   1.912   5.131   2.575
 9362SOL     OW28984   1.557   1.448   2.564
 9362SOL    HW128985   1.641   1.485   2.525
 9362SOL    HW228986   1.569   1.437   2.663
 9363SOL     OW28987   3.069   5.156   1.849
 9363SOL    HW128988   3.060   5.060   1.822
 9363SOL    HW228989   3.075   5.213   1.767
 9364SOL     OW28990   2.562   2.079   6.810
 9364SOL    HW128991   2.519   2.139   6.877
 9364SOL    HW228992   2.645   2.123   6.775
 9365SOL     OW28993   3.380   2.087   3.636
 9365SOL    HW128994   3.446   2.138   3.580
 9365SOL    HW228995   3.395   1.989   3.624
 9366SOL     OW28996   2.997   5.405   6.368
 9366SOL    HW128997   2.931   5.470   6.329
 9366SOL    HW228998   3.025   5.436   6.458
 9367SOL     OW28999   6.435   6.205   2.203
 9367SOL    HW129000   6.493   6.193   2.283
 9367SOL    HW229001   6.486   6.180   2.121
 9368SOL     OW29002   3.179   0.618   2.965
 9368SOL    HW129003   3.164   0.597   3.062
 9368SOL    HW229004   3.148   0.541   2.909
 9369SOL     OW29005   6.749   6.814   3.828
 9369SOL    HW129006   6.799   6.761   3.760
 9369SOL    HW229007   6.721   6.755   3.904
 9370SOL     OW29008   5.340   0.452   4.489
 9370SOL    HW129009   5.367   0.374   4.547
 9370SOL    HW229010   5.395   0.532   4.513
 9371SOL     OW29011   2.412   5.824   0.352
 9371SOL    HW129012   2.315   5.804   0.367
 9371SOL    HW229013   2.463   5.738   0.342
 9372SOL     OW29014   5.385   6.656   1.337
 9372SOL    HW129015   5.308   6.656   1.273
 9372SOL    HW229016   5.444   6.578   1.317
 9373SOL     OW29017   4.770   2.707   1.555
 9373SOL    HW129018   4.830   2.787   1.548
 9373SOL    HW229019   4.676   2.734   1.537
 9374SOL     OW29020   0.353   2.940   6.658
 9374SOL    HW129021   0.405   2.874   6.604
 9374SOL    HW229022   0.415   2.994   6.714
 9375SOL     OW29023   0.388   2.514   1.187
 9375SOL    HW129024   0.360   2.550   1.098
 9375SOL    HW229025   0.459   2.445   1.173
 9376SOL     OW29026   2.123   3.744   1.057
 9376SOL    HW129027   2.049   3.807   1.080
 9376SOL    HW229028   2.114   3.661   1.112
 9377SOL     OW29029   1.993   4.933   2.786
 9377SOL    HW129030   1.912   4.958   2.734
 9377SOL    HW229031   1.966   4.909   2.879
 9378SOL     OW29032   3.204   1.009   3.064
 9378SOL    HW129033   3.231   1.105   3.057
 9378SOL    HW229034   3.165   0.979   2.977
 9379SOL     OW29035   5.097   0.136   5.087
 9379SOL    HW129036   5.052   0.180   5.165
 9379SOL    HW229037   5.030   0.081   5.037
 9380SOL     OW29038   3.644   5.292   5.241
 9380SOL    HW129039   3.709   5.364   5.265
 9380SOL    HW229040   3.567   5.294   5.306
 9381SOL     OW29041   5.564   2.941   5.675
 9381SOL    HW129042   5.549   3.004   5.599
 9381SOL    HW229043   5.662   2.922   5.684
 9382SOL     OW29044   3.895   0.446   3.429
 9382SOL    HW129045   3.943   0.479   3.347
 9382SOL    HW229046   3.797   0.440   3.409
 9383SOL     OW29047   5.361   4.640   3.899
 9383SOL    HW129048   5.355   4.589   3.985
 9383SOL    HW229049   5.403   4.729   3.917
 9384SOL     OW29050   3.967   0.253   1.950
 9384SOL    HW129051   3.892   0.292   2.003
 9384SOL    HW229052   3.991   0.315   1.875
 9385SOL     OW29053   4.366   1.358   4.181
 9385SOL    HW129054   4.399   1.264   4.191
 9385SOL    HW229055   4.444   1.420   4.169
 9386SOL     OW29056   3.331   5.808   5.318
 9386SOL    HW129057   3.354   5.712   5.338
 9386SOL    HW229058   3.335   5.823   5.219
 9387SOL     OW29059   2.872   2.335   0.578
 9387SOL    HW129060   2.857   2.310   0.482
 9387SOL    HW229061   2.920   2.262   0.625
 9388SOL     OW29062   2.090   6.135   3.642
 9388SOL    HW129063   2.085   6.113   3.739
 9388SOL    HW229064   2.152   6.072   3.596
 9389SOL     OW29065   2.839   0.372   2.730
 9389SOL    HW129066   2.918   0.430   2.708
 9389SOL    HW229067   2.782   0.420   2.797
 9390SOL     OW29068   5.734   5.372   5.791
 9390SOL    HW129069   5.681   5.457   5.798
 9390SOL    HW229070   5.804   5.370   5.862
 9391SOL     OW29071   0.096   0.090   6.198
 9391SOL    HW129072   0.001   0.058   6.200
 9391SOL    HW229073   0.154   0.023   6.244
 9392SOL     OW29074   5.231   4.497   5.350
 9392SOL    HW129075   5.257   4.593   5.360
 9392SOL    HW229076   5.133   4.487   5.366
 9393SOL     OW29077   2.743   0.113   5.735
 9393SOL    HW129078   2.808   0.169   5.785
 9393SOL    HW229079   2.679   0.173   5.685
 9394SOL     OW29080   6.333   0.290   0.885
 9394SOL    HW129081   6.293   0.281   0.976
 9394SOL    HW229082   6.433   0.285   0.891
 9395SOL     OW29083   2.412   0.964   0.729
 9395SOL    HW129084   2.426   1.027   0.805
 9395SOL    HW229085   2.500   0.928   0.699
 9396SOL     OW29086   1.706   4.689   4.389
 9396SOL    HW129087   1.687   4.751   4.465
 9396SOL    HW229088   1.738   4.601   4.424
 9397SOL     OW29089   3.132   6.601   6.210
 9397SOL    HW129090   3.141   6.671   6.280
 9397SOL    HW229091   3.147   6.511   6.250
 9398SOL     OW29092   5.913   1.125   6.154
 9398SOL    HW129093   5.839   1.060   6.168
 9398SOL    HW229094   5.886   1.215   6.187
 9399SOL     OW29095   0.790   3.293   4.523
 9399SOL    HW129096   0.749   3.261   4.608
 9399SOL    HW229097   0.738   3.371   4.488
 9400SOL     OW29098   4.686   0.708   1.183
 9400SOL    HW129099   4.773   0.662   1.168
 9400SOL    HW229100   4.613   0.655   1.140
 9401SOL     OW29101   0.157   1.936   2.767
 9401SOL    HW129102   0.087   1.895   2.826
 9401SOL    HW229103   0.236   1.962   2.822
 9402SOL     OW29104   1.254   3.769   2.903
 9402SOL    HW129105   1.195   3.845   2.877
 9402SOL    HW229106   1.332   3.804   2.956
 9403SOL     OW29107   6.437   1.702   1.906
 9403SOL    HW129108   6.404   1.768   1.974
 9403SOL    HW229109   6.402   1.727   1.816
 9404SOL     OW29110   0.439   2.164   1.620
 9404SOL    HW129111   0.340   2.157   1.630
 9404SOL    HW229112   0.462   2.238   1.557
 9405SOL     OW29113   1.762   4.281   3.885
 9405SOL    HW129114   1.862   4.273   3.885
 9405SOL    HW229115   1.722   4.196   3.919
 9406SOL     OW29116   0.771   3.118   6.708
 9406SOL    HW129117   0.678   3.114   6.744
 9406SOL    HW229118   0.836   3.131   6.783
 9407SOL     OW29119   2.295   5.640   4.350
 9407SOL    HW129120   2.305   5.601   4.441
 9407SOL    HW229121   2.358   5.717   4.339
 9408SOL     OW29122   6.901   2.569   5.948
 9408SOL    HW129123   6.988   2.538   5.986
 9408SOL    HW229124   6.891   2.667   5.963
 9409SOL     OW29125   6.128   5.815   1.835
 9409SOL    HW129126   6.082   5.849   1.917
 9409SOL    HW229127   6.205   5.757   1.862
 9410SOL     OW29128   3.674   0.818   2.057
 9410SOL    HW129129   3.737   0.803   1.981
 9410SOL    HW229130   3.619   0.736   2.071
 9411SOL     OW29131   3.994   3.140   3.289
 9411SOL    HW129132   4.038   3.071   3.347
 9411SOL    HW229133   4.056   3.218   3.279
 9412SOL     OW29134   1.671   0.604   2.136
 9412SOL    HW129135   1.748   0.666   2.145
 9412SOL    HW229136   1.591   0.654   2.103
 9413SOL     OW29137   4.749   5.237   3.932
 9413SOL    HW129138   4.758   5.236   4.031
 9413SOL    HW229139   4.834   5.204   3.890
 9414SOL     OW29140   3.245   1.531   3.779
 9414SOL    HW129141   3.227   1.433   3.775
 9414SOL    HW229142   3.241   1.570   3.687
 9415SOL     OW29143   2.161   6.990   1.727
 9415SOL    HW129144   2.153   6.890   1.716
 9415SOL    HW229145   2.157   0.013   1.637
 9416SOL     OW29146   6.942   0.592   5.655
 9416SOL    HW129147   6.881   0.670   5.646
 9416SOL    HW229148   6.891   0.508   5.637
 9417SOL     OW29149   3.529   6.458   0.913
 9417SOL    HW129150   3.441   6.417   0.890
 9417SOL    HW229151   3.525   6.557   0.897
 9418SOL     OW29152   2.290   1.318   2.303
 9418SOL    HW129153   2.373   1.293   2.253
 9418SOL    HW229154   2.243   1.391   2.254
 9419SOL     OW29155   1.451   3.339   6.816
 9419SOL    HW129156   1.524   3.399   6.783
 9419SOL    HW229157   1.475   3.302   6.905
 9420SOL     OW29158   5.334   4.377   0.188
 9420SOL    HW129159   5.288   4.358   0.101
 9420SOL    HW229160   5.265   4.392   0.259
 9421SOL     OW29161   3.045   5.148   4.527
 9421SOL    HW129162   2.968   5.107   4.478
 9421SOL    HW229163   3.080   5.083   4.594
 9422SOL     OW29164   3.062   6.116   3.657
 9422SOL    HW129165   3.121   6.193   3.631
 9422SOL    HW229166   2.969   6.133   3.628
 9423SOL     OW29167   3.900   6.371   2.857
 9423SOL    HW129168   3.985   6.331   2.890
 9423SOL    HW229169   3.823   6.317   2.892
 9424SOL     OW29170   5.150   1.692   4.163
 9424SOL    HW129171   5.185   1.785   4.158
 9424SOL    HW229172   5.226   1.628   4.148
 9425SOL     OW29173   5.732   5.285   1.049
 9425SOL    HW129174   5.738   5.196   1.004
 9425SOL    HW229175   5.636   5.315   1.051
 9426SOL     OW29176   2.648   1.820   5.897
 9426SOL    HW129177   2.727   1.760   5.913
 9426SOL    HW229178   2.616   1.857   5.984
 9427SOL     OW29179   2.741   5.645   3.102
 9427SOL    HW129180   2.718   5.579   3.173
 9427SOL    HW229181   2.657   5.690   3.070
 9428SOL     OW29182   6.886   0.155   0.674
 9428SOL    HW129183   6.984   0.151   0.691
 9428SOL    HW229184   6.866   0.233   0.614
 9429SOL     OW29185   2.504   2.612   3.787
 9429SOL    HW129186   2.431   2.634   3.723
 9429SOL    HW229187   2.467   2.608   3.880
 9430SOL     OW29188   0.516   2.107   4.813
 9430SOL    HW129189   0.499   2.044   4.737
 9430SOL    HW229190   0.567   2.186   4.780
 9431SOL     OW29191   6.680   4.870   1.012
 9431SOL    HW129192   6.612   4.912   0.953
 9431SOL    HW229193   6.702   4.932   1.088
 9432SOL     OW29194   6.116   1.569   4.532
 9432SOL    HW129195   6.109   1.607   4.439
 9432SOL    HW229196   6.082   1.475   4.531
 9433SOL     OW29197   3.702   6.795   2.935
 9433SOL    HW129198   3.640   6.774   2.860
 9433SOL    HW229199   3.761   6.716   2.953
 9434SOL     OW29200   6.103   5.566   3.314
 9434SOL    HW129201   6.140   5.557   3.221
 9434SOL    HW229202   6.166   5.620   3.369
 9435SOL     OW29203   0.527   1.875   3.098
 9435SOL    HW129204   0.499   1.957   3.149
 9435SOL    HW229205   0.472   1.797   3.126
 9436SOL     OW29206   1.613   1.233   2.813
 9436SOL    HW129207   1.521   1.219   2.777
 9436SOL    HW229208   1.609   1.285   2.898
 9437SOL     OW29209   0.490   5.187   3.297
 9437SOL    HW129210   0.474   5.249   3.374
 9437SOL    HW229211   0.579   5.206   3.257
 9438SOL     OW29212   1.574   6.782   2.077
 9438SOL    HW129213   1.639   6.857   2.071
 9438SOL    HW229214   1.533   6.779   2.168
 9439SOL     OW29215   0.672   3.196   1.464
 9439SOL    HW129216   0.603   3.266   1.444
 9439SOL    HW229217   0.644   3.109   1.422
 9440SOL     OW29218   3.776   4.897   3.700
 9440SOL    HW129219   3.686   4.870   3.667
 9440SOL    HW229220   3.839   4.903   3.622
 9441SOL     OW29221   6.616   6.067   5.779
 9441SOL    HW129222   6.549   6.056   5.706
 9441SOL    HW229223   6.669   5.982   5.789
 9442SOL     OW29224   4.673   3.398   1.714
 9442SOL    HW129225   4.574   3.406   1.713
 9442SOL    HW229226   4.699   3.306   1.744
 9443SOL     OW29227   2.828   5.310   0.522
 9443SOL    HW129228   2.729   5.302   0.532
 9443SOL    HW229229   2.849   5.380   0.453
 9444SOL     OW29230   1.583   4.205   0.802
 9444SOL    HW129231   1.674   4.238   0.825
 9444SOL    HW229232   1.582   4.105   0.803
 9445SOL     OW29233   0.102   2.425   3.035
 9445SOL    HW129234   0.090   2.474   2.948
 9445SOL    HW229235   0.120   2.491   3.108
 9446SOL     OW29236   0.175   5.410   4.478
 9446SOL    HW129237   0.087   5.365   4.464
 9446SOL    HW229238   0.244   5.370   4.419
 9447SOL     OW29239   5.586   5.075   3.800
 9447SOL    HW129240   5.495   5.075   3.840
 9447SOL    HW229241   5.654   5.052   3.870
 9448SOL     OW29242   6.607   0.091   6.245
 9448SOL    HW129243   6.548   0.101   6.325
 9448SOL    HW229244   6.642   0.180   6.217
 9449SOL     OW29245   6.277   6.649   6.886
 9449SOL    HW129246   6.371   6.617   6.885
 9449SOL    HW229247   6.272   6.737   6.933
 9450SOL     OW29248   2.348   5.343   3.438
 9450SOL    HW129249   2.335   5.439   3.413
 9450SOL    HW229250   2.403   5.298   3.368
 9451SOL     OW29251   3.888   6.054   5.805
 9451SOL    HW129252   3.830   5.996   5.748
 9451SOL    HW229253   3.981   6.055   5.768
 9452SOL     OW29254   1.235   4.297   6.847
 9452SOL    HW129255   1.280   4.257   6.927
 9452SOL    HW229256   1.151   4.247   6.827
 9453SOL     OW29257   2.867   4.771   2.854
 9453SOL    HW129258   2.820   4.811   2.933
 9453SOL    HW229259   2.800   4.725   2.795
 9454SOL     OW29260   3.666   2.852   6.179
 9454SOL    HW129261   3.695   2.757   6.186
 9454SOL    HW229262   3.746   2.912   6.174
 9455SOL     OW29263   2.417   2.403   2.518
 9455SOL    HW129264   2.425   2.480   2.454
 9455SOL    HW229265   2.500   2.398   2.574
 9456SOL     OW29266   6.047   3.809   1.381
 9456SOL    HW129267   6.057   3.907   1.399
 9456SOL    HW229268   6.019   3.795   1.286
 9457SOL     OW29269   0.295   5.144   4.115
 9457SOL    HW129270   0.202   5.122   4.085
 9457SOL    HW229271   0.346   5.060   4.130
 9458SOL     OW29272   6.905   4.209   0.167
 9458SOL    HW129273   6.898   4.191   0.069
 9458SOL    HW229274   7.001   4.217   0.194
 9459SOL     OW29275   5.289   5.046   3.853
 9459SOL    HW129276   5.284   5.137   3.895
 9459SOL    HW229277   5.316   4.979   3.922
 9460SOL     OW29278   2.121   3.315   4.685
 9460SOL    HW129279   2.133   3.218   4.706
 9460SOL    HW229280   2.093   3.325   4.589
 9461SOL     OW29281   0.536   1.881   2.224
 9461SOL    HW129282   0.494   1.907   2.136
 9461SOL    HW229283   0.486   1.924   2.299
 9462SOL     OW29284   1.651   2.843   3.777
 9462SOL    HW129285   1.648   2.745   3.798
 9462SOL    HW229286   1.680   2.893   3.859
 9463SOL     OW29287   5.564   6.464   1.312
 9463SOL    HW129288   5.643   6.493   1.258
 9463SOL    HW229289   5.582   6.374   1.352
 9464SOL     OW29290   5.913   6.827   0.583
 9464SOL    HW129291   5.999   6.777   0.574
 9464SOL    HW229292   5.925   6.901   0.650
 9465SOL     OW29293   6.829   3.859   1.777
 9465SOL    HW129294   6.780   3.786   1.825
 9465SOL    HW229295   6.802   3.948   1.816
 9466SOL     OW29296   3.557   4.166   6.016
 9466SOL    HW129297   3.504   4.249   6.002
 9466SOL    HW229298   3.496   4.090   6.038
 9467SOL     OW29299   0.631   2.669   1.239
 9467SOL    HW129300   0.586   2.586   1.204
 9467SOL    HW229301   0.650   2.731   1.163
 9468SOL     OW29302   6.717   3.590   6.091
 9468SOL    HW129303   6.638   3.612   6.148
 9468SOL    HW229304   6.785   3.540   6.146
 9469SOL     OW29305   6.823   5.750   1.499
 9469SOL    HW129306   6.796   5.807   1.576
 9469SOL    HW229307   6.910   5.782   1.462
 9470SOL     OW29308   4.424   3.327   6.783
 9470SOL    HW129309   4.412   3.425   6.797
 9470SOL    HW229310   4.520   3.309   6.759
 9471SOL     OW29311   6.426   1.856   5.231
 9471SOL    HW129312   6.439   1.870   5.133
 9471SOL    HW229313   6.345   1.800   5.246
 9472SOL     OW29314   0.455   3.989   5.689
 9472SOL    HW129315   0.500   3.944   5.612
 9472SOL    HW229316   0.516   4.060   5.726
 9473SOL     OW29317   3.218   4.204   6.325
 9473SOL    HW129318   3.242   4.294   6.361
 9473SOL    HW229319   3.145   4.164   6.380
 9474SOL     OW29320   5.806   3.472   2.072
 9474SOL    HW129321   5.791   3.481   2.171
 9474SOL    HW229322   5.799   3.376   2.046
 9475SOL     OW29323   4.378   3.532   0.333
 9475SOL    HW129324   4.351   3.517   0.428
 9475SOL    HW229325   4.306   3.583   0.286
 9476SOL     OW29326   3.870   3.682   4.941
 9476SOL    HW129327   3.891   3.635   4.855
 9476SOL    HW229328   3.942   3.748   4.962
 9477SOL     OW29329   0.291   2.624   1.408
 9477SOL    HW129330   0.317   2.596   1.315
 9477SOL    HW229331   0.235   2.553   1.450
 9478SOL     OW29332   5.384   3.187   1.062
 9478SOL    HW129333   5.402   3.245   0.982
 9478SOL    HW229334   5.292   3.205   1.097
 9479SOL     OW29335   4.471   6.398   0.742
 9479SOL    HW129336   4.532   6.430   0.815
 9479SOL    HW229337   4.377   6.400   0.775
 9480SOL     OW29338   5.809   5.430   0.712
 9480SOL    HW129339   5.710   5.443   0.703
 9480SOL    HW229340   5.838   5.457   0.803
 9481SOL     OW29341   4.900   2.259   2.627
 9481SOL    HW129342   4.911   2.159   2.631
 9481SOL    HW229343   4.888   2.294   2.720
 9482SOL     OW29344   6.688   0.496   2.738
 9482SOL    HW129345   6.675   0.571   2.674
 9482SOL    HW229346   6.775   0.508   2.787
 9483SOL     OW29347   1.645   1.097   0.437
 9483SOL    HW129348   1.577   1.160   0.400
 9483SOL    HW229349   1.711   1.148   0.493
 9484SOL     OW29350   3.157   0.063   4.654
 9484SOL    HW129351   3.248   0.103   4.665
 9484SOL    HW229352   3.112   0.055   4.743
 9485SOL     OW29353   0.229   1.904   1.033
 9485SOL    HW129354   0.280   1.923   0.949
 9485SOL    HW229355   0.269   1.825   1.080
 9486SOL     OW29356   4.273   6.373   1.143
 9486SOL    HW129357   4.243   6.380   1.238
 9486SOL    HW229358   4.371   6.388   1.138
 9487SOL     OW29359   3.263   4.091   4.034
 9487SOL    HW129360   3.277   4.099   4.133
 9487SOL    HW229361   3.188   4.028   4.016
 9488SOL     OW29362   2.631   0.259   1.223
 9488SOL    HW129363   2.667   0.321   1.153
 9488SOL    HW229364   2.531   0.259   1.218
 9489SOL     OW29365   4.895   4.678   1.164
 9489SOL    HW129366   4.979   4.638   1.128
 9489SOL    HW229367   4.821   4.611   1.160
 9490SOL     OW29368   6.687   6.019   3.562
 9490SOL    HW129369   6.779   6.058   3.559
 9490SOL    HW229370   6.652   6.009   3.469
 9491SOL     OW29371   5.713   5.388   4.000
 9491SOL    HW129372   5.804   5.415   3.970
 9491SOL    HW229373   5.652   5.468   3.997
 9492SOL     OW29374   3.558   3.186   5.060
 9492SOL    HW129375   3.600   3.179   5.151
 9492SOL    HW229376   3.569   3.099   5.012
 9493SOL     OW29377   3.124   5.774   4.763
 9493SOL    HW129378   3.107   5.867   4.795
 9493SOL    HW229379   3.053   5.713   4.799
 9494SOL     OW29380   5.577   3.115   2.439
 9494SOL    HW129381   5.651   3.180   2.417
 9494SOL    HW229382   5.521   3.153   2.513
 9495SOL     OW29383   6.961   1.555   2.556
 9495SOL    HW129384   0.040   1.546   2.559
 9495SOL    HW229385   6.936   1.613   2.478
 9496SOL     OW29386   5.230   2.613   1.756
 9496SOL    HW129387   5.189   2.699   1.725
 9496SOL    HW229388   5.258   2.621   1.851
 9497SOL     OW29389   4.828   5.931   4.979
 9497SOL    HW129390   4.781   5.929   4.891
 9497SOL    HW229391   4.872   6.020   4.991
 9498SOL     OW29392   6.464   4.684   4.912
 9498SOL    HW129393   6.429   4.622   4.983
 9498SOL    HW229394   6.389   4.711   4.852
 9499SOL     OW29395   0.868   6.071   4.860
 9499SOL    HW129396   0.958   6.038   4.830
 9499SOL    HW229397   0.797   6.019   4.812
 9500SOL     OW29398   3.747   6.523   0.618
 9500SOL    HW129399   3.737   6.537   0.520
 9500SOL    HW229400   3.668   6.472   0.653
 9501SOL     OW29401   2.034   1.340   4.152
 9501SOL    HW129402   2.050   1.250   4.192
 9501SOL    HW229403   2.058   1.411   4.220
 9502SOL     OW29404   6.442   3.801   5.054
 9502SOL    HW129405   6.449   3.718   4.998
 9502SOL    HW229406   6.355   3.800   5.103
 9503SOL     OW29407   6.866   2.861   0.400
 9503SOL    HW129408   6.921   2.862   0.317
 9503SOL    HW229409   6.834   2.768   0.418
 9504SOL     OW29410   6.909   3.975   2.041
 9504SOL    HW129411   6.936   3.905   2.108
 9504SOL    HW229412   6.830   4.025   2.076
 9505SOL     OW29413   5.408   4.364   5.505
 9505SOL    HW129414   5.349   4.422   5.450
 9505SOL    HW229415   5.415   4.401   5.598
 9506SOL     OW29416   1.370   2.486   0.936
 9506SOL    HW129417   1.408   2.416   0.876
 9506SOL    HW229418   1.442   2.521   0.996
 9507SOL     OW29419   6.810   0.807   1.585
 9507SOL    HW129420   6.822   0.889   1.641
 9507SOL    HW229421   6.749   0.827   1.508
 9508SOL     OW29422   5.795   1.455   2.899
 9508SOL    HW129423   5.822   1.365   2.866
 9508SOL    HW229424   5.739   1.500   2.830
 9509SOL     OW29425   0.101   0.909   3.403
 9509SOL    HW129426   0.079   1.001   3.437
 9509SOL    HW229427   0.104   0.910   3.303
 9510SOL     OW29428   1.465   3.802   3.057
 9510SOL    HW129429   1.432   3.716   3.097
 9510SOL    HW229430   1.476   3.870   3.129
 9511SOL     OW29431   1.988   0.603   1.427
 9511SOL    HW129432   2.014   0.677   1.489
 9511SOL    HW229433   1.932   0.639   1.352
 9512SOL     OW29434   6.608   2.218   0.487
 9512SOL    HW129435   6.513   2.234   0.515
 9512SOL    HW229436   6.612   2.134   0.432
 9513SOL     OW29437   2.899   4.445   6.335
 9513SOL    HW129438   2.912   4.359   6.286
 9513SOL    HW229439   2.834   4.502   6.285
 9514SOL     OW29440   2.904   4.889   6.708
 9514SOL    HW129441   2.897   4.989   6.699
 9514SOL    HW229442   2.824   4.846   6.668
 9515SOL     OW29443   2.208   6.082   2.571
 9515SOL    HW129444   2.293   6.045   2.610
 9515SOL    HW229445   2.166   6.012   2.512
 9516SOL     OW29446   5.618   4.955   0.296
 9516SOL    HW129447   5.652   5.047   0.276
 9516SOL    HW229448   5.637   4.932   0.391
 9517SOL     OW29449   1.966   3.944   1.187
 9517SOL    HW129450   1.867   3.959   1.186
 9517SOL    HW229451   2.012   4.032   1.180
 9518SOL     OW29452   2.090   1.800   0.920
 9518SOL    HW129453   2.023   1.725   0.917
 9518SOL    HW229454   2.182   1.761   0.917
 9519SOL     OW29455   2.905   3.176   5.179
 9519SOL    HW129456   2.929   3.173   5.082
 9519SOL    HW229457   2.989   3.185   5.234
 9520SOL     OW29458   2.530   0.635   2.947
 9520SOL    HW129459   2.556   0.700   3.019
 9520SOL    HW229460   2.606   0.572   2.931
 9521SOL     OW29461   5.786   5.516   2.715
 9521SOL    HW129462   5.803   5.438   2.775
 9521SOL    HW229463   5.764   5.483   2.623
 9522SOL     OW29464   3.169   5.135   1.172
 9522SOL    HW129465   3.238   5.173   1.233
 9522SOL    HW229466   3.081   5.180   1.188
 9523SOL     OW29467   3.061   5.475   5.055
 9523SOL    HW129468   2.975   5.424   5.067
 9523SOL    HW229469   3.083   5.523   5.140
 9524SOL     OW29470   4.094   2.622   1.559
 9524SOL    HW129471   4.042   2.558   1.615
 9524SOL    HW229472   4.032   2.685   1.513
 9525SOL     OW29473   2.614   2.797   6.068
 9525SOL    HW129474   2.585   2.712   6.026
 9525SOL    HW229475   2.710   2.814   6.047
 9526SOL     OW29476   4.764   5.907   1.623
 9526SOL    HW129477   4.682   5.849   1.627
 9526SOL    HW229478   4.839   5.863   1.673
 9527SOL     OW29479   0.914   0.404   1.830
 9527SOL    HW129480   0.948   0.400   1.924
 9527SOL    HW229481   0.831   0.348   1.822
 9528SOL     OW29482   6.387   0.666   6.855
 9528SOL    HW129483   6.296   0.648   6.819
 9528SOL    HW229484   6.456   0.624   6.795
 9529SOL     OW29485   0.017   2.973   5.262
 9529SOL    HW129486   7.008   2.880   5.285
 9529SOL    HW229487   0.114   2.972   5.237
 9530SOL     OW29488   1.443   3.151   3.457
 9530SOL    HW129489   1.470   3.215   3.529
 9530SOL    HW229490   1.490   3.064   3.470
 9531SOL     OW29491   3.702   5.274   3.340
 9531SOL    HW129492   3.789   5.225   3.342
 9531SOL    HW229493   3.687   5.320   3.428
 9532SOL     OW29494   0.119   6.198   2.332
 9532SOL    HW129495   0.046   6.265   2.321
 9532SOL    HW229496   0.190   6.236   2.391
 9533SOL     OW29497   0.046   0.649   4.975
 9533SOL    HW129498   6.999   0.645   5.049
 9533SOL    HW229499   0.127   0.597   5.000
 9534SOL     OW29500   6.134   2.755   5.559
 9534SOL    HW129501   6.134   2.809   5.475
 9534SOL    HW229502   6.176   2.809   5.632
 9535SOL     OW29503   2.471   1.411   5.806
 9535SOL    HW129504   2.561   1.452   5.825
 9535SOL    HW229505   2.406   1.483   5.784
 9536SOL     OW29506   2.864   5.005   5.178
 9536SOL    HW129507   2.814   4.921   5.199
 9536SOL    HW229508   2.822   5.082   5.227
 9537SOL     OW29509   2.482   0.096   2.317
 9537SOL    HW129510   2.434   0.150   2.248
 9537SOL    HW229511   2.575   0.131   2.329
 9538SOL     OW29512   6.448   1.846   4.613
 9538SOL    HW129513   6.368   1.905   4.630
 9538SOL    HW229514   6.437   1.762   4.666
 9539SOL     OW29515   2.403   4.365   6.554
 9539SOL    HW129516   2.468   4.382   6.480
 9539SOL    HW229517   2.322   4.422   6.541
 9540SOL     OW29518   4.528   4.299   5.268
 9540SOL    HW129519   4.480   4.238   5.331
 9540SOL    HW229520   4.554   4.249   5.186
 9541SOL     OW29521   2.130   2.117   6.173
 9541SOL    HW129522   2.163   2.151   6.085
 9541SOL    HW229523   2.209   2.099   6.233
 9542SOL     OW29524   4.951   3.551   5.303
 9542SOL    HW129525   4.876   3.537   5.239
 9542SOL    HW229526   5.015   3.617   5.264
 9543SOL     OW29527   4.416   0.487   4.529
 9543SOL    HW129528   4.353   0.417   4.493
 9543SOL    HW229529   4.491   0.442   4.578
 9544SOL     OW29530   5.779   0.954   2.267
 9544SOL    HW129531   5.751   0.884   2.202
 9544SOL    HW229532   5.840   1.019   2.222
 9545SOL     OW29533   6.955   5.005   3.008
 9545SOL    HW129534   0.006   4.936   2.997
 9545SOL    HW229535   6.876   4.964   3.054
 9546SOL     OW29536   2.565   3.896   7.009
 9546SOL    HW129537   2.539   3.925   6.916
 9546SOL    HW229538   2.568   3.976   0.049
 9547SOL     OW29539   2.739   6.428   4.161
 9547SOL    HW129540   2.688   6.342   4.148
 9547SOL    HW229541   2.793   6.422   4.245
 9548SOL     OW29542   0.103   5.421   4.896
 9548SOL    HW129543   0.171   5.468   4.952
 9548SOL    HW229544   0.017   5.412   4.946
 9549SOL     OW29545   2.939   4.874   1.164
 9549SOL    HW129546   3.022   4.878   1.220
 9549SOL    HW229547   2.961   4.900   1.070
 9550SOL     OW29548   0.002   1.137   6.146
 9550SOL    HW129549   0.012   1.095   6.237
 9550SOL    HW229550   6.986   1.069   6.082
 9551SOL     OW29551   0.152   6.863   4.403
 9551SOL    HW129552   0.155   6.845   4.304
 9551SOL    HW229553   0.128   6.959   4.418
 9552SOL     OW29554   1.393   6.496   2.549
 9552SOL    HW129555   1.474   6.509   2.491
 9552SOL    HW229556   1.349   6.409   2.527
 9553SOL     OW29557   5.983   4.441   6.649
 9553SOL    HW129558   5.993   4.507   6.724
 9553SOL    HW229559   6.055   4.457   6.581
 9554SOL     OW29560   2.744   1.293   1.213
 9554SOL    HW129561   2.798   1.236   1.152
 9554SOL    HW229562   2.770   1.389   1.202
 9555SOL     OW29563   6.806   2.427   1.036
 9555SOL    HW129564   6.712   2.458   1.019
 9555SOL    HW229565   6.832   2.448   1.130
 9556SOL     OW29566   2.194   1.968   1.354
 9556SOL    HW129567   2.105   1.994   1.315
 9556SOL    HW229568   2.251   2.050   1.363
 9557SOL     OW29569   6.189   0.894   2.529
 9557SOL    HW129570   6.263   0.828   2.543
 9557SOL    HW229571   6.228   0.983   2.506
 9558SOL     OW29572   6.845   5.515   3.967
 9558SOL    HW129573   6.840   5.452   3.890
 9558SOL    HW229574   6.752   5.543   3.993
 9559SOL     OW29575   6.952   4.346   2.205
 9559SOL    HW129576   0.023   4.385   2.193
 9559SOL    HW229577   6.955   4.273   2.273
 9560SOL     OW29578   1.719   1.749   2.757
 9560SOL    HW129579   1.638   1.710   2.800
 9560SOL    HW229580   1.704   1.846   2.738
 9561SOL     OW29581   3.157   0.229   0.760
 9561SOL    HW129582   3.058   0.219   0.746
 9561SOL    HW229583   3.196   0.141   0.787
 9562SOL     OW29584   2.958   6.134   4.661
 9562SOL    HW129585   3.003   6.184   4.587
 9562SOL    HW229586   2.905   6.059   4.623
 9563SOL     OW29587   6.488   6.049   6.820
 9563SOL    HW129588   6.481   6.127   6.758
 9563SOL    HW229589   6.414   5.984   6.801
 9564SOL     OW29590   2.470   0.297   6.762
 9564SOL    HW129591   2.525   0.216   6.740
 9564SOL    HW229592   2.374   0.270   6.773
 9565SOL     OW29593   4.453   5.803   5.359
 9565SOL    HW129594   4.452   5.890   5.310
 9565SOL    HW229595   4.374   5.798   5.420
 9566SOL     OW29596   3.321   4.692   6.972
 9566SOL    HW129597   3.400   4.737   7.013
 9566SOL    HW229598   3.257   4.666   0.024
 9567SOL     OW29599   6.318   5.219   6.498
 9567SOL    HW129600   6.326   5.184   6.405
 9567SOL    HW229601   6.286   5.314   6.495
 9568SOL     OW29602   4.043   3.322   6.631
 9568SOL    HW129603   4.039   3.374   6.717
 9568SOL    HW229604   4.138   3.314   6.601
 9569SOL     OW29605   6.269   0.768   0.727
 9569SOL    HW129606   6.233   0.677   0.705
 9569SOL    HW229607   6.246   0.832   0.654
 9570SOL     OW29608   0.881   1.686   1.979
 9570SOL    HW129609   0.970   1.655   1.945
 9570SOL    HW229610   0.892   1.724   2.071
 9571SOL     OW29611   3.039   3.158   0.448
 9571SOL    HW129612   3.107   3.230   0.440
 9571SOL    HW229613   2.960   3.192   0.499
 9572SOL     OW29614   1.243   4.932   0.819
 9572SOL    HW129615   1.213   5.027   0.834
 9572SOL    HW229616   1.301   4.903   0.895
 9573SOL     OW29617   0.460   1.045   6.712
 9573SOL    HW129618   0.543   1.100   6.699
 9573SOL    HW229619   0.458   0.971   6.645
 9574SOL     OW29620   3.337   3.320   5.125
 9574SOL    HW129621   3.366   3.414   5.141
 9574SOL    HW229622   3.415   3.266   5.093
 9575SOL     OW29623   5.662   0.874   1.048
 9575SOL    HW129624   5.631   0.940   0.980
 9575SOL    HW229625   5.632   0.903   1.139
 9576SOL     OW29626   3.829   0.724   3.234
 9576SOL    HW129627   3.868   0.800   3.286
 9576SOL    HW229628   3.793   0.759   3.147
 9577SOL     OW29629   1.371   0.627   2.244
 9577SOL    HW129630   1.382   0.607   2.341
 9577SOL    HW229631   1.396   0.722   2.226
 9578SOL     OW29632   5.871   3.149   2.814
 9578SOL    HW129633   5.818   3.199   2.882
 9578SOL    HW229634   5.873   3.052   2.838
 9579SOL     OW29635   1.229   6.667   2.384
 9579SOL    HW129636   1.194   6.758   2.404
 9579SOL    HW229637   1.299   6.642   2.451
 9580SOL     OW29638   5.500   3.717   6.774
 9580SOL    HW129639   5.536   3.686   6.863
 9580SOL    HW229640   5.421   3.776   6.789
 9581SOL     OW29641   2.575   4.370   6.346
 9581SOL    HW129642   2.501   4.397   6.284
 9581SOL    HW229643   2.655   4.428   6.329
 9582SOL     OW29644   4.487   4.572   3.998
 9582SOL    HW129645   4.493   4.503   4.070
 9582SOL    HW229646   4.576   4.580   3.952
 9583SOL     OW29647   2.147   3.268   1.760
 9583SOL    HW129648   2.090   3.341   1.725
 9583SOL    HW229649   2.230   3.307   1.801
 9584SOL     OW29650   6.052   5.727   6.822
 9584SOL    HW129651   5.993   5.740   6.902
 9584SOL    HW229652   6.004   5.675   6.752
 9585SOL     OW29653   6.128   0.004   2.546
 9585SOL    HW129654   6.177   0.061   2.613
 9585SOL    HW229655   6.150   6.928   2.562
 9586SOL     OW29656   5.301   3.722   3.322
 9586SOL    HW129657   5.308   3.680   3.412
 9586SOL    HW229658   5.263   3.815   3.331
 9587SOL     OW29659   5.921   0.151   1.645
 9587SOL    HW129660   5.872   0.079   1.596
 9587SOL    HW229661   5.921   0.234   1.589
 9588SOL     OW29662   0.327   1.047   1.009
 9588SOL    HW129663   0.330   1.135   1.055
 9588SOL    HW229664   0.329   0.973   1.077
 9589SOL     OW29665   2.349   6.390   6.391
 9589SOL    HW129666   2.328   6.364   6.297
 9589SOL    HW229667   2.387   6.311   6.440
 9590SOL     OW29668   0.462   3.564   2.123
 9590SOL    HW129669   0.547   3.616   2.112
 9590SOL    HW229670   0.445   3.510   2.041
 9591SOL     OW29671   2.299   6.379   0.632
 9591SOL    HW129672   2.373   6.322   0.668
 9591SOL    HW229673   2.213   6.329   0.638
 9592SOL     OW29674   4.130   5.492   2.829
 9592SOL    HW129675   4.145   5.568   2.766
 9592SOL    HW229676   4.093   5.414   2.779
 9593SOL     OW29677   5.248   1.958   4.149
 9593SOL    HW129678   5.268   2.056   4.140
 9593SOL    HW229679   5.334   1.908   4.162
 9594SOL     OW29680   6.994   6.469   2.996
 9594SOL    HW129681   6.992   6.569   3.001
 9594SOL    HW229682   0.059   6.435   3.035
 9595SOL     OW29683   2.086   5.872   5.165
 9595SOL    HW129684   2.099   5.910   5.074
 9595SOL    HW229685   2.107   5.941   5.234
 9596SOL     OW29686   6.990   5.063   5.752
 9596SOL    HW129687   6.982   5.161   5.770
 9596SOL    HW229688   0.060   5.044   5.713
 9597SOL     OW29689   0.509   4.165   1.858
 9597SOL    HW129690   0.538   4.166   1.762
 9597SOL    HW229691   0.470   4.075   1.879
 9598SOL     OW29692   0.140   4.073   5.550
 9598SOL    HW129693   0.073   4.085   5.623
 9598SOL    HW229694   0.177   4.163   5.523
 9599SOL     OW29695   3.514   0.132   5.439
 9599SOL    HW129696   3.442   0.062   5.439
 9599SOL    HW229697   3.534   0.158   5.344
 9600SOL     OW29698   1.695   0.347   5.579
 9600SOL    HW129699   1.714   0.424   5.519
 9600SOL    HW229700   1.658   0.381   5.666
 9601SOL     OW29701   6.868   4.114   6.077
 9601SOL    HW129702   6.778   4.141   6.046
 9601SOL    HW229703   6.889   4.160   6.164
 9602SOL     OW29704   6.643   5.263   6.049
 9602SOL    HW129705   6.598   5.202   5.983
 9602SOL    HW229706   6.702   5.209   6.109
 9603SOL     OW29707   2.751   6.869   4.630
 9603SOL    HW129708   2.673   6.925   4.600
 9603SOL    HW229709   2.789   6.821   4.551
 9604SOL     OW29710   4.800   1.028   0.710
 9604SOL    HW129711   4.771   0.945   0.757
 9604SOL    HW229712   4.775   1.108   0.764
 9605SOL     OW29713   1.051   4.876   5.619
 9605SOL    HW129714   1.116   4.856   5.546
 9605SOL    HW229715   1.027   4.790   5.666
 9606SOL     OW29716   1.169   6.904   3.316
 9606SOL    HW129717   1.150   7.001   3.331
 9606SOL    HW229718   1.247   6.875   3.372
 9607SOL     OW29719   0.894   1.126   1.719
 9607SOL    HW129720   0.836   1.208   1.714
 9607SOL    HW229721   0.844   1.047   1.686
 9608SOL     OW29722   6.728   0.008   2.117
 9608SOL    HW129723   6.756   6.936   2.088
 9608SOL    HW229724   6.751   0.020   2.213
 9609SOL     OW29725   1.639   4.458   4.652
 9609SOL    HW129726   1.721   4.468   4.596
 9609SOL    HW229727   1.558   4.467   4.595
 9610SOL     OW29728   1.699   2.614   5.933
 9610SOL    HW129729   1.712   2.591   6.029
 9610SOL    HW229730   1.604   2.644   5.919
 9611SOL     OW29731   6.727   0.223   1.273
 9611SOL    HW129732   6.762   0.311   1.240
 9611SOL    HW229733   6.690   0.170   1.197
 9612SOL     OW29734   6.483   2.827   0.919
 9612SOL    HW129735   6.480   2.919   0.958
 9612SOL    HW229736   6.568   2.816   0.867
 9613SOL     OW29737   5.452   7.012   4.086
 9613SOL    HW129738   5.424   6.922   4.054
 9613SOL    HW229739   5.552   7.015   4.094
 9614SOL     OW29740   3.903   3.935   2.255
 9614SOL    HW129741   3.976   3.982   2.203
 9614SOL    HW229742   3.814   3.959   2.216
 9615SOL     OW29743   2.515   5.278   3.201
 9615SOL    HW129744   2.578   5.218   3.251
 9615SOL    HW229745   2.456   5.222   3.143
 9616SOL     OW29746   3.999   3.237   1.450
 9616SOL    HW129747   4.012   3.229   1.352
 9616SOL    HW229748   3.966   3.150   1.487
 9617SOL     OW29749   1.511   3.840   3.528
 9617SOL    HW129750   1.421   3.804   3.552
 9617SOL    HW229751   1.555   3.877   3.609
 9618SOL     OW29752   3.805   6.532   6.417
 9618SOL    HW129753   3.758   6.479   6.346
 9618SOL    HW229754   3.839   6.471   6.488
 9619SOL     OW29755   1.497   6.074   0.487
 9619SOL    HW129756   1.431   6.129   0.435
 9619SOL    HW229757   1.582   6.067   0.435
 9620SOL     OW29758   4.177   0.361   6.296
 9620SOL    HW129759   4.120   0.330   6.372
 9620SOL    HW229760   4.145   0.319   6.211
 9621SOL     OW29761   1.287   0.085   2.275
 9621SOL    HW129762   1.355   0.158   2.268
 9621SOL    HW229763   1.227   0.087   2.195
 9622SOL     OW29764   6.974   1.257   6.890
 9622SOL    HW129765   7.020   1.224   6.972
 9622SOL    HW229766   6.920   1.339   6.913
 9623SOL     OW29767   4.750   5.830   6.436
 9623SOL    HW129768   4.713   5.740   6.417
 9623SOL    HW229769   4.838   5.841   6.388
 9624SOL     OW29770   5.359   5.309   5.296
 9624SOL    HW129771   5.422   5.232   5.303
 9624SOL    HW229772   5.342   5.329   5.200
 9625SOL     OW29773   5.107   4.423   6.858
 9625SOL    HW129774   5.095   4.370   6.775
 9625SOL    HW229775   5.020   4.467   6.883
 9626SOL     OW29776   1.854   4.487   4.494
 9626SOL    HW129777   1.934   4.535   4.529
 9626SOL    HW229778   1.884   4.410   4.437
 9627SOL     OW29779   1.809   4.103   5.316
 9627SOL    HW129780   1.715   4.095   5.350
 9627SOL    HW229781   1.841   4.013   5.287
 9628SOL     OW29782   5.891   4.016   7.001
 9628SOL    HW129783   5.954   3.965   0.040
 9628SOL    HW229784   5.906   4.114   7.016
 9629SOL     OW29785   6.832   6.261   3.232
 9629SOL    HW129786   6.826   6.298   3.325
 9629SOL    HW229787   6.806   6.332   3.167
 9630SOL     OW29788   6.264   6.197   5.659
 9630SOL    HW129789   6.339   6.240   5.609
 9630SOL    HW229790   6.266   6.227   5.754
 9631SOL     OW29791   4.626   1.259   1.371
 9631SOL    HW129792   4.623   1.354   1.340
 9631SOL    HW229793   4.612   1.199   1.292
 9632SOL     OW29794   1.966   5.437   1.722
 9632SOL    HW129795   1.933   5.487   1.802
 9632SOL    HW229796   2.055   5.396   1.742
 9633SOL     OW29797   3.872   2.975   2.288
 9633SOL    HW129798   3.917   2.955   2.201
 9633SOL    HW229799   3.777   3.000   2.270
 9634SOL     OW29800   5.727   4.350   2.765
 9634SOL    HW129801   5.750   4.253   2.775
 9634SOL    HW229802   5.632   4.365   2.794
 9635SOL     OW29803   0.339   3.950   4.075
 9635SOL    HW129804   0.379   3.974   4.163
 9635SOL    HW229805   0.266   4.014   4.052
 9636SOL     OW29806   4.294   1.406   5.590
 9636SOL    HW129807   4.340   1.339   5.648
 9636SOL    HW229808   4.244   1.359   5.518
 9637SOL     OW29809   2.187   3.308   1.388
 9637SOL    HW129810   2.174   3.219   1.431
 9637SOL    HW229811   2.238   3.368   1.450
 9638SOL     OW29812   6.924   4.450   6.259
 9638SOL    HW129813   6.943   4.354   6.278
 9638SOL    HW229814   6.876   4.457   6.171
 9639SOL     OW29815   4.499   2.534   1.860
 9639SOL    HW129816   4.415   2.533   1.806
 9639SOL    HW229817   4.543   2.624   1.851
 9640SOL     OW29818   4.059   1.080   2.240
 9640SOL    HW129819   3.959   1.075   2.234
 9640SOL    HW229820   4.096   0.988   2.251
 9641SOL     OW29821   5.525   5.646   3.060
 9641SOL    HW129822   5.446   5.673   3.113
 9641SOL    HW229823   5.517   5.549   3.035
 9642SOL     OW29824   1.317   0.077   4.420
 9642SOL    HW129825   1.382   0.153   4.418
 9642SOL    HW229826   1.345   0.011   4.490
 9643SOL     OW29827   4.662   4.256   3.610
 9643SOL    HW129828   4.721   4.223   3.536
 9643SOL    HW229829   4.672   4.196   3.689
 9644SOL     OW29830   2.094   5.942   4.912
 9644SOL    HW129831   2.040   6.017   4.872
 9644SOL    HW229832   2.086   5.861   4.853
 9645SOL     OW29833   1.369   4.352   4.851
 9645SOL    HW129834   1.280   4.396   4.840
 9645SOL    HW229835   1.403   4.321   4.762
 9646SOL     OW29836   2.773   6.518   3.911
 9646SOL    HW129837   2.861   6.479   3.885
 9646SOL    HW229838   2.771   6.532   4.010
 9647SOL     OW29839   6.533   5.956   3.322
 9647SOL    HW129840   6.470   5.895   3.274
 9647SOL    HW229841   6.482   6.031   3.364
 9648SOL     OW29842   5.522   3.250   1.717
 9648SOL    HW129843   5.619   3.228   1.718
 9648SOL    HW229844   5.468   3.166   1.732
 9649SOL     OW29845   2.153   3.733   6.345
 9649SOL    HW129846   2.116   3.688   6.427
 9649SOL    HW229847   2.105   3.700   6.264
 9650SOL     OW29848   6.339   4.927   3.642
 9650SOL    HW129849   6.254   4.979   3.654
 9650SOL    HW229850   6.389   4.925   3.728
 9651SOL     OW29851   3.541   1.189   0.635
 9651SOL    HW129852   3.571   1.095   0.623
 9651SOL    HW229853   3.441   1.193   0.635
 9652SOL     OW29854   0.794   4.402   1.217
 9652SOL    HW129855   0.853   4.454   1.155
 9652SOL    HW229856   0.731   4.345   1.164
 9653SOL     OW29857   4.294   4.793   5.695
 9653SOL    HW129858   4.361   4.864   5.715
 9653SOL    HW229859   4.309   4.715   5.755
 9654SOL     OW29860   3.402   2.893   2.968
 9654SOL    HW129861   3.400   2.797   2.998
 9654SOL    HW229862   3.309   2.929   2.967
 9655SOL     OW29863   0.082   1.457   0.607
 9655SOL    HW129864   0.171   1.412   0.593
 9655SOL    HW229865   0.026   1.447   0.525
 9656SOL     OW29866   4.418   2.339   0.115
 9656SOL    HW129867   4.432   2.390   0.200
 9656SOL    HW229868   4.321   2.337   0.093
 9657SOL     OW29869   5.088   4.158   3.578
 9657SOL    HW129870   5.053   4.205   3.659
 9657SOL    HW229871   5.136   4.074   3.606
 9658SOL     OW29872   5.022   1.757   2.457
 9658SOL    HW129873   5.111   1.746   2.501
 9658SOL    HW229874   4.953   1.776   2.527
 9659SOL     OW29875   2.724   1.653   6.996
 9659SOL    HW129876   2.666   1.699   6.929
 9659SOL    HW229877   2.819   1.658   6.965
 9660SOL     OW29878   0.634   6.898   1.291
 9660SOL    HW129879   0.716   6.894   1.347
 9660SOL    HW229880   0.556   6.862   1.343
 9661SOL     OW29881   4.504   5.497   1.160
 9661SOL    HW129882   4.419   5.514   1.112
 9661SOL    HW229883   4.484   5.455   1.249
 9662SOL     OW29884   5.237   4.211   6.959
 9662SOL    HW129885   5.194   4.299   6.942
 9662SOL    HW229886   5.287   4.182   6.877
 9663SOL     OW29887   0.628   4.431   2.433
 9663SOL    HW129888   0.694   4.373   2.385
 9663SOL    HW229889   0.652   4.436   2.530
 9664SOL     OW29890   5.305   4.073   4.012
 9664SOL    HW129891   5.309   4.150   3.949
 9664SOL    HW229892   5.387   4.017   4.001
 9665SOL     OW29893   6.648   6.341   5.740
 9665SOL    HW129894   6.621   6.245   5.753
 9665SOL    HW229895   6.614   6.395   5.817
 9666SOL     OW29896   6.514   4.520   1.513
 9666SOL    HW129897   6.424   4.493   1.548
 9666SOL    HW229898   6.568   4.438   1.495
 9667SOL     OW29899   4.487   4.264   0.985
 9667SOL    HW129900   4.475   4.353   0.940
 9667SOL    HW229901   4.403   4.242   1.035
 9668SOL     OW29902   1.320   1.012   6.037
 9668SOL    HW129903   1.234   0.961   6.047
 9668SOL    HW229904   1.305   1.089   5.975
 9669SOL     OW29905   2.879   0.205   0.795
 9669SOL    HW129906   2.818   0.161   0.729
 9669SOL    HW229907   2.844   0.190   0.888
 9670SOL     OW29908   0.519   6.262   5.366
 9670SOL    HW129909   0.548   6.291   5.457
 9670SOL    HW229910   0.465   6.334   5.323
 9671SOL     OW29911   0.706   4.788   0.377
 9671SOL    HW129912   0.760   4.819   0.299
 9671SOL    HW229913   0.655   4.706   0.352
 9672SOL     OW29914   1.780   4.992   2.634
 9672SOL    HW129915   1.822   4.904   2.613
 9672SOL    HW229916   1.682   4.981   2.646
 9673SOL     OW29917   3.451   3.968   1.155
 9673SOL    HW129918   3.387   3.987   1.229
 9673SOL    HW229919   3.451   4.045   1.091
 9674SOL     OW29920   3.980   6.337   2.594
 9674SOL    HW129921   3.954   6.370   2.685
 9674SOL    HW229922   3.954   6.241   2.585
 9675SOL     OW29923   5.224   3.941   0.034
 9675SOL    HW129924   5.228   4.040   0.020
 9675SOL    HW229925   5.163   3.920   0.110
 9676SOL     OW29926   1.256   3.387   6.408
 9676SOL    HW129927   1.307   3.446   6.470
 9676SOL    HW229928   1.286   3.403   6.314
 9677SOL     OW29929   6.331   5.193   6.790
 9677SOL    HW129930   6.291   5.270   6.842
 9677SOL    HW229931   6.322   5.212   6.693
 9678SOL     OW29932   3.241   3.747   4.514
 9678SOL    HW129933   3.160   3.705   4.474
 9678SOL    HW229934   3.284   3.809   4.447
 9679SOL     OW29935   2.654   1.597   4.438
 9679SOL    HW129936   2.701   1.511   4.417
 9679SOL    HW229937   2.710   1.651   4.501
 9680SOL     OW29938   5.195   6.929   5.203
 9680SOL    HW129939   5.250   6.864   5.151
 9680SOL    HW229940   5.182   7.012   5.150
 9681SOL     OW29941   3.053   1.569   1.400
 9681SOL    HW129942   3.146   1.599   1.383
 9681SOL    HW229943   3.014   1.533   1.316
 9682SOL     OW29944   4.795   4.414   3.345
 9682SOL    HW129945   4.794   4.510   3.316
 9682SOL    HW229946   4.705   4.374   3.330
 9683SOL     OW29947   2.651   6.507   0.550
 9683SOL    HW129948   2.580   6.437   0.546
 9683SOL    HW229949   2.613   6.595   0.521
 9684SOL     OW29950   0.692   3.717   4.981
 9684SOL    HW129951   0.782   3.757   4.965
 9684SOL    HW229952   0.639   3.777   5.042
 9685SOL     OW29953   4.548   3.750   0.681
 9685SOL    HW129954   4.530   3.794   0.593
 9685SOL    HW229955   4.539   3.817   0.754
 9686SOL     OW29956   0.619   3.058   0.622
 9686SOL    HW129957   0.532   3.063   0.671
 9686SOL    HW229958   0.638   3.146   0.579
 9687SOL     OW29959   6.257   0.218   2.328
 9687SOL    HW129960   6.267   0.143   2.263
 9687SOL    HW229961   6.347   0.250   2.357
 9688SOL     OW29962   0.748   3.882   0.776
 9688SOL    HW129963   0.681   3.923   0.714
 9688SOL    HW229964   0.785   3.953   0.837
 9689SOL     OW29965   1.051   4.686   6.294
 9689SOL    HW129966   1.114   4.634   6.236
 9689SOL    HW229967   0.986   4.623   6.337
 9690SOL     OW29968   4.109   5.637   5.748
 9690SOL    HW129969   4.101   5.693   5.831
 9690SOL    HW229970   4.122   5.541   5.774
 9691SOL     OW29971   3.272   4.108   2.556
 9691SOL    HW129972   3.236   4.138   2.468
 9691SOL    HW229973   3.245   4.013   2.573
 9692SOL     OW29974   4.857   5.309   0.704
 9692SOL    HW129975   4.761   5.311   0.678
 9692SOL    HW229976   4.866   5.305   0.803
 9693SOL     OW29977   5.542   4.309   3.587
 9693SOL    HW129978   5.498   4.290   3.499
 9693SOL    HW229979   5.541   4.407   3.605
 9694SOL     OW29980   4.303   0.759   1.493
 9694SOL    HW129981   4.291   0.855   1.520
 9694SOL    HW229982   4.396   0.730   1.516
 9695SOL     OW29983   0.228   2.918   3.188
 9695SOL    HW129984   0.267   2.943   3.099
 9695SOL    HW229985   0.165   2.842   3.176
 9696SOL     OW29986   5.871   1.651   2.521
 9696SOL    HW129987   5.942   1.627   2.454
 9696SOL    HW229988   5.887   1.744   2.554
 9697SOL     OW29989   0.468   6.753   0.799
 9697SOL    HW129990   0.476   6.736   0.897
 9697SOL    HW229991   0.559   6.756   0.758
 9698SOL     OW29992   5.621   3.066   6.455
 9698SOL    HW129993   5.717   3.080   6.481
 9698SOL    HW229994   5.608   2.972   6.423
 9699SOL     OW29995   0.865   5.625   6.847
 9699SOL    HW129996   0.778   5.621   6.897
 9699SOL    HW229997   0.917   5.705   6.875
 9700SOL     OW29998   6.311   5.388   3.849
 9700SOL    HW129999   6.268   5.399   3.760
 9700SOL    HW230000   6.370   5.307   3.848
 9701SOL     OW30001   4.290   4.163   5.931
 9701SOL    HW130002   4.370   4.161   5.871
 9701SOL    HW230003   4.231   4.085   5.911
 9702SOL     OW30004   3.952   2.750   0.098
 9702SOL    HW130005   3.989   2.764   0.007
 9702SOL    HW230006   3.853   2.734   0.092
 9703SOL     OW30007   5.494   3.679   4.438
 9703SOL    HW130008   5.561   3.684   4.512
 9703SOL    HW230009   5.415   3.626   4.469
 9704SOL     OW30010   3.367   5.477   2.379
 9704SOL    HW130011   3.362   5.416   2.459
 9704SOL    HW230012   3.446   5.452   2.323
 9705SOL     OW30013   5.970   4.071   5.729
 9705SOL    HW130014   5.968   4.151   5.669
 9705SOL    HW230015   5.960   4.100   5.824
 9706SOL     OW30016   2.343   2.197   1.343
 9706SOL    HW130017   2.430   2.209   1.390
 9706SOL    HW230018   2.356   2.214   1.245
 9707SOL     OW30019   5.595   4.685   2.353
 9707SOL    HW130020   5.562   4.628   2.428
 9707SOL    HW230021   5.692   4.706   2.367
 9708SOL     OW30022   1.481   1.672   2.910
 9708SOL    HW130023   1.521   1.613   2.980
 9708SOL    HW230024   1.387   1.696   2.935
 9709SOL     OW30025   5.098   4.446   2.060
 9709SOL    HW130026   5.101   4.357   2.105
 9709SOL    HW230027   5.055   4.437   1.970
 9710SOL     OW30028   6.432   0.398   0.538
 9710SOL    HW130029   6.467   0.463   0.605
 9710SOL    HW230030   6.436   0.305   0.576
 9711SOL     OW30031   3.744   5.868   6.419
 9711SOL    HW130032   3.689   5.881   6.501
 9711SOL    HW230033   3.715   5.785   6.371
 9712SOL     OW30034   6.359   3.212   0.375
 9712SOL    HW130035   6.261   3.196   0.363
 9712SOL    HW230036   6.384   3.301   0.336
 9713SOL     OW30037   2.906   5.696   3.622
 9713SOL    HW130038   2.889   5.745   3.707
 9713SOL    HW230039   2.826   5.704   3.563
 9714SOL     OW30040   4.144   6.522   5.960
 9714SOL    HW130041   4.167   6.566   6.047
 9714SOL    HW230042   4.045   6.507   5.956
 9715SOL     OW30043   5.836   5.043   6.805
 9715SOL    HW130044   5.888   5.121   6.772
 9715SOL    HW230045   5.816   5.055   6.903
 9716SOL     OW30046   3.664   4.121   6.850
 9716SOL    HW130047   3.725   4.186   6.804
 9716SOL    HW230048   3.661   4.142   6.947
 9717SOL     OW30049   4.752   6.744   0.011
 9717SOL    HW130050   4.778   6.710   0.101
 9717SOL    HW230051   4.654   6.735   7.019
 9718SOL     OW30052   4.147   3.082   1.028
 9718SOL    HW130053   4.214   3.141   1.075
 9718SOL    HW230054   4.196   3.017   0.969
 9719SOL     OW30055   5.281   7.005   5.931
 9719SOL    HW130056   5.282   0.077   5.971
 9719SOL    HW230057   5.189   6.984   5.898
 9720SOL     OW30058   0.814   3.335   2.552
 9720SOL    HW130059   0.883   3.263   2.546
 9720SOL    HW230060   0.726   3.301   2.519
 9721SOL     OW30061   0.275   1.444   6.736
 9721SOL    HW130062   0.309   1.506   6.665
 9721SOL    HW230063   0.190   1.401   6.706
 9722SOL     OW30064   3.617   1.151   5.369
 9722SOL    HW130065   3.581   1.222   5.308
 9722SOL    HW230066   3.548   1.080   5.383
 9723SOL     OW30067   5.533   5.637   4.068
 9723SOL    HW130068   5.504   5.638   4.163
 9723SOL    HW230069   5.483   5.707   4.017
 9724SOL     OW30070   2.385   4.565   0.031
 9724SOL    HW130071   2.451   4.584   6.978
 9724SOL    HW230072   2.295   4.602   0.005
 9725SOL     OW30073   4.223   5.897   5.917
 9725SOL    HW130074   4.261   5.988   5.938
 9725SOL    HW230075   4.262   5.863   5.832
 9726SOL     OW30076   4.542   2.029   4.727
 9726SOL    HW130077   4.562   1.952   4.665
 9726SOL    HW230078   4.494   1.995   4.808
 9727SOL     OW30079   0.828   2.479   0.134
 9727SOL    HW130080   0.869   2.390   0.153
 9727SOL    HW230081   0.865   2.516   0.049
 9728SOL     OW30082   0.234   2.075   5.625
 9728SOL    HW130083   0.267   2.168   5.637
 9728SOL    HW230084   0.303   2.011   5.659
 9729SOL     OW30085   1.119   4.296   3.696
 9729SOL    HW130086   1.183   4.236   3.648
 9729SOL    HW230087   1.027   4.281   3.661
 9730SOL     OW30088   0.877   4.238   2.829
 9730SOL    HW130089   0.779   4.225   2.848
 9730SOL    HW230090   0.888   4.304   2.754
 9731SOL     OW30091   4.552   5.102   1.480
 9731SOL    HW130092   4.505   5.022   1.443
 9731SOL    HW230093   4.570   5.088   1.578
 9732SOL     OW30094   0.320   3.121   2.053
 9732SOL    HW130095   0.411   3.156   2.030
 9732SOL    HW230096   0.307   3.031   2.012
 9733SOL     OW30097   5.637   6.043   1.247
 9733SOL    HW130098   5.617   6.088   1.334
 9733SOL    HW230099   5.565   6.065   1.181
 9734SOL     OW30100   6.537   0.100   0.249
 9734SOL    HW130101   6.534   0.152   0.334
 9734SOL    HW230102   6.632   0.080   0.225
 9735SOL     OW30103   1.504   2.935   3.186
 9735SOL    HW130104   1.451   2.915   3.268
 9735SOL    HW230105   1.501   3.033   3.167
 9736SOL     OW30106   5.293   1.694   6.263
 9736SOL    HW130107   5.285   1.691   6.164
 9736SOL    HW230108   5.300   1.789   6.294
 9737SOL     OW30109   5.366   1.962   2.713
 9737SOL    HW130110   5.322   2.002   2.794
 9737SOL    HW230111   5.353   2.022   2.635
 9738SOL     OW30112   1.633   0.325   0.927
 9738SOL    HW130113   1.611   0.287   1.017
 9738SOL    HW230114   1.567   0.397   0.904
 9739SOL     OW30115   5.087   6.247   0.119
 9739SOL    HW130116   5.073   6.255   0.217
 9739SOL    HW230117   4.998   6.233   0.074
 9740SOL     OW30118   6.255   1.030   2.850
 9740SOL    HW130119   6.316   0.950   2.848
 9740SOL    HW230120   6.269   1.084   2.767
 9741SOL     OW30121   2.676   0.647   3.631
 9741SOL    HW130122   2.639   0.641   3.723
 9741SOL    HW230123   2.723   0.734   3.618
 9742SOL     OW30124   4.108   0.877   0.327
 9742SOL    HW130125   4.015   0.878   0.362
 9742SOL    HW230126   4.107   0.891   0.228
 9743SOL     OW30127   0.159   4.221   2.887
 9743SOL    HW130128   0.212   4.272   2.955
 9743SOL    HW230129   0.218   4.194   2.811
 9744SOL     OW30130   2.411   0.105   2.681
 9744SOL    HW130131   2.405   0.045   2.761
 9744SOL    HW230132   2.389   0.053   2.599
 9745SOL     OW30133   5.178   3.001   6.489
 9745SOL    HW130134   5.230   3.086   6.484
 9745SOL    HW230135   5.228   2.929   6.441
 9746SOL     OW30136   5.538   6.256   5.759
 9746SOL    HW130137   5.448   6.299   5.748
 9746SOL    HW230138   5.544   6.214   5.849
 9747SOL     OW30139   3.199   2.300   1.721
 9747SOL    HW130140   3.238   2.226   1.776
 9747SOL    HW230141   3.119   2.338   1.767
 9748SOL     OW30142   6.990   6.756   3.000
 9748SOL    HW130143   7.019   6.743   2.905
 9748SOL    HW230144   0.050   6.769   3.058
 9749SOL     OW30145   0.668   1.207   3.039
 9749SOL    HW130146   0.682   1.112   3.065
 9749SOL    HW230147   0.756   1.252   3.026
 9750SOL     OW30148   6.256   5.752   3.955
 9750SOL    HW130149   6.335   5.690   3.951
 9750SOL    HW230150   6.286   5.846   3.937
 9751SOL     OW30151   1.877   7.011   0.436
 9751SOL    HW130152   1.932   6.928   0.427
 9751SOL    HW230153   1.809   6.999   0.508
 9752SOL     OW30154   3.966   1.642   5.316
 9752SOL    HW130155   3.898   1.571   5.299
 9752SOL    HW230156   4.054   1.614   5.278
 9753SOL     OW30157   1.309   5.679   6.290
 9753SOL    HW130158   1.239   5.729   6.341
 9753SOL    HW230159   1.268   5.635   6.210
 9754SOL     OW30160   2.605   0.500   0.779
 9754SOL    HW130161   2.674   0.556   0.825
 9754SOL    HW230162   2.633   0.486   0.684
 9755SOL     OW30163   3.470   3.849   4.936
 9755SOL    HW130164   3.390   3.850   4.876
 9755SOL    HW230165   3.509   3.757   4.938
 9756SOL     OW30166   6.313   2.396   6.628
 9756SOL    HW130167   6.286   2.301   6.641
 9756SOL    HW230168   6.234   2.451   6.601
 9757SOL     OW30169   5.752   4.306   4.807
 9757SOL    HW130170   5.729   4.210   4.789
 9757SOL    HW230171   5.839   4.310   4.857
 9758SOL     OW30172   2.124   0.816   0.239
 9758SOL    HW130173   2.099   0.913   0.236
 9758SOL    HW230174   2.219   0.807   0.270
 9759SOL     OW30175   1.099   1.639   0.617
 9759SOL    HW130176   1.131   1.578   0.689
 9759SOL    HW230177   1.033   1.591   0.559
 9760SOL     OW30178   4.742   3.526   6.057
 9760SOL    HW130179   4.719   3.544   6.153
 9760SOL    HW230180   4.685   3.582   5.997
 9761SOL     OW30181   1.064   2.661   2.217
 9761SOL    HW130182   0.993   2.596   2.244
 9761SOL    HW230183   1.088   2.718   2.295
 9762SOL     OW30184   3.370   1.370   4.573
 9762SOL    HW130185   3.400   1.463   4.597
 9762SOL    HW230186   3.332   1.370   4.480
 9763SOL     OW30187   5.807   0.687   3.406
 9763SOL    HW130188   5.815   0.658   3.311
 9763SOL    HW230189   5.714   0.722   3.423
 9764SOL     OW30190   6.547   2.295   2.151
 9764SOL    HW130191   6.633   2.246   2.165
 9764SOL    HW230192   6.527   2.351   2.231
 9765SOL     OW30193   6.628   6.650   2.906
 9765SOL    HW130194   6.677   6.605   2.831
 9765SOL    HW230195   6.646   6.601   2.991
 9766SOL     OW30196   2.022   6.613   2.976
 9766SOL    HW130197   2.106   6.584   2.930
 9766SOL    HW230198   2.043   6.638   3.071
 9767SOL     OW30199   2.554   2.656   5.592
 9767SOL    HW130200   2.640   2.669   5.543
 9767SOL    HW230201   2.541   2.730   5.658
 9768SOL     OW30202   4.481   1.351   1.627
 9768SOL    HW130203   4.571   1.362   1.584
 9768SOL    HW230204   4.491   1.311   1.718
 9769SOL     OW30205   3.717   1.021   4.547
 9769SOL    HW130206   3.744   1.029   4.643
 9769SOL    HW230207   3.714   1.112   4.506
 9770SOL     OW30208   3.895   1.421   5.020
 9770SOL    HW130209   3.916   1.326   4.995
 9770SOL    HW230210   3.865   1.424   5.115
 9771SOL     OW30211   2.599   5.833   1.129
 9771SOL    HW130212   2.573   5.873   1.217
 9771SOL    HW230213   2.528   5.851   1.061
 9772SOL     OW30214   1.987   6.260   1.366
 9772SOL    HW130215   1.906   6.201   1.366
 9772SOL    HW230216   2.057   6.220   1.308
 9773SOL     OW30217   5.207   5.519   3.607
 9773SOL    HW130218   5.172   5.428   3.632
 9773SOL    HW230219   5.141   5.566   3.550
 9774SOL     OW30220   0.509   5.718   2.964
 9774SOL    HW130221   0.457   5.684   2.886
 9774SOL    HW230222   0.549   5.641   3.013
 9775SOL     OW30223   3.119   0.014   3.541
 9775SOL    HW130224   3.184   6.978   3.593
 9775SOL    HW230225   3.144   0.110   3.549
 9776SOL     OW30226   1.026   4.034   5.538
 9776SOL    HW130227   1.087   3.958   5.516
 9776SOL    HW230228   1.074   4.101   5.593
 9777SOL     OW30229   5.302   5.827   0.804
 9777SOL    HW130230   5.254   5.753   0.756
 9777SOL    HW230231   5.316   5.802   0.900
 9778SOL     OW30232   6.826   1.669   5.084
 9778SOL    HW130233   6.808   1.654   5.182
 9778SOL    HW230234   6.877   1.592   5.047
 9779SOL     OW30235   0.578   2.228   3.770
 9779SOL    HW130236   0.564   2.160   3.698
 9779SOL    HW230237   0.576   2.184   3.859
 9780SOL     OW30238   2.297   1.969   0.840
 9780SOL    HW130239   2.213   1.921   0.863
 9780SOL    HW230240   2.368   1.945   0.906
 9781SOL     OW30241   1.862   3.422   4.363
 9781SOL    HW130242   1.786   3.441   4.300
 9781SOL    HW230243   1.852   3.479   4.444
 9782SOL     OW30244   0.579   1.932   0.314
 9782SOL    HW130245   0.672   1.915   0.347
 9782SOL    HW230246   0.583   1.960   0.218
 9783SOL     OW30247   4.239   2.302   3.200
 9783SOL    HW130248   4.212   2.299   3.296
 9783SOL    HW230249   4.165   2.265   3.144
 9784SOL     OW30250   3.691   0.644   5.850
 9784SOL    HW130251   3.768   0.643   5.913
 9784SOL    HW230252   3.606   0.624   5.900
 9785SOL     OW30253   6.606   2.074   5.618
 9785SOL    HW130254   6.545   2.001   5.589
 9785SOL    HW230255   6.559   2.133   5.684
 9786SOL     OW30256   2.736   3.333   0.555
 9786SOL    HW130257   2.785   3.362   0.473
 9786SOL    HW230258   2.797   3.334   0.633
 9787SOL     OW30259   3.267   3.541   2.970
 9787SOL    HW130260   3.311   3.574   3.054
 9787SOL    HW230261   3.227   3.451   2.987
 9788SOL     OW30262   0.756   0.074   1.887
 9788SOL    HW130263   0.696   0.015   1.942
 9788SOL    HW230264   0.851   0.052   1.906
 9789SOL     OW30265   1.791   6.330   0.150
 9789SOL    HW130266   1.752   6.415   0.184
 9789SOL    HW230267   1.811   6.269   0.228
 9790SOL     OW30268   6.718   4.451   6.056
 9790SOL    HW130269   6.676   4.363   6.035
 9790SOL    HW230270   6.749   4.494   5.972
 9791SOL     OW30271   0.045   0.556   6.815
 9791SOL    HW130272   0.010   0.645   6.845
 9791SOL    HW230273   0.078   0.564   6.721
 9792SOL     OW30274   3.327   5.170   0.764
 9792SOL    HW130275   3.312   5.165   0.666
 9792SOL    HW230276   3.264   5.108   0.811
 9793SOL     OW30277   4.287   0.243   2.505
 9793SOL    HW130278   4.193   0.263   2.532
 9793SOL    HW230279   4.288   0.202   2.414
 9794SOL     OW30280   6.389   4.505   5.530
 9794SOL    HW130281   6.416   4.532   5.438
 9794SOL    HW230282   6.437   4.563   5.597
 9795SOL     OW30283   1.228   3.096   4.354
 9795SOL    HW130284   1.143   3.140   4.382
 9795SOL    HW230285   1.303   3.163   4.357
 9796SOL     OW30286   4.099   3.624   3.086
 9796SOL    HW130287   4.124   3.696   3.022
 9796SOL    HW230288   4.040   3.557   3.040
 9797SOL     OW30289   2.029   5.384   6.988
 9797SOL    HW130290   2.069   5.373   6.897
 9797SOL    HW230291   2.074   5.321   0.032
 9798SOL     OW30292   2.764   0.987   1.720
 9798SOL    HW130293   2.704   1.016   1.646
 9798SOL    HW230294   2.748   1.045   1.800
 9799SOL     OW30295   2.703   3.863   5.901
 9799SOL    HW130296   2.800   3.843   5.912
 9799SOL    HW230297   2.671   3.826   5.813
 9800SOL     OW30298   4.910   4.304   4.451
 9800SOL    HW130299   4.997   4.268   4.419
 9800SOL    HW230300   4.924   4.355   4.536
 9801SOL     OW30301   4.591   4.496   0.067
 9801SOL    HW130302   4.548   4.531   7.004
 9801SOL    HW230303   4.563   4.551   0.145
 9802SOL     OW30304   5.252   5.053   0.605
 9802SOL    HW130305   5.269   5.069   0.508
 9802SOL    HW230306   5.158   5.077   0.627
 9803SOL     OW30307   1.691   3.057   6.229
 9803SOL    HW130308   1.756   2.984   6.251
 9803SOL    HW230309   1.704   3.085   6.134
 9804SOL     OW30310   0.595   6.259   3.010
 9804SOL    HW130311   0.616   6.162   3.021
 9804SOL    HW230312   0.672   6.314   3.044
 9805SOL     OW30313   0.341   6.923   2.922
 9805SOL    HW130314   0.408   6.876   2.979
 9805SOL    HW230315   0.334   7.019   2.949
 9806SOL     OW30316   1.447   1.425   6.937
 9806SOL    HW130317   1.449   1.440   6.838
 9806SOL    HW230318   1.468   1.330   6.957
 9807SOL     OW30319   3.197   3.757   1.214
 9807SOL    HW130320   3.102   3.771   1.189
 9807SOL    HW230321   3.254   3.761   1.132
 9808SOL     OW30322   3.542   5.857   4.849
 9808SOL    HW130323   3.551   5.788   4.921
 9808SOL    HW230324   3.494   5.816   4.771
 9809SOL     OW30325   0.363   3.905   0.409
 9809SOL    HW130326   0.346   3.950   0.321
 9809SOL    HW230327   0.276   3.897   0.459
 9810SOL     OW30328   3.201   2.065   4.804
 9810SOL    HW130329   3.238   2.143   4.855
 9810SOL    HW230330   3.221   1.980   4.854
 9811SOL     OW30331   6.140   4.586   3.629
 9811SOL    HW130332   6.110   4.681   3.623
 9811SOL    HW230333   6.070   4.532   3.676
 9812SOL     OW30334   3.418   1.714   5.573
 9812SOL    HW130335   3.487   1.779   5.540
 9812SOL    HW230336   3.454   1.621   5.566
 9813SOL     OW30337   5.344   1.832   0.802
 9813SOL    HW130338   5.403   1.852   0.880
 9813SOL    HW230339   5.257   1.795   0.834
 9814SOL     OW30340   6.209   0.799   0.057
 9814SOL    HW130341   6.144   0.871   0.032
 9814SOL    HW230342   6.294   0.812   0.007
 9815SOL     OW30343   4.685   2.862   4.489
 9815SOL    HW130344   4.642   2.772   4.482
 9815SOL    HW230345   4.694   2.902   4.398
 9816SOL     OW30346   0.463   1.344   6.014
 9816SOL    HW130347   0.381   1.288   6.029
 9816SOL    HW230348   0.436   1.432   5.974
 9817SOL     OW30349   1.188   0.141   3.413
 9817SOL    HW130350   1.183   0.241   3.411
 9817SOL    HW230351   1.265   0.113   3.471
 9818SOL     OW30352   6.747   2.103   4.235
 9818SOL    HW130353   6.668   2.093   4.296
 9818SOL    HW230354   6.716   2.135   4.146
 9819SOL     OW30355   4.792   3.020   3.651
 9819SOL    HW130356   4.869   3.082   3.635
 9819SOL    HW230357   4.707   3.067   3.627
 9820SOL     OW30358   3.473   3.241   6.687
 9820SOL    HW130359   3.437   3.167   6.744
 9820SOL    HW230360   3.573   3.236   6.686
 9821SOL     OW30361   5.654   1.261   6.788
 9821SOL    HW130362   5.688   1.339   6.840
 9821SOL    HW230363   5.581   1.291   6.727
 9822SOL     OW30364   1.546   6.623   3.502
 9822SOL    HW130365   1.608   6.576   3.438
 9822SOL    HW230366   1.590   6.630   3.591
 9823SOL     OW30367   3.633   0.301   0.571
 9823SOL    HW130368   3.725   0.263   0.569
 9823SOL    HW230369   3.637   0.401   0.568
 9824SOL     OW30370   1.740   4.708   4.940
 9824SOL    HW130371   1.793   4.743   5.018
 9824SOL    HW230372   1.794   4.640   4.891
 9825SOL     OW30373   3.824   5.139   5.945
 9825SOL    HW130374   3.868   5.064   5.895
 9825SOL    HW230375   3.746   5.103   5.996
 9826SOL     OW30376   5.072   5.091   6.173
 9826SOL    HW130377   4.976   5.102   6.149
 9826SOL    HW230378   5.125   5.167   6.134
 9827SOL     OW30379   2.198   3.663   3.676
 9827SOL    HW130380   2.119   3.603   3.682
 9827SOL    HW230381   2.280   3.609   3.657
 9828SOL     OW30382   2.201   3.199   6.331
 9828SOL    HW130383   2.246   3.177   6.418
 9828SOL    HW230384   2.234   3.288   6.298
 9829SOL     OW30385   2.864   5.826   0.031
 9829SOL    HW130386   2.940   5.886   0.005
 9829SOL    HW230387   2.810   5.870   0.102
 9830SOL     OW30388   5.607   2.793   1.725
 9830SOL    HW130389   5.571   2.880   1.691
 9830SOL    HW230390   5.557   2.717   1.681
 9831SOL     OW30391   2.050   5.900   0.914
 9831SOL    HW130392   2.139   5.865   0.942
 9831SOL    HW230393   1.978   5.838   0.947
 9832SOL     OW30394   5.157   5.695   2.711
 9832SOL    HW130395   5.168   5.640   2.628
 9832SOL    HW230396   5.140   5.791   2.686
 9833SOL     OW30397   3.769   2.916   5.145
 9833SOL    HW130398   3.695   2.907   5.079
 9833SOL    HW230399   3.830   2.837   5.138
 9834SOL     OW30400   3.438   4.211   5.552
 9834SOL    HW130401   3.499   4.253   5.485
 9834SOL    HW230402   3.413   4.279   5.621
 9835SOL     OW30403   3.255   2.409   5.843
 9835SOL    HW130404   3.198   2.405   5.761
 9835SOL    HW230405   3.334   2.349   5.831
 9836SOL     OW30406   5.952   4.429   3.765
 9836SOL    HW130407   5.888   4.378   3.708
 9836SOL    HW230408   5.994   4.367   3.831
 9837SOL     OW30409   3.068   0.394   2.520
 9837SOL    HW130410   2.990   0.420   2.463
 9837SOL    HW230411   3.147   0.374   2.462
 9838SOL     OW30412   0.730   6.736   6.418
 9838SOL    HW130413   0.739   6.688   6.330
 9838SOL    HW230414   0.640   6.781   6.422
 9839SOL     OW30415   5.723   1.464   3.566
 9839SOL    HW130416   5.625   1.474   3.577
 9839SOL    HW230417   5.744   1.437   3.472
 9840SOL     OW30418   0.677   1.316   1.685
 9840SOL    HW130419   0.684   1.388   1.754
 9840SOL    HW230420   0.637   1.354   1.602
 9841SOL     OW30421   1.897   3.977   4.652
 9841SOL    HW130422   1.950   3.998   4.570
 9841SOL    HW230423   1.942   4.017   4.732
 9842SOL     OW30424   4.082   3.494   2.690
 9842SOL    HW130425   4.181   3.502   2.694
 9842SOL    HW230426   4.055   3.398   2.704
 9843SOL     OW30427   5.797   0.633   1.111
 9843SOL    HW130428   5.853   0.609   1.031
 9843SOL    HW230429   5.763   0.727   1.100
 9844SOL     OW30430   5.970   1.117   2.091
 9844SOL    HW130431   5.998   1.050   2.023
 9844SOL    HW230432   5.889   1.165   2.058
 9845SOL     OW30433   3.007   1.594   3.342
 9845SOL    HW130434   2.943   1.588   3.265
 9845SOL    HW230435   3.047   1.685   3.345
 9846SOL     OW30436   4.018   3.472   2.019
 9846SOL    HW130437   3.971   3.559   2.013
 9846SOL    HW230438   3.952   3.397   2.023
 9847SOL     OW30439   3.208   2.962   5.119
 9847SOL    HW130440   3.168   2.986   5.207
 9847SOL    HW230441   3.253   2.873   5.126
 9848SOL     OW30442   3.353   2.664   6.159
 9848SOL    HW130443   3.278   2.690   6.221
 9848SOL    HW230444   3.322   2.673   6.065
 9849SOL     OW30445   0.138   0.471   0.289
 9849SOL    HW130446   0.218   0.530   0.300
 9849SOL    HW230447   0.133   0.438   0.195
 9850SOL     OW30448   5.960   0.201   3.884
 9850SOL    HW130449   5.882   0.137   3.887
 9850SOL    HW230450   5.926   0.294   3.870
 9851SOL     OW30451   5.239   1.936   5.537
 9851SOL    HW130452   5.278   1.847   5.562
 9851SOL    HW230453   5.140   1.927   5.529
 9852SOL     OW30454   4.086   2.164   2.661
 9852SOL    HW130455   4.166   2.140   2.717
 9852SOL    HW230456   4.114   2.173   2.566
 9853SOL     OW30457   5.106   4.622   4.215
 9853SOL    HW130458   5.163   4.702   4.195
 9853SOL    HW230459   5.085   4.619   4.312
 9854SOL     OW30460   0.563   5.877   4.447
 9854SOL    HW130461   0.465   5.887   4.434
 9854SOL    HW230462   0.582   5.797   4.504
 9855SOL     OW30463   2.431   3.152   0.699
 9855SOL    HW130464   2.436   3.230   0.636
 9855SOL    HW230465   2.365   3.173   0.771
 9856SOL     OW30466   4.846   3.934   6.046
 9856SOL    HW130467   4.848   3.860   5.979
 9856SOL    HW230468   4.811   3.898   6.133
 9857SOL     OW30469   4.452   2.220   3.823
 9857SOL    HW130470   4.356   2.234   3.848
 9857SOL    HW230471   4.507   2.297   3.856
 9858SOL     OW30472   0.207   0.951   0.571
 9858SOL    HW130473   0.273   0.952   0.646
 9858SOL    HW230474   0.184   0.856   0.548
 9859SOL     OW30475   5.626   6.859   2.053
 9859SOL    HW130476   5.602   6.763   2.065
 9859SOL    HW230477   5.574   6.915   2.117
 9860SOL     OW30478   0.605   1.449   3.419
 9860SOL    HW130479   0.689   1.502   3.432
 9860SOL    HW230480   0.542   1.466   3.494
 9861SOL     OW30481   3.349   0.137   2.933
 9861SOL    HW130482   3.385   0.197   2.861
 9861SOL    HW230483   3.416   0.066   2.953
 9862SOL     OW30484   3.790   4.324   0.366
 9862SOL    HW130485   3.692   4.301   0.363
 9862SOL    HW230486   3.812   4.385   0.291
 9863SOL     OW30487   3.520   6.979   3.035
 9863SOL    HW130488   3.589   6.915   3.001
 9863SOL    HW230489   3.452   6.929   3.089
 9864SOL     OW30490   3.738   6.166   4.218
 9864SOL    HW130491   3.655   6.222   4.222
 9864SOL    HW230492   3.744   6.109   4.300
 9865SOL     OW30493   1.406   1.044   4.031
 9865SOL    HW130494   1.471   1.118   4.047
 9865SOL    HW230495   1.442   0.959   4.068
 9866SOL     OW30496   4.682   4.859   5.920
 9866SOL    HW130497   4.752   4.843   5.850
 9866SOL    HW230498   4.647   4.771   5.952
 9867SOL     OW30499   5.967   1.044   0.499
 9867SOL    HW130500   5.968   0.952   0.461
 9867SOL    HW230501   5.954   1.039   0.598
 9868SOL     OW30502   0.705   4.086   5.345
 9868SOL    HW130503   0.781   4.141   5.310
 9868SOL    HW230504   0.720   4.067   5.442
 9869SOL     OW30505   1.578   3.055   2.522
 9869SOL    HW130506   1.613   3.129   2.578
 9869SOL    HW230507   1.588   2.968   2.571
 9870SOL     OW30508   3.790   5.854   2.802
 9870SOL    HW130509   3.769   5.952   2.799
 9870SOL    HW230510   3.858   5.837   2.873
 9871SOL     OW30511   0.368   6.230   6.552
 9871SOL    HW130512   0.436   6.211   6.480
 9871SOL    HW230513   0.329   6.144   6.584
 9872SOL     OW30514   2.238   4.573   4.092
 9872SOL    HW130515   2.225   4.596   4.188
 9872SOL    HW230516   2.149   4.567   4.047
 9873SOL     OW30517   2.518   2.240   0.350
 9873SOL    HW130518   2.532   2.337   0.368
 9873SOL    HW230519   2.519   2.224   0.252
 9874SOL     OW30520   0.246   3.256   4.578
 9874SOL    HW130521   0.289   3.167   4.560
 9874SOL    HW230522   0.311   3.329   4.559
 9875SOL     OW30523   6.290   6.866   1.772
 9875SOL    HW130524   6.299   6.957   1.731
 9875SOL    HW230525   6.364   6.853   1.838
 9876SOL     OW30526   6.746   0.523   3.176
 9876SOL    HW130527   6.651   0.493   3.172
 9876SOL    HW230528   6.760   0.579   3.257
 9877SOL     OW30529   0.113   6.207   3.801
 9877SOL    HW130530   0.140   6.127   3.747
 9877SOL    HW230531   0.140   6.194   3.896
 9878SOL     OW30532   2.728   4.767   5.212
 9878SOL    HW130533   2.636   4.757   5.173
 9878SOL    HW230534   2.792   4.711   5.160
 9879SOL     OW30535   5.376   5.169   4.879
 9879SOL    HW130536   5.326   5.184   4.794
 9879SOL    HW230537   5.344   5.234   4.948
 9880SOL     OW30538   2.962   0.891   5.843
 9880SOL    HW130539   3.022   0.892   5.763
 9880SOL    HW230540   2.902   0.971   5.841
 9881SOL     OW30541   1.024   1.502   4.641
 9881SOL    HW130542   0.937   1.509   4.689
 9881SOL    HW230543   1.096   1.480   4.706
 9882SOL     OW30544   1.291   3.765   3.714
 9882SOL    HW130545   1.235   3.752   3.796
 9882SOL    HW230546   1.370   3.822   3.736
 9883SOL     OW30547   1.075   6.722   6.939
 9883SOL    HW130548   1.110   6.700   0.010
 9883SOL    HW230549   0.975   6.726   6.941
 9884SOL     OW30550   4.746   2.146   2.148
 9884SOL    HW130551   4.682   2.205   2.101
 9884SOL    HW230552   4.813   2.110   2.083
 9885SOL     OW30553   6.689   2.376   4.862
 9885SOL    HW130554   6.741   2.364   4.778
 9885SOL    HW230555   6.706   2.298   4.923
 9886SOL     OW30556   1.180   4.242   2.325
 9886SOL    HW130557   1.177   4.341   2.312
 9886SOL    HW230558   1.253   4.204   2.269
 9887SOL     OW30559   3.443   0.337   5.706
 9887SOL    HW130560   3.521   0.275   5.708
 9887SOL    HW230561   3.380   0.308   5.634
 9888SOL     OW30562   5.991   4.478   2.719
 9888SOL    HW130563   6.058   4.421   2.767
 9888SOL    HW230564   5.899   4.445   2.738
 9889SOL     OW30565   0.047   5.002   1.413
 9889SOL    HW130566   0.021   4.918   1.365
 9889SOL    HW230567   0.128   5.042   1.369
 9890SOL     OW30568   1.901   2.197   1.168
 9890SOL    HW130569   1.962   2.274   1.149
 9890SOL    HW230570   1.950   2.111   1.155
 9891SOL     OW30571   4.796   3.996   2.126
 9891SOL    HW130572   4.854   3.916   2.142
 9891SOL    HW230573   4.715   3.968   2.074
 9892SOL     OW30574   7.012   4.648   0.855
 9892SOL    HW130575   0.063   4.577   0.861
 9892SOL    HW230576   6.927   4.614   0.894
 9893SOL     OW30577   0.751   0.624   0.970
 9893SOL    HW130578   0.705   0.564   1.035
 9893SOL    HW230579   0.824   0.674   1.017
 9894SOL     OW30580   2.846   2.462   1.364
 9894SOL    HW130581   2.769   2.453   1.426
 9894SOL    HW230582   2.928   2.487   1.416
 9895SOL     OW30583   6.403   4.934   4.622
 9895SOL    HW130584   6.485   4.956   4.674
 9895SOL    HW230585   6.333   4.899   4.684
 9896SOL     OW30586   6.846   0.652   6.412
 9896SOL    HW130587   6.763   0.595   6.407
 9896SOL    HW230588   6.820   0.748   6.416
 9897SOL     OW30589   5.412   6.033   2.462
 9897SOL    HW130590   5.395   6.054   2.558
 9897SOL    HW230591   5.405   5.934   2.447
 9898SOL     OW30592   1.745   6.085   4.738
 9898SOL    HW130593   1.808   6.026   4.687
 9898SOL    HW230594   1.666   6.031   4.767
 9899SOL     OW30595   1.576   5.804   0.612
 9899SOL    HW130596   1.515   5.884   0.606
 9899SOL    HW230597   1.658   5.829   0.663
 9900SOL     OW30598   1.908   2.927   3.109
 9900SOL    HW130599   1.850   2.861   3.157
 9900SOL    HW230600   1.989   2.881   3.074
 9901SOL     OW30601   2.599   0.536   6.858
 9901SOL    HW130602   2.580   0.440   6.840
 9901SOL    HW230603   2.545   0.593   6.795
 9902SOL     OW30604   3.562   5.020   1.325
 9902SOL    HW130605   3.491   5.087   1.341
 9902SOL    HW230606   3.546   4.974   1.237
 9903SOL     OW30607   5.443   2.543   1.346
 9903SOL    HW130608   5.401   2.456   1.321
 9903SOL    HW230609   5.453   2.548   1.445
 9904SOL     OW30610   0.683   3.774   6.396
 9904SOL    HW130611   0.716   3.733   6.481
 9904SOL    HW230612   0.659   3.870   6.412
 9905SOL     OW30613   1.755   0.429   6.379
 9905SOL    HW130614   1.693   0.351   6.390
 9905SOL    HW230615   1.740   0.470   6.289
 9906SOL     OW30616   2.019   3.497   1.682
 9906SOL    HW130617   2.071   3.580   1.662
 9906SOL    HW230618   1.986   3.500   1.776
 9907SOL     OW30619   0.681   0.018   1.629
 9907SOL    HW130620   0.721   0.035   1.718
 9907SOL    HW230621   0.752   7.004   1.566
 9908SOL     OW30622   6.151   1.624   5.211
 9908SOL    HW130623   6.208   1.638   5.130
 9908SOL    HW230624   6.057   1.605   5.182
 9909SOL     OW30625   4.410   1.402   2.829
 9909SOL    HW130626   4.406   1.417   2.730
 9909SOL    HW230627   4.321   1.369   2.861
 9910SOL     OW30628   1.344   5.310   1.908
 9910SOL    HW130629   1.326   5.211   1.906
 9910SOL    HW230630   1.272   5.355   1.961
 9911SOL     OW30631   2.344   6.333   1.844
 9911SOL    HW130632   2.350   6.400   1.770
 9911SOL    HW230633   2.293   6.373   1.921
 9912SOL     OW30634   3.726   0.075   1.439
 9912SOL    HW130635   3.760   0.052   1.347
 9912SOL    HW230636   3.651   0.014   1.463
 9913SOL     OW30637   6.331   4.112   0.804
 9913SOL    HW130638   6.290   4.021   0.806
 9913SOL    HW230639   6.279   4.171   0.742
 9914SOL     OW30640   5.916   1.357   4.842
 9914SOL    HW130641   5.962   1.273   4.812
 9914SOL    HW230642   5.966   1.436   4.807
 9915SOL     OW30643   5.803   1.306   3.764
 9915SOL    HW130644   5.789   1.217   3.720
 9915SOL    HW230645   5.803   1.378   3.695
 9916SOL     OW30646   2.072   2.158   2.593
 9916SOL    HW130647   2.101   2.108   2.512
 9916SOL    HW230648   2.015   2.235   2.566
 9917SOL     OW30649   4.949   4.539   6.531
 9917SOL    HW130650   5.006   4.557   6.451
 9917SOL    HW230651   4.989   4.464   6.584
 9918SOL     OW30652   2.801   2.048   3.518
 9918SOL    HW130653   2.892   2.075   3.549
 9918SOL    HW230654   2.733   2.076   3.585
 9919SOL     OW30655   0.573   5.247   0.650
 9919SOL    HW130656   0.611   5.172   0.597
 9919SOL    HW230657   0.534   5.211   0.735
 9920SOL     OW30658   5.432   1.603   2.390
 9920SOL    HW130659   5.389   1.642   2.472
 9920SOL    HW230660   5.461   1.509   2.409
 9921SOL     OW30661   4.106   6.199   5.012
 9921SOL    HW130662   4.029   6.177   4.953
 9921SOL    HW230663   4.075   6.207   5.107
 9922SOL     OW30664   2.195   4.103   0.752
 9922SOL    HW130665   2.200   4.040   0.674
 9922SOL    HW230666   2.103   4.098   0.792
 9923SOL     OW30667   5.496   4.643   6.895
 9923SOL    HW130668   5.510   4.559   6.843
 9923SOL    HW230669   5.583   4.671   6.936
 9924SOL     OW30670   6.442   1.676   3.429
 9924SOL    HW130671   6.404   1.607   3.490
 9924SOL    HW230672   6.426   1.650   3.334
 9925SOL     OW30673   0.502   3.701   4.237
 9925SOL    HW130674   0.557   3.785   4.239
 9925SOL    HW230675   0.408   3.722   4.263
 9926SOL     OW30676   4.412   3.071   1.439
 9926SOL    HW130677   4.488   3.115   1.391
 9926SOL    HW230678   4.351   3.027   1.373
 9927SOL     OW30679   1.209   0.425   0.509
 9927SOL    HW130680   1.182   0.366   0.585
 9927SOL    HW230681   1.165   0.515   0.520
 9928SOL     OW30682   5.065   5.023   3.075
 9928SOL    HW130683   5.164   5.013   3.083
 9928SOL    HW230684   5.020   4.942   3.112
 9929SOL     OW30685   3.488   4.072   5.100
 9929SOL    HW130686   3.491   3.994   5.037
 9929SOL    HW230687   3.392   4.090   5.124
 9930SOL     OW30688   6.592   6.337   5.270
 9930SOL    HW130689   6.596   6.386   5.183
 9930SOL    HW230690   6.656   6.260   5.268
 9931SOL     OW30691   0.371   5.687   4.164
 9931SOL    HW130692   0.448   5.623   4.161
 9931SOL    HW230693   0.309   5.661   4.237
 9932SOL     OW30694   3.043   3.090   6.173
 9932SOL    HW130695   3.124   3.073   6.117
 9932SOL    HW230696   2.971   3.129   6.116
 9933SOL     OW30697   0.720   6.165   3.749
 9933SOL    HW130698   0.640   6.196   3.799
 9933SOL    HW230699   0.737   6.225   3.672
 9934SOL     OW30700   6.603   1.573   5.673
 9934SOL    HW130701   6.592   1.558   5.771
 9934SOL    HW230702   6.699   1.591   5.652
 9935SOL     OW30703   3.115   6.505   0.244
 9935SOL    HW130704   3.161   6.462   0.321
 9935SOL    HW230705   3.023   6.534   0.271
 9936SOL     OW30706   6.751   4.622   6.935
 9936SOL    HW130707   6.735   4.594   6.841
 9936SOL    HW230708   6.666   4.656   6.975
 9937SOL     OW30709   0.141   1.566   1.487
 9937SOL    HW130710   0.130   1.635   1.415
 9937SOL    HW230711   0.059   1.564   1.544
 9938SOL     OW30712   6.770   5.021   3.460
 9938SOL    HW130713   6.825   5.001   3.541
 9938SOL    HW230714   6.758   4.937   3.407
 9939SOL     OW30715   4.376   2.346   1.463
 9939SOL    HW130716   4.386   2.297   1.376
 9939SOL    HW230717   4.457   2.332   1.519
 9940SOL     OW30718   0.932   0.550   1.364
 9940SOL    HW130719   0.955   0.525   1.458
 9940SOL    HW230720   1.011   0.530   1.305
 9941SOL     OW30721   3.279   3.076   4.848
 9941SOL    HW130722   3.351   3.045   4.785
 9941SOL    HW230723   3.293   3.034   4.937
 9942SOL     OW30724   2.647   5.509   2.780
 9942SOL    HW130725   2.550   5.500   2.801
 9942SOL    HW230726   2.658   5.533   2.683
 9943SOL     OW30727   0.242   4.305   5.453
 9943SOL    HW130728   0.178   4.364   5.404
 9943SOL    HW230729   0.330   4.351   5.462
 9944SOL     OW30730   0.885   4.171   6.331
 9944SOL    HW130731   0.881   4.075   6.303
 9944SOL    HW230732   0.807   4.192   6.389
 9945SOL     OW30733   4.615   5.394   6.810
 9945SOL    HW130734   4.686   5.328   6.788
 9945SOL    HW230735   4.526   5.360   6.779
 9946SOL     OW30736   6.218   0.380   3.532
 9946SOL    HW130737   6.283   0.304   3.537
 9946SOL    HW230738   6.262   0.459   3.489
 9947SOL     OW30739   2.509   2.153   4.921
 9947SOL    HW130740   2.475   2.113   5.006
 9947SOL    HW230741   2.469   2.105   4.843
 9948SOL     OW30742   5.890   4.660   5.751
 9948SOL    HW130743   5.808   4.717   5.749
 9948SOL    HW230744   5.867   4.570   5.788
 9949SOL     OW30745   0.060   5.112   4.011
 9949SOL    HW130746   6.983   5.129   4.030
 9949SOL    HW230747   0.094   5.183   3.949
 9950SOL     OW30748   5.751   6.356   5.622
 9950SOL    HW130749   5.687   6.291   5.663
 9950SOL    HW230750   5.844   6.320   5.628
 9951SOL     OW30751   0.477   1.393   4.000
 9951SOL    HW130752   0.471   1.469   3.935
 9951SOL    HW230753   0.457   1.425   4.092
 9952SOL     OW30754   1.253   4.659   0.405
 9952SOL    HW130755   1.164   4.644   0.448
 9952SOL    HW230756   1.308   4.719   0.463
 9953SOL     OW30757   5.442   2.439   4.833
 9953SOL    HW130758   5.420   2.341   4.836
 9953SOL    HW230759   5.463   2.466   4.739
 9954SOL     OW30760   0.249   0.328   6.020
 9954SOL    HW130761   0.300   0.250   6.055
 9954SOL    HW230762   0.281   0.350   5.927
 9955SOL     OW30763   5.757   3.242   5.611
 9955SOL    HW130764   5.670   3.291   5.622
 9955SOL    HW230765   5.741   3.144   5.621
 9956SOL     OW30766   1.516   6.150   1.629
 9956SOL    HW130767   1.450   6.209   1.583
 9956SOL    HW230768   1.608   6.185   1.613
 9957SOL     OW30769   5.291   6.257   2.371
 9957SOL    HW130770   5.359   6.328   2.355
 9957SOL    HW230771   5.334   6.179   2.417
 9958SOL     OW30772   2.626   5.410   0.039
 9958SOL    HW130773   2.611   5.509   0.032
 9958SOL    HW230774   2.606   5.380   0.132
 9959SOL     OW30775   4.123   3.426   4.797
 9959SOL    HW130776   4.110   3.517   4.757
 9959SOL    HW230777   4.049   3.365   4.766
 9960SOL     OW30778   0.157   0.541   2.104
 9960SOL    HW130779   0.248   0.570   2.135
 9960SOL    HW230780   0.168   0.475   2.030
 9961SOL     OW30781   1.594   5.621   4.429
 9961SOL    HW130782   1.513   5.563   4.437
 9961SOL    HW230783   1.617   5.659   4.518
 9962SOL     OW30784   5.527   5.766   1.546
 9962SOL    HW130785   5.475   5.836   1.596
 9962SOL    HW230786   5.588   5.719   1.610
 9963SOL     OW30787   2.561   3.410   6.790
 9963SOL    HW130788   2.585   3.313   6.801
 9963SOL    HW230789   2.550   3.430   6.692
 9964SOL     OW30790   5.148   4.426   6.219
 9964SOL    HW130791   5.097   4.340   6.211
 9964SOL    HW230792   5.102   4.497   6.165
 9965SOL     OW30793   4.073   6.050   6.168
 9965SOL    HW130794   4.135   6.067   6.091
 9965SOL    HW230795   4.107   5.973   6.221
 9966SOL     OW30796   2.493   5.877   2.403
 9966SOL    HW130797   2.568   5.845   2.345
 9966SOL    HW230798   2.523   5.957   2.455
 9967SOL     OW30799   5.571   6.983   1.792
 9967SOL    HW130800   5.603   6.937   1.875
 9967SOL    HW230801   5.482   0.005   1.810
 9968SOL     OW30802   2.936   3.424   6.836
 9968SOL    HW130803   2.940   3.419   6.736
 9968SOL    HW230804   2.892   3.509   6.863
 9969SOL     OW30805   1.834   2.755   3.512
 9969SOL    HW130806   1.913   2.694   3.515
 9969SOL    HW230807   1.848   2.830   3.576
 9970SOL     OW30808   5.468   4.267   3.014
 9970SOL    HW130809   5.507   4.292   3.103
 9970SOL    HW230810   5.503   4.178   2.986
 9971SOL     OW30811   3.009   5.114   0.504
 9971SOL    HW130812   3.009   5.088   0.408
 9971SOL    HW230813   2.954   5.196   0.516
 9972SOL     OW30814   4.045   4.461   1.404
 9972SOL    HW130815   4.101   4.542   1.421
 9972SOL    HW230816   3.954   4.489   1.375
 9973SOL     OW30817   4.366   2.393   4.443
 9973SOL    HW130818   4.285   2.368   4.496
 9973SOL    HW230819   4.430   2.316   4.441
 9974SOL     OW30820   6.416   3.038   3.595
 9974SOL    HW130821   6.399   3.136   3.590
 9974SOL    HW230822   6.364   2.991   3.524
 9975SOL     OW30823   6.636   5.096   6.853
 9975SOL    HW130824   6.649   4.998   6.842
 9975SOL    HW230825   6.570   5.114   6.926
 9976SOL     OW30826   0.978   6.194   5.386
 9976SOL    HW130827   1.028   6.216   5.302
 9976SOL    HW230828   0.982   6.272   5.448
 9977SOL     OW30829   0.074   5.457   5.236
 9977SOL    HW130830   0.150   5.418   5.288
 9977SOL    HW230831   0.106   5.533   5.181
 9978SOL     OW30832   6.212   3.099   3.107
 9978SOL    HW130833   6.187   3.015   3.059
 9978SOL    HW230834   6.249   3.165   3.042
 9979SOL     OW30835   6.101   4.801   5.732
 9979SOL    HW130836   6.086   4.899   5.717
 9979SOL    HW230837   6.013   4.754   5.733
 9980SOL     OW30838   1.970   1.369   5.937
 9980SOL    HW130839   1.951   1.403   5.845
 9980SOL    HW230840   2.040   1.426   5.980
 9981SOL     OW30841   2.602   2.037   1.713
 9981SOL    HW130842   2.680   2.076   1.665
 9981SOL    HW230843   2.539   1.996   1.648
 9982SOL     OW30844   0.306   0.339   3.405
 9982SOL    HW130845   0.227   0.386   3.365
 9982SOL    HW230846   0.288   0.240   3.407
 9983SOL     OW30847   0.785   2.614   3.679
 9983SOL    HW130848   0.796   2.585   3.584
 9983SOL    HW230849   0.843   2.694   3.697
 9984SOL     OW30850   1.999   0.716   0.465
 9984SOL    HW130851   2.066   0.713   0.391
 9984SOL    HW230852   1.930   0.646   0.451
 9985SOL     OW30853   2.245   1.417   1.475
 9985SOL    HW130854   2.251   1.517   1.482
 9985SOL    HW230855   2.335   1.377   1.492
 9986SOL     OW30856   5.004   4.401   5.890
 9986SOL    HW130857   4.925   4.403   5.951
 9986SOL    HW230858   5.042   4.494   5.882
 9987SOL     OW30859   0.136   2.641   3.737
 9987SOL    HW130860   0.195   2.669   3.813
 9987SOL    HW230861   0.173   2.559   3.694
 9988SOL     OW30862   0.290   5.368   5.423
 9988SOL    HW130863   0.255   5.399   5.511
 9988SOL    HW230864   0.334   5.279   5.435
 9989SOL     OW30865   6.667   4.125   3.422
 9989SOL    HW130866   6.703   4.128   3.515
 9989SOL    HW230867   6.640   4.217   3.394
 9990SOL     OW30868   2.241   5.750   1.817
 9990SOL    HW130869   2.336   5.776   1.835
 9990SOL    HW230870   2.227   5.654   1.841
 9991SOL     OW30871   2.038   2.744   4.073
 9991SOL    HW130872   1.986   2.713   3.993
 9991SOL    HW230873   1.991   2.820   4.116
 9992SOL     OW30874   5.159   4.895   0.327
 9992SOL    HW130875   5.141   4.862   0.420
 9992SOL    HW230876   5.241   4.851   0.292
 9993SOL     OW30877   3.917   0.675   1.062
 9993SOL    HW130878   4.008   0.714   1.048
 9993SOL    HW230879   3.850   0.725   1.008
 9994SOL     OW30880   0.117   4.919   3.319
 9994SOL    HW130881   0.082   4.845   3.260
 9994SOL    HW230882   0.055   4.997   3.314
 9995SOL     OW30883   4.173   1.264   2.913
 9995SOL    HW130884   4.228   1.208   2.975
 9995SOL    HW230885   4.156   1.213   2.829
 9996SOL     OW30886   2.185   3.078   1.557
 9996SOL    HW130887   2.180   3.126   1.644
 9996SOL    HW230888   2.259   3.010   1.560
 9997SOL     OW30889   3.695   1.897   0.770
 9997SOL    HW130890   3.733   1.899   0.862
 9997SOL    HW230891   3.717   1.983   0.723
 9998SOL     OW30892   5.635   4.312   0.070
 9998SOL    HW130893   5.605   4.256   0.147
 9998SOL    HW230894   5.726   4.282   0.040
 9999SOL     OW30895   0.189   2.573   5.502
 9999SOL    HW130896   0.120   2.637   5.466
 9999SOL    HW230897   0.160   2.538   5.591
10000SOL     OW30898   6.713   3.754   6.821
10000SOL    HW130899   6.685   3.704   6.739
10000SOL    HW230900   6.638   3.754   6.887
10001SOL     OW30901   4.813   0.102   2.153
10001SOL    HW130902   4.895   0.056   2.188
10001SOL    HW230903   4.734   0.076   2.208
10002SOL     OW30904   1.715   0.160   2.274
10002SOL    HW130905   1.728   0.112   2.360
10002SOL    HW230906   1.758   0.250   2.279
10003SOL     OW30907   3.494   1.199   3.182
10003SOL    HW130908   3.403   1.234   3.206
10003SOL    HW230909   3.562   1.270   3.201
10004SOL     OW30910   5.331   2.477   3.801
10004SOL    HW130911   5.310   2.447   3.708
10004SOL    HW230912   5.345   2.576   3.801
10005SOL     OW30913   5.041   0.702   4.370
10005SOL    HW130914   4.956   0.725   4.323
10005SOL    HW230915   5.024   0.628   4.435
10006SOL     OW30916   5.619   6.578   4.596
10006SOL    HW130917   5.528   6.611   4.571
10006SOL    HW230918   5.688   6.645   4.570
10007SOL     OW30919   0.281   5.054   5.670
10007SOL    HW130920   0.296   5.059   5.571
10007SOL    HW230921   0.349   5.110   5.717
10008SOL     OW30922   4.613   1.368   4.697
10008SOL    HW130923   4.524   1.388   4.738
10008SOL    HW230924   4.665   1.454   4.688
10009SOL     OW30925   1.981   4.017   1.679
10009SOL    HW130926   1.890   4.059   1.683
10009SOL    HW230927   2.014   4.001   1.772
10010SOL     OW30928   1.957   0.781   5.828
10010SOL    HW130929   1.958   0.838   5.911
10010SOL    HW230930   1.885   0.813   5.767
10011SOL     OW30931   5.410   1.534   4.971
10011SOL    HW130932   5.441   1.452   4.924
10011SOL    HW230933   5.487   1.597   4.982
10012SOL     OW30934   5.577   0.846   3.358
10012SOL    HW130935   5.579   0.871   3.261
10012SOL    HW230936   5.595   0.927   3.414
10013SOL     OW30937   0.548   1.191   3.771
10013SOL    HW130938   0.492   1.174   3.691
10013SOL    HW230939   0.491   1.226   3.845
10014SOL     OW30940   6.707   4.024   0.929
10014SOL    HW130941   6.630   4.058   0.983
10014SOL    HW230942   6.717   3.925   0.943
10015SOL     OW30943   2.005   4.344   0.450
10015SOL    HW130944   2.098   4.339   0.486
10015SOL    HW230945   1.977   4.253   0.416
10016SOL     OW30946   1.383   1.025   6.297
10016SOL    HW130947   1.465   0.973   6.320
10016SOL    HW230948   1.379   1.039   6.198
10017SOL     OW30949   2.798   1.551   3.176
10017SOL    HW130950   2.746   1.580   3.257
10017SOL    HW230951   2.744   1.485   3.124
10018SOL     OW30952   4.430   0.098   5.631
10018SOL    HW130953   4.359   0.164   5.654
10018SOL    HW230954   4.478   0.127   5.549
10019SOL     OW30955   6.963   2.143   2.814
10019SOL    HW130956   0.002   2.064   2.803
10019SOL    HW230957   6.949   2.161   2.911
10020SOL     OW30958   1.588   2.230   1.620
10020SOL    HW130959   1.659   2.297   1.641
10020SOL    HW230960   1.507   2.278   1.585
10021SOL     OW30961   6.759   2.882   1.674
10021SOL    HW130962   6.781   2.980   1.674
10021SOL    HW230963   6.835   2.831   1.632
10022SOL     OW30964   2.771   0.530   5.791
10022SOL    HW130965   2.709   0.469   5.841
10022SOL    HW230966   2.738   0.543   5.698
10023SOL     OW30967   1.306   5.574   6.933
10023SOL    HW130968   1.305   5.505   6.860
10023SOL    HW230969   1.303   5.528   0.002
10024SOL     OW30970   2.492   6.189   2.372
10024SOL    HW130971   2.505   6.281   2.409
10024SOL    HW230972   2.395   6.172   2.360
10025SOL     OW30973   1.275   1.917   1.286
10025SOL    HW130974   1.197   1.977   1.307
10025SOL    HW230975   1.310   1.879   1.371
10026SOL     OW30976   5.716   6.562   3.685
10026SOL    HW130977   5.668   6.539   3.600
10026SOL    HW230978   5.814   6.555   3.671
10027SOL     OW30979   6.484   3.979   4.656
10027SOL    HW130980   6.452   4.005   4.747
10027SOL    HW230981   6.406   3.975   4.593
10028SOL     OW30982   1.625   1.107   2.483
10028SOL    HW130983   1.570   1.189   2.467
10028SOL    HW230984   1.617   1.079   2.579
10029SOL     OW30985   5.032   1.460   4.633
10029SOL    HW130986   5.021   1.362   4.647
10029SOL    HW230987   4.944   1.506   4.647
10030SOL     OW30988   2.375   6.659   3.327
10030SOL    HW130989   2.422   6.745   3.310
10030SOL    HW230990   2.438   6.582   3.312
10031SOL     OW30991   5.860   4.936   4.931
10031SOL    HW130992   5.798   5.013   4.950
10031SOL    HW230993   5.816   4.851   4.960
10032SOL     OW30994   2.251   1.377   5.308
10032SOL    HW130995   2.229   1.379   5.211
10032SOL    HW230996   2.261   1.470   5.342
10033SOL     OW30997   6.247   2.679   4.205
10033SOL    HW130998   6.239   2.778   4.197
10033SOL    HW230999   6.341   2.651   4.187
10034SOL     OW31000   3.470   0.348   4.048
10034SOL    HW131001   3.542   0.290   4.087
10034SOL    HW231002   3.496   0.444   4.057
10035SOL     OW31003   6.144   4.715   1.666
10035SOL    HW131004   6.155   4.801   1.616
10035SOL    HW231005   6.116   4.735   1.760
10036SOL     OW31006   5.961   2.299   1.196
10036SOL    HW131007   5.990   2.338   1.283
10036SOL    HW231008   5.862   2.288   1.196
10037SOL     OW31009   0.480   1.690   0.159
10037SOL    HW131010   0.453   1.743   0.078
10037SOL    HW231011   0.526   1.751   0.224
10038SOL     OW31012   5.577   0.423   0.091
10038SOL    HW131013   5.618   0.486   0.158
10038SOL    HW231014   5.483   0.451   0.072
10039SOL     OW31015   3.608   0.633   3.404
10039SOL    HW131016   3.630   0.596   3.495
10039SOL    HW231017   3.692   0.657   3.357
10040SOL     OW31018   5.399   5.097   6.609
10040SOL    HW131019   5.313   5.147   6.620
10040SOL    HW231020   5.476   5.159   6.623
10041SOL     OW31021   4.409   5.789   6.826
10041SOL    HW131022   4.468   5.775   6.746
10041SOL    HW231023   4.325   5.835   6.797
10042SOL     OW31024   0.739   2.015   3.880
10042SOL    HW131025   0.809   2.083   3.903
10042SOL    HW231026   0.739   1.943   3.950
10043SOL     OW31027   6.740   1.580   4.683
10043SOL    HW131028   6.807   1.590   4.609
10043SOL    HW231029   6.697   1.490   4.677
10044SOL     OW31030   2.472   2.506   4.692
10044SOL    HW131031   2.476   2.413   4.655
10044SOL    HW231032   2.498   2.572   4.621
10045SOL     OW31033   3.796   0.616   1.301
10045SOL    HW131034   3.866   0.614   1.230
10045SOL    HW231035   3.802   0.703   1.351
10046SOL     OW31036   1.763   3.617   0.518
10046SOL    HW131037   1.686   3.679   0.537
10046SOL    HW231038   1.748   3.530   0.565
10047SOL     OW31039   0.773   3.462   5.063
10047SOL    HW131040   0.857   3.434   5.016
10047SOL    HW231041   0.726   3.533   5.009
10048SOL     OW31042   0.260   6.739   2.727
10048SOL    HW131043   0.335   6.674   2.714
10048SOL    HW231044   0.270   6.784   2.816
10049SOL     OW31045   1.502   1.276   5.699
10049SOL    HW131046   1.580   1.288   5.638
10049SOL    HW231047   1.427   1.233   5.649
10050SOL     OW31048   5.541   3.450   4.904
10050SOL    HW131049   5.454   3.413   4.872
10050SOL    HW231050   5.526   3.507   4.985
10051SOL     OW31051   0.384   4.100   4.778
10051SOL    HW131052   0.370   4.199   4.790
10051SOL    HW231053   0.361   4.053   4.863
10052SOL     OW31054   2.036   1.337   3.191
10052SOL    HW131055   2.089   1.327   3.275
10052SOL    HW231056   2.022   1.247   3.148
10053SOL     OW31057   4.413   5.948   4.407
10053SOL    HW131058   4.391   5.961   4.504
10053SOL    HW231059   4.356   6.009   4.352
10054SOL     OW31060   5.553   4.502   5.172
10054SOL    HW131061   5.566   4.540   5.264
10054SOL    HW231062   5.611   4.421   5.162
10055SOL     OW31063   6.253   2.310   5.534
10055SOL    HW131064   6.263   2.372   5.457
10055SOL    HW231065   6.213   2.223   5.503
10056SOL     OW31066   5.056   4.671   3.812
10056SOL    HW131067   5.045   4.590   3.753
10056SOL    HW231068   5.146   4.668   3.854
10057SOL     OW31069   5.652   3.729   5.405
10057SOL    HW131070   5.692   3.638   5.395
10057SOL    HW231071   5.712   3.787   5.460
10058SOL     OW31072   6.660   3.757   4.619
10058SOL    HW131073   6.690   3.737   4.712
10058SOL    HW231074   6.593   3.832   4.621
10059SOL     OW31075   0.059   2.423   0.419
10059SOL    HW131076   0.107   2.448   0.503
10059SOL    HW231077   6.992   2.380   0.441
10060SOL     OW31078   2.270   2.252   2.330
10060SOL    HW131079   2.286   2.182   2.399
10060SOL    HW231080   2.268   2.342   2.374
10061SOL     OW31081   4.342   0.932   3.999
10061SOL    HW131082   4.374   0.866   3.931
10061SOL    HW231083   4.306   0.884   4.079
10062SOL     OW31084   6.346   6.911   4.476
10062SOL    HW131085   6.440   6.913   4.512
10062SOL    HW231086   6.320   7.002   4.444
10063SOL     OW31087   3.114   1.715   4.426
10063SOL    HW131088   3.140   1.712   4.330
10063SOL    HW231089   3.015   1.729   4.433
10064SOL     OW31090   4.418   5.753   6.511
10064SOL    HW131091   4.511   5.733   6.481
10064SOL    HW231092   4.405   5.852   6.517
10065SOL     OW31093   2.074   0.843   1.839
10065SOL    HW131094   2.107   0.930   1.876
10065SOL    HW231095   2.104   0.834   1.744
10066SOL     OW31096   0.328   2.722   4.754
10066SOL    HW131097   0.270   2.739   4.674
10066SOL    HW231098   0.274   2.736   4.837
10067SOL     OW31099   0.352   3.123   6.445
10067SOL    HW131100   0.325   3.056   6.515
10067SOL    HW231101   0.451   3.119   6.433
10068SOL     OW31102   1.138   4.081   2.994
10068SOL    HW131103   1.157   4.057   2.899
10068SOL    HW231104   1.127   4.180   3.001
10069SOL     OW31105   3.468   4.873   1.579
10069SOL    HW131106   3.486   4.953   1.636
10069SOL    HW231107   3.515   4.885   1.491
10070SOL     OW31108   0.547   5.075   5.032
10070SOL    HW131109   0.582   5.127   5.110
10070SOL    HW231110   0.564   5.126   4.948
10071SOL     OW31111   1.263   0.268   4.094
10071SOL    HW131112   1.308   0.179   4.088
10071SOL    HW231113   1.201   0.269   4.173
10072SOL     OW31114   0.534   1.349   2.858
10072SOL    HW131115   0.464   1.300   2.805
10072SOL    HW231116   0.576   1.286   2.923
10073SOL     OW31117   6.282   3.469   3.735
10073SOL    HW131118   6.232   3.403   3.792
10073SOL    HW231119   6.291   3.555   3.784
10074SOL     OW31120   1.816   5.901   0.729
10074SOL    HW131121   1.750   5.976   0.741
10074SOL    HW231122   1.905   5.930   0.763
10075SOL     OW31123   1.817   0.415   2.287
10075SOL    HW131124   1.750   0.490   2.279
10075SOL    HW231125   1.872   0.429   2.369
10076SOL     OW31126   4.899   5.236   3.076
10076SOL    HW131127   4.920   5.329   3.047
10076SOL    HW231128   4.973   5.175   3.050
10077SOL     OW31129   5.483   2.596   0.206
10077SOL    HW131130   5.453   2.679   0.159
10077SOL    HW231131   5.412   2.526   0.201
10078SOL     OW31132   0.546   6.560   4.911
10078SOL    HW131133   0.544   6.600   4.819
10078SOL    HW231134   0.508   6.468   4.908
10079SOL     OW31135   5.422   2.471   3.301
10079SOL    HW131136   5.326   2.500   3.301
10079SOL    HW231137   5.475   2.531   3.241
10080SOL     OW31138   5.382   1.283   6.155
10080SOL    HW131139   5.476   1.312   6.133
10080SOL    HW231140   5.359   1.203   6.101
10081SOL     OW31141   0.880   1.935   0.354
10081SOL    HW131142   0.901   1.841   0.327
10081SOL    HW231143   0.932   1.959   0.435
10082SOL     OW31144   1.512   5.374   3.536
10082SOL    HW131145   1.478   5.322   3.614
10082SOL    HW231146   1.574   5.316   3.482
10083SOL     OW31147   3.583   6.383   3.571
10083SOL    HW131148   3.524   6.331   3.510
10083SOL    HW231149   3.671   6.336   3.581
10084SOL     OW31150   6.953   7.007   5.063
10084SOL    HW131151   6.872   6.949   5.051
10084SOL    HW231152   6.927   0.083   5.059
10085SOL     OW31153   4.470   6.807   0.404
10085SOL    HW131154   4.465   6.856   0.492
10085SOL    HW231155   4.379   6.772   0.380
10086SOL     OW31156   5.838   6.195   2.611
10086SOL    HW131157   5.823   6.226   2.705
10086SOL    HW231158   5.929   6.154   2.604
10087SOL     OW31159   0.463   6.610   4.249
10087SOL    HW131160   0.414   6.595   4.335
10087SOL    HW231161   0.440   6.701   4.213
10088SOL     OW31162   6.629   1.126   7.000
10088SOL    HW131163   6.601   1.077   0.062
10088SOL    HW231164   6.621   1.065   6.921
10089SOL     OW31165   3.526   1.084   2.916
10089SOL    HW131166   3.540   1.166   2.971
10089SOL    HW231167   3.467   1.020   2.965
10090SOL     OW31168   0.887   4.826   2.024
10090SOL    HW131169   0.836   4.882   2.089
10090SOL    HW231170   0.960   4.777   2.071
10091SOL     OW31171   6.783   5.963   6.747
10091SOL    HW131172   6.753   5.906   6.823
10091SOL    HW231173   6.855   6.026   6.780
10092SOL     OW31174   1.361   3.331   5.424
10092SOL    HW131175   1.402   3.245   5.395
10092SOL    HW231176   1.343   3.389   5.344
10093SOL     OW31177   5.008   3.468   4.882
10093SOL    HW131178   4.971   3.378   4.903
10093SOL    HW231179   4.955   3.538   4.929
10094SOL     OW31180   2.612   6.623   1.454
10094SOL    HW131181   2.701   6.595   1.491
10094SOL    HW231182   2.611   6.722   1.441
10095SOL     OW31183   5.373   2.013   4.694
10095SOL    HW131184   5.280   1.976   4.692
10095SOL    HW231185   5.406   2.023   4.600
10096SOL     OW31186   5.083   0.695   2.205
10096SOL    HW131187   5.020   0.749   2.261
10096SOL    HW231188   5.160   0.752   2.177
10097SOL     OW31189   1.801   2.208   6.694
10097SOL    HW131190   1.827   2.131   6.751
10097SOL    HW231191   1.881   2.240   6.642
10098SOL     OW31192   2.807   5.909   4.606
10098SOL    HW131193   2.724   5.950   4.568
10098SOL    HW231194   2.792   5.890   4.703
10099SOL     OW31195   6.558   4.801   1.482
10099SOL    HW131196   6.532   4.705   1.493
10099SOL    HW231197   6.622   4.827   1.555
10100SOL     OW31198   5.531   5.089   5.265
10100SOL    HW131199   5.588   5.044   5.333
10100SOL    HW231200   5.466   5.023   5.227
10101SOL     OW31201   6.710   3.106   1.991
10101SOL    HW131202   6.807   3.101   1.967
10101SOL    HW231203   6.655   3.117   1.909
10102SOL     OW31204   5.705   0.591   0.615
10102SOL    HW131205   5.705   0.659   0.689
10102SOL    HW231206   5.704   0.499   0.654
10103SOL     OW31207   1.069   0.082   5.402
10103SOL    HW131208   1.081   0.152   5.472
10103SOL    HW231209   1.097   7.013   5.439
10104SOL     OW31210   2.504   1.161   5.853
10104SOL    HW131211   2.426   1.118   5.807
10104SOL    HW231212   2.493   1.260   5.853
10105SOL     OW31213   3.005   1.312   5.679
10105SOL    HW131214   3.025   1.273   5.769
10105SOL    HW231215   3.059   1.395   5.666
10106SOL     OW31216   4.631   6.114   1.167
10106SOL    HW131217   4.554   6.050   1.167
10106SOL    HW231218   4.662   6.128   1.262
10107SOL     OW31219   4.943   3.957   6.729
10107SOL    HW131220   4.892   3.962   6.815
10107SOL    HW231221   4.930   3.866   6.688
10108SOL     OW31222   1.164   2.744   0.700
10108SOL    HW131223   1.260   2.769   0.707
10108SOL    HW231224   1.145   2.669   0.764
10109SOL     OW31225   0.900   1.044   0.167
10109SOL    HW131226   0.845   1.096   0.102
10109SOL    HW231227   0.997   1.068   0.154
10110SOL     OW31228   4.734   5.129   2.669
10110SOL    HW131229   4.758   5.216   2.627
10110SOL    HW231230   4.634   5.118   2.670
10111SOL     OW31231   0.994   2.946   2.113
10111SOL    HW131232   0.927   2.946   2.039
10111SOL    HW231233   1.055   2.868   2.102
10112SOL     OW31234   6.738   3.376   3.016
10112SOL    HW131235   6.691   3.372   3.104
10112SOL    HW231236   6.671   3.373   2.942
10113SOL     OW31237   4.475   1.063   6.403
10113SOL    HW131238   4.492   1.146   6.350
10113SOL    HW231239   4.378   1.056   6.424
10114SOL     OW31240   3.811   2.192   3.201
10114SOL    HW131241   3.868   2.266   3.165
10114SOL    HW231242   3.816   2.113   3.139
10115SOL     OW31243   3.911   1.361   4.244
10115SOL    HW131244   3.981   1.321   4.185
10115SOL    HW231245   3.949   1.380   4.334
10116SOL     OW31246   5.599   0.435   5.652
10116SOL    HW131247   5.591   0.346   5.607
10116SOL    HW231248   5.647   0.498   5.591
10117SOL     OW31249   6.851   5.349   5.336
10117SOL    HW131250   6.854   5.278   5.267
10117SOL    HW231251   6.929   5.411   5.324
10118SOL     OW31252   2.763   5.093   4.441
10118SOL    HW131253   2.669   5.091   4.407
10118SOL    HW231254   2.769   5.042   4.526
10119SOL     OW31255   0.138   5.331   3.828
10119SOL    HW131256   0.202   5.314   3.753
10119SOL    HW231257   0.186   5.378   3.903
10120SOL     OW31258   1.483   3.128   2.883
10120SOL    HW131259   1.566   3.087   2.920
10120SOL    HW231260   1.430   3.059   2.833
10121SOL     OW31261   5.751   4.811   0.699
10121SOL    HW131262   5.793   4.736   0.648
10121SOL    HW231263   5.665   4.837   0.656
10122SOL     OW31264   6.337   1.690   3.153
10122SOL    HW131265   6.379   1.605   3.121
10122SOL    HW231266   6.249   1.670   3.195
10123SOL     OW31267   5.792   6.366   0.995
10123SOL    HW131268   5.824   6.287   1.047
10123SOL    HW231269   5.853   6.382   0.917
10124SOL     OW31270   1.101   5.306   2.443
10124SOL    HW131271   1.138   5.270   2.357
10124SOL    HW231272   1.035   5.241   2.481
10125SOL     OW31273   2.524   1.431   1.771
10125SOL    HW131274   2.618   1.462   1.781
10125SOL    HW231275   2.467   1.508   1.742
10126SOL     OW31276   6.096   0.280   6.361
10126SOL    HW131277   6.087   0.297   6.263
10126SOL    HW231278   6.186   0.309   6.392
10127SOL     OW31279   1.167   4.433   6.106
10127SOL    HW131280   1.132   4.510   6.053
10127SOL    HW231281   1.103   4.356   6.098
10128SOL     OW31282   3.048   0.805   6.929
10128SOL    HW131283   3.059   0.863   7.010
10128SOL    HW231284   2.983   0.848   6.866
10129SOL     OW31285   6.762   1.790   2.720
10129SOL    HW131286   6.798   1.704   2.755
10129SOL    HW231287   6.664   1.781   2.701
10130SOL     OW31288   1.166   2.294   1.920
10130SOL    HW131289   1.165   2.331   1.827
10130SOL    HW231290   1.121   2.204   1.920
10131SOL     OW31291   2.056   0.694   4.304
10131SOL    HW131292   2.119   0.621   4.278
10131SOL    HW231293   1.964   0.673   4.269
10132SOL     OW31294   6.944   6.746   2.384
10132SOL    HW131295   6.866   6.691   2.414
10132SOL    HW231296   0.005   6.719   2.436
10133SOL     OW31297   4.716   5.464   0.954
10133SOL    HW131298   4.807   5.432   0.979
10133SOL    HW231299   4.653   5.449   1.031
10134SOL     OW31300   6.000   0.979   2.734
10134SOL    HW131301   6.099   0.986   2.725
10134SOL    HW231302   5.966   0.908   2.672
10135SOL     OW31303   5.796   0.974   4.045
10135SOL    HW131304   5.785   0.944   4.139
10135SOL    HW231305   5.808   1.073   4.042
10136SOL     OW31306   5.066   2.717   2.897
10136SOL    HW131307   5.062   2.775   2.815
10136SOL    HW231308   4.973   2.686   2.920
10137SOL     OW31309   0.514   5.383   5.677
10137SOL    HW131310   0.586   5.399   5.610
10137SOL    HW231311   0.434   5.438   5.653
10138SOL     OW31312   5.903   1.673   0.041
10138SOL    HW131313   5.943   1.715   6.980
10138SOL    HW231314   5.830   1.732   0.077
10139SOL     OW31315   3.369   3.303   5.694
10139SOL    HW131316   3.430   3.366   5.647
10139SOL    HW231317   3.334   3.347   5.778
10140SOL     OW31318   6.599   6.097   6.276
10140SOL    HW131319   6.500   6.086   6.286
10140SOL    HW231320   6.621   6.109   6.180
10141SOL     OW31321   3.704   1.472   3.719
10141SOL    HW131322   3.768   1.395   3.719
10141SOL    HW231323   3.610   1.437   3.714
10142SOL     OW31324   5.992   6.158   4.906
10142SOL    HW131325   5.933   6.194   4.834
10142SOL    HW231326   6.064   6.103   4.864
10143SOL     OW31327   5.753   3.233   0.245
10143SOL    HW131328   5.774   3.150   0.194
10143SOL    HW231329   5.767   3.217   0.343
10144SOL     OW31330   3.936   6.893   5.427
10144SOL    HW131331   4.031   6.922   5.438
10144SOL    HW231332   3.932   6.816   5.363
10145SOL     OW31333   4.650   6.114   1.469
10145SOL    HW131334   4.635   6.205   1.508
10145SOL    HW231335   4.705   6.059   1.531
10146SOL     OW31336   0.298   3.711   3.907
10146SOL    HW131337   0.306   3.797   3.957
10146SOL    HW231338   0.245   3.646   3.961
10147SOL     OW31339   4.391   5.308   6.735
10147SOL    HW131340   4.326   5.236   6.713
10147SOL    HW231341   4.345   5.397   6.729
10148SOL     OW31342   0.328   4.894   0.507
10148SOL    HW131343   0.283   4.863   0.591
10148SOL    HW231344   0.335   4.993   0.507
10149SOL     OW31345   4.614   5.046   1.741
10149SOL    HW131346   4.664   5.057   1.827
10149SOL    HW231347   4.573   4.955   1.738
10150SOL     OW31348   5.012   3.410   0.972
10150SOL    HW131349   4.986   3.505   0.989
10150SOL    HW231350   4.997   3.387   0.876
10151SOL     OW31351   6.985   6.959   5.733
10151SOL    HW131352   6.897   6.965   5.780
10151SOL    HW231353   0.034   7.010   5.784
10152SOL     OW31354   6.131   6.138   3.128
10152SOL    HW131355   6.137   6.040   3.150
10152SOL    HW231356   6.221   6.180   3.136
10153SOL     OW31357   4.778   5.649   3.968
10153SOL    HW131358   4.706   5.623   4.032
10153SOL    HW231359   4.867   5.636   4.012
10154SOL     OW31360   4.320   4.981   5.441
10154SOL    HW131361   4.280   5.073   5.443
10154SOL    HW231362   4.272   4.922   5.505
10155SOL     OW31363   4.886   2.148   5.774
10155SOL    HW131364   4.820   2.223   5.778
10155SOL    HW231365   4.931   2.138   5.863
10156SOL     OW31366   4.643   0.146   1.554
10156SOL    HW131367   4.728   0.141   1.607
10156SOL    HW231368   4.659   0.109   1.462
10157SOL     OW31369   0.174   2.483   0.650
10157SOL    HW131370   0.093   2.495   0.708
10157SOL    HW231371   0.243   2.431   0.700
10158SOL     OW31372   4.881   6.973   2.626
10158SOL    HW131373   4.943   0.002   2.687
10158SOL    HW231374   4.863   0.008   2.545
10159SOL     OW31375   3.708   3.166   3.173
10159SOL    HW131376   3.806   3.183   3.185
10159SOL    HW231377   3.692   3.068   3.163
10160SOL     OW31378   1.989   4.336   2.979
10160SOL    HW131379   1.944   4.246   2.979
10160SOL    HW231380   2.065   4.335   2.914
10161SOL     OW31381   3.410   4.903   6.073
10161SOL    HW131382   3.459   4.927   6.156
10161SOL    HW231383   3.316   4.937   6.078
10162SOL     OW31384   1.492   4.729   1.432
10162SOL    HW131385   1.578   4.680   1.416
10162SOL    HW231386   1.512   4.817   1.475
10163SOL     OW31387   1.638   6.021   5.372
10163SOL    HW131388   1.736   6.024   5.352
10163SOL    HW231389   1.619   6.075   5.454
10164SOL     OW31390   6.457   3.349   3.568
10164SOL    HW131391   6.533   3.405   3.536
10164SOL    HW231392   6.396   3.404   3.625
10165SOL     OW31393   5.675   2.617   3.835
10165SOL    HW131394   5.666   2.705   3.881
10165SOL    HW231395   5.636   2.623   3.743
10166SOL     OW31396   0.916   2.630   1.217
10166SOL    HW131397   0.841   2.677   1.171
10166SOL    HW231398   0.880   2.550   1.266
10167SOL     OW31399   0.282   4.889   6.583
10167SOL    HW131400   0.184   4.869   6.581
10167SOL    HW231401   0.312   4.899   6.678
10168SOL     OW31402   6.047   1.750   6.809
10168SOL    HW131403   6.079   1.844   6.814
10168SOL    HW231404   6.123   1.690   6.784
10169SOL     OW31405   0.083   3.887   3.105
10169SOL    HW131406   0.109   3.975   3.145
10169SOL    HW231407   7.007   3.890   3.078
10170SOL     OW31408   6.165   5.960   0.295
10170SOL    HW131409   6.250   5.912   0.315
10170SOL    HW231410   6.185   6.042   0.242
10171SOL     OW31411   1.370   2.514   5.752
10171SOL    HW131412   1.282   2.526   5.707
10171SOL    HW231413   1.373   2.569   5.835
10172SOL     OW31414   6.856   0.152   3.464
10172SOL    HW131415   6.899   0.199   3.387
10172SOL    HW231416   6.757   0.146   3.449
10173SOL     OW31417   3.827   4.835   6.879
10173SOL    HW131418   3.855   4.923   6.917
10173SOL    HW231419   3.801   4.773   6.954
10174SOL     OW31420   4.982   0.407   3.093
10174SOL    HW131421   4.933   0.380   3.010
10174SOL    HW231422   4.917   0.444   3.159
10175SOL     OW31423   0.178   1.914   3.197
10175SOL    HW131424   0.191   2.007   3.231
10175SOL    HW231425   0.146   1.917   3.102
10176SOL     OW31426   6.199   3.125   6.021
10176SOL    HW131427   6.267   3.148   6.090
10176SOL    HW231428   6.198   3.027   6.005
10177SOL     OW31429   2.425   0.207   1.503
10177SOL    HW131430   2.494   0.273   1.473
10177SOL    HW231431   2.383   0.165   1.423
10178SOL     OW31432   1.842   1.673   0.961
10178SOL    HW131433   1.777   1.687   0.887
10178SOL    HW231434   1.817   1.591   1.012
10179SOL     OW31435   6.704   4.415   0.152
10179SOL    HW131436   6.789   4.370   0.179
10179SOL    HW231437   6.718   4.465   0.066
10180SOL     OW31438   4.719   0.012   0.129
10180SOL    HW131439   4.723   6.963   0.200
10180SOL    HW231440   4.760   6.997   0.045
10181SOL     OW31441   6.349   3.669   1.602
10181SOL    HW131442   6.268   3.620   1.570
10181SOL    HW231443   6.385   3.725   1.528
10182SOL     OW31444   5.500   1.290   0.314
10182SOL    HW131445   5.409   1.270   0.350
10182SOL    HW231446   5.570   1.245   0.370
10183SOL     OW31447   6.707   2.834   6.300
10183SOL    HW131448   6.746   2.756   6.251
10183SOL    HW231449   6.630   2.870   6.247
10184SOL     OW31450   5.826   2.806   6.795
10184SOL    HW131451   5.766   2.733   6.761
10184SOL    HW231452   5.835   2.798   6.894
10185SOL     OW31453   4.062   6.016   2.741
10185SOL    HW131454   4.124   5.939   2.725
10185SOL    HW231455   3.999   6.025   2.664
10186SOL     OW31456   4.558   3.703   5.921
10186SOL    HW131457   4.514   3.758   5.991
10186SOL    HW231458   4.632   3.755   5.878
10187SOL     OW31459   2.401   4.196   5.974
10187SOL    HW131460   2.476   4.150   5.926
10187SOL    HW231461   2.315   4.179   5.925
10188SOL     OW31462   2.499   6.712   6.991
10188SOL    HW131463   2.453   6.801   6.978
10188SOL    HW231464   2.497   6.688   0.068
10189SOL     OW31465   1.308   1.207   6.789
10189SOL    HW131466   1.216   1.173   6.808
10189SOL    HW231467   1.302   1.303   6.760
10190SOL     OW31468   3.131   3.883   1.633
10190SOL    HW131469   3.068   3.914   1.563
10190SOL    HW231470   3.118   3.937   1.716
10191SOL     OW31471   6.108   5.444   1.048
10191SOL    HW131472   6.060   5.374   1.101
10191SOL    HW231473   6.176   5.402   0.989
10192SOL     OW31474   2.285   1.681   5.202
10192SOL    HW131475   2.347   1.701   5.126
10192SOL    HW231476   2.339   1.654   5.282
10193SOL     OW31477   3.607   3.311   2.282
10193SOL    HW131478   3.704   3.290   2.283
10193SOL    HW231479   3.554   3.227   2.275
10194SOL     OW31480   3.628   0.006   4.398
10194SOL    HW131481   3.702   0.019   4.464
10194SOL    HW231482   3.564   6.958   4.434
10195SOL     OW31483   5.655   0.326   1.536
10195SOL    HW131484   5.753   0.342   1.522
10195SOL    HW231485   5.632   0.233   1.505
10196SOL     OW31486   5.280   2.356   3.554
10196SOL    HW131487   5.343   2.325   3.482
10196SOL    HW231488   5.186   2.353   3.519
10197SOL     OW31489   5.800   0.029   3.005
10197SOL    HW131490   5.887   0.007   3.050
10197SOL    HW231491   5.729   0.042   3.075
10198SOL     OW31492   3.517   6.100   1.102
10198SOL    HW131493   3.553   6.151   1.180
10198SOL    HW231494   3.592   6.073   1.042
10199SOL     OW31495   0.828   1.738   0.053
10199SOL    HW131496   0.827   1.821   7.018
10199SOL    HW231497   0.752   1.679   0.027
10200SOL     OW31498   5.224   3.452   5.845
10200SOL    HW131499   5.214   3.413   5.754
10200SOL    HW231500   5.289   3.397   5.897
10201SOL     OW31501   0.333   5.785   2.010
10201SOL    HW131502   0.345   5.704   2.068
10201SOL    HW231503   0.280   5.760   1.929
10202SOL     OW31504   0.261   3.822   1.202
10202SOL    HW131505   0.280   3.862   1.112
10202SOL    HW231506   0.164   3.801   1.209
10203SOL     OW31507   1.987   2.939   2.743
10203SOL    HW131508   1.939   2.855   2.718
10203SOL    HW231509   2.048   2.921   2.819
10204SOL     OW31510   2.935   4.006   6.152
10204SOL    HW131511   2.880   4.089   6.165
10204SOL    HW231512   2.950   3.962   6.241
10205SOL     OW31513   4.477   1.160   3.378
10205SOL    HW131514   4.421   1.104   3.439
10205SOL    HW231515   4.516   1.236   3.430
10206SOL     OW31516   5.176   6.278   5.558
10206SOL    HW131517   5.091   6.316   5.522
10206SOL    HW231518   5.241   6.263   5.484
10207SOL     OW31519   2.103   0.351   1.327
10207SOL    HW131520   2.076   0.437   1.369
10207SOL    HW231521   2.022   0.293   1.313
10208SOL     OW31522   6.395   5.438   5.472
10208SOL    HW131523   6.367   5.533   5.485
10208SOL    HW231524   6.477   5.435   5.414
10209SOL     OW31525   0.162   0.951   5.759
10209SOL    HW131526   0.146   0.870   5.815
10209SOL    HW231527   0.075   0.987   5.726
10210SOL     OW31528   5.094   0.067   1.969
10210SOL    HW131529   5.128   0.158   1.945
10210SOL    HW231530   5.090   0.010   1.886
10211SOL     OW31531   3.588   6.620   5.612
10211SOL    HW131532   3.601   6.596   5.515
10211SOL    HW231533   3.656   6.571   5.667
10212SOL     OW31534   0.743   1.351   4.046
10212SOL    HW131535   0.647   1.369   4.024
10212SOL    HW231536   0.749   1.308   4.136
10213SOL     OW31537   5.417   1.409   2.706
10213SOL    HW131538   5.489   1.477   2.690
10213SOL    HW231539   5.448   1.344   2.776
10214SOL     OW31540   6.729   0.713   2.107
10214SOL    HW131541   6.762   0.704   2.013
10214SOL    HW231542   6.802   0.752   2.164
10215SOL     OW31543   3.077   3.036   5.778
10215SOL    HW131544   3.036   3.111   5.831
10215SOL    HW231545   3.091   3.066   5.684
10216SOL     OW31546   6.888   0.177   0.952
10216SOL    HW131547   6.959   0.232   0.996
10216SOL    HW231548   6.907   0.169   0.854
10217SOL     OW31549   2.691   1.339   3.856
10217SOL    HW131550   2.754   1.416   3.869
10217SOL    HW231551   2.719   1.263   3.915
10218SOL     OW31552   1.145   1.462   1.455
10218SOL    HW131553   1.125   1.375   1.499
10218SOL    HW231554   1.216   1.450   1.386
10219SOL     OW31555   0.405   2.221   2.293
10219SOL    HW131556   0.350   2.180   2.366
10219SOL    HW231557   0.358   2.303   2.258
10220SOL     OW31558   4.241   1.417   1.790
10220SOL    HW131559   4.306   1.362   1.737
10220SOL    HW231560   4.270   1.512   1.789
10221SOL     OW31561   1.607   1.927   4.593
10221SOL    HW131562   1.646   2.013   4.561
10221SOL    HW231563   1.678   1.856   4.593
10222SOL     OW31564   1.577   3.613   5.205
10222SOL    HW131565   1.494   3.667   5.189
10222SOL    HW231566   1.619   3.642   5.291
10223SOL     OW31567   1.992   5.326   6.180
10223SOL    HW131568   2.079   5.288   6.212
10223SOL    HW231569   1.929   5.336   6.256
10224SOL     OW31570   1.130   1.364   4.399
10224SOL    HW131571   1.175   1.394   4.483
10224SOL    HW231572   1.039   1.405   4.394
10225SOL     OW31573   0.988   5.909   5.299
10225SOL    HW131574   0.967   5.992   5.349
10225SOL    HW231575   0.913   5.887   5.237
10226SOL     OW31576   3.185   0.921   6.585
10226SOL    HW131577   3.229   0.946   6.671
10226SOL    HW231578   3.137   1.001   6.547
10227SOL     OW31579   4.669   4.704   0.725
10227SOL    HW131580   4.599   4.775   0.736
10227SOL    HW231581   4.628   4.614   0.738
10228SOL     OW31582   0.559   5.193   2.056
10228SOL    HW131583   0.625   5.228   1.989
10228SOL    HW231584   0.563   5.249   2.139
10229SOL     OW31585   1.038   1.042   3.306
10229SOL    HW131586   1.094   1.110   3.259
10229SOL    HW231587   0.979   0.996   3.240
10230SOL     OW31588   0.091   0.506   3.269
10230SOL    HW131589   0.039   0.503   3.355
10230SOL    HW231590   0.053   0.576   3.209
10231SOL     OW31591   0.051   6.638   5.604
10231SOL    HW131592   0.012   6.557   5.648
10231SOL    HW231593   6.999   6.691   5.562
10232SOL     OW31594   4.308   0.770   4.516
10232SOL    HW131595   4.384   0.705   4.521
10232SOL    HW231596   4.226   0.723   4.484
10233SOL     OW31597   4.774   2.989   5.519
10233SOL    HW131598   4.749   3.019   5.427
10233SOL    HW231599   4.725   3.044   5.587
10234SOL     OW31600   5.534   0.516   0.931
10234SOL    HW131601   5.447   0.468   0.944
10234SOL    HW231602   5.579   0.528   1.020
10235SOL     OW31603   4.222   1.517   0.613
10235SOL    HW131604   4.139   1.548   0.567
10235SOL    HW231605   4.293   1.498   0.546
10236SOL     OW31606   1.978   6.394   1.611
10236SOL    HW131607   2.002   6.349   1.525
10236SOL    HW231608   1.917   6.471   1.593
10237SOL     OW31609   6.114   4.183   1.098
10237SOL    HW131610   6.095   4.156   1.004
10237SOL    HW231611   6.124   4.102   1.155
10238SOL     OW31612   3.624   3.589   4.966
10238SOL    HW131613   3.633   3.531   4.885
10238SOL    HW231614   3.712   3.632   4.986
10239SOL     OW31615   1.232   4.486   5.448
10239SOL    HW131616   1.155   4.455   5.394
10239SOL    HW231617   1.314   4.435   5.422
10240SOL     OW31618   1.154   4.536   2.256
10240SOL    HW131619   1.070   4.592   2.252
10240SOL    HW231620   1.210   4.566   2.333
10241SOL     OW31621   0.377   0.808   1.176
10241SOL    HW131622   0.345   0.720   1.141
10241SOL    HW231623   0.367   0.809   1.276
10242SOL     OW31624   0.447   2.146   6.385
10242SOL    HW131625   0.490   2.223   6.339
10242SOL    HW231626   0.395   2.178   6.465
10243SOL     OW31627   0.066   5.532   1.164
10243SOL    HW131628   0.021   5.449   1.197
10243SOL    HW231629   7.017   5.596   1.131
10244SOL     OW31630   2.134   4.528   0.279
10244SOL    HW131631   2.061   4.464   0.300
10244SOL    HW231632   2.123   4.611   0.334
10245SOL     OW31633   2.539   3.656   0.128
10245SOL    HW131634   2.460   3.611   0.087
10245SOL    HW231635   2.544   3.751   0.097
10246SOL     OW31636   2.925   3.870   4.702
10246SOL    HW131637   2.917   3.957   4.751
10246SOL    HW231638   2.910   3.795   4.766
10247SOL     OW31639   0.772   4.895   4.980
10247SOL    HW131640   0.848   4.893   5.044
10247SOL    HW231641   0.691   4.932   5.024
10248SOL     OW31642   3.388   0.398   2.038
10248SOL    HW131643   3.444   0.324   2.000
10248SOL    HW231644   3.315   0.421   1.973
10249SOL     OW31645   2.701   0.794   6.280
10249SOL    HW131646   2.756   0.715   6.253
10249SOL    HW231647   2.641   0.769   6.356
10250SOL     OW31648   0.101   2.170   0.798
10250SOL    HW131649   0.038   2.127   0.862
10250SOL    HW231650   0.063   2.258   0.768
10251SOL     OW31651   1.925   2.903   5.797
10251SOL    HW131652   1.966   2.983   5.842
10251SOL    HW231653   1.962   2.820   5.839
10252SOL     OW31654   6.665   6.647   0.524
10252SOL    HW131655   6.599   6.688   0.461
10252SOL    HW231656   6.643   6.550   0.537
10253SOL     OW31657   4.613   5.558   0.039
10253SOL    HW131658   4.615   5.498   6.980
10253SOL    HW231659   4.520   5.594   0.051
10254SOL     OW31660   3.576   2.094   4.857
10254SOL    HW131661   3.519   2.169   4.890
10254SOL    HW231662   3.541   2.007   4.893
10255SOL     OW31663   1.944   5.854   1.457
10255SOL    HW131664   1.981   5.902   1.535
10255SOL    HW231665   1.961   5.756   1.467
10256SOL     OW31666   5.314   6.926   1.289
10256SOL    HW131667   5.255   6.848   1.267
10256SOL    HW231668   5.367   6.906   1.371
10257SOL     OW31669   1.194   4.676   5.064
10257SOL    HW131670   1.148   4.725   5.138
10257SOL    HW231671   1.247   4.599   5.102
10258SOL     OW31672   5.175   0.089   3.825
10258SOL    HW131673   5.144   0.054   3.736
10258SOL    HW231674   5.268   0.125   3.816
10259SOL     OW31675   0.998   4.974   3.322
10259SOL    HW131676   1.032   5.064   3.349
10259SOL    HW231677   1.053   4.903   3.365
10260SOL     OW31678   6.877   7.009   2.941
10260SOL    HW131679   6.875   6.911   2.956
10260SOL    HW231680   6.951   0.029   2.996
10261SOL     OW31681   6.880   6.220   2.063
10261SOL    HW131682   6.941   6.297   2.083
10261SOL    HW231683   6.917   6.136   2.101
10262SOL     OW31684   2.548   5.657   4.792
10262SOL    HW131685   2.619   5.587   4.789
10262SOL    HW231686   2.586   5.745   4.762
10263SOL     OW31687   5.101   1.277   6.217
10263SOL    HW131688   5.185   1.324   6.244
10263SOL    HW231689   5.124   1.201   6.156
10264SOL     OW31690   6.323   1.649   6.765
10264SOL    HW131691   6.382   1.726   6.742
10264SOL    HW231692   6.331   1.579   6.694
10265SOL     OW31693   3.347   2.118   2.736
10265SOL    HW131694   3.276   2.125   2.665
10265SOL    HW231695   3.304   2.115   2.826
10266SOL     OW31696   3.453   3.052   5.616
10266SOL    HW131697   3.419   3.143   5.641
10266SOL    HW231698   3.443   3.039   5.518
10267SOL     OW31699   6.432   1.910   6.781
10267SOL    HW131700   6.497   1.862   6.840
10267SOL    HW231701   6.468   2.000   6.759
10268SOL     OW31702   4.898   6.583   1.571
10268SOL    HW131703   4.828   6.515   1.593
10268SOL    HW231704   4.967   6.584   1.643
10269SOL     OW31705   1.968   1.457   5.652
10269SOL    HW131706   2.050   1.401   5.648
10269SOL    HW231707   1.974   1.530   5.584
10270SOL     OW31708   2.062   5.987   1.679
10270SOL    HW131709   2.130   5.931   1.725
10270SOL    HW231710   2.074   6.083   1.706
10271SOL     OW31711   3.242   3.318   0.423
10271SOL    HW131712   3.244   3.403   0.475
10271SOL    HW231713   3.333   3.276   0.424
10272SOL     OW31714   1.146   0.942   4.069
10272SOL    HW131715   1.237   0.971   4.040
10272SOL    HW231716   1.107   1.010   4.130
10273SOL     OW31717   4.079   6.015   4.002
10273SOL    HW131718   4.159   5.959   4.019
10273SOL    HW231719   4.026   5.976   3.926
10274SOL     OW31720   1.480   4.361   5.768
10274SOL    HW131721   1.390   4.397   5.743
10274SOL    HW231722   1.523   4.423   5.833
10275SOL     OW31723   1.545   0.169   2.076
10275SOL    HW131724   1.603   0.161   2.157
10275SOL    HW231725   1.488   0.251   2.084
10276SOL     OW31726   6.891   5.165   6.508
10276SOL    HW131727   6.944   5.219   6.574
10276SOL    HW231728   6.796   5.195   6.509
10277SOL     OW31729   2.482   6.494   3.904
10277SOL    HW131730   2.515   6.494   3.809
10277SOL    HW231731   2.559   6.477   3.966
10278SOL     OW31732   6.183   0.953   5.398
10278SOL    HW131733   6.163   0.855   5.399
10278SOL    HW231734   6.099   1.005   5.409
10279SOL     OW31735   3.069   0.390   3.648
10279SOL    HW131736   3.126   0.340   3.582
10279SOL    HW231737   3.128   0.448   3.705
10280SOL     OW31738   2.401   4.261   1.227
10280SOL    HW131739   2.485   4.227   1.184
10280SOL    HW231740   2.404   4.245   1.325
10281SOL     OW31741   5.421   2.414   2.924
10281SOL    HW131742   5.446   2.500   2.968
10281SOL    HW231743   5.346   2.430   2.860
10282SOL     OW31744   6.504   3.326   4.019
10282SOL    HW131745   6.472   3.238   3.984
10282SOL    HW231746   6.604   3.327   4.018
10283SOL     OW31747   0.928   3.013   1.047
10283SOL    HW131748   1.003   3.052   1.101
10283SOL    HW231749   0.859   2.975   1.109
10284SOL     OW31750   5.379   4.373   5.820
10284SOL    HW131751   5.291   4.330   5.842
10284SOL    HW231752   5.404   4.437   5.892
10285SOL     OW31753   5.204   0.325   1.928
10285SOL    HW131754   5.178   0.352   1.835
10285SOL    HW231755   5.139   0.365   1.993
10286SOL     OW31756   3.145   1.895   3.535
10286SOL    HW131757   3.104   1.984   3.552
10286SOL    HW231758   3.192   1.864   3.617
10287SOL     OW31759   1.732   6.540   1.985
10287SOL    HW131760   1.797   6.593   1.930
10287SOL    HW231761   1.660   6.600   2.019
10288SOL     OW31762   4.758   5.989   2.199
10288SOL    HW131763   4.840   6.045   2.207
10288SOL    HW231764   4.753   5.950   2.107
10289SOL     OW31765   3.568   0.725   1.177
10289SOL    HW131766   3.661   0.691   1.187
10289SOL    HW231767   3.527   0.687   1.093
10290SOL     OW31768   3.655   4.000   2.905
10290SOL    HW131769   3.650   4.006   3.005
10290SOL    HW231770   3.580   4.051   2.864
10291SOL     OW31771   3.997   0.234   3.901
10291SOL    HW131772   4.076   0.174   3.914
10291SOL    HW231773   4.028   0.329   3.893
10292SOL     OW31774   0.758   2.157   4.574
10292SOL    HW131775   0.762   2.235   4.636
10292SOL    HW231776   0.672   2.159   4.523
10293SOL     OW31777   1.517   5.981   3.047
10293SOL    HW131778   1.507   6.022   3.138
10293SOL    HW231779   1.569   6.042   2.988
10294SOL     OW31780   4.844   3.051   3.295
10294SOL    HW131781   4.813   3.144   3.277
10294SOL    HW231782   4.891   3.047   3.383
10295SOL     OW31783   5.650   4.615   5.406
10295SOL    HW131784   5.652   4.575   5.497
10295SOL    HW231785   5.732   4.670   5.392
10296SOL     OW31786   5.203   4.419   6.507
10296SOL    HW131787   5.299   4.441   6.494
10296SOL    HW231788   5.161   4.398   6.419
10297SOL     OW31789   2.294   6.627   4.119
10297SOL    HW131790   2.296   6.724   4.096
10297SOL    HW231791   2.377   6.602   4.168
10298SOL     OW31792   4.300   4.792   3.513
10298SOL    HW131793   4.310   4.731   3.434
10298SOL    HW231794   4.312   4.740   3.597
10299SOL     OW31795   4.329   4.697   3.235
10299SOL    HW131796   4.360   4.787   3.206
10299SOL    HW231797   4.283   4.651   3.159
10300SOL     OW31798   1.586   4.301   2.130
10300SOL    HW131799   1.679   4.276   2.155
10300SOL    HW231800   1.577   4.401   2.132
10301SOL     OW31801   5.750   2.302   2.835
10301SOL    HW131802   5.692   2.332   2.911
10301SOL    HW231803   5.709   2.330   2.748
10302SOL     OW31804   1.338   6.029   2.841
10302SOL    HW131805   1.423   6.029   2.893
10302SOL    HW231806   1.282   6.107   2.869
10303SOL     OW31807   4.013   4.258   1.039
10303SOL    HW131808   4.091   4.295   1.091
10303SOL    HW231809   4.046   4.222   0.952
10304SOL     OW31810   5.915   0.628   4.102
10304SOL    HW131811   5.970   0.710   4.117
10304SOL    HW231812   5.952   0.553   4.156
10305SOL     OW31813   1.087   6.166   6.571
10305SOL    HW131814   1.149   6.091   6.549
10305SOL    HW231815   1.068   6.167   6.669
10306SOL     OW31816   4.661   5.657   6.723
10306SOL    HW131817   4.650   5.566   6.763
10306SOL    HW231818   4.657   5.651   6.623
10307SOL     OW31819   1.842   1.620   5.434
10307SOL    HW131820   1.807   1.713   5.441
10307SOL    HW231821   1.772   1.561   5.392
10308SOL     OW31822   3.319   5.197   4.357
10308SOL    HW131823   3.314   5.284   4.309
10308SOL    HW231824   3.252   5.196   4.431
10309SOL     OW31825   6.651   0.486   3.471
10309SOL    HW131826   6.555   0.506   3.450
10309SOL    HW231827   6.672   0.392   3.445
10310SOL     OW31828   3.296   3.680   1.666
10310SOL    HW131829   3.317   3.640   1.577
10310SOL    HW231830   3.225   3.750   1.656
10311SOL     OW31831   0.563   5.807   1.318
10311SOL    HW131832   0.538   5.861   1.237
10311SOL    HW231833   0.508   5.724   1.321
10312SOL     OW31834   3.496   5.443   1.114
10312SOL    HW131835   3.577   5.441   1.174
10312SOL    HW231836   3.500   5.367   1.050
10313SOL     OW31837   4.195   6.907   2.224
10313SOL    HW131838   4.198   6.874   2.130
10313SOL    HW231839   4.115   6.869   2.271
10314SOL     OW31840   6.273   0.692   1.014
10314SOL    HW131841   6.299   0.787   0.998
10314SOL    HW231842   6.189   0.671   0.964
10315SOL     OW31843   6.618   6.184   4.875
10315SOL    HW131844   6.586   6.232   4.794
10315SOL    HW231845   6.571   6.096   4.883
10316SOL     OW31846   0.006   3.051   4.257
10316SOL    HW131847   7.010   3.007   4.169
10316SOL    HW231848   0.058   2.989   4.316
10317SOL     OW31849   4.053   4.574   5.967
10317SOL    HW131850   3.988   4.645   5.997
10317SOL    HW231851   4.041   4.493   6.024
10318SOL     OW31852   5.987   5.469   1.852
10318SOL    HW131853   5.941   5.550   1.818
10318SOL    HW231854   6.079   5.493   1.883
10319SOL     OW31855   0.415   4.980   4.688
10319SOL    HW131856   0.499   5.025   4.659
10319SOL    HW231857   0.430   4.881   4.695
10320SOL     OW31858   0.850   0.692   0.723
10320SOL    HW131859   0.832   0.672   0.819
10320SOL    HW231860   0.771   0.741   0.684
10321SOL     OW31861   3.977   6.276   4.429
10321SOL    HW131862   3.978   6.185   4.389
10321SOL    HW231863   4.009   6.342   4.361
10322SOL     OW31864   6.691   5.879   0.573
10322SOL    HW131865   6.607   5.836   0.606
10322SOL    HW231866   6.770   5.837   0.618
10323SOL     OW31867   6.688   3.212   6.546
10323SOL    HW131868   6.691   3.114   6.566
10323SOL    HW231869   6.609   3.232   6.487
10324SOL     OW31870   3.185   2.996   3.643
10324SOL    HW131871   3.271   2.948   3.657
10324SOL    HW231872   3.119   2.969   3.713
10325SOL     OW31873   6.984   4.490   4.285
10325SOL    HW131874   6.931   4.440   4.217
10325SOL    HW231875   6.970   4.588   4.272
10326SOL     OW31876   4.666   2.590   6.764
10326SOL    HW131877   4.765   2.602   6.762
10326SOL    HW231878   4.632   2.608   6.857
10327SOL     OW31879   2.398   1.503   3.230
10327SOL    HW131880   2.466   1.570   3.198
10327SOL    HW231881   2.443   1.437   3.290
10328SOL     OW31882   5.735   3.766   2.097
10328SOL    HW131883   5.775   3.684   2.055
10328SOL    HW231884   5.660   3.738   2.157
10329SOL     OW31885   2.598   0.672   4.114
10329SOL    HW131886   2.516   0.681   4.057
10329SOL    HW231887   2.675   0.717   4.070
10330SOL     OW31888   3.381   4.923   3.367
10330SOL    HW131889   3.361   4.880   3.279
10330SOL    HW231890   3.412   5.017   3.352
10331SOL     OW31891   5.624   0.955   3.105
10331SOL    HW131892   5.608   1.046   3.145
10331SOL    HW231893   5.588   0.954   3.012
10332SOL     OW31894   6.976   2.437   0.799
10332SOL    HW131895   6.896   2.408   0.747
10332SOL    HW231896   6.951   2.507   0.865
10333SOL     OW31897   5.785   4.444   4.087
10333SOL    HW131898   5.794   4.353   4.046
10333SOL    HW231899   5.721   4.441   4.163
10334SOL     OW31900   1.902   5.257   3.701
10334SOL    HW131901   2.002   5.251   3.700
10334SOL    HW231902   1.874   5.343   3.744
10335SOL     OW31903   2.171   4.820   0.204
10335SOL    HW131904   2.243   4.890   0.212
10335SOL    HW231905   2.150   4.784   0.295
10336SOL     OW31906   4.616   6.220   2.764
10336SOL    HW131907   4.699   6.190   2.716
10336SOL    HW231908   4.630   6.212   2.863
10337SOL     OW31909   6.983   4.964   5.383
10337SOL    HW131910   6.950   4.917   5.302
10337SOL    HW231911   0.058   4.992   5.369
10338SOL     OW31912   3.516   6.718   0.748
10338SOL    HW131913   3.611   6.727   0.718
10338SOL    HW231914   3.499   6.780   0.825
10339SOL     OW31915   3.840   5.322   0.688
10339SOL    HW131916   3.779   5.277   0.623
10339SOL    HW231917   3.813   5.418   0.698
10340SOL     OW31918   1.940   5.668   6.965
10340SOL    HW131919   2.006   5.641   0.015
10340SOL    HW231920   1.933   5.595   6.897
10341SOL     OW31921   2.284   2.705   2.073
10341SOL    HW131922   2.355   2.677   2.007
10341SOL    HW231923   2.195   2.704   2.028
10342SOL     OW31924   1.966   6.484   6.341
10342SOL    HW131925   1.959   6.397   6.389
10342SOL    HW231926   2.027   6.475   6.263
10343SOL     OW31927   2.128   4.123   0.147
10343SOL    HW131928   2.177   4.176   0.078
10343SOL    HW231929   2.030   4.137   0.137
10344SOL     OW31930   4.151   3.687   4.398
10344SOL    HW131931   4.141   3.681   4.299
10344SOL    HW231932   4.220   3.756   4.420
10345SOL     OW31933   1.980   1.455   6.484
10345SOL    HW131934   1.918   1.429   6.558
10345SOL    HW231935   1.942   1.425   6.396
10346SOL     OW31936   5.667   0.318   0.637
10346SOL    HW131937   5.577   0.350   0.605
10346SOL    HW231938   5.709   0.261   0.567
10347SOL     OW31939   4.889   1.393   0.707
10347SOL    HW131940   4.806   1.377   0.760
10347SOL    HW231941   4.867   1.445   0.624
10348SOL     OW31942   6.328   0.622   6.356
10348SOL    HW131943   6.380   0.665   6.282
10348SOL    HW231944   6.336   0.677   6.438
10349SOL     OW31945   5.926   0.572   0.880
10349SOL    HW131946   5.999   0.541   0.819
10349SOL    HW231947   5.892   0.660   0.848
10350SOL     OW31948   3.666   5.998   4.435
10350SOL    HW131949   3.702   5.966   4.522
10350SOL    HW231950   3.649   5.919   4.376
10351SOL     OW31951   6.169   4.856   5.284
10351SOL    HW131952   6.268   4.854   5.296
10351SOL    HW231953   6.129   4.925   5.344
10352SOL     OW31954   5.491   2.260   6.608
10352SOL    HW131955   5.421   2.260   6.537
10352SOL    HW231956   5.474   2.185   6.672
10353SOL     OW31957   0.202   2.854   3.594
10353SOL    HW131958   0.192   2.777   3.656
10353SOL    HW231959   0.113   2.895   3.577
10354SOL     OW31960   0.668   4.322   0.887
10354SOL    HW131961   0.573   4.300   0.910
10354SOL    HW231962   0.670   4.395   0.819
10355SOL     OW31963   1.056   1.661   1.264
10355SOL    HW131964   1.138   1.693   1.218
10355SOL    HW231965   1.077   1.577   1.316
10356SOL     OW31966   0.515   3.073   0.059
10356SOL    HW131967   0.478   3.151   0.110
10356SOL    HW231968   0.522   2.994   0.120
10357SOL     OW31969   2.058   2.263   6.540
10357SOL    HW131970   2.123   2.283   6.614
10357SOL    HW231971   2.091   2.301   6.454
10358SOL     OW31972   1.723   2.595   2.536
10358SOL    HW131973   1.738   2.544   2.452
10358SOL    HW231974   1.811   2.627   2.573
10359SOL     OW31975   4.822   2.458   2.175
10359SOL    HW131976   4.846   2.434   2.270
10359SOL    HW231977   4.726   2.438   2.159
10360SOL     OW31978   5.353   4.981   3.093
10360SOL    HW131979   5.421   4.910   3.116
10360SOL    HW231980   5.377   5.066   3.139
10361SOL     OW31981   2.256   1.103   1.407
10361SOL    HW131982   2.163   1.136   1.389
10361SOL    HW231983   2.308   1.174   1.455
10362SOL     OW31984   0.119   5.099   2.019
10362SOL    HW131985   0.139   5.090   2.117
10362SOL    HW231986   0.021   5.093   2.004
10363SOL     OW31987   4.339   2.997   0.101
10363SOL    HW131988   4.306   3.051   0.023
10363SOL    HW231989   4.362   3.058   0.176
10364SOL     OW31990   5.425   5.401   1.033
10364SOL    HW131991   5.456   5.496   1.026
10364SOL    HW231992   5.325   5.397   1.027
10365SOL     OW31993   5.866   5.386   0.271
10365SOL    HW131994   5.789   5.440   0.307
10365SOL    HW231995   5.952   5.428   0.299
10366SOL     OW31996   4.563   6.986   3.370
10366SOL    HW131997   4.534   0.017   3.289
10366SOL    HW231998   4.651   6.942   3.352
10367SOL     OW31999   6.400   2.216   1.951
10367SOL    HW132000   6.427   2.122   1.933
10367SOL    HW232001   6.454   2.254   2.026
10368SOL     OW32002   2.838   0.884   1.970
10368SOL    HW132003   2.834   0.902   1.872
10368SOL    HW232004   2.928   0.910   2.005
10369SOL     OW32005   2.853   6.396   5.778
10369SOL    HW132006   2.763   6.398   5.734
10369SOL    HW232007   2.845   6.361   5.871
10370SOL     OW32008   6.301   1.859   4.323
10370SOL    HW132009   6.396   1.885   4.304
10370SOL    HW232010   6.276   1.888   4.415
10371SOL     OW32011   3.670   6.496   3.076
10371SOL    HW132012   3.742   6.448   3.126
10371SOL    HW232013   3.595   6.433   3.057
10372SOL     OW32014   3.101   0.846   1.206
10372SOL    HW132015   3.029   0.845   1.276
10372SOL    HW232016   3.185   0.807   1.245
10373SOL     OW32017   0.462   0.194   4.588
10373SOL    HW132018   0.369   0.180   4.620
10373SOL    HW232019   0.527   0.154   4.652
10374SOL     OW32020   2.770   6.789   4.103
10374SOL    HW132021   2.792   6.886   4.114
10374SOL    HW232022   2.694   6.765   4.163
10375SOL     OW32023   3.283   2.064   6.286
10375SOL    HW132024   3.269   2.026   6.378
10375SOL    HW232025   3.357   2.015   6.240
10376SOL     OW32026   1.841   6.240   3.543
10376SOL    HW132027   1.921   6.192   3.578
10376SOL    HW232028   1.868   6.329   3.507
10377SOL     OW32029   0.516   1.755   1.799
10377SOL    HW132030   0.441   1.701   1.762
10377SOL    HW232031   0.593   1.754   1.735
10378SOL     OW32032   0.103   5.865   5.847
10378SOL    HW132033   0.057   5.790   5.799
10378SOL    HW232034   0.093   5.950   5.794
10379SOL     OW32035   2.934   6.108   4.211
10379SOL    HW132036   2.997   6.034   4.235
10379SOL    HW232037   2.949   6.135   4.116
10380SOL     OW32038   1.472   1.816   5.018
10380SOL    HW132039   1.553   1.864   4.985
10380SOL    HW232040   1.390   1.871   5.000
10381SOL     OW32041   3.811   4.418   0.858
10381SOL    HW132042   3.833   4.333   0.907
10381SOL    HW232043   3.841   4.410   0.763
10382SOL     OW32044   3.101   5.638   1.758
10382SOL    HW132045   3.076   5.599   1.669
10382SOL    HW232046   3.050   5.722   1.774
10383SOL     OW32047   2.060   4.029   0.456
10383SOL    HW132048   2.152   4.042   0.419
10383SOL    HW232049   2.028   3.937   0.432
10384SOL     OW32050   6.511   6.424   1.141
10384SOL    HW132051   6.458   6.406   1.059
10384SOL    HW232052   6.602   6.383   1.132
10385SOL     OW32053   3.570   5.559   5.872
10385SOL    HW132054   3.657   5.510   5.863
10385SOL    HW232055   3.498   5.495   5.900
10386SOL     OW32056   0.214   0.876   5.491
10386SOL    HW132057   0.159   0.903   5.570
10386SOL    HW232058   0.289   0.941   5.479
10387SOL     OW32059   5.381   3.228   3.421
10387SOL    HW132060   5.297   3.174   3.416
10387SOL    HW232061   5.430   3.205   3.506
10388SOL     OW32062   2.759   7.016   0.640
10388SOL    HW132063   2.767   0.072   0.575
10388SOL    HW232064   2.834   6.952   0.626
10389SOL     OW32065   5.935   3.605   0.015
10389SOL    HW132066   5.838   3.606   0.042
10389SOL    HW232067   5.984   3.676   0.065
10390SOL     OW32068   1.731   2.480   0.460
10390SOL    HW132069   1.766   2.549   0.397
10390SOL    HW232070   1.770   2.391   0.437
10391SOL     OW32071   1.407   6.206   3.999
10391SOL    HW132072   1.454   6.293   4.007
10391SOL    HW232073   1.373   6.178   4.088
10392SOL     OW32074   6.003   5.053   5.689
10392SOL    HW132075   5.904   5.044   5.695
10392SOL    HW232076   6.034   5.122   5.753
10393SOL     OW32077   1.840   3.822   3.693
10393SOL    HW132078   1.914   3.859   3.749
10393SOL    HW232079   1.754   3.865   3.719
10394SOL     OW32080   2.555   6.015   4.509
10394SOL    HW132081   2.482   5.956   4.542
10394SOL    HW232082   2.543   6.032   4.411
10395SOL     OW32083   0.127   6.498   1.657
10395SOL    HW132084   0.083   6.414   1.691
10395SOL    HW232085   0.142   6.490   1.559
10396SOL     OW32086   4.048   1.770   3.966
10396SOL    HW132087   4.024   1.741   4.059
10396SOL    HW232088   3.965   1.770   3.909
10397SOL     OW32089   3.055   1.936   3.288
10397SOL    HW132090   3.054   1.941   3.388
10397SOL    HW232091   3.083   2.025   3.251
10398SOL     OW32092   5.684   2.288   0.901
10398SOL    HW132093   5.659   2.379   0.933
10398SOL    HW232094   5.783   2.277   0.903
10399SOL     OW32095   5.150   2.421   3.183
10399SOL    HW132096   5.120   2.421   3.088
10399SOL    HW232097   5.170   2.327   3.212
10400SOL     OW32098   4.480   6.516   0.278
10400SOL    HW132099   4.512   6.598   0.324
10400SOL    HW232100   4.558   6.461   0.249
10401SOL     OW32101   6.459   6.837   2.951
10401SOL    HW132102   6.536   6.777   2.926
10401SOL    HW232103   6.385   6.823   2.885
10402SOL     OW32104   6.332   2.526   5.330
10402SOL    HW132105   6.325   2.621   5.360
10402SOL    HW232106   6.300   2.518   5.236
10403SOL     OW32107   4.608   1.427   3.433
10403SOL    HW132108   4.682   1.379   3.481
10403SOL    HW232109   4.523   1.417   3.485
10404SOL     OW32110   6.306   6.428   4.927
10404SOL    HW132111   6.229   6.434   4.989
10404SOL    HW232112   6.390   6.411   4.979
10405SOL     OW32113   1.234   0.435   5.032
10405SOL    HW132114   1.303   0.464   5.098
10405SOL    HW232115   1.279   0.399   4.951
10406SOL     OW32116   2.650   4.593   3.463
10406SOL    HW132117   2.701   4.645   3.394
10406SOL    HW232118   2.622   4.653   3.537
10407SOL     OW32119   2.652   6.417   6.067
10407SOL    HW132120   2.666   6.514   6.086
10407SOL    HW232121   2.730   6.364   6.101
10408SOL     OW32122   4.610   0.457   1.856
10408SOL    HW132123   4.689   0.516   1.838
10408SOL    HW232124   4.641   0.362   1.864
10409SOL     OW32125   0.384   4.583   0.877
10409SOL    HW132126   0.472   4.612   0.840
10409SOL    HW232127   0.398   4.510   0.943
10410SOL     OW32128   5.292   2.001   1.555
10410SOL    HW132129   5.384   1.963   1.545
10410SOL    HW232130   5.289   2.061   1.635
10411SOL     OW32131   3.194   6.294   3.376
10411SOL    HW132132   3.165   6.207   3.338
10411SOL    HW232133   3.114   6.347   3.405
10412SOL     OW32134   0.332   1.004   0.142
10412SOL    HW132135   0.268   1.077   0.166
10412SOL    HW232136   0.317   0.975   0.048
10413SOL     OW32137   6.786   3.040   0.596
10413SOL    HW132138   6.850   3.117   0.601
10413SOL    HW232139   6.825   2.968   0.539
10414SOL     OW32140   4.107   4.295   5.794
10414SOL    HW132141   4.166   4.270   5.870
10414SOL    HW232142   4.015   4.314   5.829
10415SOL     OW32143   1.578   3.453   4.513
10415SOL    HW132144   1.652   3.513   4.545
10415SOL    HW232145   1.557   3.385   4.582
10416SOL     OW32146   5.779   0.120   4.948
10416SOL    HW132147   5.732   0.169   4.875
10416SOL    HW232148   5.797   0.026   4.920
10417SOL     OW32149   2.814   5.522   4.836
10417SOL    HW132150   2.762   5.438   4.856
10417SOL    HW232151   2.910   5.498   4.821
10418SOL     OW32152   0.094   4.181   6.611
10418SOL    HW132153   0.168   4.140   6.557
10418SOL    HW232154   0.123   4.190   6.706
10419SOL     OW32155   1.806   0.132   6.043
10419SOL    HW132156   1.774   0.038   6.034
10419SOL    HW232157   1.758   0.177   6.119
10420SOL     OW32158   0.041   3.408   3.452
10420SOL    HW132159   0.105   3.407   3.376
10420SOL    HW232160   7.001   3.488   3.444
10421SOL     OW32161   0.512   1.984   3.655
10421SOL    HW132162   0.523   1.958   3.751
10421SOL    HW232163   0.415   1.989   3.633
10422SOL     OW32164   6.896   3.166   5.120
10422SOL    HW132165   6.923   3.086   5.174
10422SOL    HW232166   6.963   3.239   5.133
10423SOL     OW32167   6.354   5.673   4.929
10423SOL    HW132168   6.259   5.702   4.935
10423SOL    HW232169   6.372   5.637   4.837
10424SOL     OW32170   4.964   3.164   0.500
10424SOL    HW132171   4.906   3.119   0.568
10424SOL    HW232172   4.914   3.169   0.413
10425SOL     OW32173   0.828   0.667   1.788
10425SOL    HW132174   0.839   0.568   1.778
10425SOL    HW232175   0.910   0.713   1.754
10426SOL     OW32176   5.988   5.031   0.690
10426SOL    HW132177   6.072   4.978   0.692
10426SOL    HW232178   5.913   4.975   0.655
10427SOL     OW32179   3.981   0.265   6.489
10427SOL    HW132180   3.944   0.173   6.504
10427SOL    HW232181   3.909   0.324   6.452
10428SOL     OW32182   3.810   0.836   3.715
10428SOL    HW132183   3.834   0.882   3.630
10428SOL    HW232184   3.771   0.746   3.694
10429SOL     OW32185   7.019   5.210   0.610
10429SOL    HW132186   6.927   5.243   0.588
10429SOL    HW232187   7.018   5.110   0.613
10430SOL     OW32188   5.121   6.815   4.238
10430SOL    HW132189   5.220   6.827   4.228
10430SOL    HW232190   5.101   6.770   4.325
10431SOL     OW32191   3.207   5.958   4.235
10431SOL    HW132192   3.201   5.893   4.311
10431SOL    HW232193   3.297   5.951   4.193
10432SOL     OW32194   5.696   6.515   4.844
10432SOL    HW132195   5.684   6.586   4.913
10432SOL    HW232196   5.671   6.551   4.754
10433SOL     OW32197   1.574   6.468   1.168
10433SOL    HW132198   1.529   6.465   1.079
10433SOL    HW232199   1.629   6.552   1.175
10434SOL     OW32200   4.075   6.749   3.285
10434SOL    HW132201   3.982   6.772   3.255
10434SOL    HW232202   4.073   6.659   3.329
10435SOL     OW32203   6.903   0.374   4.609
10435SOL    HW132204   6.817   0.357   4.561
10435SOL    HW232205   6.886   0.432   4.688
10436SOL     OW32206   0.785   5.239   5.686
10436SOL    HW132207   0.843   5.183   5.747
10436SOL    HW232208   0.741   5.179   5.619
10437SOL     OW32209   5.458   5.067   5.849
10437SOL    HW132210   5.465   5.116   5.762
10437SOL    HW232211   5.361   5.055   5.872
10438SOL     OW32212   6.358   6.559   0.689
10438SOL    HW132213   6.446   6.534   0.730
10438SOL    HW232214   6.337   6.654   0.710
10439SOL     OW32215   4.535   1.030   6.015
10439SOL    HW132216   4.443   0.999   6.039
10439SOL    HW232217   4.601   0.960   6.043
10440SOL     OW32218   1.078   6.934   0.642
10440SOL    HW132219   1.009   7.004   0.620
10440SOL    HW232220   1.055   6.892   0.730
10441SOL     OW32221   4.018   0.617   0.749
10441SOL    HW132222   4.043   0.663   0.834
10441SOL    HW232223   4.013   0.518   0.766
10442SOL     OW32224   3.077   6.147   6.304
10442SOL    HW132225   3.023   6.118   6.383
10442SOL    HW232226   3.168   6.176   6.334
10443SOL     OW32227   5.157   3.974   4.506
10443SOL    HW132228   5.181   3.919   4.426
10443SOL    HW232229   5.124   4.064   4.476
10444SOL     OW32230   3.743   5.823   4.636
10444SOL    HW132231   3.693   5.836   4.721
10444SOL    HW232232   3.710   5.740   4.590
10445SOL     OW32233   0.807   5.386   4.588
10445SOL    HW132234   0.792   5.346   4.497
10445SOL    HW232235   0.873   5.330   4.638
10446SOL     OW32236   1.389   2.830   5.170
10446SOL    HW132237   1.294   2.802   5.154
10446SOL    HW232238   1.418   2.893   5.098
10447SOL     OW32239   0.101   0.907   2.093
10447SOL    HW132240   0.127   0.845   2.019
10447SOL    HW232241   0.132   1.000   2.071
10448SOL     OW32242   3.592   1.188   2.091
10448SOL    HW132243   3.612   1.127   2.014
10448SOL    HW232244   3.516   1.151   2.145
10449SOL     OW32245   2.019   5.464   4.886
10449SOL    HW132246   1.973   5.509   4.810
10449SOL    HW232247   1.995   5.509   4.972
10450SOL     OW32248   0.567   2.078   0.640
10450SOL    HW132249   0.648   2.133   0.619
10450SOL    HW232250   0.515   2.063   0.556
10451SOL     OW32251   1.651   5.192   2.427
10451SOL    HW132252   1.705   5.147   2.498
10451SOL    HW232253   1.563   5.220   2.466
10452SOL     OW32254   6.011   3.715   2.806
10452SOL    HW132255   5.930   3.737   2.860
10452SOL    HW232256   5.987   3.651   2.733
10453SOL     OW32257   4.105   5.423   1.427
10453SOL    HW132258   4.083   5.402   1.522
10453SOL    HW232259   4.063   5.510   1.401
10454SOL     OW32260   4.461   3.270   0.803
10454SOL    HW132261   4.537   3.272   0.738
10454SOL    HW232262   4.404   3.189   0.785
10455SOL     OW32263   6.869   5.319   2.503
10455SOL    HW132264   6.958   5.273   2.505
10455SOL    HW232265   6.800   5.261   2.546
10456SOL     OW32266   3.014   6.189   1.079
10456SOL    HW132267   2.959   6.106   1.090
10456SOL    HW232268   2.968   6.266   1.123
10457SOL     OW32269   3.473   3.630   2.341
10457SOL    HW132270   3.378   3.636   2.370
10457SOL    HW232271   3.478   3.583   2.253
10458SOL     OW32272   0.219   1.170   5.965
10458SOL    HW132273   0.212   1.106   5.888
10458SOL    HW232274   0.175   1.130   6.045
10459SOL     OW32275   4.933   5.423   2.566
10459SOL    HW132276   4.844   5.431   2.609
10459SOL    HW232277   4.997   5.380   2.629
10460SOL     OW32278   1.448   5.123   1.170
10460SOL    HW132279   1.522   5.187   1.150
10460SOL    HW232280   1.432   5.120   1.269
10461SOL     OW32281   1.195   5.391   5.337
10461SOL    HW132282   1.140   5.388   5.421
10461SOL    HW232283   1.279   5.339   5.351
10462SOL     OW32284   6.110   1.513   3.469
10462SOL    HW132285   6.191   1.458   3.491
10462SOL    HW232286   6.029   1.455   3.472
10463SOL     OW32287   3.789   3.202   5.797
10463SOL    HW132288   3.728   3.278   5.774
10463SOL    HW232289   3.864   3.236   5.854
10464SOL     OW32290   5.981   6.329   1.379
10464SOL    HW132291   6.077   6.316   1.353
10464SOL    HW232292   5.924   6.269   1.324
10465SOL     OW32293   6.045   6.624   1.248
10465SOL    HW132294   6.006   6.535   1.270
10465SOL    HW232295   6.144   6.621   1.258
10466SOL     OW32296   4.698   5.113   5.573
10466SOL    HW132297   4.651   5.174   5.509
10466SOL    HW232298   4.780   5.075   5.529
10467SOL     OW32299   1.203   1.758   5.399
10467SOL    HW132300   1.176   1.817   5.475
10467SOL    HW232301   1.273   1.694   5.430
10468SOL     OW32302   3.865   4.883   3.171
10468SOL    HW132303   3.897   4.825   3.246
10468SOL    HW232304   3.942   4.904   3.110
10469SOL     OW32305   3.553   2.464   6.600
10469SOL    HW132306   3.590   2.376   6.571
10469SOL    HW232307   3.505   2.507   6.523
10470SOL     OW32308   2.859   1.913   3.110
10470SOL    HW132309   2.806   1.831   3.132
10470SOL    HW232310   2.942   1.916   3.166
10471SOL     OW32311   2.188   3.032   1.021
10471SOL    HW132312   2.141   2.952   0.986
10471SOL    HW232313   2.121   3.096   1.060
10472SOL     OW32314   3.002   5.540   1.053
10472SOL    HW132315   3.006   5.442   1.037
10472SOL    HW232316   2.960   5.586   0.975
10473SOL     OW32317   5.850   0.792   0.183
10473SOL    HW132318   5.890   0.878   0.149
10473SOL    HW232319   5.813   0.740   0.107
10474SOL     OW32320   4.490   1.555   4.981
10474SOL    HW132321   4.556   1.627   4.959
10474SOL    HW232322   4.538   1.478   5.023
10475SOL     OW32323   4.415   6.395   2.663
10475SOL    HW132324   4.356   6.341   2.603
10475SOL    HW232325   4.477   6.334   2.712
10476SOL     OW32326   6.977   5.727   6.712
10476SOL    HW132327   0.039   5.774   6.743
10476SOL    HW232328   6.970   5.639   6.758
10477SOL     OW32329   6.181   1.982   4.553
10477SOL    HW132330   6.121   2.011   4.479
10477SOL    HW232331   6.227   2.061   4.592
10478SOL     OW32332   0.297   0.565   1.041
10478SOL    HW132333   0.364   0.586   0.969
10478SOL    HW232334   0.256   0.475   1.022
10479SOL     OW32335   0.131   2.853   1.859
10479SOL    HW132336   0.228   2.835   1.842
10479SOL    HW232337   0.108   2.824   1.952
10480SOL     OW32338   5.920   0.366   1.482
10480SOL    HW132339   6.009   0.411   1.480
10480SOL    HW232340   5.870   0.387   1.398
10481SOL     OW32341   2.402   0.605   4.563
10481SOL    HW132342   2.405   0.615   4.662
10481SOL    HW232343   2.457   0.677   4.521
10482SOL     OW32344   0.541   5.988   4.810
10482SOL    HW132345   0.607   5.939   4.752
10482SOL    HW232346   0.455   5.999   4.761
10483SOL     OW32347   6.759   5.628   0.361
10483SOL    HW132348   6.832   5.562   0.381
10483SOL    HW232349   6.787   5.685   0.284
10484SOL     OW32350   6.253   0.655   1.288
10484SOL    HW132351   6.292   0.739   1.325
10484SOL    HW232352   6.265   0.654   1.189
10485SOL     OW32353   3.426   3.123   2.304
10485SOL    HW132354   3.333   3.149   2.332
10485SOL    HW232355   3.457   3.047   2.362
10486SOL     OW32356   6.465   0.368   5.924
10486SOL    HW132357   6.418   0.449   5.888
10486SOL    HW232358   6.410   0.287   5.905
10487SOL     OW32359   4.590   2.140   1.070
10487SOL    HW132360   4.668   2.191   1.106
10487SOL    HW232361   4.506   2.192   1.086
10488SOL     OW32362   1.729   1.841   6.096
10488SOL    HW132363   1.710   1.815   6.002
10488SOL    HW232364   1.827   1.848   6.110
10489SOL     OW32365   6.149   6.413   4.383
10489SOL    HW132366   6.139   6.314   4.372
10489SOL    HW232367   6.178   6.433   4.476
10490SOL     OW32368   6.187   1.219   0.543
10490SOL    HW132369   6.221   1.297   0.596
10490SOL    HW232370   6.091   1.202   0.565
10491SOL     OW32371   2.390   2.538   6.239
10491SOL    HW132372   2.320   2.608   6.224
10491SOL    HW232373   2.456   2.541   6.164
10492SOL     OW32374   4.290   5.539   0.986
10492SOL    HW132375   4.310   5.586   0.900
10492SOL    HW232376   4.241   5.454   0.967
10493SOL     OW32377   2.928   5.804   1.454
10493SOL    HW132378   2.944   5.706   1.455
10493SOL    HW232379   2.919   5.836   1.359
10494SOL     OW32380   6.384   4.260   5.657
10494SOL    HW132381   6.377   4.355   5.624
10494SOL    HW232382   6.389   4.198   5.578
10495SOL     OW32383   6.604   6.924   0.676
10495SOL    HW132384   6.603   6.838   0.625
10495SOL    HW232385   6.693   6.968   0.666
10496SOL     OW32386   6.390   4.440   5.081
10496SOL    HW132387   6.425   4.353   5.047
10496SOL    HW232388   6.311   4.424   5.140
10497SOL     OW32389   1.266   6.519   2.140
10497SOL    HW132390   1.289   6.423   2.160
10497SOL    HW232391   1.267   6.571   2.226
10498SOL     OW32392   5.876   6.168   1.197
10498SOL    HW132393   5.786   6.125   1.209
10498SOL    HW232394   5.941   6.101   1.163
10499SOL     OW32395   4.890   6.604   1.301
10499SOL    HW132396   4.904   6.588   1.399
10499SOL    HW232397   4.792   6.600   1.280
10500SOL     OW32398   5.587   2.447   5.961
10500SOL    HW132399   5.494   2.479   5.938
10500SOL    HW232400   5.632   2.414   5.878
10501SOL     OW32401   2.264   6.104   2.940
10501SOL    HW132402   2.184   6.150   2.980
10501SOL    HW232403   2.244   6.079   2.845
10502SOL     OW32404   2.362   3.848   1.200
10502SOL    HW132405   2.262   3.845   1.195
10502SOL    HW232406   2.401   3.806   1.119
10503SOL     OW32407   5.492   4.565   0.310
10503SOL    HW132408   5.454   4.493   0.252
10503SOL    HW232409   5.574   4.531   0.356
10504SOL     OW32410   0.358   2.318   5.519
10504SOL    HW132411   0.338   2.415   5.509
10504SOL    HW232412   0.376   2.278   5.428
10505SOL     OW32413   5.321   6.626   1.774
10505SOL    HW132414   5.328   6.713   1.727
10505SOL    HW232415   5.411   6.582   1.778
10506SOL     OW32416   0.329   3.588   0.272
10506SOL    HW132417   0.268   3.610   0.348
10506SOL    HW232418   0.363   3.672   0.231
10507SOL     OW32419   2.164   5.420   6.759
10507SOL    HW132420   2.140   5.458   6.670
10507SOL    HW232421   2.237   5.476   6.800
10508SOL     OW32422   0.815   5.800   4.310
10508SOL    HW132423   0.733   5.852   4.334
10508SOL    HW232424   0.856   5.840   4.228
10509SOL     OW32425   6.012   4.396   4.596
10509SOL    HW132426   6.031   4.417   4.692
10509SOL    HW232427   6.041   4.472   4.538
10510SOL     OW32428   4.801   6.548   0.360
10510SOL    HW132429   4.766   6.456   0.342
10510SOL    HW232430   4.881   6.566   0.303
10511SOL     OW32431   2.864   1.730   1.646
10511SOL    HW132432   2.934   1.663   1.621
10511SOL    HW232433   2.893   1.779   1.728
10512SOL     OW32434   3.915   6.886   5.780
10512SOL    HW132435   3.965   6.827   5.717
10512SOL    HW232436   3.820   6.894   5.750
10513SOL     OW32437   6.421   2.790   3.102
10513SOL    HW132438   6.501   2.752   3.054
10513SOL    HW232439   6.452   2.852   3.174
10514SOL     OW32440   1.577   1.687   1.751
10514SOL    HW132441   1.592   1.785   1.762
10514SOL    HW232442   1.638   1.637   1.811
10515SOL     OW32443   2.243   3.018   3.860
10515SOL    HW132444   2.266   3.115   3.872
10515SOL    HW232445   2.241   2.973   3.949
10516SOL     OW32446   2.705   1.786   0.215
10516SOL    HW132447   2.684   1.722   0.141
10516SOL    HW232448   2.623   1.801   0.271
10517SOL     OW32449   1.346   4.433   1.134
10517SOL    HW132450   1.344   4.333   1.127
10517SOL    HW232451   1.427   4.467   1.087
10518SOL     OW32452   7.006   5.941   1.869
10518SOL    HW132453   0.046   5.868   1.836
10518SOL    HW232454   6.999   5.935   1.969
10519SOL     OW32455   2.784   4.881   0.867
10519SOL    HW132456   2.820   4.879   0.773
10519SOL    HW232457   2.830   4.811   0.921
10520SOL     OW32458   6.903   1.912   6.103
10520SOL    HW132459   6.884   1.905   6.201
10520SOL    HW232460   6.996   1.881   6.085
10521SOL     OW32461   6.360   5.246   1.573
10521SOL    HW132462   6.430   5.312   1.598
10521SOL    HW232463   6.306   5.281   1.496
10522SOL     OW32464   0.578   2.675   2.993
10522SOL    HW132465   0.532   2.588   2.973
10522SOL    HW232466   0.525   2.725   3.062
10523SOL     OW32467   0.561   4.329   2.809
10523SOL    HW132468   0.586   4.411   2.757
10523SOL    HW232469   0.575   4.346   2.906
10524SOL     OW32470   0.911   5.663   4.045
10524SOL    HW132471   0.915   5.582   3.986
10524SOL    HW232472   0.831   5.718   4.023
10525SOL     OW32473   3.679   6.892   5.281
10525SOL    HW132474   3.657   6.981   5.241
10525SOL    HW232475   3.729   6.904   5.366
10526SOL     OW32476   0.638   6.693   1.739
10526SOL    HW132477   0.616   6.789   1.725
10526SOL    HW232478   0.598   6.662   1.825
10527SOL     OW32479   0.695   0.333   5.937
10527SOL    HW132480   0.682   0.401   6.009
10527SOL    HW232481   0.789   0.299   5.940
10528SOL     OW32482   0.794   4.508   6.365
10528SOL    HW132483   0.713   4.566   6.353
10528SOL    HW232484   0.800   4.480   6.461
10529SOL     OW32485   1.982   5.589   5.125
10529SOL    HW132486   1.895   5.575   5.172
10529SOL    HW232487   2.020   5.678   5.151
10530SOL     OW32488   1.153   6.212   6.100
10530SOL    HW132489   1.075   6.253   6.051
10530SOL    HW232490   1.204   6.153   6.038
10531SOL     OW32491   2.747   2.365   4.563
10531SOL    HW132492   2.832   2.312   4.573
10531SOL    HW232493   2.670   2.310   4.593
10532SOL     OW32494   6.878   6.668   6.767
10532SOL    HW132495   6.883   6.758   6.724
10532SOL    HW232496   6.923   6.670   6.855
10533SOL     OW32497   3.415   6.645   4.171
10533SOL    HW132498   3.498   6.691   4.139
10533SOL    HW232499   3.440   6.565   4.225
10534SOL     OW32500   6.621   5.266   1.828
10534SOL    HW132501   6.679   5.282   1.748
10534SOL    HW232502   6.608   5.353   1.877
10535SOL     OW32503   1.396   1.304   2.410
10535SOL    HW132504   1.456   1.375   2.447
10535SOL    HW232505   1.337   1.269   2.483
10536SOL     OW32506   4.447   7.006   4.054
10536SOL    HW132507   4.542   6.978   4.045
10536SOL    HW232508   4.403   7.003   3.964
10537SOL     OW32509   5.234   6.188   4.011
10537SOL    HW132510   5.219   6.286   4.019
10537SOL    HW232511   5.199   6.155   3.924
10538SOL     OW32512   6.048   4.076   2.180
10538SOL    HW132513   6.069   4.018   2.259
10538SOL    HW232514   6.093   4.165   2.190
10539SOL     OW32515   5.921   5.357   1.543
10539SOL    HW132516   5.882   5.383   1.455
10539SOL    HW232517   5.947   5.439   1.594
10540SOL     OW32518   2.177   3.815   6.007
10540SOL    HW132519   2.121   3.869   6.069
10540SOL    HW232520   2.155   3.841   5.912
10541SOL     OW32521   4.038   3.205   3.846
10541SOL    HW132522   4.063   3.213   3.749
10541SOL    HW232523   3.954   3.150   3.854
10542SOL     OW32524   6.471   0.112   4.979
10542SOL    HW132525   6.402   0.042   4.996
10542SOL    HW232526   6.481   0.170   5.060
10543SOL     OW32527   0.897   1.897   4.573
10543SOL    HW132528   0.858   1.986   4.551
10543SOL    HW232529   0.851   1.860   4.655
10544SOL     OW32530   2.220   6.024   3.245
10544SOL    HW132531   2.300   6.032   3.185
10544SOL    HW232532   2.153   6.093   3.218
10545SOL     OW32533   1.360   2.352   1.502
10545SOL    HW132534   1.271   2.332   1.461
10545SOL    HW232535   1.419   2.396   1.434
10546SOL     OW32536   3.683   6.356   1.396
10546SOL    HW132537   3.649   6.413   1.321
10546SOL    HW232538   3.763   6.400   1.437
10547SOL     OW32539   4.779   1.405   3.859
10547SOL    HW132540   4.823   1.442   3.941
10547SOL    HW232541   4.751   1.310   3.877
10548SOL     OW32542   0.570   3.790   3.956
10548SOL    HW132543   0.491   3.748   4.001
10548SOL    HW232544   0.639   3.813   4.024
10549SOL     OW32545   0.466   1.389   0.793
10549SOL    HW132546   0.557   1.428   0.782
10549SOL    HW232547   0.471   1.311   0.855
10550SOL     OW32548   4.314   6.837   3.450
10550SOL    HW132549   4.385   6.813   3.383
10550SOL    HW232550   4.224   6.817   3.412
10551SOL     OW32551   2.039   1.900   6.325
10551SOL    HW132552   2.012   1.830   6.259
10551SOL    HW232553   2.075   1.980   6.276
10552SOL     OW32554   2.491   0.605   4.817
10552SOL    HW132555   2.571   0.545   4.826
10552SOL    HW232556   2.496   0.678   4.885
10553SOL     OW32557   0.113   4.182   0.993
10553SOL    HW132558   0.061   4.184   1.079
10553SOL    HW232559   0.050   4.166   0.917
10554SOL     OW32560   5.411   5.444   2.666
10554SOL    HW132561   5.352   5.464   2.588
10554SOL    HW232562   5.458   5.527   2.695
10555SOL     OW32563   2.769   2.224   0.907
10555SOL    HW132564   2.740   2.195   0.998
10555SOL    HW232565   2.707   2.188   0.839
10556SOL     OW32566   3.068   1.298   3.897
10556SOL    HW132567   3.073   1.207   3.939
10556SOL    HW232568   3.101   1.292   3.802
10557SOL     OW32569   1.704   3.323   3.833
10557SOL    HW132570   1.621   3.314   3.888
10557SOL    HW232571   1.761   3.397   3.871
10558SOL     OW32572   3.596   5.841   5.910
10558SOL    HW132573   3.685   5.863   5.951
10558SOL    HW232574   3.594   5.744   5.886
10559SOL     OW32575   4.113   0.748   1.306
10559SOL    HW132576   4.181   0.754   1.379
10559SOL    HW232577   4.072   0.838   1.291
10560SOL     OW32578   4.229   6.231   2.553
10560SOL    HW132579   4.143   6.278   2.571
10560SOL    HW232580   4.243   6.223   2.454
10561SOL     OW32581   3.591   4.469   1.677
10561SOL    HW132582   3.538   4.388   1.700
10561SOL    HW232583   3.553   4.549   1.725
10562SOL     OW32584   4.294   5.833   0.227
10562SOL    HW132585   4.269   5.791   0.315
10562SOL    HW232586   4.383   5.876   0.235
10563SOL     OW32587   0.847   0.849   1.407
10563SOL    HW132588   0.859   0.750   1.415
10563SOL    HW232589   0.799   0.869   1.322
10564SOL     OW32590   5.960   6.458   3.944
10564SOL    HW132591   5.913   6.421   4.024
10564SOL    HW232592   6.057   6.433   3.947
10565SOL     OW32593   6.890   6.462   5.690
10565SOL    HW132594   6.816   6.397   5.706
10565SOL    HW232595   6.942   6.475   5.775
10566SOL     OW32596   3.346   1.984   6.571
10566SOL    HW132597   3.288   2.054   6.614
10566SOL    HW232598   3.372   1.916   6.640
10567SOL     OW32599   2.475   2.853   5.783
10567SOL    HW132600   2.379   2.827   5.771
10567SOL    HW232601   2.509   2.816   5.870
10568SOL     OW32602   6.043   2.603   0.320
10568SOL    HW132603   5.962   2.631   0.371
10568SOL    HW232604   6.033   2.507   0.292
10569SOL     OW32605   5.447   0.502   1.589
10569SOL    HW132606   5.537   0.460   1.575
10569SOL    HW232607   5.402   0.459   1.667
10570SOL     OW32608   1.776   4.728   3.565
10570SOL    HW132609   1.875   4.709   3.566
10570SOL    HW232610   1.760   4.822   3.595
10571SOL     OW32611   0.059   4.005   5.189
10571SOL    HW132612   0.106   4.049   5.265
10571SOL    HW232613   0.038   4.072   5.118
10572SOL     OW32614   0.220   5.050   2.321
10572SOL    HW132615   0.243   4.956   2.346
10572SOL    HW232616   0.154   5.087   2.387
10573SOL     OW32617   5.008   0.482   5.122
10573SOL    HW132618   4.969   0.434   5.043
10573SOL    HW232619   4.989   0.431   5.205
10574SOL     OW32620   6.732   1.394   3.797
10574SOL    HW132621   6.653   1.388   3.858
10574SOL    HW232622   6.808   1.439   3.845
10575SOL     OW32623   6.096   1.323   3.831
10575SOL    HW132624   6.139   1.235   3.851
10575SOL    HW232625   6.002   1.308   3.800
10576SOL     OW32626   1.357   5.373   2.842
10576SOL    HW132627   1.353   5.408   2.749
10576SOL    HW232628   1.329   5.277   2.843
10577SOL     OW32629   2.485   4.823   0.665
10577SOL    HW132630   2.479   4.752   0.736
10577SOL    HW232631   2.581   4.843   0.646
10578SOL     OW32632   4.611   0.926   3.326
10578SOL    HW132633   4.589   1.023   3.336
10578SOL    HW232634   4.526   0.873   3.330
10579SOL     OW32635   3.538   3.077   1.807
10579SOL    HW132636   3.592   3.002   1.843
10579SOL    HW232637   3.512   3.058   1.713
10580SOL     OW32638   6.751   6.165   6.488
10580SOL    HW132639   6.703   6.149   6.401
10580SOL    HW232640   6.844   6.196   6.469
10581SOL     OW32641   5.380   0.173   2.731
10581SOL    HW132642   5.468   0.189   2.684
10581SOL    HW232643   5.397   0.137   2.822
10582SOL     OW32644   5.051   4.672   6.123
10582SOL    HW132645   5.114   4.719   6.185
10582SOL    HW232646   5.080   4.687   6.028
10583SOL     OW32647   4.280   0.273   4.452
10583SOL    HW132648   4.192   0.247   4.412
10583SOL    HW232649   4.354   0.236   4.397
10584SOL     OW32650   6.566   6.977   6.602
10584SOL    HW132651   6.472   6.947   6.616
10584SOL    HW232652   6.623   6.942   6.677
10585SOL     OW32653   2.118   2.102   5.718
10585SOL    HW132654   2.160   2.169   5.657
10585SOL    HW232655   2.060   2.149   5.785
10586SOL     OW32656   4.937   5.005   5.489
10586SOL    HW132657   4.949   5.034   5.584
10586SOL    HW232658   4.955   4.907   5.482
10587SOL     OW32659   6.782   5.545   6.988
10587SOL    HW132660   6.739   5.491   6.916
10587SOL    HW232661   6.712   5.576   0.032
10588SOL     OW32662   2.043   1.926   5.068
10588SOL    HW132663   2.036   1.937   5.167
10588SOL    HW232664   2.034   1.829   5.044
10589SOL     OW32665   5.273   0.115   4.385
10589SOL    HW132666   5.317   0.026   4.378
10589SOL    HW232667   5.320   0.180   4.326
10590SOL     OW32668   0.043   6.678   1.866
10590SOL    HW132669   0.085   6.631   1.788
10590SOL    HW232670   6.970   6.645   1.878
10591SOL     OW32671   1.992   1.952   1.159
10591SOL    HW132672   1.933   1.880   1.197
10591SOL    HW232673   2.031   1.920   1.073
10592SOL     OW32674   5.666   2.767   4.614
10592SOL    HW132675   5.672   2.743   4.517
10592SOL    HW232676   5.721   2.702   4.667
10593SOL     OW32677   1.866   6.158   0.345
10593SOL    HW132678   1.943   6.103   0.379
10593SOL    HW232679   1.787   6.098   0.329
10594SOL     OW32680   4.211   1.894   2.882
10594SOL    HW132681   4.113   1.914   2.880
10594SOL    HW232682   4.248   1.917   2.973
10595SOL     OW32683   6.297   0.100   6.919
10595SOL    HW132684   6.310   0.020   6.978
10595SOL    HW232685   6.206   0.095   6.878
10596SOL     OW32686   4.990   0.582   6.799
10596SOL    HW132687   5.005   0.593   6.700
10596SOL    HW232688   5.042   0.652   6.848
10597SOL     OW32689   2.033   0.430   5.252
10597SOL    HW132690   1.972   0.506   5.274
10597SOL    HW232691   2.014   0.399   5.159
10598SOL     OW32692   2.827   2.299   6.445
10598SOL    HW132693   2.876   2.376   6.486
10598SOL    HW232694   2.731   2.325   6.429
10599SOL     OW32695   6.367   3.663   6.511
10599SOL    HW132696   6.315   3.744   6.483
10599SOL    HW232697   6.427   3.687   6.587
10600SOL     OW32698   3.906   2.080   1.216
10600SOL    HW132699   3.947   2.028   1.291
10600SOL    HW232700   3.824   2.127   1.249
10601SOL     OW32701   1.304   4.764   5.455
10601SOL    HW132702   1.391   4.797   5.493
10601SOL    HW232703   1.299   4.665   5.464
10602SOL     OW32704   1.213   1.523   0.832
10602SOL    HW132705   1.199   1.578   0.914
10602SOL    HW232706   1.303   1.480   0.836
10603SOL     OW32707   4.898   0.003   3.311
10603SOL    HW132708   4.869   6.930   3.286
10603SOL    HW232709   4.929   0.003   3.406
10604SOL     OW32710   0.219   5.958   4.947
10604SOL    HW132711   0.147   5.967   5.016
10604SOL    HW232712   0.300   6.007   4.978
10605SOL     OW32713   1.626   6.980   7.015
10605SOL    HW132714   1.701   6.941   0.049
10605SOL    HW232715   1.625   6.936   6.925
10606SOL     OW32716   6.558   1.351   1.624
10606SOL    HW132717   6.525   1.364   1.531
10606SOL    HW232718   6.588   1.256   1.636
10607SOL     OW32719   3.906   4.532   0.227
10607SOL    HW132720   3.837   4.577   0.284
10607SOL    HW232721   3.880   4.541   0.131
10608SOL     OW32722   0.017   3.032   3.509
10608SOL    HW132723   7.004   3.092   3.581
10608SOL    HW232724   0.056   3.087   3.435
10609SOL     OW32725   2.649   0.027   6.962
10609SOL    HW132726   2.637   0.029   6.863
10609SOL    HW232727   2.703   0.106   6.991
10610SOL     OW32728   0.264   1.691   4.149
10610SOL    HW132729   0.272   1.678   4.050
10610SOL    HW232730   0.180   1.648   4.181
10611SOL     OW32731   2.593   4.940   6.039
10611SOL    HW132732   2.658   4.882   5.991
10611SOL    HW232733   2.608   5.035   6.013
10612SOL     OW32734   4.896   2.185   4.211
10612SOL    HW132735   4.831   2.224   4.276
10612SOL    HW232736   4.851   2.116   4.155
10613SOL     OW32737   6.560   5.907   4.852
10613SOL    HW132738   6.507   5.826   4.877
10613SOL    HW232739   6.546   5.927   4.755
10614SOL     OW32740   5.292   1.175   4.477
10614SOL    HW132741   5.270   1.272   4.473
10614SOL    HW232742   5.387   1.163   4.507
10615SOL     OW32743   3.491   0.807   5.617
10615SOL    HW132744   3.509   0.868   5.694
10615SOL    HW232745   3.466   0.716   5.651
10616SOL     OW32746   3.030   6.439   6.505
10616SOL    HW132747   2.945   6.394   6.476
10616SOL    HW232748   3.093   6.370   6.543
10617SOL     OW32749   2.499   4.525   1.543
10617SOL    HW132750   2.479   4.428   1.527
10617SOL    HW232751   2.461   4.580   1.468
10618SOL     OW32752   1.073   5.381   5.574
10618SOL    HW132753   1.005   5.447   5.607
10618SOL    HW232754   1.150   5.378   5.637
10619SOL     OW32755   0.642   2.534   3.212
10619SOL    HW132756   0.703   2.462   3.180
10619SOL    HW232757   0.610   2.587   3.134
10620SOL     OW32758   1.206   6.820   5.322
10620SOL    HW132759   1.112   6.796   5.345
10620SOL    HW232760   1.269   6.760   5.370
10621SOL     OW32761   0.231   4.310   1.908
10621SOL    HW132762   0.315   4.256   1.897
10621SOL    HW232763   0.218   4.332   2.005
10622SOL     OW32764   4.568   2.329   1.671
10622SOL    HW132765   4.658   2.353   1.634
10622SOL    HW232766   4.550   2.384   1.753
10623SOL     OW32767   6.680   5.650   5.699
10623SOL    HW132768   6.614   5.596   5.749
10623SOL    HW232769   6.744   5.589   5.651
10624SOL     OW32770   0.455   2.614   5.793
10624SOL    HW132771   0.447   2.704   5.749
10624SOL    HW232772   0.382   2.604   5.861
10625SOL     OW32773   0.390   4.212   1.423
10625SOL    HW132774   0.335   4.272   1.481
10625SOL    HW232775   0.348   4.121   1.421
10626SOL     OW32776   3.165   2.529   0.976
10626SOL    HW132777   3.244   2.533   0.914
10626SOL    HW232778   3.081   2.524   0.923
10627SOL     OW32779   6.340   0.793   6.567
10627SOL    HW132780   6.277   0.760   6.637
10627SOL    HW232781   6.296   0.865   6.513
10628SOL     OW32782   4.624   6.882   1.384
10628SOL    HW132783   4.712   6.904   1.427
10628SOL    HW232784   4.630   6.792   1.342
10629SOL     OW32785   3.110   4.973   4.716
10629SOL    HW132786   3.073   4.915   4.788
10629SOL    HW232787   3.205   4.948   4.698
10630SOL     OW32788   5.433   1.311   2.407
10630SOL    HW132789   5.505   1.248   2.375
10630SOL    HW232790   5.412   1.291   2.503
10631SOL     OW32791   3.656   4.429   5.588
10631SOL    HW132792   3.679   4.453   5.682
10631SOL    HW232793   3.599   4.501   5.548
10632SOL     OW32794   5.223   6.379   3.511
10632SOL    HW132795   5.220   6.397   3.610
10632SOL    HW232796   5.288   6.306   3.493
10633SOL     OW32797   2.501   2.603   1.200
10633SOL    HW132798   2.571   2.671   1.176
10633SOL    HW232799   2.485   2.543   1.122
10634SOL     OW32800   2.028   5.358   0.452
10634SOL    HW132801   1.979   5.445   0.461
10634SOL    HW232802   1.968   5.289   0.412
10635SOL     OW32803   2.025   3.626   6.551
10635SOL    HW132804   1.943   3.636   6.607
10635SOL    HW232805   2.034   3.530   6.523
10636SOL     OW32806   6.947   2.495   1.560
10636SOL    HW132807   6.961   2.463   1.654
10636SOL    HW232808   7.016   2.455   1.500
10637SOL     OW32809   1.536   5.289   6.247
10637SOL    HW132810   1.511   5.194   6.227
10637SOL    HW232811   1.475   5.350   6.197
10638SOL     OW32812   5.131   6.499   2.788
10638SOL    HW132813   5.163   6.497   2.883
10638SOL    HW232814   5.103   6.593   2.765
10639SOL     OW32815   1.825   3.647   2.122
10639SOL    HW132816   1.737   3.632   2.168
10639SOL    HW232817   1.869   3.728   2.161
10640SOL     OW32818   4.800   0.560   3.820
10640SOL    HW132819   4.790   0.506   3.903
10640SOL    HW232820   4.782   0.656   3.840
10641SOL     OW32821   2.211   1.686   3.264
10641SOL    HW132822   2.257   1.598   3.278
10641SOL    HW232823   2.276   1.761   3.277
10642SOL     OW32824   6.251   1.707   0.700
10642SOL    HW132825   6.173   1.689   0.641
10642SOL    HW232826   6.285   1.800   0.685
10643SOL     OW32827   2.281   6.455   5.453
10643SOL    HW132828   2.373   6.420   5.434
10643SOL    HW232829   2.233   6.391   5.513
10644SOL     OW32830   5.320   3.168   1.517
10644SOL    HW132831   5.340   3.119   1.432
10644SOL    HW232832   5.380   3.248   1.524
10645SOL     OW32833   2.293   2.903   4.111
10645SOL    HW132834   2.285   2.963   4.190
10645SOL    HW232835   2.224   2.831   4.117
10646SOL     OW32836   6.673   0.433   6.411
10646SOL    HW132837   6.594   0.415   6.469
10646SOL    HW232838   6.752   0.381   6.446
10647SOL     OW32839   3.284   5.595   4.960
10647SOL    HW132840   3.226   5.676   4.949
10647SOL    HW232841   3.227   5.514   4.972
10648SOL     OW32842   5.992   5.305   6.268
10648SOL    HW132843   5.901   5.273   6.292
10648SOL    HW232844   6.021   5.262   6.182
10649SOL     OW32845   0.490   3.389   2.907
10649SOL    HW132846   0.544   3.326   2.962
10649SOL    HW232847   0.405   3.412   2.955
10650SOL     OW32848   0.554   0.708   4.180
10650SOL    HW132849   0.526   0.789   4.230
10650SOL    HW232850   0.543   0.724   4.082
10651SOL     OW32851   6.313   5.624   5.987
10651SOL    HW132852   6.334   5.675   6.070
10651SOL    HW232853   6.258   5.681   5.926
10652SOL     OW32854   2.123   0.025   6.688
10652SOL    HW132855   2.038   7.012   6.727
10652SOL    HW232856   2.170   6.970   6.642
10653SOL     OW32857   4.041   5.891   5.123
10653SOL    HW132858   4.056   5.965   5.057
10653SOL    HW232859   3.982   5.821   5.081
10654SOL     OW32860   4.911   0.545   6.217
10654SOL    HW132861   4.852   0.566   6.294
10654SOL    HW232862   4.941   0.631   6.174
10655SOL     OW32863   1.836   4.687   0.213
10655SOL    HW132864   1.857   4.782   0.193
10655SOL    HW232865   1.838   4.633   0.128
10656SOL     OW32866   6.863   1.079   2.159
10656SOL    HW132867   6.899   1.133   2.235
10656SOL    HW232868   6.936   1.024   2.120
10657SOL     OW32869   5.530   0.670   4.429
10657SOL    HW132870   5.611   0.621   4.458
10657SOL    HW232871   5.548   0.769   4.429
10658SOL     OW32872   6.035   3.993   4.911
10658SOL    HW132873   6.008   3.997   4.815
10658SOL    HW232874   6.129   3.959   4.918
10659SOL     OW32875   0.970   5.218   0.466
10659SOL    HW132876   0.885   5.180   0.430
10659SOL    HW232877   1.043   5.149   0.459
10660SOL     OW32878   5.876   3.302   6.191
10660SOL    HW132879   5.972   3.294   6.218
10660SOL    HW232880   5.819   3.310   6.273
10661SOL     OW32881   1.541   6.422   0.875
10661SOL    HW132882   1.633   6.436   0.838
10661SOL    HW232883   1.473   6.458   0.811
10662SOL     OW32884   4.560   0.390   2.298
10662SOL    HW132885   4.557   0.429   2.390
10662SOL    HW232886   4.521   0.298   2.300
10663SOL     OW32887   0.580   0.982   2.678
10663SOL    HW132888   0.636   0.945   2.604
10663SOL    HW232889   0.553   0.908   2.740
10664SOL     OW32890   6.071   4.236   5.259
10664SOL    HW132891   6.059   4.320   5.312
10664SOL    HW232892   6.027   4.247   5.169
10665SOL     OW32893   1.422   1.869   0.228
10665SOL    HW132894   1.374   1.946   0.270
10665SOL    HW232895   1.408   1.871   0.130
10666SOL     OW32896   3.097   3.765   1.980
10666SOL    HW132897   3.032   3.736   2.050
10666SOL    HW232898   3.054   3.831   1.919
10667SOL     OW32899   4.458   2.497   3.138
10667SOL    HW132900   4.529   2.433   3.166
10667SOL    HW232901   4.374   2.446   3.117
10668SOL     OW32902   3.028   1.435   5.009
10668SOL    HW132903   3.092   1.489   4.955
10668SOL    HW232904   3.009   1.349   4.961
10669SOL     OW32905   5.969   0.618   1.325
10669SOL    HW132906   6.058   0.631   1.283
10669SOL    HW232907   5.902   0.592   1.255
10670SOL     OW32908   5.708   4.610   4.735
10670SOL    HW132909   5.723   4.636   4.640
10670SOL    HW232910   5.715   4.510   4.744
10671SOL     OW32911   2.119   2.097   4.371
10671SOL    HW132912   2.192   2.164   4.387
10671SOL    HW232913   2.033   2.132   4.408
10672SOL     OW32914   6.869   4.511   1.832
10672SOL    HW132915   6.948   4.560   1.871
10672SOL    HW232916   6.900   4.455   1.755
10673SOL     OW32917   0.544   1.198   0.115
10673SOL    HW132918   0.500   1.261   0.051
10673SOL    HW232919   0.481   1.123   0.136
10674SOL     OW32920   4.085   3.635   4.132
10674SOL    HW132921   4.129   3.546   4.126
10674SOL    HW232922   4.017   3.644   4.060
10675SOL     OW32923   1.839   0.169   6.938
10675SOL    HW132924   1.820   0.202   6.845
10675SOL    HW232925   1.784   0.087   6.955
10676SOL     OW32926   0.372   6.122   5.116
10676SOL    HW132927   0.323   6.204   5.145
10676SOL    HW232928   0.470   6.144   5.109
10677SOL     OW32929   1.420   0.540   1.722
10677SOL    HW132930   1.369   0.607   1.775
10677SOL    HW232931   1.503   0.515   1.772
10678SOL     OW32932   5.136   5.544   4.350
10678SOL    HW132933   5.191   5.470   4.311
10678SOL    HW232934   5.063   5.567   4.287
10679SOL     OW32935   4.003   5.656   6.713
10679SOL    HW132936   3.955   5.701   6.638
10679SOL    HW232937   4.014   5.720   6.789
10680SOL     OW32938   3.642   2.085   4.218
10680SOL    HW132939   3.675   2.145   4.145
10680SOL    HW232940   3.556   2.120   4.254
10681SOL     OW32941   0.099   3.841   0.854
10681SOL    HW132942   0.064   3.873   0.766
10681SOL    HW232943   0.189   3.881   0.870
10682SOL     OW32944   0.211   1.792   5.430
10682SOL    HW132945   0.183   1.866   5.368
10682SOL    HW232946   0.259   1.831   5.508
10683SOL     OW32947   4.997   1.106   3.855
10683SOL    HW132948   5.084   1.150   3.834
10683SOL    HW232949   4.943   1.098   3.772
10684SOL     OW32950   4.877   4.902   2.633
10684SOL    HW132951   4.837   4.990   2.660
10684SOL    HW232952   4.903   4.851   2.715
10685SOL     OW32953   0.737   5.831   1.746
10685SOL    HW132954   0.658   5.855   1.690
10685SOL    HW232955   0.708   5.822   1.842
10686SOL     OW32956   1.108   3.785   5.745
10686SOL    HW132957   1.151   3.741   5.824
10686SOL    HW232958   1.178   3.829   5.689
10687SOL     OW32959   5.822   5.327   4.252
10687SOL    HW132960   5.790   5.332   4.157
10687SOL    HW232961   5.921   5.312   4.252
10688SOL     OW32962   5.973   3.480   3.015
10688SOL    HW132963   5.934   3.436   2.934
10688SOL    HW232964   5.988   3.577   2.995
10689SOL     OW32965   0.061   0.090   3.105
10689SOL    HW132966   0.044   0.159   3.176
10689SOL    HW232967   0.130   0.125   3.042
10690SOL     OW32968   0.063   5.645   3.870
10690SOL    HW132969   0.030   5.562   3.915
10690SOL    HW232970   0.160   5.636   3.849
10691SOL     OW32971   1.334   1.607   2.515
10691SOL    HW132972   1.401   1.541   2.546
10691SOL    HW232973   1.343   1.692   2.568
10692SOL     OW32974   2.492   6.838   3.945
10692SOL    HW132975   2.483   6.740   3.961
10692SOL    HW232976   2.504   6.855   3.847
10693SOL     OW32977   1.594   6.012   1.105
10693SOL    HW132978   1.657   6.077   1.147
10693SOL    HW232979   1.538   6.060   1.036
10694SOL     OW32980   5.162   6.540   6.995
10694SOL    HW132981   5.251   6.584   6.984
10694SOL    HW232982   5.158   6.458   6.938
10695SOL     OW32983   0.865   2.306   2.772
10695SOL    HW132984   0.894   2.395   2.809
10695SOL    HW232985   0.945   2.247   2.761
10696SOL     OW32986   6.835   4.526   3.455
10696SOL    HW132987   6.829   4.482   3.545
10696SOL    HW232988   6.813   4.460   3.384
10697SOL     OW32989   0.472   6.497   5.219
10697SOL    HW132990   0.412   6.572   5.248
10697SOL    HW232991   0.454   6.475   5.123
10698SOL     OW32992   5.542   4.382   6.835
10698SOL    HW132993   5.511   4.305   6.779
10698SOL    HW232994   5.544   4.355   6.932
10699SOL     OW32995   3.902   4.533   1.705
10699SOL    HW132996   3.965   4.458   1.684
10699SOL    HW232997   3.809   4.506   1.683
10700SOL     OW32998   5.665   6.560   0.701
10700SOL    HW132999   5.613   6.603   0.775
10700SOL    HW233000   5.655   6.615   0.618
10701SOL     OW33001   2.660   6.615   6.568
10701SOL    HW133002   2.587   6.674   6.534
10701SOL    HW233003   2.633   6.573   6.654
10702SOL     OW33004   4.975   3.094   1.273
10702SOL    HW133005   4.927   3.134   1.195
10702SOL    HW233006   5.009   3.004   1.249
10703SOL     OW33007   2.725   3.006   5.319
10703SOL    HW133008   2.636   3.024   5.277
10703SOL    HW233009   2.797   3.040   5.258
10704SOL     OW33010   5.662   5.578   2.418
10704SOL    HW133011   5.693   5.488   2.448
10704SOL    HW233012   5.635   5.573   2.322
10705SOL     OW33013   5.995   4.957   1.966
10705SOL    HW133014   5.910   4.942   1.917
10705SOL    HW233015   6.054   4.876   1.957
10706SOL     OW33016   4.591   0.644   2.491
10706SOL    HW133017   4.533   0.567   2.518
10706SOL    HW233018   4.675   0.644   2.544
10707SOL     OW33019   0.079   0.099   4.463
10707SOL    HW133020   0.075   0.186   4.414
10707SOL    HW233021   0.061   0.115   4.560
10708SOL     OW33022   4.101   1.110   1.608
10708SOL    HW133023   4.098   1.104   1.708
10708SOL    HW233024   4.192   1.084   1.576
10709SOL     OW33025   5.490   5.245   5.639
10709SOL    HW133026   5.484   5.337   5.600
10709SOL    HW233027   5.527   5.182   5.570
10710SOL     OW33028   6.989   0.750   4.252
10710SOL    HW133029   0.039   0.773   4.185
10710SOL    HW233030   0.010   0.701   4.329
10711SOL     OW33031   1.856   6.703   4.500
10711SOL    HW133032   1.881   6.641   4.574
10711SOL    HW233033   1.845   6.795   4.536
10712SOL     OW33034   2.935   0.659   1.421
10712SOL    HW133035   2.892   0.619   1.340
10712SOL    HW233036   2.863   0.689   1.484
10713SOL     OW33037   0.410   3.463   2.394
10713SOL    HW133038   0.373   3.371   2.387
10713SOL    HW233039   0.427   3.500   2.303
10714SOL     OW33040   5.832   3.704   4.843
10714SOL    HW133041   5.799   3.740   4.931
10714SOL    HW233042   5.761   3.715   4.774
10715SOL     OW33043   5.448   0.811   2.934
10715SOL    HW133044   5.516   0.777   2.869
10715SOL    HW233045   5.398   0.735   2.974
10716SOL     OW33046   5.887   2.152   3.524
10716SOL    HW133047   5.826   2.131   3.600
10716SOL    HW233048   5.903   2.069   3.471
10717SOL     OW33049   1.126   2.073   1.608
10717SOL    HW133050   1.140   2.154   1.550
10717SOL    HW233051   1.029   2.050   1.611
10718SOL     OW33052   1.536   2.917   6.652
10718SOL    HW133053   1.504   2.888   6.743
10718SOL    HW233054   1.578   3.007   6.659
10719SOL     OW33055   6.543   5.559   2.865
10719SOL    HW133056   6.488   5.623   2.811
10719SOL    HW233057   6.584   5.607   2.942
10720SOL     OW33058   0.606   4.256   4.607
10720SOL    HW133059   0.631   4.177   4.662
10720SOL    HW233060   0.529   4.304   4.650
10721SOL     OW33061   5.418   3.745   4.934
10721SOL    HW133062   5.507   3.747   4.979
10721SOL    HW233063   5.354   3.693   4.991
10722SOL     OW33064   0.885   4.889   6.967
10722SOL    HW133065   0.927   4.875   6.878
10722SOL    HW233066   0.822   4.966   6.963
10723SOL     OW33067   0.324   3.331   5.906
10723SOL    HW133068   0.286   3.407   5.853
10723SOL    HW233069   0.308   3.346   6.003
10724SOL     OW33070   5.953   1.191   6.724
10724SOL    HW133071   6.019   1.236   6.784
10724SOL    HW233072   5.873   1.164   6.777
10725SOL     OW33073   1.025   5.799   4.488
10725SOL    HW133074   0.946   5.825   4.433
10725SOL    HW233075   1.018   5.703   4.514
10726SOL     OW33076   5.483   0.190   5.353
10726SOL    HW133077   5.506   0.205   5.449
10726SOL    HW233078   5.567   0.180   5.299
10727SOL     OW33079   0.223   4.902   5.295
10727SOL    HW133080   0.237   4.902   5.196
10727SOL    HW233081   0.197   4.811   5.325
10728SOL     OW33082   0.188   5.814   6.814
10728SOL    HW133083   0.248   5.756   6.867
10728SOL    HW233084   0.242   5.871   6.752
10729SOL     OW33085   5.128   1.321   1.601
10729SOL    HW133086   5.114   1.358   1.509
10729SOL    HW233087   5.127   1.396   1.667
10730SOL     OW33088   2.328   0.645   1.546
10730SOL    HW133089   2.382   0.667   1.464
10730SOL    HW233090   2.388   0.603   1.614
10731SOL     OW33091   3.013   6.072   0.584
10731SOL    HW133092   2.952   6.106   0.655
10731SOL    HW233093   2.959   6.033   0.509
10732SOL     OW33094   6.060   5.115   4.279
10732SOL    HW133095   6.026   5.046   4.343
10732SOL    HW233096   6.095   5.070   4.197
10733SOL     OW33097   6.513   1.771   1.064
10733SOL    HW133098   6.583   1.762   1.135
10733SOL    HW233099   6.436   1.825   1.099
10734SOL     OW33100   1.209   0.748   0.348
10734SOL    HW133101   1.140   0.734   0.278
10734SOL    HW233102   1.165   0.763   0.436
10735SOL     OW33103   1.007   3.067   2.914
10735SOL    HW133104   1.035   3.077   3.010
10735SOL    HW233105   1.063   2.998   2.870
10736SOL     OW33106   1.427   0.332   2.991
10736SOL    HW133107   1.437   0.255   2.927
10736SOL    HW233108   1.393   0.412   2.941
10737SOL     OW33109   1.771   1.773   1.249
10737SOL    HW133110   1.699   1.837   1.277
10737SOL    HW233111   1.756   1.745   1.154
10738SOL     OW33112   2.613   0.304   3.423
10738SOL    HW133113   2.539   0.359   3.384
10738SOL    HW233114   2.688   0.364   3.451
10739SOL     OW33115   0.907   1.741   0.828
10739SOL    HW133116   0.974   1.706   0.762
10739SOL    HW233117   0.832   1.785   0.779
10740SOL     OW33118   0.018   4.163   4.940
10740SOL    HW133119   0.108   4.203   4.958
10740SOL    HW233120   6.977   4.234   4.905
10741SOL     OW33121   5.820   0.042   1.347
10741SOL    HW133122   5.736   0.070   1.303
10741SOL    HW233123   5.896   0.047   1.282
10742SOL     OW33124   5.215   0.786   0.859
10742SOL    HW133125   5.181   0.790   0.953
10742SOL    HW233126   5.154   0.839   0.799
10743SOL     OW33127   2.641   1.374   5.129
10743SOL    HW133128   2.662   1.425   5.046
10743SOL    HW233129   2.670   1.426   5.209
10744SOL     OW33130   3.662   1.418   0.665
10744SOL    HW133131   3.618   1.329   0.651
10744SOL    HW233132   3.636   1.455   0.754
10745SOL     OW33133   0.235   5.172   6.716
10745SOL    HW133134   0.294   5.169   6.797
10745SOL    HW233135   0.291   5.157   6.634
10746SOL     OW33136   1.817   4.290   1.262
10746SOL    HW133137   1.740   4.293   1.198
10746SOL    HW233138   1.802   4.216   1.328
10747SOL     OW33139   4.470   0.791   3.803
10747SOL    HW133140   4.445   0.694   3.802
10747SOL    HW233141   4.569   0.800   3.813
10748SOL     OW33142   5.031   1.490   0.922
10748SOL    HW133143   4.990   1.580   0.935
10748SOL    HW233144   4.997   1.451   0.836
10749SOL     OW33145   0.543   5.966   3.046
10749SOL    HW133146   0.515   5.880   3.005
10749SOL    HW233147   0.643   5.969   3.052
10750SOL     OW33148   4.438   6.006   5.208
10750SOL    HW133149   4.536   6.026   5.211
10750SOL    HW233150   4.408   6.007   5.113
10751SOL     OW33151   1.874   4.269   4.338
10751SOL    HW133152   1.909   4.206   4.406
10751SOL    HW233153   1.872   4.224   4.248
10752SOL     OW33154   6.014   3.775   6.398
10752SOL    HW133155   5.954   3.815   6.468
10752SOL    HW233156   5.961   3.754   6.316
10753SOL     OW33157   5.119   5.822   4.245
10753SOL    HW133158   5.160   5.731   4.255
10753SOL    HW233159   5.062   5.841   4.325
10754SOL     OW33160   0.957   1.359   3.261
10754SOL    HW133161   0.892   1.359   3.185
10754SOL    HW233162   0.920   1.413   3.337
10755SOL     OW33163   6.791   0.924   6.489
10755SOL    HW133164   6.855   0.941   6.564
10755SOL    HW233165   6.713   0.872   6.523
10756SOL     OW33166   6.865   4.802   0.309
10756SOL    HW133167   6.921   4.741   0.253
10756SOL    HW233168   6.882   4.897   0.282
10757SOL     OW33169   1.547   3.281   0.242
10757SOL    HW133170   1.504   3.207   0.294
10757SOL    HW233171   1.646   3.272   0.247
10758SOL     OW33172   0.635   0.138   3.859
10758SOL    HW133173   0.653   0.209   3.926
10758SOL    HW233174   0.704   0.141   3.787
10759SOL     OW33175   1.651   2.961   0.855
10759SOL    HW133176   1.699   2.879   0.826
10759SOL    HW233177   1.699   3.003   0.932
10760SOL     OW33178   6.401   1.869   2.126
10760SOL    HW133179   6.437   1.837   2.214
10760SOL    HW233180   6.470   1.925   2.080
10761SOL     OW33181   0.641   0.501   6.157
10761SOL    HW133182   0.638   0.415   6.209
10761SOL    HW233183   0.653   0.578   6.219
10762SOL     OW33184   4.223   1.812   4.712
10762SOL    HW133185   4.124   1.822   4.722
10762SOL    HW233186   4.256   1.874   4.641
10763SOL     OW33187   5.047   6.586   2.478
10763SOL    HW133188   5.099   6.550   2.555
10763SOL    HW233189   4.950   6.593   2.504
10764SOL     OW33190   5.329   2.556   5.955
10764SOL    HW133191   5.279   2.497   6.018
10764SOL    HW233192   5.358   2.639   6.003
10765SOL     OW33193   5.259   2.120   0.339
10765SOL    HW133194   5.292   2.107   0.432
10765SOL    HW233195   5.277   2.037   0.286
10766SOL     OW33196   4.838   3.816   0.699
10766SOL    HW133197   4.755   3.845   0.650
10766SOL    HW233198   4.827   3.720   0.726
10767SOL     OW33199   1.440   0.835   0.267
10767SOL    HW133200   1.515   0.798   0.322
10767SOL    HW233201   1.353   0.815   0.312
10768SOL     OW33202   4.511   4.233   1.585
10768SOL    HW133203   4.454   4.252   1.666
10768SOL    HW233204   4.567   4.152   1.602
10769SOL     OW33205   2.515   4.504   4.642
10769SOL    HW133206   2.517   4.592   4.593
10769SOL    HW233207   2.598   4.496   4.697
10770SOL     OW33208   5.514   0.763   5.004
10770SOL    HW133209   5.492   0.850   4.961
10770SOL    HW233210   5.445   0.741   5.073
10771SOL     OW33211   6.047   0.818   3.471
10771SOL    HW133212   6.090   0.747   3.527
10771SOL    HW233213   5.949   0.801   3.465
10772SOL     OW33214   6.662   6.585   4.289
10772SOL    HW133215   6.596   6.606   4.361
10772SOL    HW233216   6.711   6.501   4.312
10773SOL     OW33217   6.425   5.496   0.197
10773SOL    HW133218   6.495   5.472   0.264
10773SOL    HW233219   6.359   5.557   0.239
10774SOL     OW33220   2.074   1.342   0.406
10774SOL    HW133221   2.075   1.417   0.472
10774SOL    HW233222   2.025   1.370   0.324
10775SOL     OW33223   7.009   4.931   0.938
10775SOL    HW133224   0.074   4.953   0.889
10775SOL    HW233225   6.982   4.837   0.917
10776SOL     OW33226   0.129   0.919   6.566
10776SOL    HW133227   0.070   0.998   6.550
10776SOL    HW233228   0.115   0.886   6.660
10777SOL     OW33229   3.440   5.515   3.340
10777SOL    HW133230   3.416   5.587   3.405
10777SOL    HW233231   3.377   5.517   3.263
10778SOL     OW33232   5.844   0.561   4.430
10778SOL    HW133233   5.920   0.519   4.380
10778SOL    HW233234   5.875   0.587   4.521
10779SOL     OW33235   6.543   3.916   3.716
10779SOL    HW133236   6.540   3.878   3.623
10779SOL    HW233237   6.595   4.001   3.716
10780SOL     OW33238   2.010   0.741   3.960
10780SOL    HW133239   2.037   0.837   3.971
10780SOL    HW233240   1.915   0.736   3.929
10781SOL     OW33241   4.370   1.033   3.608
10781SOL    HW133242   4.394   0.948   3.656
10781SOL    HW233243   4.274   1.029   3.581
10782SOL     OW33244   5.524   2.040   1.858
10782SOL    HW133245   5.449   2.039   1.924
10782SOL    HW233246   5.499   2.099   1.781
10783SOL     OW33247   0.784   3.307   3.322
10783SOL    HW133248   0.720   3.303   3.246
10783SOL    HW233249   0.734   3.297   3.408
10784SOL     OW33250   4.106   6.695   4.301
10784SOL    HW133251   4.155   6.780   4.281
10784SOL    HW233252   4.011   6.716   4.326
10785SOL     OW33253   0.223   4.500   1.388
10785SOL    HW133254   0.269   4.483   1.301
10785SOL    HW233255   0.128   4.528   1.370
10786SOL     OW33256   5.786   4.578   3.243
10786SOL    HW133257   5.821   4.597   3.151
10786SOL    HW233258   5.853   4.607   3.311
10787SOL     OW33259   2.014   1.438   4.616
10787SOL    HW133260   2.059   1.460   4.529
10787SOL    HW233261   2.056   1.490   4.690
10788SOL     OW33262   1.911   4.307   6.210
10788SOL    HW133263   1.896   4.300   6.309
10788SOL    HW233264   2.001   4.269   6.187
10789SOL     OW33265   0.174   2.759   6.731
10789SOL    HW133266   0.230   2.839   6.709
10789SOL    HW233267   0.234   2.682   6.753
10790SOL     OW33268   1.322   0.322   1.595
10790SOL    HW133269   1.359   0.405   1.636
10790SOL    HW233270   1.353   0.242   1.646
10791SOL     OW33271   0.275   6.988   1.208
10791SOL    HW133272   0.190   6.960   1.163
10791SOL    HW233273   0.254   0.011   1.296
10792SOL     OW33274   3.403   4.132   3.791
10792SOL    HW133275   3.482   4.107   3.847
10792SOL    HW233276   3.323   4.146   3.849
10793SOL     OW33277   5.440   3.396   4.568
10793SOL    HW133278   5.386   3.367   4.647
10793SOL    HW233279   5.398   3.362   4.485
10794SOL     OW33280   3.036   3.858   3.594
10794SOL    HW133281   3.013   3.798   3.518
10794SOL    HW233282   3.024   3.953   3.566
10795SOL     OW33283   6.566   4.914   2.223
10795SOL    HW133284   6.549   4.998   2.171
10795SOL    HW233285   6.600   4.843   2.162
10796SOL     OW33286   5.435   0.074   6.604
10796SOL    HW133287   5.407   0.077   6.700
10796SOL    HW233288   5.530   0.106   6.596
10797SOL     OW33289   4.258   2.866   1.586
10797SOL    HW133290   4.209   2.797   1.533
10797SOL    HW233291   4.304   2.929   1.524
10798SOL     OW33292   3.208   0.192   0.472
10798SOL    HW133293   3.294   0.157   0.435
10798SOL    HW233294   3.217   0.207   0.570
10799SOL     OW33295   3.847   0.909   1.399
10799SOL    HW133296   3.770   0.956   1.441
10799SOL    HW233297   3.911   0.879   1.469
10800SOL     OW33298   0.467   6.795   6.495
10800SOL    HW133299   0.417   6.834   6.573
10800SOL    HW233300   0.445   6.698   6.486
10801SOL     OW33301   0.716   6.039   6.095
10801SOL    HW133302   0.711   6.112   6.163
10801SOL    HW233303   0.673   5.957   6.131
10802SOL     OW33304   1.086   0.978   3.010
10802SOL    HW133305   1.000   0.951   2.969
10802SOL    HW233306   1.141   0.897   3.031
10803SOL     OW33307   2.529   4.053   6.203
10803SOL    HW133308   2.524   3.962   6.161
10803SOL    HW233309   2.481   4.119   6.146
10804SOL     OW33310   5.442   3.379   2.268
10804SOL    HW133311   5.504   3.354   2.194
10804SOL    HW233312   5.353   3.402   2.230
10805SOL     OW33313   4.170   6.512   6.868
10805SOL    HW133314   4.163   6.414   6.852
10805SOL    HW233315   4.100   6.560   6.815
10806SOL     OW33316   3.929   4.022   5.806
10806SOL    HW133317   3.842   4.024   5.757
10806SOL    HW233318   3.990   4.092   5.769
10807SOL     OW33319   1.500   6.935   2.341
10807SOL    HW133320   1.417   6.975   2.300
10807SOL    HW233321   1.561   7.008   2.371
10808SOL     OW33322   0.419   2.902   5.765
10808SOL    HW133323   0.415   2.961   5.684
10808SOL    HW233324   0.506   2.917   5.812
10809SOL     OW33325   2.895   4.817   3.546
10809SOL    HW133326   2.993   4.839   3.543
10809SOL    HW233327   2.860   4.810   3.453
10810SOL     OW33328   1.337   7.009   4.011
10810SOL    HW133329   1.437   7.016   4.014
10810SOL    HW233330   1.311   6.916   3.987
10811SOL     OW33331   3.774   4.000   6.589
10811SOL    HW133332   3.769   4.064   6.665
10811SOL    HW233333   3.780   4.051   6.503
10812SOL     OW33334   0.333   3.956   0.141
10812SOL    HW133335   0.399   3.885   0.114
10812SOL    HW233336   0.241   3.929   0.111
10813SOL     OW33337   1.760   4.568   6.257
10813SOL    HW133338   1.673   4.558   6.305
10813SOL    HW233339   1.789   4.479   6.221
10814SOL     OW33340   1.303   0.083   6.485
10814SOL    HW133341   1.361   0.002   6.487
10814SOL    HW233342   1.238   0.080   6.561
10815SOL     OW33343   4.471   4.474   3.324
10815SOL    HW133344   4.396   4.534   3.297
10815SOL    HW233345   4.468   4.391   3.269
10816SOL     OW33346   3.158   2.986   2.385
10816SOL    HW133347   3.211   2.905   2.412
10816SOL    HW233348   3.177   3.007   2.289
10817SOL     OW33349   4.692   0.686   2.914
10817SOL    HW133350   4.678   0.784   2.930
10817SOL    HW233351   4.615   0.649   2.863
10818SOL     OW33352   4.395   4.571   5.477
10818SOL    HW133353   4.333   4.501   5.512
10818SOL    HW233354   4.389   4.652   5.534
10819SOL     OW33355   6.737   4.860   6.124
10819SOL    HW133356   6.794   4.885   6.045
10819SOL    HW233357   6.701   4.943   6.166
10820SOL     OW33358   6.890   5.282   3.787
10820SOL    HW133359   6.872   5.259   3.691
10820SOL    HW233360   6.986   5.308   3.797
10821SOL     OW33361   4.899   0.342   2.810
10821SOL    HW133362   4.989   0.315   2.775
10821SOL    HW233363   4.829   0.322   2.742
10822SOL     OW33364   6.700   2.772   3.069
10822SOL    HW133365   6.773   2.833   3.101
10822SOL    HW233366   6.675   2.797   2.976
10823SOL     OW33367   1.641   0.480   1.869
10823SOL    HW133368   1.652   0.493   1.968
10823SOL    HW233369   1.717   0.525   1.822
10824SOL     OW33370   6.583   1.440   2.845
10824SOL    HW133371   6.621   1.513   2.903
10824SOL    HW233372   6.486   1.459   2.828
10825SOL     OW33373   2.337   1.780   6.299
10825SOL    HW133374   2.269   1.845   6.264
10825SOL    HW233375   2.290   1.702   6.341
10826SOL     OW33376   1.256   2.952   3.724
10826SOL    HW133377   1.300   2.905   3.648
10826SOL    HW233378   1.161   2.972   3.701
10827SOL     OW33379   0.058   2.954   4.004
10827SOL    HW133380   0.152   2.933   3.977
10827SOL    HW233381   0.007   2.985   3.923
10828SOL     OW33382   1.279   4.090   0.881
10828SOL    HW133383   1.309   4.135   0.796
10828SOL    HW233384   1.268   3.992   0.864
10829SOL     OW33385   4.163   2.403   0.060
10829SOL    HW133386   4.085   2.363   0.012
10829SOL    HW233387   4.203   2.475   0.004
10830SOL     OW33388   5.181   1.739   3.022
10830SOL    HW133389   5.183   1.793   3.106
10830SOL    HW233390   5.266   1.687   3.015
10831SOL     OW33391   2.967   6.229   3.033
10831SOL    HW133392   3.007   6.175   2.959
10831SOL    HW233393   3.033   6.297   3.064
10832SOL     OW33394   1.036   2.962   6.374
10832SOL    HW133395   1.121   3.014   6.375
10832SOL    HW233396   0.958   3.024   6.365
10833SOL     OW33397   0.715   0.536   2.164
10833SOL    HW133398   0.748   0.629   2.151
10833SOL    HW233399   0.787   0.471   2.141
10834SOL     OW33400   0.436   1.650   0.952
10834SOL    HW133401   0.436   1.559   0.910
10834SOL    HW233402   0.434   1.720   0.880
10835SOL     OW33403   5.514   2.475   0.549
10835SOL    HW133404   5.426   2.490   0.595
10835SOL    HW233405   5.509   2.511   0.456
10836SOL     OW33406   6.311   1.267   4.541
10836SOL    HW133407   6.299   1.287   4.638
10836SOL    HW233408   6.343   1.173   4.530
10837SOL     OW33409   6.512   5.377   1.315
10837SOL    HW133410   6.577   5.396   1.242
10837SOL    HW233411   6.418   5.391   1.282
10838SOL     OW33412   6.648   5.679   3.789
10838SOL    HW133413   6.680   5.773   3.778
10838SOL    HW233414   6.609   5.667   3.880
10839SOL     OW33415   4.345   3.150   1.741
10839SOL    HW133416   4.302   3.084   1.679
10839SOL    HW233417   4.424   3.107   1.785
10840SOL     OW33418   2.880   5.465   2.917
10840SOL    HW133419   2.819   5.449   2.839
10840SOL    HW233420   2.830   5.514   2.988
10841SOL     OW33421   6.435   5.286   5.704
10841SOL    HW133422   6.429   5.315   5.609
10841SOL    HW233423   6.467   5.362   5.760
10842SOL     OW33424   4.785   2.445   1.561
10842SOL    HW133425   4.763   2.542   1.564
10842SOL    HW233426   4.884   2.433   1.562
10843SOL     OW33427   0.804   1.768   1.730
10843SOL    HW133428   0.851   1.725   1.653
10843SOL    HW233429   0.842   1.733   1.816
10844SOL     OW33430   0.574   6.563   3.570
10844SOL    HW133431   0.643   6.630   3.601
10844SOL    HW233432   0.501   6.558   3.637
10845SOL     OW33433   3.147   6.685   5.525
10845SOL    HW133434   3.208   6.646   5.594
10845SOL    HW233435   3.134   6.619   5.451
10846SOL     OW33436   5.576   0.811   0.285
10846SOL    HW133437   5.674   0.791   0.294
10846SOL    HW233438   5.561   0.868   0.203
10847SOL     OW33439   3.690   2.877   6.498
10847SOL    HW133440   3.734   2.963   6.470
10847SOL    HW233441   3.656   2.830   6.417
10848SOL     OW33442   2.912   3.757   0.340
10848SOL    HW133443   2.889   3.678   0.283
10848SOL    HW233444   2.910   3.840   0.285
10849SOL     OW33445   1.973   4.905   4.063
10849SOL    HW133446   1.981   4.863   3.973
10849SOL    HW233447   1.960   4.834   4.132
10850SOL     OW33448   2.414   6.168   6.525
10850SOL    HW133449   2.352   6.110   6.472
10850SOL    HW233450   2.393   6.158   6.623
10851SOL     OW33451   2.069   3.481   0.126
10851SOL    HW133452   1.988   3.538   0.140
10851SOL    HW233453   2.115   3.467   0.214
10852SOL     OW33454   0.922   0.336   6.804
10852SOL    HW133455   0.941   0.390   6.886
10852SOL    HW233456   0.984   0.257   6.802
10853SOL     OW33457   1.820   2.203   5.509
10853SOL    HW133458   1.775   2.265   5.574
10853SOL    HW233459   1.919   2.216   5.516
10854SOL     OW33460   4.585   4.862   5.428
10854SOL    HW133461   4.595   4.888   5.524
10854SOL    HW233462   4.508   4.911   5.388
10855SOL     OW33463   4.098   0.464   1.040
10855SOL    HW133464   4.130   0.473   1.134
10855SOL    HW233465   4.018   0.523   1.026
10856SOL     OW33466   5.275   1.160   0.429
10856SOL    HW133467   5.305   1.070   0.461
10856SOL    HW233468   5.220   1.204   0.500
10857SOL     OW33469   6.814   2.063   3.322
10857SOL    HW133470   6.715   2.057   3.333
10857SOL    HW233471   6.836   2.089   3.228
10858SOL     OW33472   0.751   1.687   6.685
10858SOL    HW133473   0.829   1.665   6.627
10858SOL    HW233474   0.775   1.764   6.744
10859SOL     OW33475   1.226   4.367   4.297
10859SOL    HW133476   1.228   4.466   4.283
10859SOL    HW233477   1.301   4.324   4.247
10860SOL     OW33478   0.402   1.867   5.635
10860SOL    HW133479   0.473   1.816   5.587
10860SOL    HW233480   0.418   1.861   5.734
10861SOL     OW33481   3.741   3.511   3.363
10861SOL    HW133482   3.738   3.540   3.267
10861SOL    HW233483   3.690   3.425   3.373
10862SOL     OW33484   2.219   1.613   6.468
10862SOL    HW133485   2.294   1.548   6.482
10862SOL    HW233486   2.132   1.565   6.479
10863SOL     OW33487   3.915   0.751   3.949
10863SOL    HW133488   3.852   0.790   3.882
10863SOL    HW233489   3.862   0.714   4.026
10864SOL     OW33490   2.520   6.221   0.702
10864SOL    HW133491   2.598   6.193   0.646
10864SOL    HW233492   2.450   6.150   0.699
10865SOL     OW33493   0.020   1.221   1.865
10865SOL    HW133494   0.044   1.214   1.962
10865SOL    HW233495   6.995   1.309   1.848
10866SOL     OW33496   5.118   4.529   1.100
10866SOL    HW133497   5.111   4.506   1.003
10866SOL    HW233498   5.212   4.559   1.119
10867SOL     OW33499   3.432   4.171   6.677
10867SOL    HW133500   3.425   4.101   6.606
10867SOL    HW233501   3.496   4.142   6.747
10868SOL     OW33502   4.380   1.792   4.215
10868SOL    HW133503   4.329   1.712   4.247
10868SOL    HW233504   4.478   1.779   4.232
10869NA      NA33505   6.788   2.129   5.480
10870NA      NA33506   4.447   4.516   5.246
10871NA      NA33507   1.959   3.126   2.167
10872NA      NA33508   5.124   3.942   4.728
10873NA      NA33509   4.326   2.534   5.338
10874NA      NA33510   3.344   4.719   1.687
10875NA      NA33511   6.707   4.727   0.467
10876NA      NA33512   3.355   3.598   3.838
10877NA      NA33513   5.261   6.049   0.258
10878NA      NA33514   2.928   6.781   5.627
10879NA      NA33515   5.554   5.218   1.844
10880NA      NA33516   2.272   0.372   4.159
10881NA      NA33517   3.642   5.147   2.962
10882NA      NA33518   3.949   3.745   2.367
   7.02013   7.02013   7.02013
