Generated by trjconv : CNT in water t= 496.00000
33518
    1C        C    1   2.843   2.770   4.744
    1C        C    2   2.895   2.716   4.864
    1C        C    3   2.843   2.769   4.983
    1C        C    4   2.846   2.772   4.259
    1C        C    5   2.898   2.726   4.382
    1C        C    6   2.843   2.772   4.503
    1C        C    7   3.014   2.641   4.622
    1C        C    8   2.897   2.721   4.623
    1C        C    9   3.076   2.608   4.744
    1C        C   10   3.007   2.630   4.864
    1C        C   11   3.181   2.491   4.975
    1C        C   12   3.056   2.554   4.971
    1C        C   13   2.847   2.771   3.771
    1C        C   14   2.899   2.720   3.892
    1C        C   15   2.848   2.773   4.013
    1C        C   16   3.017   2.647   4.135
    1C        C   17   2.901   2.728   4.136
    1C        C   18   3.079   2.616   4.258
    1C        C   19   3.018   2.650   4.380
    1C        C   20   3.210   2.557   4.501
    1C        C   21   3.077   2.606   4.501
    1C        C   22   3.277   2.536   4.624
    1C        C   23   3.208   2.554   4.746
    1C        C   24   3.412   2.485   4.864
    1C        C   25   3.270   2.501   4.863
    1C        C   26   3.488   2.469   4.981
    1C        C   27   2.853   2.775   3.281
    1C        C   28   2.905   2.725   3.403
    1C        C   29   2.856   2.777   3.525
    1C        C   30   3.020   2.648   3.648
    1C        C   31   2.904   2.729   3.649
    1C        C   32   3.078   2.604   3.770
    1C        C   33   3.014   2.638   3.891
    1C        C   34   3.207   2.551   4.014
    1C        C   35   3.077   2.608   4.014
    1C        C   36   3.275   2.538   4.137
    1C        C   37   3.210   2.561   4.260
    1C        C   38   3.417   2.506   4.381
    1C        C   39   3.279   2.535   4.380
    1C        C   40   3.487   2.498   4.504
    1C        C   41   3.414   2.505   4.625
    1C        C   42   3.630   2.481   4.745
    1C        C   43   3.488   2.482   4.744
    1C        C   44   3.703   2.487   4.865
    1C        C   45   3.626   2.478   4.982
    1C        C   46   2.843   2.757   2.791
    1C        C   47   2.899   2.716   2.914
    1C        C   48   2.847   2.767   3.036
    1C        C   49   3.018   2.643   3.157
    1C        C   50   2.905   2.727   3.158
    1C        C   51   3.078   2.605   3.279
    1C        C   52   3.020   2.642   3.402
    1C        C   53   3.209   2.552   3.525
    1C        C   54   3.080   2.611   3.526
    1C        C   55   3.274   2.525   3.647
    1C        C   56   3.206   2.544   3.769
    1C        C   57   3.412   2.501   3.892
    1C        C   58   3.273   2.526   3.892
    1C        C   59   3.483   2.499   4.014
    1C        C   60   3.414   2.509   4.137
    1C        C   61   3.627   2.502   4.258
    1C        C   62   3.486   2.499   4.258
    1C        C   63   3.699   2.503   4.379
    1C        C   64   3.628   2.492   4.501
    1C        C   65   3.834   2.538   4.622
    1C        C   66   3.699   2.497   4.623
    1C        C   67   3.907   2.554   4.742
    1C        C   68   3.840   2.521   4.862
    1C        C   69   4.051   2.586   4.975
    1C        C   70   3.920   2.538   4.976
    1C        C   71   2.822   2.734   2.303
    1C        C   72   2.882   2.696   2.425
    1C        C   73   2.834   2.748   2.547
    1C        C   74   3.011   2.630   2.670
    1C        C   75   2.894   2.709   2.669
    1C        C   76   3.072   2.591   2.791
    1C        C   77   3.014   2.634   2.912
    1C        C   78   3.206   2.547   3.037
    1C        C   79   3.077   2.605   3.035
    1C        C   80   3.273   2.524   3.159
    1C        C   81   3.206   2.546   3.281
    1C        C   82   3.413   2.493   3.401
    1C        C   83   3.275   2.523   3.403
    1C        C   84   3.482   2.489   3.524
    1C        C   85   3.412   2.498   3.647
    1C        C   86   3.623   2.497   3.769
    1C        C   87   3.482   2.493   3.770
    1C        C   88   3.695   2.505   3.891
    1C        C   89   3.624   2.503   4.013
    1C        C   90   3.833   2.542   4.133
    1C        C   91   3.696   2.510   4.135
    1C        C   92   3.901   2.564   4.255
    1C        C   93   3.836   2.538   4.378
    1C        C   94   4.026   2.632   4.498
    1C        C   95   3.903   2.562   4.500
    1C        C   96   4.089   2.670   4.618
    1C        C   97   4.030   2.624   4.738
    1C        C   98   4.189   2.765   4.861
    1C        C   99   4.100   2.654   4.859
    1C        C  100   4.207   2.843   4.976
    1C        C  101   2.813   2.727   2.068
    1C        C  102   2.987   2.589   2.187
    1C        C  103   2.876   2.680   2.184
    1C        C  104   3.058   2.566   2.308
    1C        C  105   2.998   2.615   2.427
    1C        C  106   3.197   2.532   2.547
    1C        C  107   3.067   2.589   2.547
    1C        C  108   3.268   2.512   2.667
    1C        C  109   3.203   2.536   2.790
    1C        C  110   3.408   2.490   2.914
    1C        C  111   3.270   2.522   2.913
    1C        C  112   3.482   2.485   3.034
    1C        C  113   3.411   2.494   3.156
    1C        C  114   3.624   2.496   3.280
    1C        C  115   3.483   2.488   3.278
    1C        C  116   3.692   2.504   3.403
    1C        C  117   3.623   2.495   3.526
    1C        C  118   3.832   2.537   3.645
    1C        C  119   3.694   2.507   3.647
    1C        C  120   3.898   2.561   3.768
    1C        C  121   3.830   2.545   3.891
    1C        C  122   4.025   2.633   4.011
    1C        C  123   3.900   2.567   4.011
    1C        C  124   4.081   2.674   4.134
    1C        C  125   4.023   2.635   4.257
    1C        C  126   4.192   2.766   4.376
    1C        C  127   4.086   2.673   4.377
    1C        C  128   4.239   2.821   4.497
    1C        C  129   4.195   2.764   4.618
    1C        C  130   4.320   2.936   4.740
    1C        C  131   4.245   2.815   4.740
    1C        C  132   4.345   3.008   4.859
    1C        C  133   4.283   2.960   4.975
    1C        C  134   3.170   2.464   2.082
    1C        C  135   3.037   2.509   2.080
    1C        C  136   3.259   2.476   2.190
    1C        C  137   3.191   2.517   2.306
    1C        C  138   3.404   2.480   2.426
    1C        C  139   3.265   2.505   2.426
    1C        C  140   3.476   2.478   2.548
    1C        C  141   3.406   2.484   2.670
    1C        C  142   3.619   2.488   2.790
    1C        C  143   3.478   2.481   2.791
    1C        C  144   3.691   2.497   2.911
    1C        C  145   3.623   2.488   3.034
    1C        C  146   3.829   2.538   3.156
    1C        C  147   3.693   2.500   3.157
    1C        C  148   3.894   2.566   3.278
    1C        C  149   3.828   2.543   3.400
    1C        C  150   4.023   2.626   3.523
    1C        C  151   3.896   2.565   3.522
    1C        C  152   4.082   2.667   3.645
    1C        C  153   4.021   2.631   3.768
    1C        C  154   4.188   2.766   3.887
    1C        C  155   4.079   2.677   3.888
    1C        C  156   4.239   2.813   4.010
    1C        C  157   4.192   2.762   4.132
    1C        C  158   4.335   2.921   4.253
    1C        C  159   4.245   2.812   4.253
    1C        C  160   4.369   2.986   4.374
    1C        C  161   4.323   2.935   4.498
    1C        C  162   4.432   3.117   4.612
    1C        C  163   4.365   2.993   4.619
    1C        C  164   4.463   3.184   4.733
    1C        C  165   4.428   3.122   4.854
    1C        C  166   4.513   3.319   4.967
    1C        C  167   4.479   3.184   4.969
    1C        C  168   3.474   2.422   2.071
    1C        C  169   3.399   2.455   2.184
    1C        C  170   3.615   2.457   2.306
    1C        C  171   3.473   2.458   2.304
    1C        C  172   3.689   2.482   2.424
    1C        C  173   3.618   2.483   2.546
    1C        C  174   3.824   2.536   2.664
    1C        C  175   3.688   2.499   2.667
    1C        C  176   3.891   2.559   2.786
    1C        C  177   3.828   2.534   2.909
    1C        C  178   4.020   2.624   3.030
    1C        C  179   3.893   2.561   3.032
    1C        C  180   4.082   2.661   3.152
    1C        C  181   4.023   2.625   3.275
    1C        C  182   4.194   2.745   3.396
    1C        C  183   4.081   2.660   3.398
    1C        C  184   4.242   2.799   3.518
    1C        C  185   4.193   2.754   3.642
    1C        C  186   4.337   2.912   3.762
    1C        C  187   4.243   2.806   3.763
    1C        C  188   4.375   2.974   3.883
    1C        C  189   4.328   2.923   4.006
    1C        C  190   4.443   3.100   4.127
    1C        C  191   4.373   2.977   4.129
    1C        C  192   4.470   3.169   4.247
    1C        C  193   4.440   3.108   4.371
    1C        C  194   4.507   3.314   4.488
    1C        C  195   4.465   3.180   4.490
    1C        C  196   4.522   3.388   4.607
    1C        C  197   4.508   3.319   4.730
    1C        C  198   4.554   3.533   4.849
    1C        C  199   4.535   3.391   4.849
    1C        C  200   4.581   3.617   4.962
    1C        C  201   3.613   2.408   2.072
    1C        C  202   3.821   2.510   2.182
    1C        C  203   3.688   2.458   2.184
    1C        C  204   3.894   2.540   2.300
    1C        C  205   3.825   2.522   2.422
    1C        C  206   4.019   2.617   2.541
    1C        C  207   3.893   2.551   2.542
    1C        C  208   4.080   2.658   2.661
    1C        C  209   4.016   2.626   2.783
    1C        C  210   4.190   2.744   2.906
    1C        C  211   4.077   2.659   2.906
    1C        C  212   4.246   2.793   3.026
    1C        C  213   4.193   2.748   3.149
    1C        C  214   4.326   2.909   3.272
    1C        C  215   4.242   2.795   3.273
    1C        C  216   4.368   2.966   3.394
    1C        C  217   4.331   2.909   3.518
    1C        C  218   4.433   3.098   3.635
    1C        C  219   4.374   2.969   3.638
    1C        C  220   4.457   3.164   3.758
    1C        C  221   4.439   3.100   3.883
    1C        C  222   4.500   3.303   4.003
    1C        C  223   4.469   3.165   4.004
    1C        C  224   4.507   3.378   4.122
    1C        C  225   4.500   3.307   4.244
    1C        C  226   4.520   3.522   4.364
    1C        C  227   4.512   3.381   4.364
    1C        C  228   4.521   3.598   4.483
    1C        C  229   4.527   3.529   4.606
    1C        C  230   4.496   3.739   4.726
    1C        C  231   4.534   3.602   4.727
    1C        C  232   4.495   3.817   4.844
    1C        C  233   4.541   3.751   4.959
    1C        C  234   4.018   2.605   2.063
    1C        C  235   3.891   2.548   2.067
    1C        C  236   4.087   2.644   2.179
    1C        C  237   4.022   2.603   2.297
    1C        C  238   4.193   2.735   2.418
    1C        C  239   4.081   2.647   2.418
    1C        C  240   4.251   2.780   2.539
    1C        C  241   4.196   2.738   2.662
    1C        C  242   4.332   2.902   2.780
    1C        C  243   4.244   2.792   2.784
    1C        C  244   4.373   2.960   2.902
    1C        C  245   4.334   2.903   3.025
    1C        C  246   4.437   3.087   3.146
    1C        C  247   4.369   2.963   3.148
    1C        C  248   4.458   3.156   3.268
    1C        C  249   4.428   3.094   3.391
    1C        C  250   4.494   3.298   3.513
    1C        C  251   4.459   3.162   3.512
    1C        C  252   4.508   3.368   3.635
    1C        C  253   4.494   3.300   3.758
    1C        C  254   4.516   3.512   3.876
    1C        C  255   4.510   3.371   3.879
    1C        C  256   4.511   3.586   3.996
    1C        C  257   4.515   3.519   4.120
    1C        C  258   4.497   3.731   4.238
    1C        C  259   4.522   3.592   4.241
    1C        C  260   4.477   3.802   4.359
    1C        C  261   4.492   3.736   4.483
    1C        C  262   4.426   3.939   4.601
    1C        C  263   4.472   3.806   4.604
    1C        C  264   4.401   4.009   4.721
    1C        C  265   4.435   3.945   4.842
    1C        C  266   4.320   4.130   4.958
    1C        C  267   4.393   4.012   4.957
    1C        C  268   4.264   2.774   2.059
    1C        C  269   4.200   2.728   2.175
    1C        C  270   4.342   2.888   2.298
    1C        C  271   4.247   2.782   2.297
    1C        C  272   4.378   2.954   2.417
    1C        C  273   4.342   2.888   2.537
    1C        C  274   4.444   3.078   2.657
    1C        C  275   4.378   2.954   2.656
    1C        C  276   4.468   3.147   2.779
    1C        C  277   4.442   3.083   2.902
    1C        C  278   4.497   3.288   3.023
    1C        C  279   4.465   3.151   3.024
    1C        C  280   4.506   3.361   3.144
    1C        C  281   4.494   3.292   3.267
    1C        C  282   4.512   3.505   3.386
    1C        C  283   4.507   3.364   3.388
    1C        C  284   4.506   3.575   3.508
    1C        C  285   4.514   3.509   3.633
    1C        C  286   4.487   3.721   3.750
    1C        C  287   4.515   3.583   3.754
    1C        C  288   4.471   3.792   3.871
    1C        C  289   4.493   3.726   3.994
    1C        C  290   4.425   3.928   4.115
    1C        C  291   4.479   3.798   4.115
    1C        C  292   4.397   3.996   4.235
    1C        C  293   4.433   3.937   4.358
    1C        C  294   4.322   4.122   4.478
    1C        C  295   4.399   4.003   4.478
    1C        C  296   4.278   4.182   4.598
    1C        C  297   4.326   4.130   4.720
    1C        C  298   4.198   4.309   4.835
    1C        C  299   4.280   4.192   4.839
    1C        C  300   4.168   4.396   4.945
    1C        C  301   4.353   2.881   2.061
    1C        C  302   4.473   3.064   2.175
    1C        C  303   4.396   2.943   2.179
    1C        C  304   4.484   3.140   2.294
    1C        C  305   4.449   3.076   2.415
    1C        C  306   4.503   3.283   2.535
    1C        C  307   4.475   3.144   2.536
    1C        C  308   4.513   3.354   2.656
    1C        C  309   4.496   3.285   2.779
    1C        C  310   4.519   3.498   2.898
    1C        C  311   4.507   3.357   2.900
    1C        C  312   4.511   3.570   3.019
    1C        C  313   4.514   3.502   3.143
    1C        C  314   4.490   3.715   3.262
    1C        C  315   4.513   3.576   3.263
    1C        C  316   4.473   3.785   3.383
    1C        C  317   4.490   3.715   3.505
    1C        C  318   4.424   3.919   3.626
    1C        C  319   4.471   3.786   3.626
    1C        C  320   4.389   3.985   3.746
    1C        C  321   4.418   3.923   3.869
    1C        C  322   4.315   4.107   3.988
    1C        C  323   4.393   3.989   3.991
    1C        C  324   4.273   4.165   4.110
    1C        C  325   4.320   4.114   4.234
    1C        C  326   4.182   4.278   4.353
    1C        C  327   4.280   4.176   4.354
    1C        C  328   4.127   4.330   4.472
    1C        C  329   4.182   4.286   4.595
    1C        C  330   4.022   4.432   4.715
    1C        C  331   4.138   4.349   4.713
    1C        C  332   3.967   4.489   4.831
    1C        C  333   4.053   4.476   4.941
    1C        C  334   4.554   3.265   2.061
    1C        C  335   4.535   3.126   2.062
    1C        C  336   4.538   3.348   2.172
    1C        C  337   4.510   3.280   2.293
    1C        C  338   4.517   3.495   2.410
    1C        C  339   4.516   3.353   2.413
    1C        C  340   4.516   3.566   2.532
    1C        C  341   4.517   3.495   2.654
    1C        C  342   4.494   3.707   2.772
    1C        C  343   4.517   3.568   2.775
    1C        C  344   4.475   3.778   2.893
    1C        C  345   4.488   3.709   3.015
    1C        C  346   4.422   3.911   3.134
    1C        C  347   4.473   3.779   3.137
    1C        C  348   4.391   3.977   3.255
    1C        C  349   4.423   3.917   3.379
    1C        C  350   4.314   4.096   3.498
    1C        C  351   4.394   3.980   3.502
    1C        C  352   4.271   4.157   3.618
    1C        C  353   4.311   4.103   3.742
    1C        C  354   4.170   4.260   3.865
    1C        C  355   4.268   4.158   3.865
    1C        C  356   4.119   4.312   3.985
    1C        C  357   4.174   4.266   4.107
    1C        C  358   4.011   4.399   4.229
    1C        C  359   4.126   4.317   4.229
    1C        C  360   3.949   4.442   4.349
    1C        C  361   4.013   4.412   4.471
    1C        C  362   3.825   4.511   4.593
    1C        C  363   3.955   4.455   4.593
    1C        C  364   3.760   4.546   4.713
    1C        C  365   3.835   4.541   4.832
    1C        C  366   3.625   4.587   4.948
    1C        C  367   3.763   4.570   4.948
    1C        C  368   4.503   3.562   2.052
    1C        C  369   4.523   3.489   2.169
    1C        C  370   4.504   3.706   2.284
    1C        C  371   4.520   3.565   2.288
    1C        C  372   4.485   3.775   2.405
    1C        C  373   4.501   3.707   2.527
    1C        C  374   4.426   3.906   2.647
    1C        C  375   4.475   3.774   2.649
    1C        C  376   4.393   3.973   2.768
    1C        C  377   4.423   3.909   2.890
    1C        C  378   4.317   4.095   3.010
    1C        C  379   4.391   3.975   3.012
    1C        C  380   4.270   4.151   3.131
    1C        C  381   4.311   4.093   3.253
    1C        C  382   4.170   4.251   3.376
    1C        C  383   4.265   4.147   3.375
    1C        C  384   4.117   4.301   3.497
    1C        C  385   4.173   4.259   3.620
    1C        C  386   4.004   4.389   3.741
    1C        C  387   4.120   4.308   3.742
    1C        C  388   3.943   4.429   3.862
    1C        C  389   4.001   4.390   3.985
    1C        C  390   3.815   4.485   4.108
    1C        C  391   3.944   4.428   4.108
    1C        C  392   3.748   4.516   4.229
    1C        C  393   3.821   4.502   4.349
    1C        C  394   3.616   4.551   4.472
    1C        C  395   3.755   4.526   4.471
    1C        C  396   3.544   4.570   4.592
    1C        C  397   3.620   4.564   4.712
    1C        C  398   3.407   4.554   4.837
    1C        C  399   3.548   4.568   4.833
    1C        C  400   3.339   4.512   4.952
    1C        C  401   4.504   3.701   2.048
    1C        C  402   4.450   3.914   2.164
    1C        C  403   4.492   3.779   2.164
    1C        C  404   4.413   3.977   2.285
    1C        C  405   4.439   3.909   2.406
    1C        C  406   4.323   4.090   2.522
    1C        C  407   4.404   3.975   2.526
    1C        C  408   4.272   4.142   2.643
    1C        C  409   4.315   4.091   2.767
    1C        C  410   4.174   4.251   2.886
    1C        C  411   4.274   4.151   2.888
    1C        C  412   4.116   4.293   3.008
    1C        C  413   4.170   4.251   3.132
    1C        C  414   3.997   4.373   3.253
    1C        C  415   4.117   4.298   3.254
    1C        C  416   3.939   4.413   3.375
    1C        C  417   4.001   4.381   3.498
    1C        C  418   3.812   4.479   3.618
    1C        C  419   3.941   4.421   3.619
    1C        C  420   3.746   4.508   3.740
    1C        C  421   3.814   4.488   3.862
    1C        C  422   3.611   4.537   3.984
    1C        C  423   3.750   4.511   3.986
    1C        C  424   3.539   4.546   4.105
    1C        C  425   3.609   4.544   4.228
    1C        C  426   3.401   4.553   4.354
    1C        C  427   3.542   4.553   4.352
    1C        C  428   3.332   4.550   4.477
    1C        C  429   3.403   4.563   4.598
    1C        C  430   3.192   4.516   4.723
    1C        C  431   3.330   4.549   4.718
    1C        C  432   3.121   4.494   4.844
    1C        C  433   3.201   4.495   4.959
    1C        C  434   4.385   4.123   2.053
    1C        C  435   4.443   3.995   2.050
    1C        C  436   4.303   4.168   2.161
    1C        C  437   4.334   4.095   2.280
    1C        C  438   4.178   4.245   2.400
    1C        C  439   4.280   4.146   2.400
    1C        C  440   4.120   4.291   2.520
    1C        C  441   4.173   4.243   2.641
    1C        C  442   4.003   4.372   2.764
    1C        C  443   4.121   4.295   2.762
    1C        C  444   3.940   4.408   2.885
    1C        C  445   4.000   4.373   3.008
    1C        C  446   3.809   4.469   3.130
    1C        C  447   3.938   4.409   3.130
    1C        C  448   3.741   4.491   3.252
    1C        C  449   3.808   4.466   3.374
    1C        C  450   3.605   4.527   3.498
    1C        C  451   3.743   4.496   3.496
    1C        C  452   3.536   4.542   3.620
    1C        C  453   3.609   4.539   3.741
    1C        C  454   3.397   4.549   3.865
    1C        C  455   3.538   4.549   3.863
    1C        C  456   3.326   4.541   3.987
    1C        C  457   3.398   4.544   4.109
    1C        C  458   3.192   4.504   4.235
    1C        C  459   3.329   4.539   4.233
    1C        C  460   3.128   4.486   4.359
    1C        C  461   3.195   4.517   4.480
    1C        C  462   2.996   4.436   4.603
    1C        C  463   3.124   4.496   4.601
    1C        C  464   2.929   4.400   4.721
    1C        C  465   2.987   4.442   4.844
    1C        C  466   2.799   4.332   4.957
    1C        C  467   2.904   4.425   4.959
    1C        C  468   4.124   4.288   2.039
    1C        C  469   4.189   4.254   2.158
    1C        C  470   4.003   4.367   2.277
    1C        C  471   4.123   4.291   2.278
    1C        C  472   3.940   4.402   2.399
    1C        C  473   4.001   4.367   2.522
    1C        C  474   3.811   4.464   2.641
    1C        C  475   3.940   4.407   2.642
    1C        C  476   3.744   4.488   2.764
    1C        C  477   3.811   4.465   2.886
    1C        C  478   3.605   4.519   3.008
    1C        C  479   3.742   4.489   3.007
    1C        C  480   3.535   4.537   3.130
    1C        C  481   3.604   4.526   3.252
    1C        C  482   3.394   4.532   3.374
    1C        C  483   3.535   4.532   3.375
    1C        C  484   3.325   4.535   3.497
    1C        C  485   3.394   4.543   3.620
    1C        C  486   3.191   4.496   3.744
    1C        C  487   3.326   4.536   3.744
    1C        C  488   3.126   4.477   3.868
    1C        C  489   3.189   4.506   3.990
    1C        C  490   3.001   4.413   4.114
    1C        C  491   3.124   4.483   4.113
    1C        C  492   2.945   4.381   4.240
    1C        C  493   3.000   4.426   4.362
    1C        C  494   2.830   4.299   4.481
    1C        C  495   2.937   4.391   4.483
    1C        C  496   2.770   4.254   4.601
    1C        C  497   2.818   4.311   4.721
    1C        C  498   2.668   4.158   4.843
    1C        C  499   2.752   4.271   4.840
    1C        C  500   2.589   4.119   4.952
    1C        C  501   4.002   4.356   2.040
    1C        C  502   3.812   4.463   2.154
    1C        C  503   3.939   4.401   2.156
    1C        C  504   3.744   4.481   2.276
    1C        C  505   3.810   4.455   2.398
    1C        C  506   3.604   4.507   2.521
    1C        C  507   3.743   4.485   2.519
    1C        C  508   3.532   4.521   2.642
    1C        C  509   3.606   4.519   2.762
    1C        C  510   3.395   4.523   2.885
    1C        C  511   3.536   4.527   2.885
    1C        C  512   3.324   4.521   3.007
    1C        C  513   3.394   4.534   3.129
    1C        C  514   3.186   4.491   3.254
    1C        C  515   3.324   4.524   3.251
    1C        C  516   3.120   4.468   3.376
    1C        C  517   3.189   4.498   3.496
    1C        C  518   2.999   4.411   3.622
    1C        C  519   3.125   4.474   3.620
    1C        C  520   2.941   4.373   3.745
    1C        C  521   3.001   4.410   3.867
    1C        C  522   2.839   4.279   3.993
    1C        C  523   2.942   4.376   3.991
    1C        C  524   2.796   4.230   4.118
    1C        C  525   2.841   4.285   4.240
    1C        C  526   2.701   4.127   4.363
    1C        C  527   2.782   4.243   4.361
    1C        C  528   2.653   4.073   4.485
    1C        C  529   2.684   4.143   4.604
    1C        C  530   2.582   3.956   4.729
    1C        C  531   2.638   4.087   4.725
    1C        C  532   2.538   3.898   4.851
    1C        C  533   2.529   3.993   4.958
    1C        C  534   3.616   4.557   2.040
    1C        C  535   3.749   4.514   2.040
    1C        C  536   3.536   4.535   2.157
    1C        C  537   3.604   4.507   2.278
    1C        C  538   3.391   4.514   2.398
    1C        C  539   3.532   4.514   2.400
    1C        C  540   3.319   4.516   2.520
    1C        C  541   3.390   4.524   2.642
    1C        C  542   3.183   4.488   2.763
    1C        C  543   3.321   4.515   2.765
    1C        C  544   3.117   4.468   2.886
    1C        C  545   3.186   4.489   3.008
    1C        C  546   2.997   4.399   3.130
    1C        C  547   3.122   4.463   3.131
    1C        C  548   2.938   4.363   3.254
    1C        C  549   2.995   4.402   3.377
    1C        C  550   2.833   4.274   3.502
    1C        C  551   2.939   4.367   3.502
    1C        C  552   2.785   4.225   3.626
    1C        C  553   2.837   4.277   3.747
    1C        C  554   2.711   4.110   3.873
    1C        C  555   2.796   4.224   3.871
    1C        C  556   2.672   4.054   3.997
    1C        C  557   2.711   4.117   4.117
    1C        C  558   2.604   3.938   4.244
    1C        C  559   2.671   4.063   4.241
    1C        C  560   2.572   3.875   4.366
    1C        C  561   2.592   3.946   4.486
    1C        C  562   2.530   3.746   4.613
    1C        C  563   2.563   3.883   4.609
    1C        C  564   2.512   3.676   4.735
    1C        C  565   2.518   3.757   4.851
    1C        C  566   2.529   3.544   4.977
    1C        C  567   2.519   3.682   4.970
    1C        C  568   3.330   4.464   2.040
    1C        C  569   3.395   4.515   2.153
    1C        C  570   3.184   4.480   2.277
    1C        C  571   3.323   4.511   2.275
    1C        C  572   3.116   4.458   2.399
    1C        C  573   3.181   4.486   2.521
    1C        C  574   2.986   4.404   2.644
    1C        C  575   3.112   4.468   2.642
    1C        C  576   2.928   4.366   2.767
    1C        C  577   2.991   4.403   2.887
    1C        C  578   2.826   4.270   3.013
    1C        C  579   2.933   4.362   3.010
    1C        C  580   2.780   4.217   3.136
    1C        C  581   2.836   4.265   3.256
    1C        C  582   2.703   4.106   3.381
    1C        C  583   2.786   4.220   3.380
    1C        C  584   2.671   4.046   3.505
    1C        C  585   2.701   4.111   3.627
    1C        C  586   2.602   3.929   3.754
    1C        C  587   2.673   4.051   3.751
    1C        C  588   2.572   3.866   3.877
    1C        C  589   2.605   3.929   3.999
    1C        C  590   2.535   3.735   4.127
    1C        C  591   2.577   3.870   4.124
    1C        C  592   2.519   3.667   4.250
    1C        C  593   2.530   3.740   4.370
    1C        C  594   2.508   3.530   4.496
    1C        C  595   2.521   3.671   4.493
    1C        C  596   2.511   3.458   4.618
    1C        C  597   2.512   3.534   4.737
    1C        C  598   2.530   3.325   4.863
    1C        C  599   2.526   3.466   4.860
    1C        C  600   2.524   3.242   4.977
    1C        C  601   3.194   4.445   2.037
    1C        C  602   2.986   4.393   2.157
    1C        C  603   3.118   4.448   2.155
    1C        C  604   2.929   4.350   2.281
    1C        C  605   2.990   4.394   2.400
    1C        C  606   2.824   4.265   2.527
    1C        C  607   2.929   4.360   2.523
    1C        C  608   2.773   4.216   2.649
    1C        C  609   2.823   4.270   2.769
    1C        C  610   2.693   4.103   2.894
    1C        C  611   2.780   4.214   2.892
    1C        C  612   2.649   4.049   3.016
    1C        C  613   2.694   4.105   3.138
    1C        C  614   2.592   3.921   3.263
    1C        C  615   2.657   4.047   3.261
    1C        C  616   2.566   3.859   3.388
    1C        C  617   2.605   3.921   3.509
    1C        C  618   2.526   3.729   3.635
    1C        C  619   2.572   3.862   3.633
    1C        C  620   2.511   3.663   3.759
    1C        C  621   2.529   3.732   3.881
    1C        C  622   2.506   3.524   4.008
    1C        C  623   2.516   3.665   4.005
    1C        C  624   2.509   3.454   4.131
    1C        C  625   2.510   3.526   4.252
    1C        C  626   2.525   3.317   4.378
    1C        C  627   2.504   3.457   4.375
    1C        C  628   2.544   3.247   4.499
    1C        C  629   2.527   3.318   4.620
    1C        C  630   2.591   3.117   4.744
    1C        C  631   2.544   3.251   4.744
    1C        C  632   2.614   3.046   4.865
    1C        C  633   2.558   3.106   4.982
    1C        C  634   2.779   4.304   2.056
    1C        C  635   2.895   4.383   2.047
    1C        C  636   2.748   4.226   2.168
    1C        C  637   2.816   4.264   2.286
    1C        C  638   2.677   4.104   2.411
    1C        C  639   2.766   4.214   2.408
    1C        C  640   2.640   4.043   2.532
    1C        C  641   2.688   4.103   2.651
    1C        C  642   2.586   3.917   2.775
    1C        C  643   2.652   4.042   2.773
    1C        C  644   2.560   3.852   2.897
    1C        C  645   2.584   3.923   3.017
    1C        C  646   2.519   3.724   3.147
    1C        C  647   2.564   3.857   3.140
    1C        C  648   2.506   3.654   3.270
    1C        C  649   2.519   3.726   3.391
    1C        C  650   2.497   3.517   3.516
    1C        C  651   2.506   3.658   3.514
    1C        C  652   2.505   3.451   3.641
    1C        C  653   2.503   3.521   3.763
    1C        C  654   2.525   3.313   3.889
    1C        C  655   2.504   3.453   3.886
    1C        C  656   2.545   3.245   4.012
    1C        C  657   2.529   3.314   4.134
    1C        C  658   2.598   3.117   4.255
    1C        C  659   2.543   3.247   4.257
    1C        C  660   2.633   3.056   4.377
    1C        C  661   2.600   3.117   4.500
    1C        C  662   2.709   2.938   4.623
    1C        C  663   2.629   3.054   4.623
    1C        C  664   2.747   2.875   4.743
    1C        C  665   2.695   2.928   4.865
    1C        C  666   2.746   2.868   4.981
    1C        C  667   2.675   4.022   2.052
    1C        C  668   2.681   4.102   2.167
    1C        C  669   2.586   3.911   2.290
    1C        C  670   2.644   4.041   2.289
    1C        C  671   2.556   3.844   2.410
    1C        C  672   2.582   3.914   2.530
    1C        C  673   2.511   3.717   2.656
    1C        C  674   2.554   3.851   2.654
    1C        C  675   2.510   3.647   2.779
    1C        C  676   2.526   3.715   2.902
    1C        C  677   2.499   3.511   3.028
    1C        C  678   2.504   3.653   3.026
    1C        C  679   2.500   3.440   3.151
    1C        C  680   2.499   3.513   3.272
    1C        C  681   2.517   3.305   3.398
    1C        C  682   2.496   3.445   3.395
    1C        C  683   2.540   3.241   3.522
    1C        C  684   2.526   3.311   3.644
    1C        C  685   2.602   3.116   3.770
    1C        C  686   2.545   3.245   3.767
    1C        C  687   2.635   3.053   3.892
    1C        C  688   2.594   3.113   4.014
    1C        C  689   2.710   2.933   4.135
    1C        C  690   2.629   3.049   4.135
    1C        C  691   2.756   2.880   4.258
    1C        C  692   2.711   2.939   4.379
    1C        C  693   2.752   2.880   4.501
    1C        C  694   2.627   3.890   2.053
    1C        C  695   2.523   3.705   2.173
    1C        C  696   2.575   3.836   2.171
    1C        C  697   2.499   3.636   2.294
    1C        C  698   2.513   3.709   2.413
    1C        C  699   2.488   3.502   2.542
    1C        C  700   2.495   3.643   2.537
    1C        C  701   2.493   3.432   2.664
    1C        C  702   2.497   3.506   2.784
    1C        C  703   2.527   3.299   2.909
    1C        C  704   2.504   3.438   2.908
    1C        C  705   2.547   3.233   3.032
    1C        C  706   2.529   3.302   3.154
    1C        C  707   2.592   3.104   3.278
    1C        C  708   2.539   3.235   3.278
    1C        C  709   2.623   3.044   3.403
    1C        C  710   2.594   3.110   3.524
    1C        C  711   2.715   2.937   3.646
    1C        C  712   2.632   3.052   3.647
    1C        C  713   2.759   2.882   3.768
    1C        C  714   2.714   2.936   3.891
    1C        C  715   2.752   2.877   4.013
    1C        C  716   2.448   3.498   2.057
    1C        C  717   2.480   3.635   2.059
    1C        C  718   2.464   3.421   2.177
    1C        C  719   2.477   3.495   2.298
    1C        C  720   2.511   3.290   2.420
    1C        C  721   2.482   3.428   2.422
    1C        C  722   2.532   3.222   2.542
    1C        C  723   2.517   3.292   2.664
    1C        C  724   2.589   3.096   2.789
    1C        C  725   2.536   3.227   2.787
    1C        C  726   2.621   3.033   2.911
    1C        C  727   2.590   3.098   3.032
    1C        C  728   2.712   2.930   3.158
    1C        C  729   2.623   3.039   3.157
    1C        C  730   2.755   2.876   3.282
    1C        C  731   2.710   2.933   3.403
    1C        C  732   2.759   2.879   3.525
    1C        C  733   2.494   3.202   2.067
    1C        C  734   2.482   3.280   2.183
    1C        C  735   2.580   3.084   2.303
    1C        C  736   2.521   3.213   2.302
    1C        C  737   2.612   3.022   2.426
    1C        C  738   2.583   3.090   2.546
    1C        C  739   2.697   2.911   2.668
    1C        C  740   2.617   3.028   2.668
    1C        C  741   2.746   2.860   2.790
    1C        C  742   2.705   2.920   2.912
    1C        C  743   2.754   2.873   3.036
    1C        C  744   2.546   3.072   2.069
    1C        C  745   2.684   2.897   2.183
    1C        C  746   2.606   3.015   2.182
    1C        C  747   2.730   2.843   2.304
    1C        C  748   2.688   2.903   2.425
    1C        C  749   2.738   2.852   2.547
    1C        C  750   2.737   2.844   2.065
    1C        C  751   3.674   2.319   1.970
    1C        O  752   3.673   2.194   1.977
    1C        O  753   3.697   2.360   1.838
    1C        C  754   4.632   3.055   1.976
    1C        O  755   4.598   3.027   1.858
    1C        O  756   4.748   3.001   2.033
    1C        C  757   4.467   4.222   1.979
    1C        O  758   4.580   4.256   2.022
    1C        O  759   4.461   4.233   1.839
    1C        C  760   3.572   4.657   1.939
    1C        O  761   3.554   4.778   1.969
    1C        O  762   3.561   4.617   1.805
    1C        C  763   2.897   4.480   1.936
    1C        O  764   2.925   4.435   1.822
    1C        O  765   2.903   4.619   1.957
    1C        C  766   2.341   3.464   1.961
    1C        O  767   2.370   3.466   1.838
    1C        O  768   2.212   3.508   1.993
    1C        C  769   4.701   3.595   5.046
    1C        O  770   4.676   3.587   5.170
    1C        O  771   4.812   3.679   5.030
    1C        C  772   4.268   4.445   5.043
    1C        O  773   4.271   4.412   5.165
    1C        O  774   4.354   4.554   5.028
    1C        C  775   4.145   2.508   5.059
    1C        O  776   4.169   2.390   5.023
    1C        O  777   4.133   2.503   5.199
    1C        C  778   2.893   4.532   5.060
    1C        O  779   2.848   4.647   5.035
    1C        O  780   2.876   4.499   5.195
    1C        C  781   2.490   3.032   5.091
    1C        O  782   2.419   2.931   5.068
    1C        O  783   2.546   3.055   5.216
    1C        C  784   2.423   3.972   5.059
    1C        O  785   2.303   3.993   5.028
    1C        O  786   2.458   3.968   5.195
    1C        C  787   2.948   2.419   2.004
    1C        O  788   2.963   2.394   1.881
    1C        O  789   2.825   2.379   2.054
    1C        C  790   3.197   2.381   5.074
    1C        O  791   3.152   2.267   5.044
    1C        O  792   3.217   2.403   5.211
    1C        H  793   4.291   3.018   5.065
    1C        H  794   4.171   2.805   5.069
    1C        H  795   4.527   3.124   5.043
    1C        H  796   4.509   3.369   5.062
    1C        H  797   4.591   3.816   5.028
    1C        H  798   4.413   3.965   5.051
    1C        H  799   4.247   4.137   5.036
    1C        H  800   4.014   4.507   5.035
    1C        H  801   3.808   4.571   5.045
    1C        H  802   3.589   4.659   5.019
    1C        H  803   3.393   4.445   5.014
    1C        H  804   3.157   4.518   5.053
    1C        H  805   3.881   2.521   5.074
    1C        H  806   3.662   2.521   5.073
    1C        H  807   3.006   2.561   5.065
    1C        H  808   3.442   2.442   5.074
    1C        H  809   2.902   2.766   5.072
    1C        H  810   2.722   2.911   5.076
    1C        H  811   2.473   3.279   5.063
    1C        H  812   2.565   3.496   5.066
    1C        H  813   2.480   3.729   5.058
    1C        H  814   2.547   4.200   5.007
    1C        H  815   2.743   4.322   5.048
    1C        H  816   2.769   2.912   1.989
    1C        H  817   2.782   2.650   2.000
    1C        H  818   3.200   2.404   1.999
    1C        H  819   3.424   2.432   1.977
    1C        H  820   3.834   2.559   1.977
    1C        H  821   4.079   2.570   1.983
    1C        H  822   4.254   2.719   1.968
    1C        H  823   4.369   2.929   1.967
    1C        H  824   4.625   3.303   1.991
    1C        H  825   4.476   3.511   1.962
    1C        H  826   4.584   3.735   1.985
    1C        H  827   3.791   4.492   1.944
    1C        H  828   3.987   4.407   1.947
    1C        H  829   4.157   4.255   1.942
    1C        H  830   4.492   3.963   1.961
    1C        H  831   2.593   3.853   1.959
    1C        H  832   2.725   4.055   1.963
    1C        H  833   2.709   4.307   1.976
    1C        H  834   3.389   4.425   1.959
    1C        H  835   3.146   4.479   1.947
    1C        H  836   2.551   3.019   1.977
    1C        H  837   2.424   3.217   1.988
    1C        H  838   2.416   3.696   2.000
    2V3OU   H29  839   2.803   3.544   5.507
    2V3OU   C27  840   2.781   3.504   5.610
    2V3OU   H27  841   2.726   3.577   5.675
    2V3OU   H28  842   2.723   3.408   5.604
    2V3OU   O11  843   2.909   3.474   5.666
    2V3OU   C15  844   2.921   3.391   5.776
    2V3OU   C13  845   3.051   3.370   5.829
    2V3OU   C14  846   3.076   3.262   5.913
    2V3OU   C16  847   2.968   3.184   5.954
    2V3OU    H6  848   2.990   3.099   6.020
    2V3OU   C12  849   3.214   3.222   5.948
    2V3OU    O2  850   3.237   3.123   6.021
    2V3OU   C10  851   3.322   3.302   5.889
    2V3OU    C8  852   3.456   3.265   5.904
    2V3OU   O10  853   3.491   3.144   5.954
    2V3OU   H26  854   3.407   3.113   5.991
    2V3OU    C6  855   3.562   3.346   5.853
    2V3OU    C5  856   3.533   3.467   5.792
    2V3OU    C4  857   3.701   3.291   5.850
    2V3OU    H4  858   3.726   3.226   5.938
    2V3OU    H5  859   3.709   3.225   5.759
    2V3OU    C2  860   3.811   3.397   5.853
    2V3OU    O6  861   3.805   3.470   5.976
    2V3OU   H21  862   3.760   3.553   5.954
    2V3OU    C3  863   3.780   3.494   5.740
    2V3OU    H2  864   3.863   3.568   5.719
    2V3OU    H3  865   3.773   3.439   5.642
    2V3OU   C25  866   3.948   3.331   5.836
    2V3OU    O7  867   3.997   3.296   5.729
    2V3OU   C26  868   4.026   3.292   5.961
    2V3OU   H22  869   4.071   3.384   6.005
    2V3OU   H23  870   4.111   3.225   5.933
    2V3OU    O8  871   3.958   3.210   6.053
    2V3OU   H24  872   3.921   3.267   6.122
    2V3OU    C1  873   3.645   3.561   5.757
    2V3OU    H1  874   3.619   3.617   5.662
    2V3OU    O3  875   3.659   3.654   5.864
    2V3OU   C19  876   3.615   3.789   5.850
    2V3OU    H9  877   3.520   3.793   5.789
    2V3OU    O4  878   3.711   3.844   5.763
    2V3OU   C20  879   3.841   3.871   5.817
    2V3OU   H10  880   3.897   3.774   5.832
    2V3OU   C24  881   3.609   3.853   5.989
    2V3OU   H16  882   3.543   3.795   6.059
    2V3OU   H17  883   3.570   3.957   5.980
    2V3OU   C23  884   3.748   3.873   6.049
    2V3OU   H15  885   3.789   3.768   6.065
    2V3OU    N1  886   3.733   3.949   6.172
    2V3OU   H19  887   3.803   3.923   6.238
    2V3OU   H20  888   3.642   3.939   6.213
    2V3OU   C21  889   3.844   3.946   5.950
    2V3OU   H11  890   3.950   3.929   5.984
    2V3OU    O5  891   3.820   4.086   5.955
    2V3OU   H18  892   3.784   4.095   6.045
    2V3OU   C22  893   3.910   3.952   5.708
    2V3OU   H12  894   3.857   4.050   5.693
    2V3OU   H13  895   3.908   3.893   5.612
    2V3OU   H14  896   4.019   3.960   5.730
    2V3OU   C11  897   3.156   3.470   5.807
    2V3OU    O1  898   3.133   3.586   5.768
    2V3OU    C9  899   3.296   3.424   5.820
    2V3OU    C7  900   3.397   3.507   5.773
    2V3OU    O9  901   3.382   3.617   5.690
    2V3OU   H25  902   3.286   3.622   5.675
    2V3OU   C17  903   2.814   3.309   5.814
    2V3OU    H7  904   2.710   3.342   5.808
    2V3OU   C18  905   2.840   3.210   5.908
    2V3OU    H8  906   2.755   3.151   5.948
    3SOL     OW  907   3.711   2.923   3.909
    3SOL    HW1  908   3.644   2.850   3.895
    3SOL    HW2  909   3.669   2.998   3.961
    4SOL     OW  910   6.491   6.292   0.702
    4SOL    HW1  911   6.526   6.310   0.794
    4SOL    HW2  912   6.528   6.206   0.668
    5SOL     OW  913   5.258   1.903   1.180
    5SOL    HW1  914   5.249   1.907   1.080
    5SOL    HW2  915   5.339   1.955   1.208
    6SOL     OW  916   5.121   1.338   3.204
    6SOL    HW1  917   5.219   1.321   3.214
    6SOL    HW2  918   5.096   1.329   3.108
    7SOL     OW  919   2.179   4.038   4.157
    7SOL    HW1  920   2.088   4.022   4.119
    7SOL    HW2  921   2.188   3.989   4.243
    8SOL     OW  922   0.731   2.993   5.095
    8SOL    HW1  923   0.682   3.012   5.009
    8SOL    HW2  924   0.829   3.004   5.080
    9SOL     OW  925   0.065   1.072   6.484
    9SOL    HW1  926   0.056   1.159   6.532
    9SOL    HW2  927   0.105   1.004   6.544
   10SOL     OW  928   5.636   4.751   1.611
   10SOL    HW1  929   5.670   4.749   1.517
   10SOL    HW2  930   5.708   4.721   1.673
   11SOL     OW  931   2.009   2.086   1.238
   11SOL    HW1  932   2.014   2.170   1.184
   11SOL    HW2  933   1.914   2.053   1.239
   12SOL     OW  934   4.144   4.832   2.740
   12SOL    HW1  935   4.049   4.818   2.770
   12SOL    HW2  936   4.204   4.768   2.788
   13SOL     OW  937   5.627   6.121   1.456
   13SOL    HW1  938   5.651   6.107   1.552
   13SOL    HW2  939   5.710   6.114   1.400
   14SOL     OW  940   4.292   6.535   6.377
   14SOL    HW1  941   4.312   6.633   6.378
   14SOL    HW2  942   4.255   6.508   6.466
   15SOL     OW  943   1.181   6.090   6.279
   15SOL    HW1  944   1.125   6.046   6.209
   15SOL    HW2  945   1.202   6.184   6.252
   16SOL     OW  946   2.016   4.859   4.855
   16SOL    HW1  947   1.993   4.826   4.764
   16SOL    HW2  948   2.004   4.958   4.859
   17SOL     OW  949   6.798   1.216   5.170
   17SOL    HW1  950   6.818   1.123   5.137
   17SOL    HW2  951   6.831   1.226   5.263
   18SOL     OW  952   2.918   1.527   6.136
   18SOL    HW1  953   2.831   1.494   6.097
   18SOL    HW2  954   2.954   1.600   6.078
   19SOL     OW  955   3.218   6.466   3.234
   19SOL    HW1  956   3.177   6.375   3.229
   19SOL    HW2  957   3.313   6.458   3.263
   20SOL     OW  958   5.683   1.332   4.993
   20SOL    HW1  959   5.739   1.251   4.972
   20SOL    HW2  960   5.598   1.304   5.037
   21SOL     OW  961   2.338   4.276   2.438
   21SOL    HW1  962   2.385   4.354   2.396
   21SOL    HW2  963   2.383   4.252   2.523
   22SOL     OW  964   0.958   0.651   6.847
   22SOL    HW1  965   0.903   0.609   6.919
   22SOL    HW2  966   0.907   0.648   6.761
   23SOL     OW  967   5.540   4.678   0.961
   23SOL    HW1  968   5.620   4.621   0.980
   23SOL    HW2  969   5.544   4.711   0.867
   24SOL     OW  970   5.079   1.824   0.576
   24SOL    HW1  971   5.100   1.761   0.502
   24SOL    HW2  972   4.995   1.794   0.622
   25SOL     OW  973   1.812   0.421   4.535
   25SOL    HW1  974   1.786   0.451   4.627
   25SOL    HW2  975   1.853   0.498   4.486
   26SOL     OW  976   0.548   2.234   6.422
   26SOL    HW1  977   0.484   2.160   6.400
   26SOL    HW2  978   0.503   2.301   6.481
   27SOL     OW  979   6.769   0.367   2.283
   27SOL    HW1  980   6.774   0.267   2.282
   27SOL    HW2  981   6.694   0.396   2.342
   28SOL     OW  982   1.739   0.747   4.902
   28SOL    HW1  983   1.695   0.804   4.971
   28SOL    HW2  984   1.763   0.803   4.823
   29SOL     OW  985   6.850   6.889   0.888
   29SOL    HW1  986   6.758   6.864   0.859
   29SOL    HW2  987   6.880   6.828   0.961
   30SOL     OW  988   4.145   0.183   4.875
   30SOL    HW1  989   4.097   0.268   4.896
   30SOL    HW2  990   4.081   0.106   4.880
   31SOL     OW  991   0.955   4.288   4.745
   31SOL    HW1  992   0.896   4.258   4.670
   31SOL    HW2  993   1.050   4.265   4.722
   32SOL     OW  994   3.751   0.684   0.861
   32SOL    HW1  995   3.733   0.626   0.940
   32SOL    HW2  996   3.669   0.738   0.840
   33SOL     OW  997   2.072   5.313   6.250
   33SOL    HW1  998   2.143   5.357   6.195
   33SOL    HW2  999   1.999   5.379   6.268
   34SOL     OW 1000   3.004   5.849   5.337
   34SOL    HW1 1001   2.918   5.799   5.322
   34SOL    HW2 1002   3.079   5.784   5.342
   35SOL     OW 1003   1.682   2.857   6.218
   35SOL    HW1 1004   1.680   2.957   6.218
   35SOL    HW2 1005   1.616   2.821   6.284
   36SOL     OW 1006   4.501   0.950   3.134
   36SOL    HW1 1007   4.522   1.008   3.213
   36SOL    HW2 1008   4.426   0.991   3.083
   37SOL     OW 1009   2.464   6.907   3.822
   37SOL    HW1 1010   2.561   6.931   3.825
   37SOL    HW2 1011   2.426   6.911   3.914
   38SOL     OW 1012   0.891   4.262   2.665
   38SOL    HW1 1013   0.949   4.252   2.583
   38SOL    HW2 1014   0.795   4.266   2.637
   39SOL     OW 1015   6.744   5.226   1.416
   39SOL    HW1 1016   6.803   5.280   1.356
   39SOL    HW2 1017   6.723   5.138   1.373
   40SOL     OW 1018   4.871   1.631   0.648
   40SOL    HW1 1019   4.817   1.637   0.564
   40SOL    HW2 1020   4.811   1.646   0.727
   41SOL     OW 1021   5.159   3.959   1.668
   41SOL    HW1 1022   5.070   3.920   1.645
   41SOL    HW2 1023   5.182   3.934   1.763
   42SOL     OW 1024   2.772   4.966   6.675
   42SOL    HW1 1025   2.791   5.063   6.660
   42SOL    HW2 1026   2.768   4.947   6.773
   43SOL     OW 1027   4.933   6.758   5.224
   43SOL    HW1 1028   4.907   6.833   5.164
   43SOL    HW2 1029   5.020   6.778   5.267
   44SOL     OW 1030   6.909   1.174   0.151
   44SOL    HW1 1031   6.893   1.214   0.061
   44SOL    HW2 1032   6.881   1.078   0.150
   45SOL     OW 1033   2.100   4.704   6.193
   45SOL    HW1 1034   2.107   4.753   6.280
   45SOL    HW2 1035   2.105   4.770   6.117
   46SOL     OW 1036   1.311   3.484   5.206
   46SOL    HW1 1037   1.360   3.553   5.259
   46SOL    HW2 1038   1.350   3.394   5.225
   47SOL     OW 1039   5.511   3.891   0.059
   47SOL    HW1 1040   5.411   3.889   0.070
   47SOL    HW2 1041   5.548   3.969   0.110
   48SOL     OW 1042   6.215   3.867   0.308
   48SOL    HW1 1043   6.120   3.858   0.338
   48SOL    HW2 1044   6.233   3.801   0.234
   49SOL     OW 1045   2.947   3.855   6.761
   49SOL    HW1 1046   3.023   3.887   6.704
   49SOL    HW2 1047   2.894   3.787   6.711
   50SOL     OW 1048   6.276   1.934   0.045
   50SOL    HW1 1049   6.228   1.952   6.978
   50SOL    HW2 1050   6.266   2.014   0.105
   51SOL     OW 1051   0.973   5.968   2.563
   51SOL    HW1 1052   0.982   5.882   2.512
   51SOL    HW2 1053   1.014   5.956   2.654
   52SOL     OW 1054   6.028   2.691   2.071
   52SOL    HW1 1055   6.004   2.623   2.141
   52SOL    HW2 1056   5.959   2.691   2.000
   53SOL     OW 1057   3.384   0.656   1.361
   53SOL    HW1 1058   3.478   0.672   1.390
   53SOL    HW2 1059   3.326   0.639   1.441
   54SOL     OW 1060   5.581   0.095   6.278
   54SOL    HW1 1061   5.660   0.046   6.241
   54SOL    HW2 1062   5.523   0.127   6.203
   55SOL     OW 1063   1.187   3.399   5.970
   55SOL    HW1 1064   1.183   3.473   5.903
   55SOL    HW2 1065   1.161   3.433   6.060
   56SOL     OW 1066   0.461   1.980   7.008
   56SOL    HW1 1067   0.432   2.021   6.922
   56SOL    HW2 1068   0.549   1.934   6.996
   57SOL     OW 1069   4.379   6.209   1.035
   57SOL    HW1 1070   4.371   6.288   0.974
   57SOL    HW2 1071   4.412   6.130   0.984
   58SOL     OW 1072   1.185   0.770   6.813
   58SOL    HW1 1073   1.094   0.733   6.831
   58SOL    HW2 1074   1.191   0.863   6.851
   59SOL     OW 1075   4.507   3.254   5.503
   59SOL    HW1 1076   4.567   3.298   5.436
   59SOL    HW2 1077   4.411   3.271   5.479
   60SOL     OW 1078   6.269   2.707   2.243
   60SOL    HW1 1079   6.189   2.704   2.183
   60SOL    HW2 1080   6.309   2.616   2.250
   61SOL     OW 1081   0.848   6.384   4.053
   61SOL    HW1 1082   0.945   6.407   4.065
   61SOL    HW2 1083   0.822   6.399   3.958
   62SOL     OW 1084   6.291   3.203   3.260
   62SOL    HW1 1085   6.201   3.173   3.291
   62SOL    HW2 1086   6.282   3.252   3.173
   63SOL     OW 1087   3.617   0.653   5.995
   63SOL    HW1 1088   3.530   0.689   6.028
   63SOL    HW2 1089   3.689   0.672   6.062
   64SOL     OW 1090   1.447   3.053   5.519
   64SOL    HW1 1091   1.448   2.953   5.520
   64SOL    HW2 1092   1.540   3.088   5.519
   65SOL     OW 1093   0.653   5.146   4.260
   65SOL    HW1 1094   0.660   5.055   4.218
   65SOL    HW2 1095   0.563   5.158   4.299
   66SOL     OW 1096   3.839   1.084   1.857
   66SOL    HW1 1097   3.823   1.116   1.764
   66SOL    HW2 1098   3.918   1.132   1.896
   67SOL     OW 1099   6.934   3.213   1.650
   67SOL    HW1 1100   7.014   3.258   1.608
   67SOL    HW2 1101   6.853   3.269   1.634
   68SOL     OW 1102   0.006   1.617   6.675
   68SOL    HW1 1103   0.045   1.646   6.762
   68SOL    HW2 1104   0.069   1.638   6.601
   69SOL     OW 1105   0.985   5.991   6.764
   69SOL    HW1 1106   1.039   6.044   6.700
   69SOL    HW2 1107   1.041   5.917   6.802
   70SOL     OW 1108   5.059   4.333   4.007
   70SOL    HW1 1109   5.022   4.384   3.929
   70SOL    HW2 1110   5.049   4.387   4.090
   71SOL     OW 1111   5.292   2.181   4.314
   71SOL    HW1 1112   5.237   2.156   4.235
   71SOL    HW2 1113   5.265   2.272   4.347
   72SOL     OW 1114   0.228   1.670   3.295
   72SOL    HW1 1115   0.250   1.582   3.338
   72SOL    HW2 1116   0.213   1.739   3.366
   73SOL     OW 1117   2.443   0.181   1.029
   73SOL    HW1 1118   2.483   0.256   1.081
   73SOL    HW2 1119   2.515   0.134   0.977
   74SOL     OW 1120   3.523   2.329   0.779
   74SOL    HW1 1121   3.472   2.345   0.695
   74SOL    HW2 1122   3.461   2.295   0.850
   75SOL     OW 1123   2.798   2.930   0.309
   75SOL    HW1 1124   2.811   2.895   0.402
   75SOL    HW2 1125   2.723   2.995   0.308
   76SOL     OW 1126   3.755   5.130   5.533
   76SOL    HW1 1127   3.776   5.106   5.438
   76SOL    HW2 1128   3.788   5.222   5.551
   77SOL     OW 1129   0.801   5.320   4.868
   77SOL    HW1 1130   0.868   5.387   4.899
   77SOL    HW2 1131   0.844   5.255   4.806
   78SOL     OW 1132   4.431   1.855   1.334
   78SOL    HW1 1133   4.523   1.888   1.353
   78SOL    HW2 1134   4.415   1.856   1.235
   79SOL     OW 1135   1.463   4.415   3.834
   79SOL    HW1 1136   1.548   4.463   3.855
   79SOL    HW2 1137   1.398   4.479   3.792
   80SOL     OW 1138   3.509   1.816   4.847
   80SOL    HW1 1139   3.518   1.910   4.880
   80SOL    HW2 1140   3.518   1.815   4.747
   81SOL     OW 1141   3.883   5.132   1.574
   81SOL    HW1 1142   3.907   5.219   1.531
   81SOL    HW2 1143   3.857   5.148   1.670
   82SOL     OW 1144   2.783   6.324   1.862
   82SOL    HW1 1145   2.809   6.342   1.767
   82SOL    HW2 1146   2.748   6.407   1.904
   83SOL     OW 1147   5.229   1.099   3.821
   83SOL    HW1 1148   5.150   1.049   3.787
   83SOL    HW2 1149   5.255   1.169   3.754
   84SOL     OW 1150   5.786   2.755   2.863
   84SOL    HW1 1151   5.719   2.717   2.926
   84SOL    HW2 1152   5.851   2.812   2.914
   85SOL     OW 1153   2.627   6.542   3.392
   85SOL    HW1 1154   2.668   6.520   3.303
   85SOL    HW2 1155   2.633   6.641   3.408
   86SOL     OW 1156   5.164   6.962   0.392
   86SOL    HW1 1157   5.118   6.877   0.366
   86SOL    HW2 1158   5.244   6.976   0.333
   87SOL     OW 1159   2.652   3.747   6.643
   87SOL    HW1 1160   2.712   3.668   6.655
   87SOL    HW2 1161   2.616   3.774   6.732
   88SOL     OW 1162   2.645   3.451   1.454
   88SOL    HW1 1163   2.586   3.380   1.416
   88SOL    HW2 1164   2.600   3.494   1.532
   89SOL     OW 1165   2.980   3.272   4.073
   89SOL    HW1 1166   2.913   3.325   4.127
   89SOL    HW2 1167   3.069   3.318   4.076
   90SOL     OW 1168   5.688   3.657   2.216
   90SOL    HW1 1169   5.605   3.682   2.165
   90SOL    HW2 1170   5.769   3.684   2.164
   91SOL     OW 1171   4.216   5.617   6.061
   91SOL    HW1 1172   4.243   5.521   6.071
   91SOL    HW2 1173   4.197   5.656   6.151
   92SOL     OW 1174   5.082   4.119   0.137
   92SOL    HW1 1175   5.120   4.171   0.214
   92SOL    HW2 1176   5.153   4.106   0.067
   93SOL     OW 1177   3.029   3.777   2.074
   93SOL    HW1 1178   2.930   3.765   2.071
   93SOL    HW2 1179   3.071   3.740   1.991
   94SOL     OW 1180   2.988   2.152   4.291
   94SOL    HW1 1181   3.065   2.179   4.348
   94SOL    HW2 1182   2.926   2.229   4.280
   95SOL     OW 1183   0.174   0.639   3.925
   95SOL    HW1 1184   0.265   0.605   3.902
   95SOL    HW2 1185   0.106   0.567   3.906
   96SOL     OW 1186   6.951   5.142   6.671
   96SOL    HW1 1187   6.916   5.149   6.764
   96SOL    HW2 1188   6.884   5.181   6.607
   97SOL     OW 1189   2.368   4.409   5.732
   97SOL    HW1 1190   2.341   4.392   5.827
   97SOL    HW2 1191   2.369   4.508   5.716
   98SOL     OW 1192   0.835   2.128   3.761
   98SOL    HW1 1193   0.765   2.099   3.696
   98SOL    HW2 1194   0.909   2.175   3.712
   99SOL     OW 1195   3.279   4.269   5.236
   99SOL    HW1 1196   3.320   4.220   5.313
   99SOL    HW2 1197   3.325   4.242   5.151
  100SOL     OW 1198   0.341   0.427   4.996
  100SOL    HW1 1199   0.327   0.332   4.969
  100SOL    HW2 1200   0.361   0.431   5.094
  101SOL     OW 1201   5.161   3.513   2.796
  101SOL    HW1 1202   5.218   3.530   2.716
  101SOL    HW2 1203   5.155   3.415   2.812
  102SOL     OW 1204   4.110   0.684   0.018
  102SOL    HW1 1205   4.108   0.781   7.014
  102SOL    HW2 1206   4.051   0.668   0.097
  103SOL     OW 1207   1.225   1.271   1.911
  103SOL    HW1 1208   1.302   1.311   1.960
  103SOL    HW2 1209   1.258   1.198   1.851
  104SOL     OW 1210   6.616   4.466   1.809
  104SOL    HW1 1211   6.573   4.547   1.849
  104SOL    HW2 1212   6.654   4.490   1.719
  105SOL     OW 1213   6.863   0.423   5.029
  105SOL    HW1 1214   6.911   0.348   5.075
  105SOL    HW2 1215   6.895   0.429   4.935
  106SOL     OW 1216   4.374   3.072   1.425
  106SOL    HW1 1217   4.416   3.160   1.402
  106SOL    HW2 1218   4.385   3.055   1.523
  107SOL     OW 1219   5.999   6.938   1.612
  107SOL    HW1 1220   5.998   6.949   1.711
  107SOL    HW2 1221   6.007   6.841   1.589
  108SOL     OW 1222   2.989   1.185   4.750
  108SOL    HW1 1223   2.948   1.189   4.841
  108SOL    HW2 1224   2.993   1.090   4.719
  109SOL     OW 1225   1.805   1.121   4.939
  109SOL    HW1 1226   1.897   1.084   4.926
  109SOL    HW2 1227   1.797   1.209   4.892
  110SOL     OW 1228   3.410   4.104   5.432
  110SOL    HW1 1229   3.496   4.114   5.483
  110SOL    HW2 1230   3.397   4.009   5.405
  111SOL     OW 1231   5.874   2.613   1.009
  111SOL    HW1 1232   5.970   2.637   1.020
  111SOL    HW2 1233   5.864   2.547   0.934
  112SOL     OW 1234   5.259   0.204   6.551
  112SOL    HW1 1235   5.259   0.144   6.471
  112SOL    HW2 1236   5.350   0.203   6.592
  113SOL     OW 1237   0.352   5.197   2.499
  113SOL    HW1 1238   0.323   5.109   2.462
  113SOL    HW2 1239   0.340   5.268   2.429
  114SOL     OW 1240   0.148   2.305   2.058
  114SOL    HW1 1241   0.058   2.263   2.051
  114SOL    HW2 1242   0.139   2.405   2.054
  115SOL     OW 1243   5.128   6.584   3.538
  115SOL    HW1 1244   5.171   6.538   3.460
  115SOL    HW2 1245   5.060   6.523   3.579
  116SOL     OW 1246   6.985   5.024   0.483
  116SOL    HW1 1247   0.005   5.081   0.412
  116SOL    HW2 1248   7.015   5.055   0.573
  117SOL     OW 1249   2.488   2.587   0.202
  117SOL    HW1 1250   2.556   2.553   0.136
  117SOL    HW2 1251   2.485   2.687   0.199
  118SOL     OW 1252   6.811   1.984   2.818
  118SOL    HW1 1253   6.869   1.937   2.885
  118SOL    HW2 1254   6.756   2.054   2.864
  119SOL     OW 1255   6.204   0.568   5.160
  119SOL    HW1 1256   6.127   0.606   5.110
  119SOL    HW2 1257   6.288   0.615   5.134
  120SOL     OW 1258   4.417   0.800   4.306
  120SOL    HW1 1259   4.501   0.761   4.344
  120SOL    HW2 1260   4.390   0.748   4.225
  121SOL     OW 1261   0.373   5.222   6.898
  121SOL    HW1 1262   0.317   5.150   6.937
  121SOL    HW2 1263   0.317   5.276   6.834
  122SOL     OW 1264   6.762   5.104   6.112
  122SOL    HW1 1265   6.665   5.123   6.125
  122SOL    HW2 1266   6.781   5.092   6.015
  123SOL     OW 1267   0.801   2.683   1.797
  123SOL    HW1 1268   0.817   2.754   1.866
  123SOL    HW2 1269   0.717   2.634   1.819
  124SOL     OW 1270   1.262   3.596   0.222
  124SOL    HW1 1271   1.181   3.611   0.165
  124SOL    HW2 1272   1.268   3.500   0.247
  125SOL     OW 1273   4.721   2.831   0.318
  125SOL    HW1 1274   4.809   2.792   0.346
  125SOL    HW2 1275   4.659   2.835   0.397
  126SOL     OW 1276   3.752   2.906   4.235
  126SOL    HW1 1277   3.653   2.901   4.246
  126SOL    HW2 1278   3.777   2.882   4.141
  127SOL     OW 1279   0.660   4.742   5.244
  127SOL    HW1 1280   0.621   4.814   5.300
  127SOL    HW2 1281   0.722   4.686   5.299
  128SOL     OW 1282   4.900   3.908   6.781
  128SOL    HW1 1283   4.873   3.855   6.861
  128SOL    HW2 1284   4.997   3.894   6.763
  129SOL     OW 1285   0.126   5.648   2.372
  129SOL    HW1 1286   0.053   5.581   2.362
  129SOL    HW2 1287   0.123   5.688   2.464
  130SOL     OW 1288   6.188   2.694   4.426
  130SOL    HW1 1289   6.146   2.770   4.375
  130SOL    HW2 1290   6.242   2.731   4.501
  131SOL     OW 1291   0.795   3.022   3.357
  131SOL    HW1 1292   0.895   3.017   3.362
  131SOL    HW2 1293   0.756   3.002   3.447
  132SOL     OW 1294   3.925   2.668   0.905
  132SOL    HW1 1295   3.947   2.572   0.890
  132SOL    HW2 1296   3.970   2.700   0.988
  133SOL     OW 1297   4.612   5.987   5.805
  133SOL    HW1 1298   4.702   6.024   5.828
  133SOL    HW2 1299   4.617   5.940   5.717
  134SOL     OW 1300   5.918   1.850   1.131
  134SOL    HW1 1301   5.993   1.915   1.141
  134SOL    HW2 1302   5.955   1.757   1.125
  135SOL     OW 1303   4.868   3.611   3.851
  135SOL    HW1 1304   4.856   3.581   3.757
  135SOL    HW2 1305   4.866   3.710   3.855
  136SOL     OW 1306   3.729   0.938   6.325
  136SOL    HW1 1307   3.667   0.917   6.400
  136SOL    HW2 1308   3.795   1.008   6.354
  137SOL     OW 1309   2.548   3.330   6.084
  137SOL    HW1 1310   2.582   3.395   6.016
  137SOL    HW2 1311   2.450   3.346   6.099
  138SOL     OW 1312   1.199   5.237   6.643
  138SOL    HW1 1313   1.155   5.225   6.554
  138SOL    HW2 1314   1.134   5.209   6.715
  139SOL     OW 1315   1.187   0.257   0.989
  139SOL    HW1 1316   1.235   0.307   0.917
  139SOL    HW2 1317   1.246   0.182   1.022
  140SOL     OW 1318   4.426   0.603   1.455
  140SOL    HW1 1319   4.366   0.528   1.483
  140SOL    HW2 1320   4.403   0.631   1.362
  141SOL     OW 1321   0.381   3.030   0.708
  141SOL    HW1 1322   0.421   3.120   0.726
  141SOL    HW2 1323   0.395   2.972   0.788
  142SOL     OW 1324   2.248   3.745   0.860
  142SOL    HW1 1325   2.176   3.766   0.793
  142SOL    HW2 1326   2.335   3.735   0.813
  143SOL     OW 1327   4.242   6.362   1.980
  143SOL    HW1 1328   4.270   6.419   2.058
  143SOL    HW2 1329   4.323   6.329   1.932
  144SOL     OW 1330   3.022   5.753   2.907
  144SOL    HW1 1331   3.002   5.706   2.993
  144SOL    HW2 1332   3.052   5.846   2.927
  145SOL     OW 1333   0.331   5.044   3.436
  145SOL    HW1 1334   0.245   4.993   3.428
  145SOL    HW2 1335   0.329   5.121   3.372
  146SOL     OW 1336   4.977   0.919   6.274
  146SOL    HW1 1337   5.070   0.939   6.304
  146SOL    HW2 1338   4.975   0.828   6.231
  147SOL     OW 1339   4.333   0.651   4.760
  147SOL    HW1 1340   4.279   0.568   4.743
  147SOL    HW2 1341   4.408   0.630   4.822
  148SOL     OW 1342   1.869   5.924   1.355
  148SOL    HW1 1343   1.846   5.916   1.452
  148SOL    HW2 1344   1.809   5.991   1.311
  149SOL     OW 1345   1.917   2.522   4.318
  149SOL    HW1 1346   1.984   2.449   4.331
  149SOL    HW2 1347   1.965   2.610   4.309
  150SOL     OW 1348   4.128   1.328   4.934
  150SOL    HW1 1349   4.060   1.364   4.998
  150SOL    HW2 1350   4.207   1.294   4.984
  151SOL     OW 1351   5.664   2.513   0.722
  151SOL    HW1 1352   5.644   2.535   0.817
  151SOL    HW2 1353   5.623   2.581   0.662
  152SOL     OW 1354   0.649   2.383   1.284
  152SOL    HW1 1355   0.626   2.340   1.371
  152SOL    HW2 1356   0.722   2.450   1.299
  153SOL     OW 1357   2.290   1.407   3.812
  153SOL    HW1 1358   2.371   1.443   3.858
  153SOL    HW2 1359   2.313   1.387   3.716
  154SOL     OW 1360   6.433   2.549   2.603
  154SOL    HW1 1361   6.381   2.626   2.641
  154SOL    HW2 1362   6.496   2.582   2.532
  155SOL     OW 1363   6.770   5.451   3.114
  155SOL    HW1 1364   6.790   5.358   3.083
  155SOL    HW2 1365   6.698   5.491   3.057
  156SOL     OW 1366   5.063   2.508   0.503
  156SOL    HW1 1367   5.055   2.409   0.514
  156SOL    HW2 1368   5.148   2.539   0.544
  157SOL     OW 1369   5.048   6.499   1.164
  157SOL    HW1 1370   5.035   6.457   1.074
  157SOL    HW2 1371   5.077   6.428   1.230
  158SOL     OW 1372   0.632   2.619   3.859
  158SOL    HW1 1373   0.712   2.559   3.853
  158SOL    HW2 1374   0.582   2.617   3.773
  159SOL     OW 1375   6.336   5.200   0.879
  159SOL    HW1 1376   6.327   5.193   0.779
  159SOL    HW2 1377   6.409   5.139   0.910
  160SOL     OW 1378   5.562   0.454   1.193
  160SOL    HW1 1379   5.529   0.382   1.254
  160SOL    HW2 1380   5.555   0.542   1.239
  161SOL     OW 1381   6.355   0.072   0.758
  161SOL    HW1 1382   6.372   0.142   0.688
  161SOL    HW2 1383   6.321   7.009   0.714
  162SOL     OW 1384   4.321   0.159   6.363
  162SOL    HW1 1385   4.346   0.076   6.313
  162SOL    HW2 1386   4.233   0.193   6.331
  163SOL     OW 1387   0.858   3.573   2.230
  163SOL    HW1 1388   0.900   3.519   2.158
  163SOL    HW2 1389   0.924   3.640   2.264
  164SOL     OW 1390   2.912   1.815   3.060
  164SOL    HW1 1391   2.834   1.822   2.998
  164SOL    HW2 1392   2.932   1.905   3.099
  165SOL     OW 1393   6.817   0.082   3.870
  165SOL    HW1 1394   6.820   0.045   3.963
  165SOL    HW2 1395   6.723   0.078   3.836
  166SOL     OW 1396   6.515   4.565   3.974
  166SOL    HW1 1397   6.586   4.591   3.909
  166SOL    HW2 1398   6.552   4.501   4.041
  167SOL     OW 1399   2.194   1.462   5.534
  167SOL    HW1 1400   2.138   1.543   5.515
  167SOL    HW2 1401   2.278   1.491   5.581
  168SOL     OW 1402   3.904   3.521   1.524
  168SOL    HW1 1403   3.843   3.506   1.446
  168SOL    HW2 1404   3.956   3.438   1.542
  169SOL     OW 1405   4.798   2.059   1.092
  169SOL    HW1 1406   4.718   2.102   1.049
  169SOL    HW2 1407   4.864   2.129   1.117
  170SOL     OW 1408   6.031   5.619   1.156
  170SOL    HW1 1409   5.969   5.637   1.232
  170SOL    HW2 1410   5.978   5.588   1.077
  171SOL     OW 1411   3.549   2.893   1.250
  171SOL    HW1 1412   3.598   2.975   1.223
  171SOL    HW2 1413   3.487   2.865   1.176
  172SOL     OW 1414   1.156   1.737   6.485
  172SOL    HW1 1415   1.196   1.794   6.413
  172SOL    HW2 1416   1.206   1.750   6.570
  173SOL     OW 1417   6.250   1.686   3.977
  173SOL    HW1 1418   6.178   1.634   4.023
  173SOL    HW2 1419   6.209   1.746   3.908
  174SOL     OW 1420   5.607   4.346   4.484
  174SOL    HW1 1421   5.666   4.427   4.491
  174SOL    HW2 1422   5.571   4.340   4.391
  175SOL     OW 1423   0.263   6.503   2.930
  175SOL    HW1 1424   0.268   6.518   3.029
  175SOL    HW2 1425   0.202   6.570   2.889
  176SOL     OW 1426   5.896   3.492   1.658
  176SOL    HW1 1427   5.971   3.449   1.607
  176SOL    HW2 1428   5.816   3.432   1.658
  177SOL     OW 1429   6.026   2.481   3.668
  177SOL    HW1 1430   6.112   2.479   3.720
  177SOL    HW2 1431   5.998   2.387   3.649
  178SOL     OW 1432   2.664   5.689   4.739
  178SOL    HW1 1433   2.584   5.714   4.684
  178SOL    HW2 1434   2.645   5.605   4.790
  179SOL     OW 1435   3.139   4.163   1.453
  179SOL    HW1 1436   3.114   4.069   1.478
  179SOL    HW2 1437   3.193   4.204   1.527
  180SOL     OW 1438   4.634   1.078   6.981
  180SOL    HW1 1439   4.644   0.992   6.930
  180SOL    HW2 1440   4.689   1.149   6.937
  181SOL     OW 1441   3.497   2.292   6.043
  181SOL    HW1 1442   3.416   2.240   6.016
  181SOL    HW2 1443   3.538   2.252   6.125
  182SOL     OW 1444   3.267   2.612   5.847
  182SOL    HW1 1445   3.220   2.524   5.838
  182SOL    HW2 1446   3.258   2.663   5.761
  183SOL     OW 1447   2.769   0.622   3.561
  183SOL    HW1 1448   2.813   0.673   3.634
  183SOL    HW2 1449   2.783   0.524   3.575
  184SOL     OW 1450   5.300   5.684   3.917
  184SOL    HW1 1451   5.362   5.619   3.872
  184SOL    HW2 1452   5.208   5.645   3.922
  185SOL     OW 1453   0.110   0.258   4.656
  185SOL    HW1 1454   0.033   0.197   4.640
  185SOL    HW2 1455   0.172   0.256   4.578
  186SOL     OW 1456   3.543   6.039   5.014
  186SOL    HW1 1457   3.462   6.095   4.996
  186SOL    HW2 1458   3.567   6.046   5.111
  187SOL     OW 1459   4.213   6.075   1.684
  187SOL    HW1 1460   4.122   6.062   1.645
  187SOL    HW2 1461   4.219   6.028   1.772
  188SOL     OW 1462   1.242   3.270   3.007
  188SOL    HW1 1463   1.233   3.290   3.105
  188SOL    HW2 1464   1.157   3.296   2.960
  189SOL     OW 1465   5.466   5.080   5.328
  189SOL    HW1 1466   5.391   5.016   5.344
  189SOL    HW2 1467   5.485   5.086   5.230
  190SOL     OW 1468   5.870   0.257   0.742
  190SOL    HW1 1469   5.955   0.247   0.794
  190SOL    HW2 1470   5.882   0.330   0.674
  191SOL     OW 1471   0.413   1.972   5.589
  191SOL    HW1 1472   0.410   1.960   5.688
  191SOL    HW2 1473   0.380   2.063   5.565
  192SOL     OW 1474   0.505   5.471   1.092
  192SOL    HW1 1475   0.441   5.533   1.137
  192SOL    HW2 1476   0.592   5.518   1.078
  193SOL     OW 1477   2.179   0.088   0.575
  193SOL    HW1 1478   2.212   0.157   0.640
  193SOL    HW2 1479   2.180   7.018   0.620
  194SOL     OW 1480   3.931   5.952   2.334
  194SOL    HW1 1481   3.888   5.944   2.424
  194SOL    HW2 1482   4.002   5.881   2.325
  195SOL     OW 1483   4.054   0.622   1.244
  195SOL    HW1 1484   4.065   0.590   1.338
  195SOL    HW2 1485   3.976   0.685   1.239
  196SOL     OW 1486   3.717   2.469   0.689
  196SOL    HW1 1487   3.801   2.457   0.743
  196SOL    HW2 1488   3.644   2.414   0.729
  197SOL     OW 1489   1.688   6.051   0.585
  197SOL    HW1 1490   1.700   6.150   0.585
  197SOL    HW2 1491   1.766   6.008   0.630
  198SOL     OW 1492   3.855   0.002   6.647
  198SOL    HW1 1493   3.912   6.995   6.724
  198SOL    HW2 1494   3.884   0.092   6.614
  199SOL     OW 1495   0.659   0.374   2.766
  199SOL    HW1 1496   0.627   0.448   2.825
  199SOL    HW2 1497   0.739   0.330   2.808
  200SOL     OW 1498   0.962   4.864   3.194
  200SOL    HW1 1499   0.906   4.781   3.199
  200SOL    HW2 1500   0.994   4.876   3.100
  201SOL     OW 1501   5.235   1.352   6.549
  201SOL    HW1 1502   5.174   1.336   6.627
  201SOL    HW2 1503   5.228   1.276   6.484
  202SOL     OW 1504   3.600   1.049   2.289
  202SOL    HW1 1505   3.607   1.080   2.384
  202SOL    HW2 1506   3.649   1.113   2.229
  203SOL     OW 1507   5.969   2.805   6.642
  203SOL    HW1 1508   5.943   2.752   6.723
  203SOL    HW2 1509   6.030   2.750   6.585
  204SOL     OW 1510   2.573   6.712   1.651
  204SOL    HW1 1511   2.647   6.776   1.633
  204SOL    HW2 1512   2.509   6.752   1.717
  205SOL     OW 1513   5.672   0.779   0.960
  205SOL    HW1 1514   5.661   0.787   0.861
  205SOL    HW2 1515   5.691   0.684   0.983
  206SOL     OW 1516   0.557   5.120   1.789
  206SOL    HW1 1517   0.533   5.036   1.838
  206SOL    HW2 1518   0.638   5.105   1.733
  207SOL     OW 1519   4.666   1.713   5.502
  207SOL    HW1 1520   4.660   1.615   5.522
  207SOL    HW2 1521   4.740   1.728   5.435
  208SOL     OW 1522   3.588   4.929   6.325
  208SOL    HW1 1523   3.628   4.847   6.367
  208SOL    HW2 1524   3.489   4.928   6.340
  209SOL     OW 1525   6.752   5.344   5.068
  209SOL    HW1 1526   6.683   5.379   5.130
  209SOL    HW2 1527   6.728   5.250   5.041
  210SOL     OW 1528   3.877   2.068   2.077
  210SOL    HW1 1529   3.958   2.104   2.032
  210SOL    HW2 1530   3.796   2.115   2.043
  211SOL     OW 1531   1.246   2.217   1.910
  211SOL    HW1 1532   1.175   2.282   1.883
  211SOL    HW2 1533   1.204   2.131   1.937
  212SOL     OW 1534   0.791   4.735   4.531
  212SOL    HW1 1535   0.744   4.781   4.605
  212SOL    HW2 1536   0.753   4.765   4.443
  213SOL     OW 1537   4.377   2.571   6.566
  213SOL    HW1 1538   4.299   2.606   6.617
  213SOL    HW2 1539   4.366   2.473   6.551
  214SOL     OW 1540   1.572   6.575   3.243
  214SOL    HW1 1541   1.601   6.498   3.300
  214SOL    HW2 1542   1.521   6.541   3.164
  215SOL     OW 1543   3.528   3.427   2.980
  215SOL    HW1 1544   3.562   3.516   3.011
  215SOL    HW2 1545   3.604   3.370   2.950
  216SOL     OW 1546   1.440   6.347   5.708
  216SOL    HW1 1547   1.366   6.348   5.641
  216SOL    HW2 1548   1.427   6.421   5.774
  217SOL     OW 1549   0.316   2.693   3.978
  217SOL    HW1 1550   0.226   2.726   4.003
  217SOL    HW2 1551   0.386   2.749   4.021
  218SOL     OW 1552   2.131   4.018   5.637
  218SOL    HW1 1553   2.182   4.067   5.708
  218SOL    HW2 1554   2.101   4.083   5.567
  219SOL     OW 1555   4.304   5.485   0.757
  219SOL    HW1 1556   4.220   5.444   0.792
  219SOL    HW2 1557   4.383   5.432   0.790
  220SOL     OW 1558   1.664   4.574   0.621
  220SOL    HW1 1559   1.585   4.604   0.674
  220SOL    HW2 1560   1.636   4.555   0.527
  221SOL     OW 1561   6.532   2.825   4.006
  221SOL    HW1 1562   6.533   2.725   4.018
  221SOL    HW2 1563   6.462   2.865   4.066
  222SOL     OW 1564   1.085   6.082   4.728
  222SOL    HW1 1565   1.017   6.104   4.798
  222SOL    HW2 1566   1.147   6.159   4.716
  223SOL     OW 1567   5.881   4.363   2.482
  223SOL    HW1 1568   5.831   4.395   2.563
  223SOL    HW2 1569   5.978   4.382   2.494
  224SOL     OW 1570   3.505   2.057   2.165
  224SOL    HW1 1571   3.542   2.136   2.116
  224SOL    HW2 1572   3.405   2.059   2.161
  225SOL     OW 1573   0.159   0.228   1.244
  225SOL    HW1 1574   0.128   0.278   1.163
  225SOL    HW2 1575   0.149   0.130   1.229
  226SOL     OW 1576   0.343   5.870   1.419
  226SOL    HW1 1577   0.386   5.870   1.509
  226SOL    HW2 1578   0.379   5.947   1.365
  227SOL     OW 1579   1.874   2.803   2.999
  227SOL    HW1 1580   1.851   2.869   3.071
  227SOL    HW2 1581   1.971   2.812   2.976
  228SOL     OW 1582   4.021   6.623   2.666
  228SOL    HW1 1583   4.108   6.672   2.663
  228SOL    HW2 1584   3.996   6.604   2.761
  229SOL     OW 1585   6.127   5.822   3.135
  229SOL    HW1 1586   6.072   5.883   3.192
  229SOL    HW2 1587   6.070   5.745   3.105
  230SOL     OW 1588   0.818   4.193   5.866
  230SOL    HW1 1589   0.731   4.146   5.885
  230SOL    HW2 1590   0.866   4.210   5.952
  231SOL     OW 1591   0.708   1.749   0.348
  231SOL    HW1 1592   0.728   1.847   0.351
  231SOL    HW2 1593   0.632   1.732   0.286
  232SOL     OW 1594   1.997   4.438   6.488
  232SOL    HW1 1595   1.967   4.346   6.464
  232SOL    HW2 1596   1.919   4.502   6.481
  233SOL     OW 1597   3.338   0.992   6.127
  233SOL    HW1 1598   3.331   0.992   6.227
  233SOL    HW2 1599   3.246   0.997   6.087
  234SOL     OW 1600   2.667   5.615   6.902
  234SOL    HW1 1601   2.743   5.675   6.874
  234SOL    HW2 1602   2.600   5.610   6.829
  235SOL     OW 1603   3.975   3.047   4.334
  235SOL    HW1 1604   3.972   3.059   4.433
  235SOL    HW2 1605   3.914   2.972   4.307
  236SOL     OW 1606   6.685   1.812   5.592
  236SOL    HW1 1607   6.774   1.766   5.591
  236SOL    HW2 1608   6.646   1.812   5.500
  237SOL     OW 1609   7.009   6.623   2.000
  237SOL    HW1 1610   6.926   6.674   1.976
  237SOL    HW2 1611   6.990   6.525   1.996
  238SOL     OW 1612   6.884   2.138   2.096
  238SOL    HW1 1613   6.886   2.158   2.194
  238SOL    HW2 1614   6.799   2.090   2.074
  239SOL     OW 1615   0.321   5.684   0.868
  239SOL    HW1 1616   0.402   5.686   0.927
  239SOL    HW2 1617   0.282   5.775   0.861
  240SOL     OW 1618   6.911   2.778   5.685
  240SOL    HW1 1619   6.814   2.790   5.663
  240SOL    HW2 1620   6.923   2.781   5.784
  241SOL     OW 1621   6.398   1.787   4.201
  241SOL    HW1 1622   6.362   1.742   4.118
  241SOL    HW2 1623   6.375   1.884   4.198
  242SOL     OW 1624   2.052   2.698   3.453
  242SOL    HW1 1625   2.137   2.665   3.495
  242SOL    HW2 1626   2.003   2.621   3.412
  243SOL     OW 1627   3.994   0.996   6.143
  243SOL    HW1 1628   4.074   0.991   6.083
  243SOL    HW2 1629   4.021   1.036   6.230
  244SOL     OW 1630   6.696   0.572   6.167
  244SOL    HW1 1631   6.722   0.482   6.203
  244SOL    HW2 1632   6.755   0.642   6.207
  245SOL     OW 1633   5.791   2.949   3.648
  245SOL    HW1 1634   5.884   2.921   3.669
  245SOL    HW2 1635   5.750   2.885   3.584
  246SOL     OW 1636   4.880   3.542   3.598
  246SOL    HW1 1637   4.868   3.590   3.511
  246SOL    HW2 1638   4.978   3.527   3.615
  247SOL     OW 1639   3.000   0.125   3.463
  247SOL    HW1 1640   2.918   0.078   3.495
  247SOL    HW2 1641   3.067   0.129   3.537
  248SOL     OW 1642   6.550   1.330   2.038
  248SOL    HW1 1643   6.557   1.289   1.947
  248SOL    HW2 1644   6.455   1.356   2.056
  249SOL     OW 1645   2.094   6.208   4.265
  249SOL    HW1 1646   2.149   6.254   4.334
  249SOL    HW2 1647   2.090   6.110   4.285
  250SOL     OW 1648   5.541   3.154   6.424
  250SOL    HW1 1649   5.580   3.241   6.454
  250SOL    HW2 1650   5.487   3.114   6.498
  251SOL     OW 1651   2.039   2.465   0.853
  251SOL    HW1 1652   2.006   2.532   0.786
  251SOL    HW2 1653   2.132   2.489   0.881
  252SOL     OW 1654   0.865   1.550   0.467
  252SOL    HW1 1655   0.885   1.511   0.378
  252SOL    HW2 1656   0.818   1.638   0.456
  253SOL     OW 1657   1.543   3.876   5.624
  253SOL    HW1 1658   1.515   3.786   5.658
  253SOL    HW2 1659   1.642   3.886   5.635
  254SOL     OW 1660   5.140   3.699   5.831
  254SOL    HW1 1661   5.161   3.793   5.803
  254SOL    HW2 1662   5.065   3.700   5.896
  255SOL     OW 1663   3.309   1.909   2.902
  255SOL    HW1 1664   3.258   1.842   2.955
  255SOL    HW2 1665   3.279   1.905   2.806
  256SOL     OW 1666   0.091   5.606   1.007
  256SOL    HW1 1667   0.163   5.643   0.948
  256SOL    HW2 1668   0.121   5.519   1.047
  257SOL     OW 1669   3.283   5.513   6.590
  257SOL    HW1 1670   3.311   5.424   6.625
  257SOL    HW2 1671   3.305   5.584   6.658
  258SOL     OW 1672   4.804   4.089   4.112
  258SOL    HW1 1673   4.780   4.024   4.185
  258SOL    HW2 1674   4.889   4.060   4.068
  259SOL     OW 1675   1.332   2.088   3.593
  259SOL    HW1 1676   1.340   2.160   3.524
  259SOL    HW2 1677   1.423   2.051   3.613
  260SOL     OW 1678   6.541   6.812   5.738
  260SOL    HW1 1679   6.544   6.911   5.733
  260SOL    HW2 1680   6.451   6.782   5.769
  261SOL     OW 1681   0.229   1.606   3.004
  261SOL    HW1 1682   0.182   1.601   3.092
  261SOL    HW2 1683   0.273   1.695   2.994
  262SOL     OW 1684   2.108   4.652   2.002
  262SOL    HW1 1685   2.189   4.596   2.023
  262SOL    HW2 1686   2.066   4.683   2.087
  263SOL     OW 1687   6.335   2.679   5.220
  263SOL    HW1 1688   6.302   2.738   5.147
  263SOL    HW2 1689   6.277   2.691   5.301
  264SOL     OW 1690   3.415   3.791   6.297
  264SOL    HW1 1691   3.350   3.717   6.278
  264SOL    HW2 1692   3.503   3.751   6.322
  265SOL     OW 1693   5.227   5.707   4.913
  265SOL    HW1 1694   5.142   5.681   4.869
  265SOL    HW2 1695   5.237   5.657   4.999
  266SOL     OW 1696   3.420   2.825   6.365
  266SOL    HW1 1697   3.490   2.877   6.315
  266SOL    HW2 1698   3.367   2.770   6.300
  267SOL     OW 1699   1.852   1.163   6.183
  267SOL    HW1 1700   1.788   1.221   6.134
  267SOL    HW2 1701   1.932   1.217   6.211
  268SOL     OW 1702   3.213   5.671   3.783
  268SOL    HW1 1703   3.186   5.590   3.731
  268SOL    HW2 1704   3.304   5.701   3.753
  269SOL     OW 1705   1.500   0.907   4.848
  269SOL    HW1 1706   1.412   0.937   4.812
  269SOL    HW2 1707   1.487   0.864   4.938
  270SOL     OW 1708   5.269   6.585   4.604
  270SOL    HW1 1709   5.231   6.640   4.531
  270SOL    HW2 1710   5.196   6.536   4.652
  271SOL     OW 1711   1.642   1.840   0.656
  271SOL    HW1 1712   1.630   1.743   0.679
  271SOL    HW2 1713   1.563   1.892   0.689
  272SOL     OW 1714   4.858   5.920   1.939
  272SOL    HW1 1715   4.825   5.885   2.026
  272SOL    HW2 1716   4.875   6.019   1.947
  273SOL     OW 1717   2.813   6.524   4.459
  273SOL    HW1 1718   2.765   6.577   4.389
  273SOL    HW2 1719   2.788   6.557   4.550
  274SOL     OW 1720   5.908   1.525   0.864
  274SOL    HW1 1721   5.914   1.607   0.808
  274SOL    HW2 1722   5.827   1.472   0.837
  275SOL     OW 1723   5.346   6.081   5.754
  275SOL    HW1 1724   5.376   6.125   5.669
  275SOL    HW2 1725   5.351   5.982   5.743
  276SOL     OW 1726   6.833   6.599   4.174
  276SOL    HW1 1727   6.742   6.618   4.211
  276SOL    HW2 1728   6.849   6.501   4.173
  277SOL     OW 1729   4.586   2.384   5.343
  277SOL    HW1 1730   4.571   2.476   5.305
  277SOL    HW2 1731   4.603   2.320   5.268
  278SOL     OW 1732   5.811   3.963   3.464
  278SOL    HW1 1733   5.764   4.042   3.504
  278SOL    HW2 1734   5.746   3.912   3.407
  279SOL     OW 1735   0.297   3.583   3.903
  279SOL    HW1 1736   0.367   3.638   3.857
  279SOL    HW2 1737   0.299   3.600   4.001
  280SOL     OW 1738   4.060   1.538   3.629
  280SOL    HW1 1739   4.107   1.561   3.544
  280SOL    HW2 1740   3.999   1.614   3.654
  281SOL     OW 1741   5.143   6.581   4.962
  281SOL    HW1 1742   5.135   6.484   4.939
  281SOL    HW2 1743   5.230   6.598   5.008
  282SOL     OW 1744   1.301   2.602   0.443
  282SOL    HW1 1745   1.284   2.693   0.481
  282SOL    HW2 1746   1.397   2.594   0.418
  283SOL     OW 1747   5.161   3.593   4.518
  283SOL    HW1 1748   5.074   3.559   4.484
  283SOL    HW2 1749   5.163   3.586   4.618
  284SOL     OW 1750   5.165   5.802   2.735
  284SOL    HW1 1751   5.116   5.715   2.739
  284SOL    HW2 1752   5.128   5.859   2.662
  285SOL     OW 1753   4.213   0.932   5.947
  285SOL    HW1 1754   4.197   0.964   5.853
  285SOL    HW2 1755   4.274   0.997   5.993
  286SOL     OW 1756   2.801   4.813   5.583
  286SOL    HW1 1757   2.870   4.876   5.548
  286SOL    HW2 1758   2.728   4.803   5.516
  287SOL     OW 1759   3.764   0.117   0.152
  287SOL    HW1 1760   3.675   0.161   0.161
  287SOL    HW2 1761   3.753   0.029   0.107
  288SOL     OW 1762   4.630   1.849   0.691
  288SOL    HW1 1763   4.567   1.866   0.767
  288SOL    HW2 1764   4.577   1.821   0.611
  289SOL     OW 1765   6.473   5.431   4.076
  289SOL    HW1 1766   6.495   5.500   4.007
  289SOL    HW2 1767   6.400   5.465   4.135
  290SOL     OW 1768   3.816   0.783   6.141
  290SOL    HW1 1769   3.878   0.849   6.099
  290SOL    HW2 1770   3.775   0.823   6.223
  291SOL     OW 1771   3.934   0.542   5.505
  291SOL    HW1 1772   4.031   0.564   5.515
  291SOL    HW2 1773   3.880   0.626   5.503
  292SOL     OW 1774   4.294   0.131   3.893
  292SOL    HW1 1775   4.220   0.196   3.876
  292SOL    HW2 1776   4.360   0.173   3.956
  293SOL     OW 1777   5.392   6.311   2.617
  293SOL    HW1 1778   5.320   6.372   2.649
  293SOL    HW2 1779   5.465   6.365   2.575
  294SOL     OW 1780   6.339   1.299   6.484
  294SOL    HW1 1781   6.390   1.213   6.474
  294SOL    HW2 1782   6.397   1.375   6.456
  295SOL     OW 1783   1.048   0.478   4.526
  295SOL    HW1 1784   0.974   0.442   4.469
  295SOL    HW2 1785   1.010   0.528   4.603
  296SOL     OW 1786   0.876   2.381   2.018
  296SOL    HW1 1787   0.875   2.293   1.971
  296SOL    HW2 1788   0.785   2.401   2.054
  297SOL     OW 1789   5.675   3.552   3.161
  297SOL    HW1 1790   5.576   3.558   3.174
  297SOL    HW2 1791   5.700   3.598   3.076
  298SOL     OW 1792   4.544   0.946   6.036
  298SOL    HW1 1793   4.491   0.965   6.119
  298SOL    HW2 1794   4.638   0.975   6.049
  299SOL     OW 1795   1.100   0.592   6.602
  299SOL    HW1 1796   1.131   0.670   6.656
  299SOL    HW2 1797   1.127   0.507   6.647
  300SOL     OW 1798   4.256   0.094   3.418
  300SOL    HW1 1799   4.315   0.082   3.498
  300SOL    HW2 1800   4.199   0.013   3.406
  301SOL     OW 1801   6.159   5.382   6.798
  301SOL    HW1 1802   6.231   5.444   6.768
  301SOL    HW2 1803   6.176   5.354   6.893
  302SOL     OW 1804   6.795   5.857   2.431
  302SOL    HW1 1805   6.736   5.908   2.493
  302SOL    HW2 1806   6.889   5.892   2.439
  303SOL     OW 1807   5.510   5.385   3.442
  303SOL    HW1 1808   5.434   5.338   3.486
  303SOL    HW2 1809   5.587   5.322   3.433
  304SOL     OW 1810   2.464   6.045   4.766
  304SOL    HW1 1811   2.468   5.969   4.701
  304SOL    HW2 1812   2.547   6.100   4.757
  305SOL     OW 1813   0.849   2.390   1.686
  305SOL    HW1 1814   0.837   2.477   1.733
  305SOL    HW2 1815   0.863   2.317   1.753
  306SOL     OW 1816   0.051   6.955   3.308
  306SOL    HW1 1817   0.034   6.864   3.346
  306SOL    HW2 1818   0.068   7.019   3.382
  307SOL     OW 1819   3.620   3.220   4.275
  307SOL    HW1 1820   3.699   3.274   4.303
  307SOL    HW2 1821   3.642   3.170   4.191
  308SOL     OW 1822   6.249   2.201   2.830
  308SOL    HW1 1823   6.232   2.156   2.918
  308SOL    HW2 1824   6.283   2.294   2.847
  309SOL     OW 1825   1.698   5.563   6.757
  309SOL    HW1 1826   1.669   5.656   6.779
  309SOL    HW2 1827   1.775   5.538   6.816
  310SOL     OW 1828   5.401   6.653   5.057
  310SOL    HW1 1829   5.490   6.613   5.079
  310SOL    HW2 1830   5.414   6.731   4.996
  311SOL     OW 1831   1.644   5.995   2.485
  311SOL    HW1 1832   1.571   6.001   2.416
  311SOL    HW2 1833   1.634   5.910   2.536
  312SOL     OW 1834   3.605   0.152   3.666
  312SOL    HW1 1835   3.529   0.111   3.716
  312SOL    HW2 1836   3.579   0.243   3.635
  313SOL     OW 1837   3.135   3.774   2.598
  313SOL    HW1 1838   3.069   3.749   2.527
  313SOL    HW2 1839   3.171   3.865   2.580
  314SOL     OW 1840   3.042   5.681   5.960
  314SOL    HW1 1841   2.981   5.727   6.024
  314SOL    HW2 1842   3.062   5.742   5.884
  315SOL     OW 1843   6.123   1.038   4.663
  315SOL    HW1 1844   6.175   1.123   4.667
  315SOL    HW2 1845   6.149   0.979   4.739
  316SOL     OW 1846   4.291   0.950   6.268
  316SOL    HW1 1847   4.349   0.917   6.343
  316SOL    HW2 1848   4.244   0.873   6.225
  317SOL     OW 1849   1.010   2.173   0.969
  317SOL    HW1 1850   0.927   2.144   1.017
  317SOL    HW2 1851   0.984   2.231   0.891
  318SOL     OW 1852   0.577   0.161   5.553
  318SOL    HW1 1853   0.650   0.201   5.498
  318SOL    HW2 1854   0.519   0.234   5.589
  319SOL     OW 1855   0.037   1.096   3.778
  319SOL    HW1 1856   0.052   1.181   3.829
  319SOL    HW2 1857   0.058   1.018   3.836
  320SOL     OW 1858   5.507   1.926   6.778
  320SOL    HW1 1859   5.537   1.838   6.815
  320SOL    HW2 1860   5.575   1.996   6.801
  321SOL     OW 1861   5.087   2.820   0.791
  321SOL    HW1 1862   5.071   2.751   0.861
  321SOL    HW2 1863   5.004   2.830   0.735
  322SOL     OW 1864   3.062   2.862   6.516
  322SOL    HW1 1865   3.053   2.916   6.599
  322SOL    HW2 1866   3.047   2.765   6.537
  323SOL     OW 1867   2.067   4.044   2.705
  323SOL    HW1 1868   2.130   3.976   2.743
  323SOL    HW2 1869   2.050   4.116   2.772
  324SOL     OW 1870   0.377   6.974   2.550
  324SOL    HW1 1871   0.423   6.886   2.538
  324SOL    HW2 1872   0.434   0.015   2.605
  325SOL     OW 1873   0.221   4.223   0.678
  325SOL    HW1 1874   0.157   4.269   0.739
  325SOL    HW2 1875   0.307   4.207   0.727
  326SOL     OW 1876   0.677   6.350   6.938
  326SOL    HW1 1877   0.684   6.301   6.852
  326SOL    HW2 1878   0.616   6.300   7.000
  327SOL     OW 1879   5.033   5.442   4.997
  327SOL    HW1 1880   4.978   5.526   5.005
  327SOL    HW2 1881   5.013   5.382   5.075
  328SOL     OW 1882   1.246   4.695   3.100
  328SOL    HW1 1883   1.146   4.684   3.107
  328SOL    HW2 1884   1.271   4.788   3.125
  329SOL     OW 1885   3.356   3.343   1.699
  329SOL    HW1 1886   3.403   3.430   1.689
  329SOL    HW2 1887   3.337   3.327   1.796
  330SOL     OW 1888   2.901   4.453   0.695
  330SOL    HW1 1889   2.868   4.543   0.667
  330SOL    HW2 1890   2.974   4.423   0.634
  331SOL     OW 1891   6.146   5.067   5.831
  331SOL    HW1 1892   6.057   5.113   5.828
  331SOL    HW2 1893   6.148   5.004   5.909
  332SOL     OW 1894   5.541   2.656   2.970
  332SOL    HW1 1895   5.542   2.563   3.006
  332SOL    HW2 1896   5.474   2.711   3.020
  333SOL     OW 1897   3.209   0.973   5.199
  333SOL    HW1 1898   3.186   1.051   5.140
  333SOL    HW2 1899   3.125   0.925   5.224
  334SOL     OW 1900   3.624   3.668   3.380
  334SOL    HW1 1901   3.557   3.596   3.361
  334SOL    HW2 1902   3.712   3.627   3.405
  335SOL     OW 1903   4.232   1.568   0.950
  335SOL    HW1 1904   4.314   1.582   0.894
  335SOL    HW2 1905   4.156   1.619   0.910
  336SOL     OW 1906   3.311   1.336   4.371
  336SOL    HW1 1907   3.237   1.295   4.318
  336SOL    HW2 1908   3.290   1.331   4.468
  337SOL     OW 1909   1.093   0.683   5.300
  337SOL    HW1 1910   1.010   0.731   5.332
  337SOL    HW2 1911   1.173   0.726   5.342
  338SOL     OW 1912   4.242   1.462   1.223
  338SOL    HW1 1913   4.248   1.534   1.154
  338SOL    HW2 1914   4.233   1.504   1.313
  339SOL     OW 1915   3.987   5.556   5.840
  339SOL    HW1 1916   3.930   5.624   5.795
  339SOL    HW2 1917   4.014   5.590   5.931
  340SOL     OW 1918   4.990   1.851   3.953
  340SOL    HW1 1919   5.048   1.777   3.988
  340SOL    HW2 1920   4.915   1.812   3.900
  341SOL     OW 1921   6.550   6.104   3.147
  341SOL    HW1 1922   6.546   6.007   3.171
  341SOL    HW2 1923   6.536   6.115   3.049
  342SOL     OW 1924   5.148   2.042   2.536
  342SOL    HW1 1925   5.109   2.134   2.527
  342SOL    HW2 1926   5.092   1.987   2.598
  343SOL     OW 1927   6.864   6.754   2.544
  343SOL    HW1 1928   6.840   6.695   2.621
  343SOL    HW2 1929   6.926   6.705   2.483
  344SOL     OW 1930   0.633   2.086   0.846
  344SOL    HW1 1931   0.568   2.161   0.851
  344SOL    HW2 1932   0.663   2.061   0.938
  345SOL     OW 1933   6.744   2.831   4.329
  345SOL    HW1 1934   6.770   2.734   4.329
  345SOL    HW2 1935   6.651   2.841   4.293
  346SOL     OW 1936   2.353   6.663   3.758
  346SOL    HW1 1937   2.348   6.619   3.847
  346SOL    HW2 1938   2.383   6.758   3.770
  347SOL     OW 1939   2.447   4.709   0.355
  347SOL    HW1 1940   2.351   4.725   0.332
  347SOL    HW2 1941   2.493   4.797   0.368
  348SOL     OW 1942   4.742   5.261   1.424
  348SOL    HW1 1943   4.687   5.314   1.360
  348SOL    HW2 1944   4.755   5.313   1.509
  349SOL     OW 1945   5.964   4.074   0.861
  349SOL    HW1 1946   6.039   4.064   0.796
  349SOL    HW2 1947   5.954   3.990   0.914
  350SOL     OW 1948   3.579   2.791   0.242
  350SOL    HW1 1949   3.575   2.714   0.178
  350SOL    HW2 1950   3.609   2.873   0.194
  351SOL     OW 1951   3.301   4.560   1.107
  351SOL    HW1 1952   3.398   4.537   1.106
  351SOL    HW2 1953   3.251   4.494   1.163
  352SOL     OW 1954   4.856   0.467   2.545
  352SOL    HW1 1955   4.864   0.540   2.613
  352SOL    HW2 1956   4.889   0.381   2.585
  353SOL     OW 1957   1.587   0.255   6.631
  353SOL    HW1 1958   1.506   0.212   6.594
  353SOL    HW2 1959   1.655   0.268   6.559
  354SOL     OW 1960   0.213   2.111   0.257
  354SOL    HW1 1961   0.186   2.106   0.353
  354SOL    HW2 1962   0.241   2.205   0.235
  355SOL     OW 1963   1.114   2.030   2.743
  355SOL    HW1 1964   1.032   1.999   2.697
  355SOL    HW2 1965   1.102   2.021   2.842
  356SOL     OW 1966   1.853   1.008   5.790
  356SOL    HW1 1967   1.861   0.997   5.691
  356SOL    HW2 1968   1.896   0.931   5.837
  357SOL     OW 1969   5.003   0.382   5.062
  357SOL    HW1 1970   4.992   0.323   5.142
  357SOL    HW2 1971   5.087   0.358   5.013
  358SOL     OW 1972   3.405   6.119   6.428
  358SOL    HW1 1973   3.342   6.043   6.410
  358SOL    HW2 1974   3.367   6.177   6.500
  359SOL     OW 1975   1.973   2.225   2.408
  359SOL    HW1 1976   1.984   2.126   2.399
  359SOL    HW2 1977   1.893   2.254   2.355
  360SOL     OW 1978   0.757   4.773   4.125
  360SOL    HW1 1979   0.785   4.850   4.182
  360SOL    HW2 1980   0.657   4.769   4.121
  361SOL     OW 1981   6.750   1.823   2.625
  361SOL    HW1 1982   6.737   1.735   2.670
  361SOL    HW2 1983   6.781   1.891   2.691
  362SOL     OW 1984   3.779   3.954   0.722
  362SOL    HW1 1985   3.816   3.990   0.807
  362SOL    HW2 1986   3.692   3.998   0.702
  363SOL     OW 1987   5.199   5.433   1.472
  363SOL    HW1 1988   5.169   5.346   1.510
  363SOL    HW2 1989   5.243   5.417   1.384
  364SOL     OW 1990   1.038   6.856   6.377
  364SOL    HW1 1991   1.066   6.860   6.473
  364SOL    HW2 1992   0.974   6.931   6.357
  365SOL     OW 1993   5.193   1.942   3.371
  365SOL    HW1 1994   5.287   1.930   3.405
  365SOL    HW2 1995   5.130   1.891   3.430
  366SOL     OW 1996   5.578   1.376   6.629
  366SOL    HW1 1997   5.558   1.427   6.712
  366SOL    HW2 1998   5.525   1.413   6.553
  367SOL     OW 1999   5.763   1.504   6.347
  367SOL    HW1 2000   5.858   1.530   6.363
  367SOL    HW2 2001   5.719   1.571   6.288
  368SOL     OW 2002   6.832   2.243   5.629
  368SOL    HW1 2003   6.765   2.243   5.555
  368SOL    HW2 2004   6.839   2.334   5.668
  369SOL     OW 2005   6.761   3.777   1.678
  369SOL    HW1 2006   6.793   3.849   1.616
  369SOL    HW2 2007   6.687   3.726   1.635
  370SOL     OW 2008   1.713   3.035   3.771
  370SOL    HW1 2009   1.619   3.033   3.807
  370SOL    HW2 2010   1.732   2.949   3.724
  371SOL     OW 2011   0.879   4.709   6.638
  371SOL    HW1 2012   0.882   4.630   6.699
  371SOL    HW2 2013   0.963   4.763   6.649
  372SOL     OW 2014   3.903   6.172   6.372
  372SOL    HW1 2015   3.948   6.083   6.376
  372SOL    HW2 2016   3.804   6.159   6.375
  373SOL     OW 2017   5.698   5.119   3.797
  373SOL    HW1 2018   5.772   5.133   3.731
  373SOL    HW2 2019   5.714   5.177   3.877
  374SOL     OW 2020   2.608   1.123   2.941
  374SOL    HW1 2021   2.673   1.057   2.901
  374SOL    HW2 2022   2.629   1.215   2.907
  375SOL     OW 2023   1.231   5.486   4.314
  375SOL    HW1 2024   1.279   5.405   4.350
  375SOL    HW2 2025   1.149   5.457   4.264
  376SOL     OW 2026   2.908   0.715   3.811
  376SOL    HW1 2027   2.902   0.658   3.894
  376SOL    HW2 2028   2.939   0.807   3.836
  377SOL     OW 2029   1.597   1.855   0.099
  377SOL    HW1 2030   1.688   1.819   0.081
  377SOL    HW2 2031   1.552   1.879   0.013
  378SOL     OW 2032   4.058   1.172   1.963
  378SOL    HW1 2033   4.153   1.205   1.964
  378SOL    HW2 2034   4.040   1.119   2.045
  379SOL     OW 2035   5.402   1.902   6.184
  379SOL    HW1 2036   5.396   1.877   6.281
  379SOL    HW2 2037   5.341   1.843   6.130
  380SOL     OW 2038   4.308   2.549   0.304
  380SOL    HW1 2039   4.369   2.549   0.225
  380SOL    HW2 2040   4.337   2.619   0.369
  381SOL     OW 2041   1.576   3.723   3.075
  381SOL    HW1 2042   1.604   3.815   3.105
  381SOL    HW2 2043   1.610   3.706   2.983
  382SOL     OW 2044   4.564   0.839   6.839
  382SOL    HW1 2045   4.601   0.843   6.746
  382SOL    HW2 2046   4.467   0.816   6.836
  383SOL     OW 2047   5.383   1.847   0.827
  383SOL    HW1 2048   5.376   1.803   0.737
  383SOL    HW2 2049   5.468   1.900   0.831
  384SOL     OW 2050   6.361   3.828   4.767
  384SOL    HW1 2051   6.350   3.927   4.772
  384SOL    HW2 2052   6.345   3.797   4.674
  385SOL     OW 2053   3.953   3.103   7.018
  385SOL    HW1 2054   4.027   3.152   0.043
  385SOL    HW2 2055   3.973   3.094   6.920
  386SOL     OW 2056   3.848   6.059   3.708
  386SOL    HW1 2057   3.756   6.050   3.670
  386SOL    HW2 2058   3.902   5.978   3.684
  387SOL     OW 2059   3.325   6.602   3.491
  387SOL    HW1 2060   3.278   6.558   3.567
  387SOL    HW2 2061   3.258   6.648   3.432
  388SOL     OW 2062   1.818   4.483   6.960
  388SOL    HW1 2063   1.789   4.389   6.979
  388SOL    HW2 2064   1.736   4.541   6.951
  389SOL     OW 2065   3.051   3.143   2.880
  389SOL    HW1 2066   2.995   3.220   2.911
  389SOL    HW2 2067   3.074   3.085   2.958
  390SOL     OW 2068   2.194   1.266   4.018
  390SOL    HW1 2069   2.230   1.323   3.943
  390SOL    HW2 2070   2.196   1.319   4.103
  391SOL     OW 2071   0.629   2.647   6.832
  391SOL    HW1 2072   0.544   2.650   6.779
  391SOL    HW2 2073   0.675   2.736   6.827
  392SOL     OW 2074   2.962   5.705   3.165
  392SOL    HW1 2075   3.006   5.651   3.237
  392SOL    HW2 2076   2.871   5.667   3.147
  393SOL     OW 2077   5.964   4.117   4.747
  393SOL    HW1 2078   5.907   4.103   4.667
  393SOL    HW2 2079   6.035   4.184   4.726
  394SOL     OW 2080   2.405   0.300   6.885
  394SOL    HW1 2081   2.325   0.360   6.876
  394SOL    HW2 2082   2.488   0.352   6.864
  395SOL     OW 2083   6.436   3.117   0.651
  395SOL    HW1 2084   6.380   3.128   0.569
  395SOL    HW2 2085   6.456   3.207   0.690
  396SOL     OW 2086   3.015   3.303   4.695
  396SOL    HW1 2087   3.013   3.257   4.606
  396SOL    HW2 2088   3.030   3.235   4.767
  397SOL     OW 2089   4.694   2.301   6.640
  397SOL    HW1 2090   4.621   2.316   6.708
  397SOL    HW2 2091   4.663   2.234   6.573
  398SOL     OW 2092   1.239   5.276   2.016
  398SOL    HW1 2093   1.281   5.305   2.102
  398SOL    HW2 2094   1.150   5.320   2.006
  399SOL     OW 2095   5.320   5.140   2.019
  399SOL    HW1 2096   5.302   5.233   2.052
  399SOL    HW2 2097   5.419   5.125   2.014
  400SOL     OW 2098   1.537   5.565   5.303
  400SOL    HW1 2099   1.588   5.634   5.356
  400SOL    HW2 2100   1.601   5.500   5.263
  401SOL     OW 2101   5.434   1.503   6.430
  401SOL    HW1 2102   5.360   1.452   6.474
  401SOL    HW2 2103   5.450   1.465   6.338
  402SOL     OW 2104   6.061   4.993   1.068
  402SOL    HW1 2105   6.078   4.896   1.082
  402SOL    HW2 2106   6.141   5.046   1.097
  403SOL     OW 2107   5.312   3.527   6.435
  403SOL    HW1 2108   5.246   3.482   6.495
  403SOL    HW2 2109   5.313   3.625   6.454
  404SOL     OW 2110   0.352   0.024   4.654
  404SOL    HW1 2111   0.294   0.054   4.730
  404SOL    HW2 2112   0.303   6.976   4.600
  405SOL     OW 2113   0.646   2.289   0.511
  405SOL    HW1 2114   0.714   2.219   0.534
  405SOL    HW2 2115   0.688   2.379   0.514
  406SOL     OW 2116   1.781   3.276   3.644
  406SOL    HW1 2117   1.811   3.349   3.706
  406SOL    HW2 2118   1.736   3.204   3.697
  407SOL     OW 2119   2.616   0.544   4.597
  407SOL    HW1 2120   2.681   0.519   4.526
  407SOL    HW2 2121   2.524   0.550   4.558
  408SOL     OW 2122   1.944   0.175   2.969
  408SOL    HW1 2123   1.956   0.082   2.934
  408SOL    HW2 2124   1.847   0.199   2.967
  409SOL     OW 2125   6.056   3.576   3.698
  409SOL    HW1 2126   5.979   3.592   3.636
  409SOL    HW2 2127   6.139   3.563   3.645
  410SOL     OW 2128   2.510   1.702   6.348
  410SOL    HW1 2129   2.597   1.660   6.372
  410SOL    HW2 2130   2.444   1.687   6.421
  411SOL     OW 2131   6.630   4.287   5.253
  411SOL    HW1 2132   6.673   4.212   5.305
  411SOL    HW2 2133   6.637   4.371   5.306
  412SOL     OW 2134   3.637   0.148   2.356
  412SOL    HW1 2135   3.632   0.208   2.436
  412SOL    HW2 2136   3.545   0.127   2.324
  413SOL     OW 2137   2.704   6.780   0.880
  413SOL    HW1 2138   2.648   6.717   0.933
  413SOL    HW2 2139   2.646   6.843   0.829
  414SOL     OW 2140   4.063   3.913   0.377
  414SOL    HW1 2141   4.158   3.945   0.378
  414SOL    HW2 2142   4.061   3.818   0.345
  415SOL     OW 2143   3.000   6.423   1.719
  415SOL    HW1 2144   2.921   6.469   1.679
  415SOL    HW2 2145   2.996   6.325   1.700
  416SOL     OW 2146   3.859   6.179   4.900
  416SOL    HW1 2147   3.781   6.144   4.848
  416SOL    HW2 2148   3.893   6.108   4.962
  417SOL     OW 2149   4.878   5.836   1.232
  417SOL    HW1 2150   4.805   5.781   1.272
  417SOL    HW2 2151   4.953   5.845   1.297
  418SOL     OW 2152   5.378   4.913   0.953
  418SOL    HW1 2153   5.459   4.972   0.947
  418SOL    HW2 2154   5.406   4.820   0.978
  419SOL     OW 2155   6.030   6.689   1.531
  419SOL    HW1 2156   6.129   6.674   1.528
  419SOL    HW2 2157   5.983   6.614   1.484
  420SOL     OW 2158   4.249   4.559   0.246
  420SOL    HW1 2159   4.258   4.570   0.346
  420SOL    HW2 2160   4.153   4.563   0.221
  421SOL     OW 2161   1.838   6.065   6.468
  421SOL    HW1 2162   1.830   6.023   6.559
  421SOL    HW2 2163   1.934   6.090   6.452
  422SOL     OW 2164   5.755   3.493   6.707
  422SOL    HW1 2165   5.854   3.512   6.704
  422SOL    HW2 2166   5.728   3.449   6.621
  423SOL     OW 2167   0.377   2.626   6.742
  423SOL    HW1 2168   0.379   2.528   6.727
  423SOL    HW2 2169   0.332   2.646   6.829
  424SOL     OW 2170   2.713   3.620   0.466
  424SOL    HW1 2171   2.756   3.560   0.398
  424SOL    HW2 2172   2.674   3.564   0.539
  425SOL     OW 2173   2.905   1.279   0.539
  425SOL    HW1 2174   2.970   1.268   0.614
  425SOL    HW2 2175   2.819   1.314   0.575
  426SOL     OW 2176   5.876   3.957   5.514
  426SOL    HW1 2177   5.884   3.975   5.612
  426SOL    HW2 2178   5.917   4.033   5.463
  427SOL     OW 2179   5.209   3.935   0.930
  427SOL    HW1 2180   5.173   3.842   0.929
  427SOL    HW2 2181   5.152   3.993   0.989
  428SOL     OW 2182   3.751   0.967   4.800
  428SOL    HW1 2183   3.804   1.049   4.822
  428SOL    HW2 2184   3.741   0.959   4.701
  429SOL     OW 2185   1.639   5.282   6.707
  429SOL    HW1 2186   1.666   5.376   6.726
  429SOL    HW2 2187   1.720   5.227   6.686
  430SOL     OW 2188   1.163   0.410   5.300
  430SOL    HW1 2189   1.153   0.509   5.300
  430SOL    HW2 2190   1.173   0.378   5.205
  431SOL     OW 2191   3.682   1.836   0.604
  431SOL    HW1 2192   3.671   1.932   0.576
  431SOL    HW2 2193   3.609   1.812   0.668
  432SOL     OW 2194   0.410   1.952   1.078
  432SOL    HW1 2195   0.418   1.895   0.996
  432SOL    HW2 2196   0.458   2.038   1.064
  433SOL     OW 2197   3.512   6.521   5.503
  433SOL    HW1 2198   3.531   6.555   5.411
  433SOL    HW2 2199   3.481   6.427   5.499
  434SOL     OW 2200   0.333   3.581   1.318
  434SOL    HW1 2201   0.289   3.641   1.384
  434SOL    HW2 2202   0.427   3.612   1.302
  435SOL     OW 2203   3.720   4.382   0.215
  435SOL    HW1 2204   3.651   4.438   0.169
  435SOL    HW2 2205   3.685   4.289   0.228
  436SOL     OW 2206   2.068   1.139   0.018
  436SOL    HW1 2207   2.054   1.225   0.066
  436SOL    HW2 2208   2.119   1.076   0.077
  437SOL     OW 2209   6.709   6.883   6.728
  437SOL    HW1 2210   6.614   6.895   6.697
  437SOL    HW2 2211   6.759   6.968   6.717
  438SOL     OW 2212   1.199   2.751   2.045
  438SOL    HW1 2213   1.264   2.688   2.003
  438SOL    HW2 2214   1.249   2.821   2.097
  439SOL     OW 2215   6.569   5.033   3.086
  439SOL    HW1 2216   6.575   4.935   3.107
  439SOL    HW2 2217   6.559   5.085   3.171
  440SOL     OW 2218   0.980   2.678   3.792
  440SOL    HW1 2219   0.964   2.581   3.810
  440SOL    HW2 2220   0.939   2.702   3.705
  441SOL     OW 2221   0.735   1.442   3.793
  441SOL    HW1 2222   0.775   1.449   3.885
  441SOL    HW2 2223   0.807   1.419   3.728
  442SOL     OW 2224   0.239   3.979   0.146
  442SOL    HW1 2225   0.167   3.992   0.215
  442SOL    HW2 2226   0.283   3.891   0.161
  443SOL     OW 2227   0.512   4.326   5.621
  443SOL    HW1 2228   0.447   4.353   5.550
  443SOL    HW2 2229   0.606   4.340   5.588
  444SOL     OW 2230   4.235   3.145   6.490
  444SOL    HW1 2231   4.311   3.206   6.469
  444SOL    HW2 2232   4.163   3.197   6.537
  445SOL     OW 2233   2.223   4.584   3.160
  445SOL    HW1 2234   2.125   4.563   3.149
  445SOL    HW2 2235   2.237   4.683   3.151
  446SOL     OW 2236   4.767   4.982   3.830
  446SOL    HW1 2237   4.792   4.900   3.779
  446SOL    HW2 2238   4.739   5.053   3.765
  447SOL     OW 2239   6.491   5.564   0.748
  447SOL    HW1 2240   6.538   5.526   0.828
  447SOL    HW2 2241   6.513   5.511   0.667
  448SOL     OW 2242   4.223   0.736   5.143
  448SOL    HW1 2243   4.313   0.698   5.166
  448SOL    HW2 2244   4.231   0.797   5.065
  449SOL     OW 2245   5.343   0.198   4.763
  449SOL    HW1 2246   5.318   0.240   4.851
  449SOL    HW2 2247   5.381   0.268   4.703
  450SOL     OW 2248   0.040   6.304   3.760
  450SOL    HW1 2249   0.119   6.317   3.701
  450SOL    HW2 2250   7.008   6.389   3.765
  451SOL     OW 2251   0.783   2.661   3.213
  451SOL    HW1 2252   0.725   2.580   3.222
  451SOL    HW2 2253   0.727   2.738   3.184
  452SOL     OW 2254   6.671   4.975   6.457
  452SOL    HW1 2255   6.733   4.911   6.502
  452SOL    HW2 2256   6.590   4.927   6.425
  453SOL     OW 2257   2.718   1.196   6.278
  453SOL    HW1 2258   2.631   1.244   6.293
  453SOL    HW2 2259   2.777   1.207   6.358
  454SOL     OW 2260   0.923   5.949   0.033
  454SOL    HW1 2261   0.911   5.986   6.961
  454SOL    HW2 2262   1.017   5.966   0.064
  455SOL     OW 2263   5.077   0.969   6.000
  455SOL    HW1 2264   5.040   0.988   6.091
  455SOL    HW2 2265   5.062   1.048   5.941
  456SOL     OW 2266   4.248   5.790   5.848
  456SOL    HW1 2267   4.302   5.871   5.874
  456SOL    HW2 2268   4.238   5.730   5.927
  457SOL     OW 2269   2.230   5.043   2.936
  457SOL    HW1 2270   2.264   5.120   2.882
  457SOL    HW2 2271   2.141   5.065   2.974
  458SOL     OW 2272   6.627   5.235   5.846
  458SOL    HW1 2273   6.620   5.302   5.919
  458SOL    HW2 2274   6.638   5.282   5.758
  459SOL     OW 2275   1.836   0.434   3.079
  459SOL    HW1 2276   1.736   0.431   3.081
  459SOL    HW2 2277   1.871   0.419   3.172
  460SOL     OW 2278   6.432   1.962   3.049
  460SOL    HW1 2279   6.480   1.913   3.122
  460SOL    HW2 2280   6.340   1.988   3.081
  461SOL     OW 2281   4.465   6.155   5.252
  461SOL    HW1 2282   4.553   6.164   5.298
  461SOL    HW2 2283   4.400   6.110   5.313
  462SOL     OW 2284   3.012   3.069   6.723
  462SOL    HW1 2285   3.074   3.103   6.794
  462SOL    HW2 2286   2.925   3.043   6.764
  463SOL     OW 2287   6.643   5.212   2.422
  463SOL    HW1 2288   6.580   5.223   2.345
  463SOL    HW2 2289   6.613   5.271   2.498
  464SOL     OW 2290   1.942   1.579   5.735
  464SOL    HW1 2291   1.986   1.660   5.696
  464SOL    HW2 2292   1.916   1.598   5.830
  465SOL     OW 2293   6.835   2.577   4.279
  465SOL    HW1 2294   6.807   2.550   4.187
  465SOL    HW2 2295   6.830   2.497   4.339
  466SOL     OW 2296   1.432   0.037   3.972
  466SOL    HW1 2297   1.490   0.119   3.968
  466SOL    HW2 2298   1.343   0.061   4.008
  467SOL     OW 2299   1.288   0.841   5.437
  467SOL    HW1 2300   1.329   0.762   5.483
  467SOL    HW2 2301   1.263   0.909   5.506
  468SOL     OW 2302   3.600   4.771   1.047
  468SOL    HW1 2303   3.504   4.757   1.070
  468SOL    HW2 2304   3.653   4.692   1.075
  469SOL     OW 2305   2.047   5.554   6.775
  469SOL    HW1 2306   2.087   5.474   6.732
  469SOL    HW2 2307   1.965   5.528   6.825
  470SOL     OW 2308   4.091   0.281   2.431
  470SOL    HW1 2309   4.157   0.260   2.503
  470SOL    HW2 2310   4.087   0.205   2.366
  471SOL     OW 2311   2.068   2.743   4.683
  471SOL    HW1 2312   2.105   2.786   4.766
  471SOL    HW2 2313   2.144   2.718   4.622
  472SOL     OW 2314   4.060   4.794   5.676
  472SOL    HW1 2315   3.964   4.774   5.658
  472SOL    HW2 2316   4.083   4.884   5.639
  473SOL     OW 2317   1.501   3.327   2.656
  473SOL    HW1 2318   1.505   3.397   2.585
  473SOL    HW2 2319   1.448   3.360   2.734
  474SOL     OW 2320   4.488   5.087   4.667
  474SOL    HW1 2321   4.587   5.075   4.672
  474SOL    HW2 2322   4.468   5.178   4.631
  475SOL     OW 2323   0.129   6.541   5.939
  475SOL    HW1 2324   0.037   6.512   5.914
  475SOL    HW2 2325   0.165   6.602   5.868
  476SOL     OW 2326   6.740   4.406   2.688
  476SOL    HW1 2327   6.805   4.451   2.749
  476SOL    HW2 2328   6.782   4.393   2.598
  477SOL     OW 2329   2.142   5.259   3.767
  477SOL    HW1 2330   2.226   5.205   3.766
  477SOL    HW2 2331   2.067   5.203   3.803
  478SOL     OW 2332   3.176   5.267   3.362
  478SOL    HW1 2333   3.154   5.183   3.314
  478SOL    HW2 2334   3.154   5.257   3.459
  479SOL     OW 2335   3.530   2.673   0.752
  479SOL    HW1 2336   3.601   2.604   0.733
  479SOL    HW2 2337   3.555   2.723   0.835
  480SOL     OW 2338   0.754   6.769   2.477
  480SOL    HW1 2339   0.838   6.806   2.437
  480SOL    HW2 2340   0.765   6.671   2.493
  481SOL     OW 2341   3.880   0.271   1.428
  481SOL    HW1 2342   3.878   0.354   1.485
  481SOL    HW2 2343   3.973   0.256   1.395
  482SOL     OW 2344   5.615   4.368   2.300
  482SOL    HW1 2345   5.682   4.327   2.362
  482SOL    HW2 2346   5.588   4.458   2.336
  483SOL     OW 2347   5.876   1.843   1.963
  483SOL    HW1 2348   5.816   1.791   1.902
  483SOL    HW2 2349   5.864   1.941   1.945
  484SOL     OW 2350   0.122   2.502   4.472
  484SOL    HW1 2351   0.096   2.418   4.424
  484SOL    HW2 2352   0.208   2.537   4.433
  485SOL     OW 2353   3.622   5.193   2.233
  485SOL    HW1 2354   3.612   5.265   2.165
  485SOL    HW2 2355   3.624   5.232   2.324
  486SOL     OW 2356   0.432   0.286   0.986
  486SOL    HW1 2357   0.523   0.298   1.026
  486SOL    HW2 2358   0.408   0.189   0.986
  487SOL     OW 2359   0.129   2.387   6.867
  487SOL    HW1 2360   0.074   2.356   6.944
  487SOL    HW2 2361   0.105   2.482   6.844
  488SOL     OW 2362   0.379   2.361   2.253
  488SOL    HW1 2363   0.316   2.372   2.176
  488SOL    HW2 2364   0.341   2.406   2.334
  489SOL     OW 2365   3.235   5.864   6.349
  489SOL    HW1 2366   3.161   5.876   6.415
  489SOL    HW2 2367   3.274   5.772   6.359
  490SOL     OW 2368   5.827   6.607   4.466
  490SOL    HW1 2369   5.849   6.511   4.448
  490SOL    HW2 2370   5.905   6.651   4.511
  491SOL     OW 2371   1.257   2.732   2.919
  491SOL    HW1 2372   1.184   2.717   2.986
  491SOL    HW2 2373   1.274   2.647   2.869
  492SOL     OW 2374   2.024   0.438   5.767
  492SOL    HW1 2375   1.990   0.382   5.692
  492SOL    HW2 2376   1.947   0.482   5.814
  493SOL     OW 2377   6.316   4.627   5.290
  493SOL    HW1 2378   6.326   4.571   5.208
  493SOL    HW2 2379   6.350   4.719   5.272
  494SOL     OW 2380   0.172   0.175   0.810
  494SOL    HW1 2381   0.209   0.113   0.740
  494SOL    HW2 2382   0.248   0.212   0.864
  495SOL     OW 2383   4.988   4.215   1.597
  495SOL    HW1 2384   5.049   4.136   1.607
  495SOL    HW2 2385   4.910   4.189   1.540
  496SOL     OW 2386   5.937   3.311   2.881
  496SOL    HW1 2387   5.839   3.287   2.883
  496SOL    HW2 2388   5.968   3.316   2.786
  497SOL     OW 2389   4.010   0.564   4.697
  497SOL    HW1 2390   4.052   0.604   4.779
  497SOL    HW2 2391   4.035   0.620   4.618
  498SOL     OW 2392   0.912   2.750   2.917
  498SOL    HW1 2393   0.978   2.718   2.985
  498SOL    HW2 2394   0.960   2.786   2.838
  499SOL     OW 2395   3.242   0.950   4.832
  499SOL    HW1 2396   3.317   0.885   4.839
  499SOL    HW2 2397   3.280   1.042   4.820
  500SOL     OW 2398   1.048   3.932   2.600
  500SOL    HW1 2399   1.058   3.957   2.696
  500SOL    HW2 2400   0.965   3.877   2.588
  501SOL     OW 2401   1.447   3.192   6.695
  501SOL    HW1 2402   1.374   3.185   6.762
  501SOL    HW2 2403   1.515   3.259   6.725
  502SOL     OW 2404   4.160   5.204   7.000
  502SOL    HW1 2405   4.156   5.258   0.064
  502SOL    HW2 2406   4.182   5.263   6.923
  503SOL     OW 2407   5.979   4.721   5.522
  503SOL    HW1 2408   5.926   4.750   5.602
  503SOL    HW2 2409   6.067   4.684   5.553
  504SOL     OW 2410   2.384   6.327   4.470
  504SOL    HW1 2411   2.416   6.411   4.426
  504SOL    HW2 2412   2.292   6.341   4.507
  505SOL     OW 2413   4.111   0.183   5.773
  505SOL    HW1 2414   4.204   0.178   5.810
  505SOL    HW2 2415   4.045   0.194   5.847
  506SOL     OW 2416   2.263   4.376   6.040
  506SOL    HW1 2417   2.168   4.362   6.067
  506SOL    HW2 2418   2.315   4.412   6.117
  507SOL     OW 2419   3.336   0.351   4.742
  507SOL    HW1 2420   3.431   0.329   4.764
  507SOL    HW2 2421   3.331   0.387   4.649
  508SOL     OW 2422   6.853   4.045   3.249
  508SOL    HW1 2423   6.788   4.074   3.178
  508SOL    HW2 2424   6.812   3.971   3.303
  509SOL     OW 2425   4.710   1.568   1.817
  509SOL    HW1 2426   4.688   1.663   1.795
  509SOL    HW2 2427   4.792   1.541   1.766
  510SOL     OW 2428   6.880   4.266   4.541
  510SOL    HW1 2429   6.909   4.348   4.492
  510SOL    HW2 2430   6.954   4.198   4.539
  511SOL     OW 2431   0.482   6.710   0.423
  511SOL    HW1 2432   0.557   6.773   0.400
  511SOL    HW2 2433   0.423   6.700   0.343
  512SOL     OW 2434   1.100   3.875   6.306
  512SOL    HW1 2435   1.129   3.880   6.210
  512SOL    HW2 2436   1.158   3.935   6.362
  513SOL     OW 2437   6.291   6.057   4.583
  513SOL    HW1 2438   6.316   5.966   4.549
  513SOL    HW2 2439   6.326   6.068   4.676
  514SOL     OW 2440   5.719   1.988   3.944
  514SOL    HW1 2441   5.644   2.023   4.001
  514SOL    HW2 2442   5.686   1.977   3.850
  515SOL     OW 2443   1.746   6.539   6.277
  515SOL    HW1 2444   1.647   6.529   6.286
  515SOL    HW2 2445   1.790   6.505   6.360
  516SOL     OW 2446   2.142   5.120   1.835
  516SOL    HW1 2447   2.107   5.096   1.744
  516SOL    HW2 2448   2.152   5.219   1.842
  517SOL     OW 2449   4.578   6.721   0.841
  517SOL    HW1 2450   4.547   6.726   0.746
  517SOL    HW2 2451   4.504   6.746   0.903
  518SOL     OW 2452   2.451   2.746   1.391
  518SOL    HW1 2453   2.438   2.759   1.490
  518SOL    HW2 2454   2.417   2.655   1.365
  519SOL     OW 2455   0.397   0.185   6.174
  519SOL    HW1 2456   0.372   0.218   6.083
  519SOL    HW2 2457   0.405   0.086   6.172
  520SOL     OW 2458   5.485   4.755   5.554
  520SOL    HW1 2459   5.524   4.807   5.630
  520SOL    HW2 2460   5.499   4.657   5.570
  521SOL     OW 2461   6.940   1.638   0.128
  521SOL    HW1 2462   6.897   1.655   0.217
  521SOL    HW2 2463   0.017   1.615   0.142
  522SOL     OW 2464   3.825   3.419   4.307
  522SOL    HW1 2465   3.900   3.433   4.242
  522SOL    HW2 2466   3.767   3.501   4.309
  523SOL     OW 2467   6.995   6.832   4.736
  523SOL    HW1 2468   6.919   6.773   4.709
  523SOL    HW2 2469   0.012   6.800   4.824
  524SOL     OW 2470   2.492   1.039   5.741
  524SOL    HW1 2471   2.547   1.074   5.817
  524SOL    HW2 2472   2.539   0.962   5.698
  525SOL     OW 2473   2.706   3.622   6.968
  525SOL    HW1 2474   2.740   3.713   6.990
  525SOL    HW2 2475   2.778   3.554   6.984
  526SOL     OW 2476   3.433   5.564   4.730
  526SOL    HW1 2477   3.400   5.593   4.820
  526SOL    HW2 2478   3.499   5.630   4.696
  527SOL     OW 2479   0.343   0.888   6.901
  527SOL    HW1 2480   0.393   0.974   6.887
  527SOL    HW2 2481   0.301   0.861   6.814
  528SOL     OW 2482   2.085   1.339   5.259
  528SOL    HW1 2483   2.101   1.438   5.262
  528SOL    HW2 2484   2.155   1.293   5.312
  529SOL     OW 2485   0.799   5.357   4.107
  529SOL    HW1 2486   0.824   5.331   4.014
  529SOL    HW2 2487   0.753   5.280   4.151
  530SOL     OW 2488   2.343   3.167   5.376
  530SOL    HW1 2489   2.331   3.260   5.342
  530SOL    HW2 2490   2.418   3.123   5.326
  531SOL     OW 2491   0.771   0.303   1.326
  531SOL    HW1 2492   0.682   0.266   1.298
  531SOL    HW2 2493   0.844   0.239   1.300
  532SOL     OW 2494   1.109   1.572   5.845
  532SOL    HW1 2495   1.087   1.523   5.760
  532SOL    HW2 2496   1.032   1.564   5.909
  533SOL     OW 2497   5.607   0.099   4.774
  533SOL    HW1 2498   5.644   0.098   4.682
  533SOL    HW2 2499   5.507   0.109   4.770
  534SOL     OW 2500   4.733   5.104   2.393
  534SOL    HW1 2501   4.638   5.094   2.423
  534SOL    HW2 2502   4.736   5.108   2.293
  535SOL     OW 2503   0.387   3.900   3.601
  535SOL    HW1 2504   0.331   3.823   3.570
  535SOL    HW2 2505   0.328   3.970   3.640
  536SOL     OW 2506   1.680   5.539   0.990
  536SOL    HW1 2507   1.759   5.598   1.010
  536SOL    HW2 2508   1.643   5.563   0.900
  537SOL     OW 2509   2.136   0.382   2.234
  537SOL    HW1 2510   2.067   0.454   2.241
  537SOL    HW2 2511   2.132   0.324   2.315
  538SOL     OW 2512   0.297   6.206   3.377
  538SOL    HW1 2513   0.344   6.168   3.456
  538SOL    HW2 2514   0.321   6.153   3.295
  539SOL     OW 2515   1.813   4.931   1.479
  539SOL    HW1 2516   1.770   4.853   1.524
  539SOL    HW2 2517   1.902   4.949   1.520
  540SOL     OW 2518   1.664   2.323   2.518
  540SOL    HW1 2519   1.572   2.348   2.490
  540SOL    HW2 2520   1.725   2.403   2.509
  541SOL     OW 2521   2.511   5.461   5.939
  541SOL    HW1 2522   2.583   5.530   5.949
  541SOL    HW2 2523   2.533   5.400   5.863
  542SOL     OW 2524   5.919   5.447   6.661
  542SOL    HW1 2525   5.925   5.406   6.752
  542SOL    HW2 2526   6.009   5.485   6.636
  543SOL     OW 2527   0.987   5.128   6.802
  543SOL    HW1 2528   0.987   5.116   6.901
  543SOL    HW2 2529   0.900   5.168   6.773
  544SOL     OW 2530   1.204   4.926   0.453
  544SOL    HW1 2531   1.150   4.962   0.529
  544SOL    HW2 2532   1.247   5.002   0.404
  545SOL     OW 2533   3.944   1.507   2.667
  545SOL    HW1 2534   3.871   1.531   2.603
  545SOL    HW2 2535   3.908   1.445   2.736
  546SOL     OW 2536   1.396   3.825   0.315
  546SOL    HW1 2537   1.332   3.760   0.274
  546SOL    HW2 2538   1.450   3.778   0.385
  547SOL     OW 2539   2.817   3.382   0.347
  547SOL    HW1 2540   2.884   3.375   0.421
  547SOL    HW2 2541   2.858   3.428   0.268
  548SOL     OW 2542   3.490   2.879   4.226
  548SOL    HW1 2543   3.440   2.852   4.308
  548SOL    HW2 2544   3.424   2.902   4.154
  549SOL     OW 2545   5.680   3.344   1.771
  549SOL    HW1 2546   5.698   3.246   1.763
  549SOL    HW2 2547   5.583   3.362   1.754
  550SOL     OW 2548   0.064   4.310   2.247
  550SOL    HW1 2549   0.130   4.249   2.204
  550SOL    HW2 2550   0.034   4.380   2.182
  551SOL     OW 2551   6.709   2.372   0.631
  551SOL    HW1 2552   6.652   2.300   0.670
  551SOL    HW2 2553   6.678   2.392   0.538
  552SOL     OW 2554   4.014   5.827   0.334
  552SOL    HW1 2555   3.924   5.791   0.360
  552SOL    HW2 2556   4.002   5.914   0.285
  553SOL     OW 2557   1.590   1.293   1.785
  553SOL    HW1 2558   1.561   1.365   1.848
  553SOL    HW2 2559   1.689   1.282   1.790
  554SOL     OW 2560   5.268   6.596   5.370
  554SOL    HW1 2561   5.269   6.640   5.280
  554SOL    HW2 2562   5.182   6.547   5.382
  555SOL     OW 2563   1.231   4.781   4.275
  555SOL    HW1 2564   1.169   4.816   4.205
  555SOL    HW2 2565   1.249   4.684   4.258
  556SOL     OW 2566   5.446   3.005   4.079
  556SOL    HW1 2567   5.433   3.004   3.980
  556SOL    HW2 2568   5.371   3.054   4.123
  557SOL     OW 2569   0.394   6.222   6.185
  557SOL    HW1 2570   0.405   6.197   6.281
  557SOL    HW2 2571   0.484   6.244   6.146
  558SOL     OW 2572   4.058   4.069   5.241
  558SOL    HW1 2573   4.008   3.989   5.209
  558SOL    HW2 2574   4.136   4.040   5.296
  559SOL     OW 2575   6.697   5.741   6.027
  559SOL    HW1 2576   6.744   5.791   6.099
  559SOL    HW2 2577   6.613   5.789   6.002
  560SOL     OW 2578   4.200   0.030   0.233
  560SOL    HW1 2579   4.183   6.978   0.166
  560SOL    HW2 2580   4.196   0.120   0.188
  561SOL     OW 2581   5.246   6.785   0.895
  561SOL    HW1 2582   5.147   6.774   0.909
  561SOL    HW2 2583   5.266   6.784   0.797
  562SOL     OW 2584   5.461   1.325   5.646
  562SOL    HW1 2585   5.405   1.253   5.605
  562SOL    HW2 2586   5.544   1.338   5.592
  563SOL     OW 2587   2.999   6.713   4.166
  563SOL    HW1 2588   3.008   6.673   4.258
  563SOL    HW2 2589   2.970   6.808   4.174
  564SOL     OW 2590   0.526   0.920   6.654
  564SOL    HW1 2591   0.532   0.985   6.730
  564SOL    HW2 2592   0.536   0.827   6.689
  565SOL     OW 2593   4.822   4.006   4.891
  565SOL    HW1 2594   4.830   3.983   4.794
  565SOL    HW2 2595   4.783   4.098   4.900
  566SOL     OW 2596   4.906   4.464   2.747
  566SOL    HW1 2597   4.810   4.438   2.741
  566SOL    HW2 2598   4.939   4.452   2.840
  567SOL     OW 2599   3.492   3.033   4.634
  567SOL    HW1 2600   3.419   3.025   4.567
  567SOL    HW2 2601   3.577   2.999   4.595
  568SOL     OW 2602   2.523   1.749   6.683
  568SOL    HW1 2603   2.520   1.747   6.783
  568SOL    HW2 2604   2.558   1.662   6.649
  569SOL     OW 2605   2.304   2.616   0.797
  569SOL    HW1 2606   2.361   2.674   0.855
  569SOL    HW2 2607   2.313   2.646   0.702
  570SOL     OW 2608   6.589   6.052   1.372
  570SOL    HW1 2609   6.591   6.100   1.284
  570SOL    HW2 2610   6.677   6.007   1.387
  571SOL     OW 2611   4.051   5.397   3.154
  571SOL    HW1 2612   4.077   5.418   3.060
  571SOL    HW2 2613   4.104   5.454   3.217
  572SOL     OW 2614   1.688   3.653   5.216
  572SOL    HW1 2615   1.732   3.730   5.263
  572SOL    HW2 2616   1.756   3.582   5.197
  573SOL     OW 2617   4.025   2.225   6.094
  573SOL    HW1 2618   4.090   2.190   6.026
  573SOL    HW2 2619   3.933   2.191   6.073
  574SOL     OW 2620   2.179   1.340   4.261
  574SOL    HW1 2621   2.232   1.407   4.314
  574SOL    HW2 2622   2.164   1.258   4.317
  575SOL     OW 2623   5.518   2.406   0.065
  575SOL    HW1 2624   5.615   2.394   0.044
  575SOL    HW2 2625   5.477   2.465   7.015
  576SOL     OW 2626   0.898   1.928   2.625
  576SOL    HW1 2627   0.934   1.836   2.614
  576SOL    HW2 2628   0.822   1.943   2.561
  577SOL     OW 2629   2.874   1.944   3.554
  577SOL    HW1 2630   2.855   1.877   3.482
  577SOL    HW2 2631   2.966   1.980   3.542
  578SOL     OW 2632   6.793   3.616   3.790
  578SOL    HW1 2633   6.782   3.714   3.774
  578SOL    HW2 2634   6.703   3.574   3.798
  579SOL     OW 2635   4.493   2.992   6.712
  579SOL    HW1 2636   4.503   3.031   6.621
  579SOL    HW2 2637   4.578   2.945   6.737
  580SOL     OW 2638   0.653   5.576   7.000
  580SOL    HW1 2639   0.683   5.482   7.020
  580SOL    HW2 2640   0.722   5.641   0.013
  581SOL     OW 2641   3.939   3.883   2.681
  581SOL    HW1 2642   3.914   3.908   2.587
  581SOL    HW2 2643   3.858   3.890   2.740
  582SOL     OW 2644   6.204   3.723   1.863
  582SOL    HW1 2645   6.138   3.754   1.795
  582SOL    HW2 2646   6.192   3.775   1.948
  583SOL     OW 2647   2.524   4.959   0.055
  583SOL    HW1 2648   2.453   4.918   7.019
  583SOL    HW2 2649   2.484   5.027   0.117
  584SOL     OW 2650   0.466   5.033   4.622
  584SOL    HW1 2651   0.399   5.086   4.674
  584SOL    HW2 2652   0.472   5.067   4.529
  585SOL     OW 2653   0.356   1.321   0.131
  585SOL    HW1 2654   0.305   1.400   0.163
  585SOL    HW2 2655   0.300   1.239   0.142
  586SOL     OW 2656   2.949   6.489   0.682
  586SOL    HW1 2657   2.994   6.412   0.728
  586SOL    HW2 2658   2.939   6.565   0.747
  587SOL     OW 2659   0.852   2.847   5.363
  587SOL    HW1 2660   0.822   2.914   5.295
  587SOL    HW2 2661   0.877   2.894   5.448
  588SOL     OW 2662   3.187   6.801   1.714
  588SOL    HW1 2663   3.211   6.704   1.711
  588SOL    HW2 2664   3.170   6.828   1.809
  589SOL     OW 2665   4.444   4.801   2.781
  589SOL    HW1 2666   4.543   4.809   2.793
  589SOL    HW2 2667   4.397   4.874   2.830
  590SOL     OW 2668   0.037   2.112   1.865
  590SOL    HW1 2669   6.995   2.100   1.943
  590SOL    HW2 2670   0.021   2.201   1.823
  591SOL     OW 2671   3.508   6.698   3.277
  591SOL    HW1 2672   3.498   6.793   3.245
  591SOL    HW2 2673   3.433   6.677   3.340
  592SOL     OW 2674   5.343   0.864   0.049
  592SOL    HW1 2675   5.263   0.866   7.009
  592SOL    HW2 2676   5.348   0.774   0.094
  593SOL     OW 2677   5.130   1.581   3.648
  593SOL    HW1 2678   5.176   1.633   3.576
  593SOL    HW2 2679   5.032   1.576   3.629
  594SOL     OW 2680   4.169   2.667   1.210
  594SOL    HW1 2681   4.097   2.612   1.251
  594SOL    HW2 2682   4.131   2.755   1.181
  595SOL     OW 2683   3.705   6.717   3.945
  595SOL    HW1 2684   3.711   6.768   3.859
  595SOL    HW2 2685   3.622   6.743   3.994
  596SOL     OW 2686   1.602   4.693   2.269
  596SOL    HW1 2687   1.521   4.659   2.220
  596SOL    HW2 2688   1.620   4.635   2.348
  597SOL     OW 2689   3.772   2.012   5.511
  597SOL    HW1 2690   3.779   1.941   5.581
  597SOL    HW2 2691   3.745   1.970   5.424
  598SOL     OW 2692   3.706   4.295   0.739
  598SOL    HW1 2693   3.759   4.335   0.665
  598SOL    HW2 2694   3.640   4.363   0.773
  599SOL     OW 2695   6.852   6.366   2.424
  599SOL    HW1 2696   6.832   6.458   2.392
  599SOL    HW2 2697   6.885   6.310   2.347
  600SOL     OW 2698   2.344   6.891   6.934
  600SOL    HW1 2699   2.393   6.911   6.849
  600SOL    HW2 2700   2.359   6.965   6.999
  601SOL     OW 2701   3.334   5.365   3.964
  601SOL    HW1 2702   3.359   5.436   4.030
  601SOL    HW2 2703   3.399   5.364   3.889
  602SOL     OW 2704   1.534   0.924   1.229
  602SOL    HW1 2705   1.607   0.875   1.276
  602SOL    HW2 2706   1.465   0.859   1.196
  603SOL     OW 2707   3.881   2.032   3.457
  603SOL    HW1 2708   3.821   2.005   3.381
  603SOL    HW2 2709   3.842   2.000   3.543
  604SOL     OW 2710   7.000   4.054   5.831
  604SOL    HW1 2711   0.002   4.134   5.775
  604SOL    HW2 2712   6.981   3.976   5.771
  605SOL     OW 2713   5.737   0.534   4.870
  605SOL    HW1 2714   5.831   0.562   4.848
  605SOL    HW2 2715   5.698   0.596   4.938
  606SOL     OW 2716   3.706   0.305   3.261
  606SOL    HW1 2717   3.731   0.395   3.223
  606SOL    HW2 2718   3.780   0.272   3.319
  607SOL     OW 2719   4.372   1.063   4.210
  607SOL    HW1 2720   4.463   1.096   4.237
  607SOL    HW2 2721   4.356   0.973   4.249
  608SOL     OW 2722   4.418   1.245   1.239
  608SOL    HW1 2723   4.462   1.243   1.149
  608SOL    HW2 2724   4.359   1.325   1.245
  609SOL     OW 2725   3.254   4.119   4.304
  609SOL    HW1 2726   3.258   4.201   4.247
  609SOL    HW2 2727   3.347   4.090   4.327
  610SOL     OW 2728   4.962   2.499   4.336
  610SOL    HW1 2729   4.923   2.489   4.428
  610SOL    HW2 2730   4.897   2.465   4.268
  611SOL     OW 2731   0.731   6.962   1.257
  611SOL    HW1 2732   0.761   7.016   1.336
  611SOL    HW2 2733   0.631   6.954   1.258
  612SOL     OW 2734   3.380   5.403   5.458
  612SOL    HW1 2735   3.430   5.358   5.533
  612SOL    HW2 2736   3.442   5.467   5.412
  613SOL     OW 2737   3.353   2.174   0.170
  613SOL    HW1 2738   3.449   2.196   0.154
  613SOL    HW2 2739   3.347   2.102   0.239
  614SOL     OW 2740   4.992   4.400   1.224
  614SOL    HW1 2741   4.920   4.361   1.166
  614SOL    HW2 2742   5.024   4.486   1.184
  615SOL     OW 2743   6.032   6.679   0.721
  615SOL    HW1 2744   5.969   6.602   0.715
  615SOL    HW2 2745   5.994   6.757   0.671
  616SOL     OW 2746   5.611   1.812   4.932
  616SOL    HW1 2747   5.628   1.722   4.892
  616SOL    HW2 2748   5.693   1.868   4.922
  617SOL     OW 2749   6.993   5.208   5.586
  617SOL    HW1 2750   0.064   5.169   5.597
  617SOL    HW2 2751   6.993   5.273   5.510
  618SOL     OW 2752   6.327   3.802   0.547
  618SOL    HW1 2753   6.325   3.836   0.453
  618SOL    HW2 2754   6.236   3.769   0.572
  619SOL     OW 2755   2.858   0.636   6.057
  619SOL    HW1 2756   2.878   0.681   5.969
  619SOL    HW2 2757   2.806   0.553   6.040
  620SOL     OW 2758   6.885   1.790   2.395
  620SOL    HW1 2759   6.969   1.844   2.409
  620SOL    HW2 2760   6.839   1.777   2.483
  621SOL     OW 2761   3.100   1.105   6.831
  621SOL    HW1 2762   3.083   1.099   6.732
  621SOL    HW2 2763   3.125   1.199   6.855
  622SOL     OW 2764   1.168   1.854   4.899
  622SOL    HW1 2765   1.134   1.947   4.914
  622SOL    HW2 2766   1.264   1.850   4.926
  623SOL     OW 2767   5.873   0.158   4.260
  623SOL    HW1 2768   5.966   0.121   4.258
  623SOL    HW2 2769   5.822   0.124   4.182
  624SOL     OW 2770   6.538   0.590   6.417
  624SOL    HW1 2771   6.456   0.645   6.431
  624SOL    HW2 2772   6.551   0.574   6.320
  625SOL     OW 2773   2.300   1.785   0.781
  625SOL    HW1 2774   2.281   1.771   0.878
  625SOL    HW2 2775   2.232   1.849   0.743
  626SOL     OW 2776   6.830   5.798   3.831
  626SOL    HW1 2777   6.878   5.714   3.857
  626SOL    HW2 2778   6.846   5.868   3.901
  627SOL     OW 2779   6.399   0.428   0.272
  627SOL    HW1 2780   6.370   0.428   0.368
  627SOL    HW2 2781   6.332   0.477   0.217
  628SOL     OW 2782   4.363   4.457   5.706
  628SOL    HW1 2783   4.450   4.411   5.693
  628SOL    HW2 2784   4.345   4.469   5.804
  629SOL     OW 2785   1.222   6.874   6.185
  629SOL    HW1 2786   1.167   6.845   6.263
  629SOL    HW2 2787   1.209   6.810   6.109
  630SOL     OW 2788   6.316   1.442   1.592
  630SOL    HW1 2789   6.262   1.374   1.542
  630SOL    HW2 2790   6.266   1.472   1.673
  631SOL     OW 2791   1.999   2.970   3.804
  631SOL    HW1 2792   1.908   3.011   3.804
  631SOL    HW2 2793   2.020   2.935   3.712
  632SOL     OW 2794   3.405   3.743   6.573
  632SOL    HW1 2795   3.494   3.757   6.616
  632SOL    HW2 2796   3.410   3.768   6.476
  633SOL     OW 2797   1.546   6.188   1.507
  633SOL    HW1 2798   1.534   6.145   1.597
  633SOL    HW2 2799   1.582   6.121   1.442
  634SOL     OW 2800   3.209   2.956   4.728
  634SOL    HW1 2801   3.159   3.009   4.796
  634SOL    HW2 2802   3.282   2.905   4.772
  635SOL     OW 2803   5.419   0.368   6.735
  635SOL    HW1 2804   5.432   0.418   6.820
  635SOL    HW2 2805   5.505   0.362   6.685
  636SOL     OW 2806   2.552   0.607   5.747
  636SOL    HW1 2807   2.543   0.610   5.647
  636SOL    HW2 2808   2.531   0.515   5.780
  637SOL     OW 2809   6.612   0.372   2.784
  637SOL    HW1 2810   6.702   0.350   2.747
  637SOL    HW2 2811   6.595   0.318   2.866
  638SOL     OW 2812   6.517   3.615   4.443
  638SOL    HW1 2813   6.556   3.546   4.503
  638SOL    HW2 2814   6.507   3.701   4.493
  639SOL     OW 2815   5.569   4.600   2.498
  639SOL    HW1 2816   5.469   4.603   2.509
  639SOL    HW2 2817   5.606   4.527   2.556
  640SOL     OW 2818   0.558   2.572   1.863
  640SOL    HW1 2819   0.542   2.500   1.930
  640SOL    HW2 2820   0.517   2.658   1.896
  641SOL     OW 2821   2.379   5.040   4.465
  641SOL    HW1 2822   2.421   5.127   4.489
  641SOL    HW2 2823   2.397   4.973   4.537
  642SOL     OW 2824   1.162   4.127   4.593
  642SOL    HW1 2825   1.257   4.103   4.611
  642SOL    HW2 2826   1.154   4.169   4.502
  643SOL     OW 2827   5.143   5.326   0.707
  643SOL    HW1 2828   5.083   5.307   0.785
  643SOL    HW2 2829   5.156   5.425   0.700
  644SOL     OW 2830   6.843   6.889   5.226
  644SOL    HW1 2831   6.803   6.876   5.317
  644SOL    HW2 2832   6.791   6.960   5.178
  645SOL     OW 2833   4.021   5.266   1.888
  645SOL    HW1 2834   3.947   5.333   1.900
  645SOL    HW2 2835   4.086   5.300   1.820
  646SOL     OW 2836   3.422   1.556   4.868
  646SOL    HW1 2837   3.322   1.559   4.863
  646SOL    HW2 2838   3.460   1.647   4.851
  647SOL     OW 2839   4.113   2.673   5.844
  647SOL    HW1 2840   4.029   2.634   5.881
  647SOL    HW2 2841   4.096   2.709   5.752
  648SOL     OW 2842   5.997   1.145   2.855
  648SOL    HW1 2843   6.089   1.140   2.893
  648SOL    HW2 2844   5.997   1.110   2.762
  649SOL     OW 2845   2.062   6.046   0.344
  649SOL    HW1 2846   2.119   6.083   0.417
  649SOL    HW2 2847   1.986   6.108   0.325
  650SOL     OW 2848   0.210   3.900   1.012
  650SOL    HW1 2849   0.141   3.928   0.945
  650SOL    HW2 2850   0.271   3.832   0.971
  651SOL     OW 2851   1.382   0.043   4.589
  651SOL    HW1 2852   1.323   7.018   4.657
  651SOL    HW2 2853   1.360   0.140   4.584
  652SOL     OW 2854   3.846   6.065   1.926
  652SOL    HW1 2855   3.898   6.151   1.925
  652SOL    HW2 2856   3.748   6.085   1.921
  653SOL     OW 2857   1.130   0.031   2.188
  653SOL    HW1 2858   1.081   6.994   2.255
  653SOL    HW2 2859   1.106   0.127   2.200
  654SOL     OW 2860   0.345   6.956   5.001
  654SOL    HW1 2861   0.276   0.000   4.968
  654SOL    HW2 2862   0.419   6.949   4.935
  655SOL     OW 2863   6.910   4.106   1.971
  655SOL    HW1 2864   6.887   4.013   1.941
  655SOL    HW2 2865   7.006   4.108   2.000
  656SOL     OW 2866   3.571   6.083   0.003
  656SOL    HW1 2867   3.550   6.142   0.081
  656SOL    HW2 2868   3.558   6.134   6.938
  657SOL     OW 2869   3.764   3.186   2.641
  657SOL    HW1 2870   3.722   3.187   2.550
  657SOL    HW2 2871   3.864   3.183   2.632
  658SOL     OW 2872   1.339   2.195   5.083
  658SOL    HW1 2873   1.430   2.166   5.057
  658SOL    HW2 2874   1.339   2.293   5.103
  659SOL     OW 2875   2.004   5.833   6.311
  659SOL    HW1 2876   1.981   5.777   6.391
  659SOL    HW2 2877   2.096   5.810   6.280
  660SOL     OW 2878   4.609   4.548   2.761
  660SOL    HW1 2879   4.646   4.637   2.785
  660SOL    HW2 2880   4.579   4.549   2.665
  661SOL     OW 2881   4.807   4.228   4.526
  661SOL    HW1 2882   4.856   4.287   4.589
  661SOL    HW2 2883   4.831   4.132   4.543
  662SOL     OW 2884   5.135   3.281   6.955
  662SOL    HW1 2885   5.161   3.366   6.999
  662SOL    HW2 2886   5.049   3.247   6.993
  663SOL     OW 2887   0.083   4.181   0.017
  663SOL    HW1 2888   0.162   4.120   0.026
  663SOL    HW2 2889   0.009   4.133   6.989
  664SOL     OW 2890   2.039   6.667   6.615
  664SOL    HW1 2891   2.112   6.672   6.683
  664SOL    HW2 2892   2.077   6.683   6.524
  665SOL     OW 2893   3.731   4.944   1.479
  665SOL    HW1 2894   3.733   4.874   1.551
  665SOL    HW2 2895   3.760   5.032   1.517
  666SOL     OW 2896   3.557   1.402   0.183
  666SOL    HW1 2897   3.557   1.501   0.201
  666SOL    HW2 2898   3.638   1.378   0.130
  667SOL     OW 2899   1.025   3.328   3.802
  667SOL    HW1 2900   0.930   3.347   3.827
  667SOL    HW2 2901   1.086   3.357   3.876
  668SOL     OW 2902   5.280   6.808   0.612
  668SOL    HW1 2903   5.302   6.715   0.581
  668SOL    HW2 2904   5.266   6.867   0.532
  669SOL     OW 2905   1.915   5.995   3.097
  669SOL    HW1 2906   2.011   5.983   3.074
  669SOL    HW2 2907   1.907   6.056   3.177
  670SOL     OW 2908   3.201   2.939   3.326
  670SOL    HW1 2909   3.153   3.027   3.319
  670SOL    HW2 2910   3.288   2.953   3.373
  671SOL     OW 2911   1.199   0.379   6.297
  671SOL    HW1 2912   1.178   0.281   6.305
  671SOL    HW2 2913   1.259   0.394   6.218
  672SOL     OW 2914   2.374   2.316   3.745
  672SOL    HW1 2915   2.432   2.237   3.764
  672SOL    HW2 2916   2.396   2.389   3.810
  673SOL     OW 2917   5.711   6.475   0.986
  673SOL    HW1 2918   5.713   6.435   0.895
  673SOL    HW2 2919   5.616   6.480   1.018
  674SOL     OW 2920   6.761   2.246   3.599
  674SOL    HW1 2921   6.768   2.199   3.687
  674SOL    HW2 2922   6.668   2.239   3.564
  675SOL     OW 2923   6.122   1.844   4.925
  675SOL    HW1 2924   6.202   1.900   4.944
  675SOL    HW2 2925   6.134   1.795   4.839
  676SOL     OW 2926   2.026   4.751   4.589
  676SOL    HW1 2927   1.936   4.722   4.556
  676SOL    HW2 2928   2.093   4.679   4.571
  677SOL     OW 2929   5.333   6.943   1.147
  677SOL    HW1 2930   5.335   6.843   1.149
  677SOL    HW2 2931   5.254   6.976   1.198
  678SOL     OW 2932   2.201   1.701   5.928
  678SOL    HW1 2933   2.148   1.637   5.984
  678SOL    HW2 2934   2.152   1.789   5.923
  679SOL     OW 2935   5.801   6.647   2.361
  679SOL    HW1 2936   5.881   6.652   2.301
  679SOL    HW2 2937   5.718   6.635   2.305
  680SOL     OW 2938   5.484   4.006   5.324
  680SOL    HW1 2939   5.554   3.961   5.380
  680SOL    HW2 2940   5.524   4.032   5.236
  681SOL     OW 2941   1.972   6.812   2.102
  681SOL    HW1 2942   1.960   6.810   2.003
  681SOL    HW2 2943   2.065   6.841   2.125
  682SOL     OW 2944   1.265   6.283   0.251
  682SOL    HW1 2945   1.257   6.212   0.182
  682SOL    HW2 2946   1.199   6.265   0.325
  683SOL     OW 2947   5.308   1.898   0.393
  683SOL    HW1 2948   5.247   1.885   0.471
  683SOL    HW2 2949   5.390   1.841   0.405
  684SOL     OW 2950   0.326   5.900   6.584
  684SOL    HW1 2951   0.240   5.914   6.634
  684SOL    HW2 2952   0.383   5.835   6.633
  685SOL     OW 2953   5.712   1.073   5.638
  685SOL    HW1 2954   5.763   1.104   5.719
  685SOL    HW2 2955   5.751   0.987   5.605
  686SOL     OW 2956   5.373   4.800   3.220
  686SOL    HW1 2957   5.363   4.746   3.303
  686SOL    HW2 2958   5.445   4.868   3.232
  687SOL     OW 2959   6.071   2.789   5.070
  687SOL    HW1 2960   6.148   2.810   5.009
  687SOL    HW2 2961   5.986   2.788   5.018
  688SOL     OW 2962   0.352   3.626   4.905
  688SOL    HW1 2963   0.417   3.571   4.958
  688SOL    HW2 2964   0.261   3.619   4.947
  689SOL     OW 2965   6.043   4.079   5.983
  689SOL    HW1 2966   5.948   4.083   6.013
  689SOL    HW2 2967   6.102   4.058   6.061
  690SOL     OW 2968   1.057   2.475   3.608
  690SOL    HW1 2969   1.115   2.505   3.683
  690SOL    HW2 2970   0.989   2.547   3.588
  691SOL     OW 2971   0.449   2.996   6.947
  691SOL    HW1 2972   0.433   2.967   6.853
  691SOL    HW2 2973   0.537   2.962   6.978
  692SOL     OW 2974   1.838   6.887   3.267
  692SOL    HW1 2975   1.929   6.854   3.290
  692SOL    HW2 2976   1.777   6.874   3.345
  693SOL     OW 2977   6.945   1.169   2.443
  693SOL    HW1 2978   6.893   1.086   2.462
  693SOL    HW2 2979   6.911   1.212   2.359
  694SOL     OW 2980   1.555   0.593   1.967
  694SOL    HW1 2981   1.644   0.554   1.992
  694SOL    HW2 2982   1.483   0.526   1.986
  695SOL     OW 2983   4.135   5.998   6.065
  695SOL    HW1 2984   4.131   6.098   6.064
  695SOL    HW2 2985   4.189   5.966   5.987
  696SOL     OW 2986   4.438   5.596   2.521
  696SOL    HW1 2987   4.486   5.512   2.544
  696SOL    HW2 2988   4.339   5.580   2.524
  697SOL     OW 2989   1.299   3.842   3.899
  697SOL    HW1 2990   1.322   3.927   3.852
  697SOL    HW2 2991   1.210   3.851   3.944
  698SOL     OW 2992   4.116   6.533   4.117
  698SOL    HW1 2993   4.200   6.506   4.070
  698SOL    HW2 2994   4.126   6.625   4.154
  699SOL     OW 2995   2.284   4.362   0.370
  699SOL    HW1 2996   2.184   4.370   0.359
  699SOL    HW2 2997   2.314   4.272   0.338
  700SOL     OW 2998   2.037   1.057   3.894
  700SOL    HW1 2999   2.109   0.992   3.870
  700SOL    HW2 3000   2.029   1.064   3.993
  701SOL     OW 3001   0.671   4.654   5.843
  701SOL    HW1 3002   0.734   4.603   5.902
  701SOL    HW2 3003   0.597   4.594   5.814
  702SOL     OW 3004   5.665   5.382   4.929
  702SOL    HW1 3005   5.672   5.387   4.830
  702SOL    HW2 3006   5.733   5.442   4.971
  703SOL     OW 3007   4.336   3.847   7.014
  703SOL    HW1 3008   4.432   3.874   7.001
  703SOL    HW2 3009   4.276   3.914   6.971
  704SOL     OW 3010   2.511   6.914   0.759
  704SOL    HW1 3011   2.484   6.943   0.667
  704SOL    HW2 3012   2.429   6.902   0.815
  705SOL     OW 3013   5.895   2.509   3.232
  705SOL    HW1 3014   5.937   2.566   3.303
  705SOL    HW2 3015   5.820   2.456   3.270
  706SOL     OW 3016   3.996   2.164   3.688
  706SOL    HW1 3017   3.958   2.162   3.596
  706SOL    HW2 3018   4.051   2.081   3.703
  707SOL     OW 3019   5.039   1.460   1.425
  707SOL    HW1 3020   5.042   1.560   1.421
  707SOL    HW2 3021   4.981   1.426   1.351
  708SOL     OW 3022   4.169   1.028   1.575
  708SOL    HW1 3023   4.141   1.124   1.573
  708SOL    HW2 3024   4.242   1.016   1.642
  709SOL     OW 3025   1.081   4.899   6.689
  709SOL    HW1 3026   1.172   4.920   6.652
  709SOL    HW2 3027   1.045   4.980   6.734
  710SOL     OW 3028   3.236   4.024   2.552
  710SOL    HW1 3029   3.302   4.010   2.477
  710SOL    HW2 3030   3.198   4.116   2.546
  711SOL     OW 3031   0.866   0.545   3.930
  711SOL    HW1 3032   0.819   0.630   3.952
  711SOL    HW2 3033   0.934   0.525   4.001
  712SOL     OW 3034   1.669   3.823   1.483
  712SOL    HW1 3035   1.621   3.863   1.561
  712SOL    HW2 3036   1.610   3.756   1.439
  713SOL     OW 3037   4.045   3.264   3.095
  713SOL    HW1 3038   4.018   3.262   2.999
  713SOL    HW2 3039   4.079   3.355   3.118
  714SOL     OW 3040   5.011   5.230   5.218
  714SOL    HW1 3041   5.028   5.146   5.269
  714SOL    HW2 3042   4.919   5.228   5.180
  715SOL     OW 3043   4.063   0.379   6.274
  715SOL    HW1 3044   4.044   0.375   6.372
  715SOL    HW2 3045   3.999   0.442   6.230
  716SOL     OW 3046   0.094   4.774   1.797
  716SOL    HW1 3047   0.029   4.699   1.805
  716SOL    HW2 3048   0.110   4.813   1.888
  717SOL     OW 3049   6.250   2.563   0.578
  717SOL    HW1 3050   6.286   2.642   0.627
  717SOL    HW2 3051   6.236   2.586   0.482
  718SOL     OW 3052   3.660   3.913   6.643
  718SOL    HW1 3053   3.627   3.878   6.731
  718SOL    HW2 3054   3.757   3.937   6.652
  719SOL     OW 3055   5.399   4.338   0.030
  719SOL    HW1 3056   5.353   4.407   6.994
  719SOL    HW2 3057   5.338   4.307   0.103
  720SOL     OW 3058   2.365   0.905   6.166
  720SOL    HW1 3059   2.351   0.806   6.155
  720SOL    HW2 3060   2.310   0.938   6.242
  721SOL     OW 3061   1.514   6.789   5.998
  721SOL    HW1 3062   1.424   6.751   6.024
  721SOL    HW2 3063   1.540   6.753   5.909
  722SOL     OW 3064   4.407   0.220   5.584
  722SOL    HW1 3065   4.329   0.282   5.592
  722SOL    HW2 3066   4.375   0.125   5.587
  723SOL     OW 3067   1.252   3.186   1.770
  723SOL    HW1 3068   1.176   3.245   1.798
  723SOL    HW2 3069   1.248   3.099   1.819
  724SOL     OW 3070   6.804   1.446   5.029
  724SOL    HW1 3071   6.800   1.361   5.082
  724SOL    HW2 3072   6.723   1.453   4.971
  725SOL     OW 3073   1.952   5.527   0.773
  725SOL    HW1 3074   1.993   5.618   0.767
  725SOL    HW2 3075   1.892   5.512   0.694
  726SOL     OW 3076   4.074   0.282   6.552
  726SOL    HW1 3077   4.167   0.264   6.584
  726SOL    HW2 3078   4.014   0.299   6.630
  727SOL     OW 3079   2.818   4.763   4.045
  727SOL    HW1 3080   2.897   4.728   3.996
  727SOL    HW2 3081   2.839   4.766   4.143
  728SOL     OW 3082   6.935   3.594   4.829
  728SOL    HW1 3083   6.838   3.613   4.845
  728SOL    HW2 3084   6.945   3.502   4.792
  729SOL     OW 3085   3.101   0.219   1.229
  729SOL    HW1 3086   3.140   0.132   1.257
  729SOL    HW2 3087   3.041   0.205   1.150
  730SOL     OW 3088   6.095   0.488   4.521
  730SOL    HW1 3089   6.142   0.408   4.558
  730SOL    HW2 3090   6.156   0.567   4.524
  731SOL     OW 3091   5.769   3.691   3.629
  731SOL    HW1 3092   5.725   3.614   3.677
  731SOL    HW2 3093   5.767   3.674   3.531
  732SOL     OW 3094   6.807   3.204   1.931
  732SOL    HW1 3095   6.867   3.187   1.852
  732SOL    HW2 3096   6.733   3.265   1.903
  733SOL     OW 3097   4.549   4.363   3.696
  733SOL    HW1 3098   4.486   4.440   3.684
  733SOL    HW2 3099   4.597   4.345   3.611
  734SOL     OW 3100   6.977   4.267   0.787
  734SOL    HW1 3101   6.896   4.268   0.728
  734SOL    HW2 3102   6.949   4.245   0.881
  735SOL     OW 3103   1.467   4.833   6.718
  735SOL    HW1 3104   1.455   4.930   6.738
  735SOL    HW2 3105   1.561   4.816   6.689
  736SOL     OW 3106   6.139   1.452   3.472
  736SOL    HW1 3107   6.166   1.368   3.425
  736SOL    HW2 3108   6.163   1.446   3.568
  737SOL     OW 3109   5.576   3.388   0.770
  737SOL    HW1 3110   5.623   3.323   0.829
  737SOL    HW2 3111   5.487   3.349   0.743
  738SOL     OW 3112   0.880   4.052   3.989
  738SOL    HW1 3113   0.830   4.102   4.059
  738SOL    HW2 3114   0.908   3.963   4.025
  739SOL     OW 3115   4.860   6.182   6.774
  739SOL    HW1 3116   4.930   6.177   6.845
  739SOL    HW2 3117   4.858   6.097   6.723
  740SOL     OW 3118   5.719   6.881   1.489
  740SOL    HW1 3119   5.743   6.866   1.585
  740SOL    HW2 3120   5.801   6.876   1.433
  741SOL     OW 3121   2.330   0.729   2.682
  741SOL    HW1 3122   2.364   0.772   2.766
  741SOL    HW2 3123   2.372   0.639   2.672
  742SOL     OW 3124   1.148   0.249   3.218
  742SOL    HW1 3125   1.130   0.183   3.146
  742SOL    HW2 3126   1.153   0.202   3.306
  743SOL     OW 3127   1.925   4.141   4.752
  743SOL    HW1 3128   1.888   4.178   4.666
  743SOL    HW2 3129   2.023   4.129   4.744
  744SOL     OW 3130   0.300   5.953   0.753
  744SOL    HW1 3131   0.287   6.047   0.784
  744SOL    HW2 3132   0.397   5.930   0.755
  745SOL     OW 3133   1.495   6.191   3.165
  745SOL    HW1 3134   1.531   6.215   3.074
  745SOL    HW2 3135   1.484   6.092   3.172
  746SOL     OW 3136   1.753   0.486   4.805
  746SOL    HW1 3137   1.820   0.431   4.854
  746SOL    HW2 3138   1.743   0.575   4.851
  747SOL     OW 3139   5.175   4.863   2.886
  747SOL    HW1 3140   5.110   4.819   2.823
  747SOL    HW2 3141   5.141   4.953   2.911
  748SOL     OW 3142   4.418   3.301   1.270
  748SOL    HW1 3143   4.321   3.275   1.274
  748SOL    HW2 3144   4.426   3.400   1.286
  749SOL     OW 3145   6.999   1.629   5.497
  749SOL    HW1 3146   0.050   1.690   5.534
  749SOL    HW2 3147   7.012   1.618   5.399
  750SOL     OW 3148   2.459   4.078   0.599
  750SOL    HW1 3149   2.554   4.049   0.605
  750SOL    HW2 3150   2.436   4.099   0.504
  751SOL     OW 3151   4.799   0.671   0.111
  751SOL    HW1 3152   4.897   0.679   0.130
  751SOL    HW2 3153   4.755   0.759   0.129
  752SOL     OW 3154   5.167   1.959   2.216
  752SOL    HW1 3155   5.181   2.009   2.302
  752SOL    HW2 3156   5.090   1.896   2.227
  753SOL     OW 3157   2.005   2.728   3.956
  753SOL    HW1 3158   2.001   2.812   3.902
  753SOL    HW2 3159   2.063   2.661   3.910
  754SOL     OW 3160   4.510   5.481   0.061
  754SOL    HW1 3161   4.599   5.455   0.099
  754SOL    HW2 3162   4.464   5.399   0.026
  755SOL     OW 3163   0.461   6.109   1.300
  755SOL    HW1 3164   0.525   6.161   1.244
  755SOL    HW2 3165   0.373   6.157   1.305
  756SOL     OW 3166   5.067   0.072   3.388
  756SOL    HW1 3167   5.159   0.108   3.373
  756SOL    HW2 3168   5.064   6.995   3.361
  757SOL     OW 3169   0.283   0.810   3.631
  757SOL    HW1 3170   0.288   0.910   3.625
  757SOL    HW2 3171   0.365   0.770   3.592
  758SOL     OW 3172   3.837   2.272   1.109
  758SOL    HW1 3173   3.927   2.286   1.149
  758SOL    HW2 3174   3.772   2.249   1.181
  759SOL     OW 3175   1.569   1.342   6.805
  759SOL    HW1 3176   1.593   1.399   6.727
  759SOL    HW2 3177   1.545   1.400   6.883
  760SOL     OW 3178   4.469   1.968   6.055
  760SOL    HW1 3179   4.560   1.962   6.014
  760SOL    HW2 3180   4.426   1.878   6.055
  761SOL     OW 3181   5.705   2.496   6.599
  761SOL    HW1 3182   5.768   2.507   6.676
  761SOL    HW2 3183   5.674   2.586   6.568
  762SOL     OW 3184   2.339   5.992   3.747
  762SOL    HW1 3185   2.359   5.903   3.706
  762SOL    HW2 3186   2.264   5.982   3.812
  763SOL     OW 3187   4.368   5.950   6.678
  763SOL    HW1 3188   4.291   5.967   6.739
  763SOL    HW2 3189   4.334   5.918   6.589
  764SOL     OW 3190   4.867   1.522   2.224
  764SOL    HW1 3191   4.909   1.610   2.203
  764SOL    HW2 3192   4.786   1.536   2.281
  765SOL     OW 3193   6.674   0.079   3.302
  765SOL    HW1 3194   6.595   0.046   3.352
  765SOL    HW2 3195   6.747   0.103   3.366
  766SOL     OW 3196   0.159   6.142   7.008
  766SOL    HW1 3197   0.216   6.161   6.928
  766SOL    HW2 3198   0.103   6.222   0.009
  767SOL     OW 3199   5.836   0.223   2.522
  767SOL    HW1 3200   5.815   0.300   2.462
  767SOL    HW2 3201   5.928   0.234   2.560
  768SOL     OW 3202   3.100   6.173   3.513
  768SOL    HW1 3203   3.023   6.142   3.569
  768SOL    HW2 3204   3.138   6.257   3.552
  769SOL     OW 3205   4.059   1.348   5.989
  769SOL    HW1 3206   4.114   1.300   6.058
  769SOL    HW2 3207   4.117   1.414   5.941
  770SOL     OW 3208   3.198   4.911   4.093
  770SOL    HW1 3209   3.154   4.861   4.019
  770SOL    HW2 3210   3.294   4.884   4.099
  771SOL     OW 3211   0.697   5.702   3.855
  771SOL    HW1 3212   0.765   5.774   3.867
  771SOL    HW2 3213   0.616   5.723   3.910
  772SOL     OW 3214   6.936   4.079   6.157
  772SOL    HW1 3215   6.973   4.167   6.127
  772SOL    HW2 3216   6.866   4.095   6.227
  773SOL     OW 3217   6.897   4.290   2.466
  773SOL    HW1 3218   6.917   4.210   2.523
  773SOL    HW2 3219   6.957   4.290   2.385
  774SOL     OW 3220   1.330   1.093   1.759
  774SOL    HW1 3221   1.400   1.128   1.697
  774SOL    HW2 3222   1.362   1.009   1.803
  775SOL     OW 3223   1.753   2.088   4.801
  775SOL    HW1 3224   1.776   2.101   4.705
  775SOL    HW2 3225   1.698   2.005   4.811
  776SOL     OW 3226   2.118   0.431   6.213
  776SOL    HW1 3227   2.022   0.402   6.207
  776SOL    HW2 3228   2.168   0.367   6.271
  777SOL     OW 3229   4.270   1.253   0.777
  777SOL    HW1 3230   4.327   1.327   0.740
  777SOL    HW2 3231   4.183   1.251   0.728
  778SOL     OW 3232   4.004   6.726   4.653
  778SOL    HW1 3233   4.005   6.763   4.560
  778SOL    HW2 3234   3.910   6.710   4.682
  779SOL     OW 3235   1.235   1.406   2.312
  779SOL    HW1 3236   1.278   1.397   2.222
  779SOL    HW2 3237   1.302   1.388   2.383
  780SOL     OW 3238   5.489   3.155   4.904
  780SOL    HW1 3239   5.507   3.169   5.001
  780SOL    HW2 3240   5.531   3.229   4.851
  781SOL     OW 3241   6.983   1.143   5.834
  781SOL    HW1 3242   6.993   1.243   5.838
  781SOL    HW2 3243   0.007   1.109   5.751
  782SOL     OW 3244   0.037   3.111   0.728
  782SOL    HW1 3245   0.058   3.040   0.795
  782SOL    HW2 3246   6.960   3.108   0.705
  783SOL     OW 3247   2.870   4.749   0.671
  783SOL    HW1 3248   2.855   4.782   0.578
  783SOL    HW2 3249   2.781   4.740   0.717
  784SOL     OW 3250   4.523   0.557   4.948
  784SOL    HW1 3251   4.612   0.511   4.952
  784SOL    HW2 3252   4.477   0.546   5.036
  785SOL     OW 3253   6.416   2.909   2.879
  785SOL    HW1 3254   6.414   2.856   2.963
  785SOL    HW2 3255   6.508   2.905   2.839
  786SOL     OW 3256   6.657   6.779   0.048
  786SOL    HW1 3257   6.617   6.845   0.112
  786SOL    HW2 3258   6.746   6.813   0.017
  787SOL     OW 3259   3.178   2.367   6.243
  787SOL    HW1 3260   3.202   2.291   6.305
  787SOL    HW2 3261   3.080   2.362   6.221
  788SOL     OW 3262   1.594   4.050   4.326
  788SOL    HW1 3263   1.496   4.051   4.308
  788SOL    HW2 3264   1.644   4.074   4.243
  789SOL     OW 3265   5.675   3.864   0.880
  789SOL    HW1 3266   5.665   3.837   0.975
  789SOL    HW2 3267   5.585   3.863   0.835
  790SOL     OW 3268   3.010   1.429   3.936
  790SOL    HW1 3269   3.091   1.372   3.948
  790SOL    HW2 3270   3.024   1.491   3.858
  791SOL     OW 3271   3.058   1.621   4.158
  791SOL    HW1 3272   3.013   1.592   4.074
  791SOL    HW2 3273   3.152   1.586   4.160
  792SOL     OW 3274   5.873   6.981   3.774
  792SOL    HW1 3275   5.923   0.031   3.723
  792SOL    HW2 3276   5.822   6.923   3.710
  793SOL     OW 3277   5.741   0.302   6.760
  793SOL    HW1 3278   5.803   0.281   6.685
  793SOL    HW2 3279   5.790   0.291   6.847
  794SOL     OW 3280   2.522   5.374   5.470
  794SOL    HW1 3281   2.490   5.320   5.547
  794SOL    HW2 3282   2.607   5.420   5.495
  795SOL     OW 3283   4.715   4.465   6.245
  795SOL    HW1 3284   4.675   4.503   6.329
  795SOL    HW2 3285   4.642   4.425   6.189
  796SOL     OW 3286   0.355   2.368   6.656
  796SOL    HW1 3287   0.344   2.269   6.643
  796SOL    HW2 3288   0.294   2.417   6.593
  797SOL     OW 3289   5.805   2.836   3.944
  797SOL    HW1 3290   5.894   2.812   3.905
  797SOL    HW2 3291   5.806   2.933   3.969
  798SOL     OW 3292   5.290   1.012   6.323
  798SOL    HW1 3293   5.266   1.104   6.292
  798SOL    HW2 3294   5.374   0.982   6.278
  799SOL     OW 3295   6.802   3.072   3.363
  799SOL    HW1 3296   6.800   3.094   3.461
  799SOL    HW2 3297   6.883   3.113   3.321
  800SOL     OW 3298   6.157   1.306   2.026
  800SOL    HW1 3299   6.207   1.306   2.112
  800SOL    HW2 3300   6.183   1.387   1.973
  801SOL     OW 3301   0.470   2.692   3.336
  801SOL    HW1 3302   0.418   2.656   3.258
  801SOL    HW2 3303   0.536   2.760   3.304
  802SOL     OW 3304   5.507   1.014   0.693
  802SOL    HW1 3305   5.570   1.074   0.644
  802SOL    HW2 3306   5.556   0.931   0.721
  803SOL     OW 3307   6.674   0.055   5.124
  803SOL    HW1 3308   6.676   0.155   5.128
  803SOL    HW2 3309   6.685   0.025   5.029
  804SOL     OW 3310   0.171   0.082   0.464
  804SOL    HW1 3311   0.158   7.015   0.417
  804SOL    HW2 3312   0.230   0.069   0.544
  805SOL     OW 3313   2.857   2.886   6.248
  805SOL    HW1 3314   2.882   2.914   6.341
  805SOL    HW2 3315   2.939   2.868   6.195
  806SOL     OW 3316   5.230   0.624   0.430
  806SOL    HW1 3317   5.132   0.631   0.416
  806SOL    HW2 3318   5.262   0.704   0.480
  807SOL     OW 3319   1.523   0.208   3.465
  807SOL    HW1 3320   1.580   0.129   3.489
  807SOL    HW2 3321   1.524   0.222   3.366
  808SOL     OW 3322   5.123   3.336   5.194
  808SOL    HW1 3323   5.067   3.280   5.134
  808SOL    HW2 3324   5.157   3.280   5.270
  809SOL     OW 3325   0.174   4.699   6.235
  809SOL    HW1 3326   0.111   4.660   6.168
  809SOL    HW2 3327   0.230   4.770   6.191
  810SOL     OW 3328   5.847   4.391   6.721
  810SOL    HW1 3329   5.834   4.444   6.804
  810SOL    HW2 3330   5.939   4.351   6.721
  811SOL     OW 3331   5.104   5.013   4.036
  811SOL    HW1 3332   5.108   5.076   4.114
  811SOL    HW2 3333   5.029   5.041   3.975
  812SOL     OW 3334   0.179   6.921   1.935
  812SOL    HW1 3335   0.228   6.863   1.870
  812SOL    HW2 3336   0.238   6.997   1.962
  813SOL     OW 3337   5.194   5.651   2.363
  813SOL    HW1 3338   5.141   5.704   2.297
  813SOL    HW2 3339   5.163   5.556   2.361
  814SOL     OW 3340   5.612   6.348   1.757
  814SOL    HW1 3341   5.601   6.405   1.839
  814SOL    HW2 3342   5.683   6.388   1.699
  815SOL     OW 3343   0.172   2.543   1.049
  815SOL    HW1 3344   0.222   2.456   1.050
  815SOL    HW2 3345   0.073   2.524   1.050
  816SOL     OW 3346   6.578   6.837   0.823
  816SOL    HW1 3347   6.532   6.826   0.735
  816SOL    HW2 3348   6.537   6.774   0.890
  817SOL     OW 3349   1.914   2.821   2.616
  817SOL    HW1 3350   1.936   2.910   2.657
  817SOL    HW2 3351   1.816   2.817   2.598
  818SOL     OW 3352   6.412   1.624   1.058
  818SOL    HW1 3353   6.455   1.676   1.132
  818SOL    HW2 3354   6.446   1.657   0.970
  819SOL     OW 3355   6.855   3.617   4.102
  819SOL    HW1 3356   6.870   3.565   4.018
  819SOL    HW2 3357   6.774   3.675   4.091
  820SOL     OW 3358   1.194   3.036   4.644
  820SOL    HW1 3359   1.237   3.125   4.665
  820SOL    HW2 3360   1.258   2.963   4.667
  821SOL     OW 3361   1.284   3.526   6.884
  821SOL    HW1 3362   1.309   3.537   6.788
  821SOL    HW2 3363   1.213   3.592   6.907
  822SOL     OW 3364   1.589   3.805   4.475
  822SOL    HW1 3365   1.679   3.763   4.464
  822SOL    HW2 3366   1.582   3.884   4.414
  823SOL     OW 3367   3.560   4.123   0.601
  823SOL    HW1 3368   3.596   4.194   0.662
  823SOL    HW2 3369   3.612   4.122   0.516
  824SOL     OW 3370   5.632   1.959   5.862
  824SOL    HW1 3371   5.559   1.894   5.841
  824SOL    HW2 3372   5.651   1.956   5.960
  825SOL     OW 3373   2.266   4.125   2.234
  825SOL    HW1 3374   2.296   4.177   2.314
  825SOL    HW2 3375   2.238   4.188   2.162
  826SOL     OW 3376   0.170   4.119   6.041
  826SOL    HW1 3377   0.223   4.186   5.989
  826SOL    HW2 3378   0.100   4.079   5.983
  827SOL     OW 3379   3.950   5.758   6.959
  827SOL    HW1 3380   4.044   5.752   6.992
  827SOL    HW2 3381   3.935   5.847   6.916
  828SOL     OW 3382   6.223   0.325   5.977
  828SOL    HW1 3383   6.134   0.280   5.967
  828SOL    HW2 3384   6.249   0.324   6.073
  829SOL     OW 3385   3.472   2.876   4.878
  829SOL    HW1 3386   3.570   2.862   4.890
  829SOL    HW2 3387   3.454   2.916   4.788
  830SOL     OW 3388   4.442   4.056   5.384
  830SOL    HW1 3389   4.384   3.975   5.378
  830SOL    HW2 3390   4.392   4.129   5.430
  831SOL     OW 3391   6.641   0.735   4.863
  831SOL    HW1 3392   6.669   0.758   4.769
  831SOL    HW2 3393   6.655   0.815   4.922
  832SOL     OW 3394   2.041   1.956   5.936
  832SOL    HW1 3395   1.995   1.925   6.019
  832SOL    HW2 3396   2.110   2.024   5.959
  833SOL     OW 3397   6.961   6.928   5.948
  833SOL    HW1 3398   6.921   6.858   5.889
  833SOL    HW2 3399   6.917   7.016   5.930
  834SOL     OW 3400   3.059   4.005   5.093
  834SOL    HW1 3401   2.978   3.954   5.122
  834SOL    HW2 3402   3.047   4.102   5.114
  835SOL     OW 3403   4.158   6.845   3.374
  835SOL    HW1 3404   4.209   6.779   3.428
  835SOL    HW2 3405   4.077   6.874   3.424
  836SOL     OW 3406   2.492   1.277   0.465
  836SOL    HW1 3407   2.406   1.295   0.417
  836SOL    HW2 3408   2.566   1.272   0.398
  837SOL     OW 3409   4.811   1.007   5.607
  837SOL    HW1 3410   4.901   1.046   5.625
  837SOL    HW2 3411   4.741   1.060   5.656
  838SOL     OW 3412   2.289   5.464   3.160
  838SOL    HW1 3413   2.253   5.432   3.073
  838SOL    HW2 3414   2.376   5.418   3.179
  839SOL     OW 3415   2.999   1.524   2.772
  839SOL    HW1 3416   3.022   1.620   2.756
  839SOL    HW2 3417   2.975   1.480   2.686
  840SOL     OW 3418   0.820   1.212   6.858
  840SOL    HW1 3419   0.867   1.291   6.898
  840SOL    HW2 3420   0.869   1.128   6.883
  841SOL     OW 3421   0.830   3.571   6.780
  841SOL    HW1 3422   0.778   3.642   6.827
  841SOL    HW2 3423   0.768   3.497   6.754
  842SOL     OW 3424   3.763   5.465   3.220
  842SOL    HW1 3425   3.684   5.468   3.160
  842SOL    HW2 3426   3.839   5.421   3.173
  843SOL     OW 3427   6.596   2.092   1.783
  843SOL    HW1 3428   6.505   2.054   1.765
  843SOL    HW2 3429   6.659   2.017   1.804
  844SOL     OW 3430   5.306   5.797   0.626
  844SOL    HW1 3431   5.405   5.788   0.638
  844SOL    HW2 3432   5.285   5.881   0.577
  845SOL     OW 3433   0.749   4.406   5.014
  845SOL    HW1 3434   0.735   4.429   4.917
  845SOL    HW2 3435   0.839   4.438   5.043
  846SOL     OW 3436   6.228   1.732   6.342
  846SOL    HW1 3437   6.257   1.666   6.273
  846SOL    HW2 3438   6.300   1.742   6.411
  847SOL     OW 3439   5.056   3.360   2.152
  847SOL    HW1 3440   5.018   3.445   2.189
  847SOL    HW2 3441   5.120   3.321   2.219
  848SOL     OW 3442   5.910   0.407   5.892
  848SOL    HW1 3443   5.969   0.487   5.889
  848SOL    HW2 3444   5.912   0.367   5.983
  849SOL     OW 3445   0.416   5.177   4.389
  849SOL    HW1 3446   0.317   5.190   4.386
  849SOL    HW2 3447   0.459   5.263   4.415
  850SOL     OW 3448   3.620   0.863   2.772
  850SOL    HW1 3449   3.673   0.858   2.687
  850SOL    HW2 3450   3.601   0.770   2.804
  851SOL     OW 3451   1.564   0.826   6.418
  851SOL    HW1 3452   1.467   0.837   6.395
  851SOL    HW2 3453   1.619   0.832   6.334
  852SOL     OW 3454   2.009   3.892   6.570
  852SOL    HW1 3455   2.009   3.816   6.505
  852SOL    HW2 3456   2.103   3.912   6.598
  853SOL     OW 3457   2.116   4.043   1.396
  853SOL    HW1 3458   2.122   3.963   1.336
  853SOL    HW2 3459   2.139   4.125   1.344
  854SOL     OW 3460   5.582   5.037   1.817
  854SOL    HW1 3461   5.611   4.942   1.805
  854SOL    HW2 3462   5.509   5.058   1.752
  855SOL     OW 3463   5.173   0.289   1.678
  855SOL    HW1 3464   5.259   0.329   1.647
  855SOL    HW2 3465   5.126   0.247   1.600
  856SOL     OW 3466   1.750   6.881   5.443
  856SOL    HW1 3467   1.658   6.918   5.457
  856SOL    HW2 3468   1.757   6.842   5.352
  857SOL     OW 3469   6.748   3.669   2.137
  857SOL    HW1 3470   6.687   3.623   2.072
  857SOL    HW2 3471   6.842   3.662   2.104
  858SOL     OW 3472   3.140   4.305   1.137
  858SOL    HW1 3473   3.185   4.220   1.110
  858SOL    HW2 3474   3.047   4.307   1.100
  859SOL     OW 3475   6.586   4.792   6.778
  859SOL    HW1 3476   6.525   4.856   6.732
  859SOL    HW2 3477   6.658   4.764   6.714
  860SOL     OW 3478   1.921   4.508   1.697
  860SOL    HW1 3479   1.940   4.418   1.658
  860SOL    HW2 3480   1.827   4.509   1.733
  861SOL     OW 3481   3.234   5.841   5.556
  861SOL    HW1 3482   3.223   5.783   5.475
  861SOL    HW2 3483   3.206   5.934   5.534
  862SOL     OW 3484   4.512   4.470   4.184
  862SOL    HW1 3485   4.593   4.413   4.198
  862SOL    HW2 3486   4.436   4.413   4.152
  863SOL     OW 3487   5.755   1.136   1.389
  863SOL    HW1 3488   5.786   1.230   1.371
  863SOL    HW2 3489   5.828   1.072   1.367
  864SOL     OW 3490   6.033   4.272   2.914
  864SOL    HW1 3491   5.992   4.350   2.867
  864SOL    HW2 3492   5.991   4.187   2.881
  865SOL     OW 3493   1.824   6.791   4.597
  865SOL    HW1 3494   1.910   6.837   4.616
  865SOL    HW2 3495   1.754   6.858   4.572
  866SOL     OW 3496   3.365   2.005   1.601
  866SOL    HW1 3497   3.381   2.085   1.659
  866SOL    HW2 3498   3.269   2.002   1.575
  867SOL     OW 3499   1.559   2.633   5.774
  867SOL    HW1 3500   1.592   2.555   5.827
  867SOL    HW2 3501   1.459   2.630   5.769
  868SOL     OW 3502   5.273   2.741   3.230
  868SOL    HW1 3503   5.207   2.803   3.187
  868SOL    HW2 3504   5.229   2.653   3.248
  869SOL     OW 3505   6.218   4.816   2.802
  869SOL    HW1 3506   6.197   4.740   2.864
  869SOL    HW2 3507   6.303   4.797   2.754
  870SOL     OW 3508   0.043   1.741   0.865
  870SOL    HW1 3509   7.003   1.766   0.941
  870SOL    HW2 3510   0.096   1.660   0.890
  871SOL     OW 3511   6.246   3.085   0.441
  871SOL    HW1 3512   6.289   2.996   0.428
  871SOL    HW2 3513   6.197   3.111   0.357
  872SOL     OW 3514   5.901   2.287   2.893
  872SOL    HW1 3515   5.913   2.256   2.987
  872SOL    HW2 3516   5.933   2.217   2.830
  873SOL     OW 3517   4.257   6.759   5.394
  873SOL    HW1 3518   4.287   6.809   5.312
  873SOL    HW2 3519   4.333   6.754   5.459
  874SOL     OW 3520   0.695   3.916   5.860
  874SOL    HW1 3521   0.760   3.937   5.786
  874SOL    HW2 3522   0.604   3.901   5.821
  875SOL     OW 3523   6.209   4.466   6.644
  875SOL    HW1 3524   6.302   4.475   6.679
  875SOL    HW2 3525   6.170   4.557   6.629
  876SOL     OW 3526   0.593   3.509   2.185
  876SOL    HW1 3527   0.686   3.528   2.215
  876SOL    HW2 3528   0.536   3.486   2.264
  877SOL     OW 3529   5.626   5.683   0.566
  877SOL    HW1 3530   5.615   5.736   0.482
  877SOL    HW2 3531   5.716   5.640   0.567
  878SOL     OW 3532   3.147   4.140   0.124
  878SOL    HW1 3533   3.201   4.058   0.106
  878SOL    HW2 3534   3.087   4.158   0.046
  879SOL     OW 3535   4.736   2.058   2.188
  879SOL    HW1 3536   4.807   2.024   2.126
  879SOL    HW2 3537   4.646   2.041   2.148
  880SOL     OW 3538   4.173   5.035   0.816
  880SOL    HW1 3539   4.265   5.050   0.779
  880SOL    HW2 3540   4.111   5.010   0.742
  881SOL     OW 3541   4.427   5.209   5.096
  881SOL    HW1 3542   4.402   5.269   5.172
  881SOL    HW2 3543   4.437   5.263   5.012
  882SOL     OW 3544   0.692   0.888   4.571
  882SOL    HW1 3545   0.772   0.916   4.625
  882SOL    HW2 3546   0.649   0.970   4.531
  883SOL     OW 3547   3.032   5.050   6.315
  883SOL    HW1 3548   2.936   5.074   6.300
  883SOL    HW2 3549   3.047   4.954   6.289
  884SOL     OW 3550   4.799   3.912   1.349
  884SOL    HW1 3551   4.790   3.957   1.260
  884SOL    HW2 3552   4.769   3.817   1.340
  885SOL     OW 3553   4.306   6.268   0.316
  885SOL    HW1 3554   4.291   6.172   0.342
  885SOL    HW2 3555   4.256   6.328   0.378
  886SOL     OW 3556   4.714   1.581   6.225
  886SOL    HW1 3557   4.638   1.632   6.185
  886SOL    HW2 3558   4.801   1.618   6.192
  887SOL     OW 3559   4.541   0.584   6.142
  887SOL    HW1 3560   4.543   0.664   6.202
  887SOL    HW2 3561   4.454   0.537   6.151
  888SOL     OW 3562   5.896   5.991   3.427
  888SOL    HW1 3563   5.882   6.080   3.471
  888SOL    HW2 3564   5.954   6.003   3.346
  889SOL     OW 3565   0.686   6.730   4.778
  889SOL    HW1 3566   0.664   6.702   4.685
  889SOL    HW2 3567   0.777   6.772   4.780
  890SOL     OW 3568   2.753   4.746   2.133
  890SOL    HW1 3569   2.715   4.824   2.082
  890SOL    HW2 3570   2.789   4.679   2.069
  891SOL     OW 3571   5.984   3.155   6.262
  891SOL    HW1 3572   6.036   3.201   6.190
  891SOL    HW2 3573   5.980   3.056   6.243
  892SOL     OW 3574   3.179   5.094   1.661
  892SOL    HW1 3575   3.105   5.089   1.594
  892SOL    HW2 3576   3.144   5.068   1.751
  893SOL     OW 3577   2.425   0.470   0.696
  893SOL    HW1 3578   2.379   0.555   0.668
  893SOL    HW2 3579   2.523   0.477   0.676
  894SOL     OW 3580   0.762   5.642   3.514
  894SOL    HW1 3581   0.725   5.589   3.590
  894SOL    HW2 3582   0.855   5.612   3.494
  895SOL     OW 3583   1.758   6.866   5.107
  895SOL    HW1 3584   1.817   6.938   5.070
  895SOL    HW2 3585   1.699   6.831   5.034
  896SOL     OW 3586   5.184   7.013   3.118
  896SOL    HW1 3587   5.162   6.933   3.063
  896SOL    HW2 3588   5.103   0.052   3.125
  897SOL     OW 3589   5.474   2.699   6.074
  897SOL    HW1 3590   5.458   2.773   6.139
  897SOL    HW2 3591   5.388   2.673   6.031
  898SOL     OW 3592   5.852   6.449   3.942
  898SOL    HW1 3593   5.779   6.382   3.950
  898SOL    HW2 3594   5.896   6.440   3.853
  899SOL     OW 3595   0.389   4.874   6.215
  899SOL    HW1 3596   0.412   4.814   6.291
  899SOL    HW2 3597   0.473   4.912   6.175
  900SOL     OW 3598   0.988   5.892   3.604
  900SOL    HW1 3599   0.953   5.959   3.538
  900SOL    HW2 3600   0.972   5.799   3.569
  901SOL     OW 3601   5.767   2.531   3.605
  901SOL    HW1 3602   5.703   2.545   3.680
  901SOL    HW2 3603   5.857   2.507   3.642
  902SOL     OW 3604   0.011   6.343   0.074
  902SOL    HW1 3605   0.012   6.374   0.170
  902SOL    HW2 3606   6.961   6.394   0.024
  903SOL     OW 3607   1.110   4.450   0.510
  903SOL    HW1 3608   1.183   4.457   0.578
  903SOL    HW2 3609   1.087   4.542   0.477
  904SOL     OW 3610   1.959   1.667   3.435
  904SOL    HW1 3611   2.046   1.684   3.482
  904SOL    HW2 3612   1.896   1.622   3.498
  905SOL     OW 3613   5.391   1.911   5.071
  905SOL    HW1 3614   5.394   2.006   5.100
  905SOL    HW2 3615   5.470   1.891   5.013
  906SOL     OW 3616   6.386   4.062   5.265
  906SOL    HW1 3617   6.379   4.145   5.319
  906SOL    HW2 3618   6.335   4.072   5.180
  907SOL     OW 3619   6.898   3.571   1.759
  907SOL    HW1 3620   6.868   3.525   1.843
  907SOL    HW2 3621   6.831   3.642   1.735
  908SOL     OW 3622   2.069   0.463   3.347
  908SOL    HW1 3623   2.041   0.556   3.322
  908SOL    HW2 3624   1.990   0.413   3.383
  909SOL     OW 3625   3.670   0.612   1.344
  909SOL    HW1 3626   3.715   0.545   1.284
  909SOL    HW2 3627   3.683   0.704   1.307
  910SOL     OW 3628   1.871   1.830   1.475
  910SOL    HW1 3629   1.969   1.849   1.468
  910SOL    HW2 3630   1.856   1.759   1.545
  911SOL     OW 3631   0.394   4.149   1.057
  911SOL    HW1 3632   0.477   4.122   1.104
  911SOL    HW2 3633   0.330   4.072   1.053
  912SOL     OW 3634   0.671   0.386   5.947
  912SOL    HW1 3635   0.631   0.395   6.038
  912SOL    HW2 3636   0.702   0.475   5.915
  913SOL     OW 3637   2.441   1.405   2.005
  913SOL    HW1 3638   2.517   1.367   1.953
  913SOL    HW2 3639   2.441   1.505   1.996
  914SOL     OW 3640   3.161   6.815   3.004
  914SOL    HW1 3641   3.231   6.842   2.938
  914SOL    HW2 3642   3.168   6.872   3.086
  915SOL     OW 3643   0.741   2.222   0.136
  915SOL    HW1 3644   0.665   2.164   0.164
  915SOL    HW2 3645   0.755   2.214   0.037
  916SOL     OW 3646   1.708   3.308   3.030
  916SOL    HW1 3647   1.758   3.392   3.010
  916SOL    HW2 3648   1.728   3.240   2.959
  917SOL     OW 3649   3.258   2.629   6.982
  917SOL    HW1 3650   3.286   2.552   6.925
  917SOL    HW2 3651   3.209   2.594   0.043
  918SOL     OW 3652   0.949   0.981   5.740
  918SOL    HW1 3653   0.978   0.899   5.789
  918SOL    HW2 3654   0.849   0.987   5.740
  919SOL     OW 3655   2.295   6.553   1.437
  919SOL    HW1 3656   2.386   6.540   1.478
  919SOL    HW2 3657   2.236   6.600   1.502
  920SOL     OW 3658   1.947   0.607   4.408
  920SOL    HW1 3659   2.019   0.577   4.345
  920SOL    HW2 3660   1.905   0.691   4.373
  921SOL     OW 3661   5.195   5.178   6.127
  921SOL    HW1 3662   5.176   5.219   6.038
  921SOL    HW2 3663   5.163   5.238   6.199
  922SOL     OW 3664   2.151   3.442   6.517
  922SOL    HW1 3665   2.208   3.510   6.473
  922SOL    HW2 3666   2.056   3.475   6.522
  923SOL     OW 3667   3.993   0.766   6.499
  923SOL    HW1 3668   3.929   0.689   6.507
  923SOL    HW2 3669   3.960   0.830   6.430
  924SOL     OW 3670   6.381   3.886   3.209
  924SOL    HW1 3671   6.373   3.796   3.166
  924SOL    HW2 3672   6.308   3.946   3.175
  925SOL     OW 3673   6.181   2.041   3.148
  925SOL    HW1 3674   6.153   1.952   3.184
  925SOL    HW2 3675   6.103   2.104   3.149
  926SOL     OW 3676   5.393   6.341   0.877
  926SOL    HW1 3677   5.419   6.379   0.966
  926SOL    HW2 3678   5.422   6.245   0.872
  927SOL     OW 3679   4.257   5.006   4.787
  927SOL    HW1 3680   4.234   5.030   4.881
  927SOL    HW2 3681   4.350   5.036   4.767
  928SOL     OW 3682   0.560   1.103   1.450
  928SOL    HW1 3683   0.489   1.147   1.506
  928SOL    HW2 3684   0.609   1.036   1.505
  929SOL     OW 3685   0.685   2.583   2.850
  929SOL    HW1 3686   0.737   2.504   2.818
  929SOL    HW2 3687   0.747   2.654   2.883
  930SOL     OW 3688   4.858   5.925   3.599
  930SOL    HW1 3689   4.890   5.832   3.620
  930SOL    HW2 3690   4.758   5.924   3.585
  931SOL     OW 3691   1.694   3.053   2.113
  931SOL    HW1 3692   1.717   3.097   2.026
  931SOL    HW2 3693   1.678   3.122   2.183
  932SOL     OW 3694   4.782   6.349   1.303
  932SOL    HW1 3695   4.695   6.301   1.292
  932SOL    HW2 3696   4.805   6.396   1.218
  933SOL     OW 3697   2.094   6.242   3.383
  933SOL    HW1 3698   2.163   6.254   3.312
  933SOL    HW2 3699   2.008   6.213   3.341
  934SOL     OW 3700   2.985   1.301   5.287
  934SOL    HW1 3701   2.988   1.399   5.305
  934SOL    HW2 3702   3.055   1.277   5.221
  935SOL     OW 3703   2.803   3.025   6.929
  935SOL    HW1 3704   2.798   2.927   6.949
  935SOL    HW2 3705   2.713   3.066   6.941
  936SOL     OW 3706   0.554   1.710   1.913
  936SOL    HW1 3707   0.647   1.737   1.887
  936SOL    HW2 3708   0.517   1.649   1.843
  937SOL     OW 3709   5.021   2.346   3.992
  937SOL    HW1 3710   5.001   2.443   4.007
  937SOL    HW2 3711   5.073   2.336   3.908
  938SOL     OW 3712   6.998   2.218   7.012
  938SOL    HW1 3713   0.052   2.196   0.057
  938SOL    HW2 3714   6.994   2.148   6.941
  939SOL     OW 3715   6.305   1.057   5.827
  939SOL    HW1 3716   6.336   1.116   5.752
  939SOL    HW2 3717   6.216   1.019   5.805
  940SOL     OW 3718   0.505   0.603   4.256
  940SOL    HW1 3719   0.503   0.703   4.252
  940SOL    HW2 3720   0.441   0.566   4.188
  941SOL     OW 3721   5.466   2.769   4.774
  941SOL    HW1 3722   5.442   2.675   4.750
  941SOL    HW2 3723   5.516   2.769   4.861
  942SOL     OW 3724   5.132   0.143   5.586
  942SOL    HW1 3725   5.120   0.230   5.539
  942SOL    HW2 3726   5.228   0.114   5.578
  943SOL     OW 3727   5.900   1.913   0.236
  943SOL    HW1 3728   5.942   1.922   0.145
  943SOL    HW2 3729   5.831   1.840   0.234
  944SOL     OW 3730   6.261   4.079   4.690
  944SOL    HW1 3731   6.261   4.164   4.742
  944SOL    HW2 3732   6.312   4.091   4.605
  945SOL     OW 3733   5.430   4.240   5.447
  945SOL    HW1 3734   5.450   4.154   5.402
  945SOL    HW2 3735   5.488   4.312   5.409
  946SOL     OW 3736   5.932   3.064   5.980
  946SOL    HW1 3737   5.867   3.053   6.056
  946SOL    HW2 3738   6.008   3.001   5.993
  947SOL     OW 3739   1.944   3.094   5.685
  947SOL    HW1 3740   2.038   3.119   5.660
  947SOL    HW2 3741   1.885   3.175   5.680
  948SOL     OW 3742   3.624   1.936   0.217
  948SOL    HW1 3743   3.713   1.976   0.195
  948SOL    HW2 3744   3.588   1.980   0.300
  949SOL     OW 3745   5.580   5.844   6.229
  949SOL    HW1 3746   5.486   5.810   6.235
  949SOL    HW2 3747   5.615   5.860   6.322
  950SOL     OW 3748   4.064   5.364   0.868
  950SOL    HW1 3749   4.085   5.383   0.964
  950SOL    HW2 3750   4.062   5.265   0.853
  951SOL     OW 3751   1.268   2.286   3.054
  951SOL    HW1 3752   1.267   2.364   3.117
  951SOL    HW2 3753   1.179   2.278   3.009
  952SOL     OW 3754   5.372   1.847   1.772
  952SOL    HW1 3755   5.277   1.825   1.749
  952SOL    HW2 3756   5.380   1.857   1.872
  953SOL     OW 3757   3.474   0.201   6.463
  953SOL    HW1 3758   3.537   0.222   6.537
  953SOL    HW2 3759   3.525   0.187   6.379
  954SOL     OW 3760   0.217   6.145   0.922
  954SOL    HW1 3761   0.167   6.125   1.007
  954SOL    HW2 3762   0.299   6.198   0.943
  955SOL     OW 3763   6.396   0.139   2.288
  955SOL    HW1 3764   6.375   0.044   2.263
  955SOL    HW2 3765   6.462   0.177   2.224
  956SOL     OW 3766   1.051   2.475   0.402
  956SOL    HW1 3767   1.133   2.532   0.395
  956SOL    HW2 3768   1.078   2.379   0.405
  957SOL     OW 3769   2.446   6.351   5.271
  957SOL    HW1 3770   2.432   6.277   5.337
  957SOL    HW2 3771   2.385   6.427   5.291
  958SOL     OW 3772   5.192   2.298   0.304
  958SOL    HW1 3773   5.290   2.281   0.290
  958SOL    HW2 3774   5.169   2.282   0.400
  959SOL     OW 3775   1.311   4.542   2.631
  959SOL    HW1 3776   1.347   4.604   2.700
  959SOL    HW2 3777   1.285   4.455   2.674
  960SOL     OW 3778   1.891   5.541   5.516
  960SOL    HW1 3779   1.875   5.510   5.423
  960SOL    HW2 3780   1.987   5.564   5.528
  961SOL     OW 3781   3.714   6.529   1.898
  961SOL    HW1 3782   3.640   6.577   1.945
  961SOL    HW2 3783   3.680   6.444   1.859
  962SOL     OW 3784   1.303   6.659   4.427
  962SOL    HW1 3785   1.231   6.673   4.360
  962SOL    HW2 3786   1.385   6.709   4.399
  963SOL     OW 3787   5.947   0.638   1.537
  963SOL    HW1 3788   5.936   0.582   1.619
  963SOL    HW2 3789   6.020   0.705   1.552
  964SOL     OW 3790   5.084   4.077   1.135
  964SOL    HW1 3791   5.177   4.101   1.165
  964SOL    HW2 3792   5.018   4.134   1.183
  965SOL     OW 3793   0.814   2.476   0.844
  965SOL    HW1 3794   0.829   2.460   0.747
  965SOL    HW2 3795   0.793   2.573   0.859
  966SOL     OW 3796   0.405   1.921   1.499
  966SOL    HW1 3797   0.385   1.862   1.421
  966SOL    HW2 3798   0.377   1.874   1.583
  967SOL     OW 3799   0.692   6.309   2.699
  967SOL    HW1 3800   0.698   6.222   2.650
  967SOL    HW2 3801   0.676   6.292   2.796
  968SOL     OW 3802   6.200   3.866   2.501
  968SOL    HW1 3803   6.162   3.910   2.419
  968SOL    HW2 3804   6.256   3.932   2.551
  969SOL     OW 3805   4.598   6.453   5.900
  969SOL    HW1 3806   4.511   6.423   5.859
  969SOL    HW2 3807   4.662   6.376   5.902
  970SOL     OW 3808   4.345   2.164   5.237
  970SOL    HW1 3809   4.431   2.193   5.195
  970SOL    HW2 3810   4.359   2.078   5.286
  971SOL     OW 3811   0.318   2.247   1.687
  971SOL    HW1 3812   0.314   2.149   1.710
  971SOL    HW2 3813   0.404   2.266   1.639
  972SOL     OW 3814   0.112   5.575   1.560
  972SOL    HW1 3815   0.015   5.556   1.548
  972SOL    HW2 3816   0.140   5.550   1.653
  973SOL     OW 3817   6.184   4.176   5.600
  973SOL    HW1 3818   6.240   4.228   5.537
  973SOL    HW2 3819   6.237   4.099   5.637
  974SOL     OW 3820   2.474   1.037   4.269
  974SOL    HW1 3821   2.396   1.078   4.221
  974SOL    HW2 3822   2.495   0.947   4.229
  975SOL     OW 3823   3.503   6.765   5.640
  975SOL    HW1 3824   3.509   6.674   5.598
  975SOL    HW2 3825   3.437   6.762   5.716
  976SOL     OW 3826   0.310   5.521   3.710
  976SOL    HW1 3827   0.220   5.510   3.668
  976SOL    HW2 3828   0.375   5.459   3.666
  977SOL     OW 3829   1.327   1.698   3.113
  977SOL    HW1 3830   1.307   1.740   3.202
  977SOL    HW2 3831   1.420   1.722   3.085
  978SOL     OW 3832   5.668   3.092   4.672
  978SOL    HW1 3833   5.673   3.186   4.704
  978SOL    HW2 3834   5.634   3.033   4.745
  979SOL     OW 3835   5.304   0.871   3.230
  979SOL    HW1 3836   5.381   0.875   3.166
  979SOL    HW2 3837   5.302   0.782   3.275
  980SOL     OW 3838   5.773   0.954   4.866
  980SOL    HW1 3839   5.678   0.979   4.884
  980SOL    HW2 3840   5.833   1.030   4.890
  981SOL     OW 3841   0.170   2.924   5.721
  981SOL    HW1 3842   0.185   3.006   5.665
  981SOL    HW2 3843   0.094   2.871   5.683
  982SOL     OW 3844   1.412   3.224   1.253
  982SOL    HW1 3845   1.403   3.188   1.345
  982SOL    HW2 3846   1.399   3.150   1.187
  983SOL     OW 3847   5.450   1.272   3.179
  983SOL    HW1 3848   5.396   1.198   3.138
  983SOL    HW2 3849   5.518   1.304   3.113
  984SOL     OW 3850   4.902   0.815   4.297
  984SOL    HW1 3851   4.848   0.871   4.361
  984SOL    HW2 3852   4.897   0.855   4.205
  985SOL     OW 3853   3.215   5.581   6.969
  985SOL    HW1 3854   3.279   5.637   6.916
  985SOL    HW2 3855   3.143   5.639   7.007
  986SOL     OW 3856   4.591   5.345   6.245
  986SOL    HW1 3857   4.496   5.327   6.269
  986SOL    HW2 3858   4.608   5.317   6.151
  987SOL     OW 3859   3.619   6.790   2.513
  987SOL    HW1 3860   3.618   6.692   2.530
  987SOL    HW2 3861   3.689   6.833   2.571
  988SOL     OW 3862   3.415   3.975   2.000
  988SOL    HW1 3863   3.324   3.990   1.962
  988SOL    HW2 3864   3.443   3.880   1.984
  989SOL     OW 3865   1.011   7.016   5.138
  989SOL    HW1 3866   0.926   0.046   5.124
  989SOL    HW2 3867   0.992   6.919   5.150
  990SOL     OW 3868   4.726   6.099   3.814
  990SOL    HW1 3869   4.678   6.178   3.776
  990SOL    HW2 3870   4.809   6.082   3.762
  991SOL     OW 3871   6.276   1.562   5.083
  991SOL    HW1 3872   6.182   1.595   5.093
  991SOL    HW2 3873   6.333   1.635   5.045
  992SOL     OW 3874   0.405   3.508   0.850
  992SOL    HW1 3875   0.415   3.518   0.751
  992SOL    HW2 3876   0.355   3.424   0.871
  993SOL     OW 3877   3.324   4.921   3.689
  993SOL    HW1 3878   3.262   4.947   3.615
  993SOL    HW2 3879   3.406   4.879   3.650
  994SOL     OW 3880   2.869   3.528   2.687
  994SOL    HW1 3881   2.864   3.476   2.601
  994SOL    HW2 3882   2.856   3.625   2.668
  995SOL     OW 3883   0.987   1.282   4.941
  995SOL    HW1 3884   0.946   1.371   4.920
  995SOL    HW2 3885   1.082   1.280   4.910
  996SOL     OW 3886   1.302   3.905   2.448
  996SOL    HW1 3887   1.218   3.918   2.501
  996SOL    HW2 3888   1.381   3.935   2.502
  997SOL     OW 3889   6.632   0.887   1.603
  997SOL    HW1 3890   6.559   0.915   1.666
  997SOL    HW2 3891   6.633   0.949   1.524
  998SOL     OW 3892   4.801   0.010   2.953
  998SOL    HW1 3893   4.892   0.052   2.956
  998SOL    HW2 3894   4.731   0.080   2.968
  999SOL     OW 3895   0.359   5.246   1.028
  999SOL    HW1 3896   0.417   5.327   1.037
  999SOL    HW2 3897   0.415   5.167   1.003
 1000SOL     OW 3898   3.984   1.662   3.955
 1000SOL    HW1 3899   4.022   1.723   3.886
 1000SOL    HW2 3900   3.951   1.579   3.911
 1001SOL     OW 3901   4.637   0.383   5.464
 1001SOL    HW1 3902   4.719   0.340   5.500
 1001SOL    HW2 3903   4.558   0.323   5.480
 1002SOL     OW 3904   6.587   1.731   0.875
 1002SOL    HW1 3905   6.558   1.823   0.904
 1002SOL    HW2 3906   6.548   1.710   0.786
 1003SOL     OW 3907   4.471   5.119   2.496
 1003SOL    HW1 3908   4.432   5.173   2.422
 1003SOL    HW2 3909   4.411   5.124   2.576
 1004SOL     OW 3910   6.127   5.847   6.690
 1004SOL    HW1 3911   6.087   5.904   6.761
 1004SOL    HW2 3912   6.204   5.795   6.728
 1005SOL     OW 3913   6.628   6.464   3.781
 1005SOL    HW1 3914   6.659   6.371   3.758
 1005SOL    HW2 3915   6.707   6.525   3.786
 1006SOL     OW 3916   2.298   4.631   0.848
 1006SOL    HW1 3917   2.319   4.593   0.937
 1006SOL    HW2 3918   2.339   4.574   0.776
 1007SOL     OW 3919   0.480   1.054   3.170
 1007SOL    HW1 3920   0.469   1.104   3.084
 1007SOL    HW2 3921   0.562   1.087   3.217
 1008SOL     OW 3922   2.128   3.201   3.324
 1008SOL    HW1 3923   2.099   3.252   3.404
 1008SOL    HW2 3924   2.219   3.162   3.340
 1009SOL     OW 3925   1.411   6.008   5.012
 1009SOL    HW1 3926   1.329   6.064   5.001
 1009SOL    HW2 3927   1.451   5.987   4.923
 1010SOL     OW 3928   5.068   1.595   0.157
 1010SOL    HW1 3929   5.104   1.679   0.117
 1010SOL    HW2 3930   5.044   1.531   0.084
 1011SOL     OW 3931   3.607   6.091   3.605
 1011SOL    HW1 3932   3.590   6.186   3.582
 1011SOL    HW2 3933   3.524   6.050   3.642
 1012SOL     OW 3934   4.810   5.315   6.823
 1012SOL    HW1 3935   4.833   5.369   6.905
 1012SOL    HW2 3936   4.893   5.300   6.770
 1013SOL     OW 3937   0.538   0.828   1.301
 1013SOL    HW1 3938   0.559   0.849   1.397
 1013SOL    HW2 3939   0.623   0.814   1.251
 1014SOL     OW 3940   4.601   0.261   5.780
 1014SOL    HW1 3941   4.574   0.356   5.796
 1014SOL    HW2 3942   4.534   0.216   5.721
 1015SOL     OW 3943   3.149   6.230   4.240
 1015SOL    HW1 3944   3.121   6.262   4.330
 1015SOL    HW2 3945   3.105   6.143   4.220
 1016SOL     OW 3946   4.611   2.787   1.555
 1016SOL    HW1 3947   4.631   2.884   1.540
 1016SOL    HW2 3948   4.563   2.750   1.476
 1017SOL     OW 3949   4.101   1.956   6.732
 1017SOL    HW1 3950   4.145   2.031   6.682
 1017SOL    HW2 3951   4.152   1.871   6.715
 1018SOL     OW 3952   1.578   3.904   2.618
 1018SOL    HW1 3953   1.656   3.864   2.569
 1018SOL    HW2 3954   1.547   3.840   2.689
 1019SOL     OW 3955   6.443   0.902   0.490
 1019SOL    HW1 3956   6.411   0.995   0.471
 1019SOL    HW2 3957   6.444   0.888   0.589
 1020SOL     OW 3958   2.679   1.698   1.771
 1020SOL    HW1 3959   2.734   1.623   1.806
 1020SOL    HW2 3960   2.697   1.711   1.673
 1021SOL     OW 3961   6.557   1.369   1.429
 1021SOL    HW1 3962   6.472   1.373   1.483
 1021SOL    HW2 3963   6.613   1.449   1.451
 1022SOL     OW 3964   4.208   2.979   6.727
 1022SOL    HW1 3965   4.137   3.049   6.741
 1022SOL    HW2 3966   4.287   3.021   6.682
 1023SOL     OW 3967   5.413   1.062   3.457
 1023SOL    HW1 3968   5.510   1.042   3.464
 1023SOL    HW2 3969   5.374   1.011   3.380
 1024SOL     OW 3970   6.086   1.554   3.125
 1024SOL    HW1 3971   6.056   1.469   3.167
 1024SOL    HW2 3972   6.150   1.534   3.051
 1025SOL     OW 3973   2.968   4.582   1.135
 1025SOL    HW1 3974   2.963   4.487   1.166
 1025SOL    HW2 3975   2.879   4.626   1.148
 1026SOL     OW 3976   1.291   2.245   0.047
 1026SOL    HW1 3977   1.229   2.208   0.117
 1026SOL    HW2 3978   1.378   2.270   0.089
 1027SOL     OW 3979   2.666   4.922   2.605
 1027SOL    HW1 3980   2.683   4.888   2.697
 1027SOL    HW2 3981   2.697   4.855   2.538
 1028SOL     OW 3982   1.556   6.523   0.466
 1028SOL    HW1 3983   1.638   6.554   0.418
 1028SOL    HW2 3984   1.547   6.573   0.553
 1029SOL     OW 3985   3.076   0.845   6.303
 1029SOL    HW1 3986   3.058   0.898   6.385
 1029SOL    HW2 3987   3.073   0.905   6.223
 1030SOL     OW 3988   3.676   4.137   4.861
 1030SOL    HW1 3989   3.704   4.058   4.915
 1030SOL    HW2 3990   3.720   4.219   4.897
 1031SOL     OW 3991   2.363   5.568   1.245
 1031SOL    HW1 3992   2.408   5.636   1.187
 1031SOL    HW2 3993   2.288   5.612   1.295
 1032SOL     OW 3994   1.700   0.771   4.304
 1032SOL    HW1 3995   1.630   0.716   4.260
 1032SOL    HW2 3996   1.680   0.779   4.402
 1033SOL     OW 3997   2.130   5.949   3.492
 1033SOL    HW1 3998   2.186   5.889   3.436
 1033SOL    HW2 3999   2.165   6.043   3.486
 1034SOL     OW 4000   1.326   4.790   3.932
 1034SOL    HW1 4001   1.252   4.854   3.951
 1034SOL    HW2 4002   1.382   4.778   4.014
 1035SOL     OW 4003   1.906   1.202   4.626
 1035SOL    HW1 4004   1.863   1.273   4.682
 1035SOL    HW2 4005   1.998   1.183   4.662
 1036SOL     OW 4006   4.895   1.907   0.376
 1036SOL    HW1 4007   4.873   1.827   0.320
 1036SOL    HW2 4008   4.983   1.893   0.420
 1037SOL     OW 4009   2.813   2.217   6.784
 1037SOL    HW1 4010   2.823   2.316   6.797
 1037SOL    HW2 4011   2.865   2.169   6.854
 1038SOL     OW 4012   2.063   0.851   4.292
 1038SOL    HW1 4013   2.017   0.939   4.294
 1038SOL    HW2 4014   2.099   0.834   4.200
 1039SOL     OW 4015   3.896   1.631   3.268
 1039SOL    HW1 4016   3.899   1.721   3.224
 1039SOL    HW2 4017   3.817   1.627   3.330
 1040SOL     OW 4018   6.521   4.306   3.326
 1040SOL    HW1 4019   6.429   4.311   3.363
 1040SOL    HW2 4020   6.524   4.236   3.254
 1041SOL     OW 4021   0.481   0.053   4.223
 1041SOL    HW1 4022   0.491   0.030   4.320
 1041SOL    HW2 4023   0.492   0.152   4.211
 1042SOL     OW 4024   5.382   4.093   0.831
 1042SOL    HW1 4025   5.432   4.130   0.909
 1042SOL    HW2 4026   5.307   4.035   0.863
 1043SOL     OW 4027   3.048   1.029   6.513
 1043SOL    HW1 4028   3.003   1.116   6.491
 1043SOL    HW2 4029   3.147   1.039   6.502
 1044SOL     OW 4030   4.389   3.428   1.691
 1044SOL    HW1 4031   4.324   3.373   1.638
 1044SOL    HW2 4032   4.471   3.444   1.637
 1045SOL     OW 4033   3.043   1.502   3.283
 1045SOL    HW1 4034   3.114   1.449   3.329
 1045SOL    HW2 4035   3.047   1.597   3.313
 1046SOL     OW 4036   3.730   0.835   1.840
 1046SOL    HW1 4037   3.788   0.917   1.844
 1046SOL    HW2 4038   3.636   0.862   1.823
 1047SOL     OW 4039   1.123   5.135   2.324
 1047SOL    HW1 4040   1.081   5.144   2.415
 1047SOL    HW2 4041   1.056   5.096   2.261
 1048SOL     OW 4042   5.768   4.299   5.560
 1048SOL    HW1 4043   5.861   4.302   5.597
 1048SOL    HW2 4044   5.727   4.209   5.580
 1049SOL     OW 4045   0.696   3.292   4.846
 1049SOL    HW1 4046   0.675   3.194   4.847
 1049SOL    HW2 4047   0.778   3.308   4.792
 1050SOL     OW 4048   3.267   0.586   6.660
 1050SOL    HW1 4049   3.352   0.561   6.706
 1050SOL    HW2 4050   3.257   0.531   6.577
 1051SOL     OW 4051   4.289   4.722   1.443
 1051SOL    HW1 4052   4.236   4.696   1.362
 1051SOL    HW2 4053   4.264   4.814   1.472
 1052SOL     OW 4054   3.396   7.017   4.311
 1052SOL    HW1 4055   3.496   7.015   4.311
 1052SOL    HW2 4056   3.365   0.081   4.356
 1053SOL     OW 4057   4.183   4.743   3.486
 1053SOL    HW1 4058   4.198   4.812   3.415
 1053SOL    HW2 4059   4.170   4.653   3.444
 1054SOL     OW 4060   3.745   6.111   4.465
 1054SOL    HW1 4061   3.797   6.141   4.546
 1054SOL    HW2 4062   3.693   6.189   4.429
 1055SOL     OW 4063   4.717   5.140   5.111
 1055SOL    HW1 4064   4.719   5.048   5.071
 1055SOL    HW2 4065   4.622   5.167   5.127
 1056SOL     OW 4066   0.977   6.369   4.933
 1056SOL    HW1 4067   0.947   6.411   5.018
 1056SOL    HW2 4068   0.958   6.430   4.857
 1057SOL     OW 4069   3.746   4.201   1.798
 1057SOL    HW1 4070   3.797   4.192   1.884
 1057SOL    HW2 4071   3.648   4.197   1.818
 1058SOL     OW 4072   3.786   1.206   1.216
 1058SOL    HW1 4073   3.715   1.219   1.285
 1058SOL    HW2 4074   3.768   1.122   1.165
 1059SOL     OW 4075   3.083   1.506   0.900
 1059SOL    HW1 4076   3.041   1.580   0.953
 1059SOL    HW2 4077   3.017   1.432   0.888
 1060SOL     OW 4078   2.556   2.475   5.097
 1060SOL    HW1 4079   2.500   2.540   5.044
 1060SOL    HW2 4080   2.622   2.431   5.036
 1061SOL     OW 4081   3.269   5.871   1.463
 1061SOL    HW1 4082   3.243   5.961   1.498
 1061SOL    HW2 4083   3.200   5.804   1.488
 1062SOL     OW 4084   5.357   4.485   5.224
 1062SOL    HW1 4085   5.445   4.446   5.252
 1062SOL    HW2 4086   5.347   4.576   5.263
 1063SOL     OW 4087   1.987   2.766   6.186
 1063SOL    HW1 4088   1.955   2.708   6.111
 1063SOL    HW2 4089   1.932   2.749   6.267
 1064SOL     OW 4090   0.094   3.401   1.550
 1064SOL    HW1 4091   0.176   3.381   1.497
 1064SOL    HW2 4092   0.054   3.487   1.520
 1065SOL     OW 4093   6.068   6.040   5.045
 1065SOL    HW1 4094   6.149   5.984   5.029
 1065SOL    HW2 4095   6.066   6.115   4.979
 1066SOL     OW 4096   4.176   0.649   3.866
 1066SOL    HW1 4097   4.125   0.576   3.911
 1066SOL    HW2 4098   4.198   0.721   3.932
 1067SOL     OW 4099   1.576   3.425   1.218
 1067SOL    HW1 4100   1.497   3.365   1.236
 1067SOL    HW2 4101   1.581   3.444   1.120
 1068SOL     OW 4102   0.788   3.643   1.697
 1068SOL    HW1 4103   0.810   3.546   1.699
 1068SOL    HW2 4104   0.701   3.656   1.649
 1069SOL     OW 4105   3.758   3.870   1.584
 1069SOL    HW1 4106   3.842   3.851   1.635
 1069SOL    HW2 4107   3.763   3.962   1.545
 1070SOL     OW 4108   2.100   0.907   6.876
 1070SOL    HW1 4109   2.149   0.832   6.920
 1070SOL    HW2 4110   2.104   0.988   6.935
 1071SOL     OW 4111   4.202   6.445   3.550
 1071SOL    HW1 4112   4.123   6.405   3.596
 1071SOL    HW2 4113   4.204   6.416   3.455
 1072SOL     OW 4114   3.668   5.750   2.913
 1072SOL    HW1 4115   3.600   5.804   2.863
 1072SOL    HW2 4116   3.695   5.799   2.996
 1073SOL     OW 4117   2.708   4.820   2.846
 1073SOL    HW1 4118   2.777   4.841   2.915
 1073SOL    HW2 4119   2.643   4.754   2.884
 1074SOL     OW 4120   1.296   5.355   2.259
 1074SOL    HW1 4121   1.235   5.296   2.313
 1074SOL    HW2 4122   1.297   5.447   2.299
 1075SOL     OW 4123   0.449   4.213   3.215
 1075SOL    HW1 4124   0.534   4.179   3.256
 1075SOL    HW2 4125   0.470   4.279   3.144
 1076SOL     OW 4126   0.365   5.324   3.321
 1076SOL    HW1 4127   0.293   5.327   3.251
 1076SOL    HW2 4128   0.431   5.398   3.304
 1077SOL     OW 4129   4.685   0.368   0.543
 1077SOL    HW1 4130   4.608   0.320   0.500
 1077SOL    HW2 4131   4.768   0.354   0.489
 1078SOL     OW 4132   0.997   2.025   1.256
 1078SOL    HW1 4133   1.077   1.968   1.238
 1078SOL    HW2 4134   1.027   2.117   1.280
 1079SOL     OW 4135   2.198   5.388   2.890
 1079SOL    HW1 4136   2.204   5.458   2.819
 1079SOL    HW2 4137   2.111   5.396   2.938
 1080SOL     OW 4138   1.763   5.312   4.099
 1080SOL    HW1 4139   1.837   5.364   4.144
 1080SOL    HW2 4140   1.688   5.300   4.164
 1081SOL     OW 4141   1.284   0.982   6.976
 1081SOL    HW1 4142   1.380   0.957   6.989
 1081SOL    HW2 4143   1.278   1.070   6.929
 1082SOL     OW 4144   2.045   0.071   6.814
 1082SOL    HW1 4145   2.117   0.007   6.840
 1082SOL    HW2 4146   1.990   0.032   6.740
 1083SOL     OW 4147   3.837   2.960   1.309
 1083SOL    HW1 4148   3.771   2.912   1.367
 1083SOL    HW2 4149   3.927   2.959   1.353
 1084SOL     OW 4150   6.596   3.912   0.601
 1084SOL    HW1 4151   6.624   3.990   0.545
 1084SOL    HW2 4152   6.496   3.913   0.611
 1085SOL     OW 4153   2.225   4.029   3.686
 1085SOL    HW1 4154   2.318   3.998   3.705
 1085SOL    HW2 4155   2.160   3.956   3.711
 1086SOL     OW 4156   4.090   4.990   1.883
 1086SOL    HW1 4157   4.013   4.954   1.936
 1086SOL    HW2 4158   4.092   5.090   1.891
 1087SOL     OW 4159   4.044   2.768   5.603
 1087SOL    HW1 4160   3.947   2.783   5.583
 1087SOL    HW2 4161   4.095   2.767   5.518
 1088SOL     OW 4162   5.207   3.809   3.335
 1088SOL    HW1 4163   5.262   3.870   3.277
 1088SOL    HW2 4164   5.229   3.827   3.431
 1089SOL     OW 4165   6.017   0.184   3.640
 1089SOL    HW1 4166   5.972   0.149   3.558
 1089SOL    HW2 4167   6.006   0.283   3.645
 1090SOL     OW 4168   0.698   2.282   5.316
 1090SOL    HW1 4169   0.768   2.280   5.386
 1090SOL    HW2 4170   0.735   2.246   5.230
 1091SOL     OW 4171   1.077   1.823   4.634
 1091SOL    HW1 4172   1.089   1.910   4.586
 1091SOL    HW2 4173   1.097   1.836   4.732
 1092SOL     OW 4174   2.426   4.498   1.127
 1092SOL    HW1 4175   2.379   4.578   1.164
 1092SOL    HW2 4176   2.417   4.422   1.191
 1093SOL     OW 4177   0.511   1.814   2.752
 1093SOL    HW1 4178   0.575   1.739   2.768
 1093SOL    HW2 4179   0.503   1.829   2.653
 1094SOL     OW 4180   1.018   6.351   1.602
 1094SOL    HW1 4181   0.940   6.302   1.563
 1094SOL    HW2 4182   1.006   6.360   1.701
 1095SOL     OW 4183   6.298   3.833   5.867
 1095SOL    HW1 4184   6.386   3.800   5.833
 1095SOL    HW2 4185   6.236   3.848   5.790
 1096SOL     OW 4186   3.491   4.156   1.802
 1096SOL    HW1 4187   3.459   4.071   1.845
 1096SOL    HW2 4188   3.412   4.204   1.762
 1097SOL     OW 4189   1.753   4.637   5.273
 1097SOL    HW1 4190   1.766   4.701   5.348
 1097SOL    HW2 4191   1.692   4.677   5.205
 1098SOL     OW 4192   3.891   1.356   3.161
 1098SOL    HW1 4193   3.913   1.436   3.216
 1098SOL    HW2 4194   3.801   1.370   3.118
 1099SOL     OW 4195   3.486   1.600   2.753
 1099SOL    HW1 4196   3.560   1.666   2.758
 1099SOL    HW2 4197   3.469   1.563   2.844
 1100SOL     OW 4198   0.828   0.450   0.860
 1100SOL    HW1 4199   0.865   0.360   0.840
 1100SOL    HW2 4200   0.739   0.461   0.814
 1101SOL     OW 4201   5.256   2.671   0.601
 1101SOL    HW1 4202   5.354   2.688   0.586
 1101SOL    HW2 4203   5.213   2.753   0.638
 1102SOL     OW 4204   0.566   4.913   3.481
 1102SOL    HW1 4205   0.563   4.835   3.544
 1102SOL    HW2 4206   0.478   4.924   3.436
 1103SOL     OW 4207   0.778   3.219   1.446
 1103SOL    HW1 4208   0.766   3.170   1.533
 1103SOL    HW2 4209   0.822   3.160   1.379
 1104SOL     OW 4210   2.943   5.218   5.605
 1104SOL    HW1 4211   2.883   5.221   5.525
 1104SOL    HW2 4212   3.036   5.197   5.577
 1105SOL     OW 4213   4.364   5.967   0.135
 1105SOL    HW1 4214   4.409   5.976   0.224
 1105SOL    HW2 4215   4.393   5.882   0.091
 1106SOL     OW 4216   0.655   1.834   6.029
 1106SOL    HW1 4217   0.752   1.829   6.005
 1106SOL    HW2 4218   0.640   1.912   6.089
 1107SOL     OW 4219   1.308   0.463   1.347
 1107SOL    HW1 4220   1.261   0.490   1.264
 1107SOL    HW2 4221   1.378   0.530   1.370
 1108SOL     OW 4222   0.798   1.966   6.396
 1108SOL    HW1 4223   0.857   1.980   6.317
 1108SOL    HW2 4224   0.710   1.931   6.366
 1109SOL     OW 4225   4.514   1.387   4.052
 1109SOL    HW1 4226   4.464   1.464   4.013
 1109SOL    HW2 4227   4.612   1.407   4.051
 1110SOL     OW 4228   3.946   2.992   2.035
 1110SOL    HW1 4229   3.988   2.906   2.006
 1110SOL    HW2 4230   3.861   3.007   1.984
 1111SOL     OW 4231   5.522   6.782   0.061
 1111SOL    HW1 4232   5.598   6.841   0.034
 1111SOL    HW2 4233   5.558   6.692   0.086
 1112SOL     OW 4234   6.287   1.031   2.794
 1112SOL    HW1 4235   6.361   0.979   2.835
 1112SOL    HW2 4236   6.199   0.999   2.830
 1113SOL     OW 4237   6.163   3.994   1.592
 1113SOL    HW1 4238   6.138   3.898   1.603
 1113SOL    HW2 4239   6.257   4.001   1.559
 1114SOL     OW 4240   5.067   1.768   4.883
 1114SOL    HW1 4241   5.125   1.690   4.860
 1114SOL    HW2 4242   5.015   1.795   4.802
 1115SOL     OW 4243   2.289   3.262   0.939
 1115SOL    HW1 4244   2.367   3.200   0.938
 1115SOL    HW2 4245   2.205   3.209   0.923
 1116SOL     OW 4246   4.208   5.503   5.089
 1116SOL    HW1 4247   4.223   5.440   5.013
 1116SOL    HW2 4248   4.121   5.481   5.134
 1117SOL     OW 4249   2.761   3.260   0.886
 1117SOL    HW1 4250   2.829   3.214   0.942
 1117SOL    HW2 4251   2.676   3.208   0.886
 1118SOL     OW 4252   1.907   3.806   3.464
 1118SOL    HW1 4253   1.980   3.740   3.482
 1118SOL    HW2 4254   1.824   3.758   3.435
 1119SOL     OW 4255   3.627   4.136   2.066
 1119SOL    HW1 4256   3.556   4.069   2.045
 1119SOL    HW2 4257   3.586   4.217   2.107
 1120SOL     OW 4258   4.280   0.548   4.457
 1120SOL    HW1 4259   4.277   0.471   4.520
 1120SOL    HW2 4260   4.364   0.600   4.473
 1121SOL     OW 4261   5.607   3.226   2.340
 1121SOL    HW1 4262   5.585   3.200   2.246
 1121SOL    HW2 4263   5.577   3.319   2.357
 1122SOL     OW 4264   4.956   4.722   6.919
 1122SOL    HW1 4265   4.923   4.639   6.964
 1122SOL    HW2 4266   5.052   4.709   6.893
 1123SOL     OW 4267   3.857   0.689   1.624
 1123SOL    HW1 4268   3.801   0.682   1.541
 1123SOL    HW2 4269   3.799   0.719   1.700
 1124SOL     OW 4270   1.249   4.488   4.395
 1124SOL    HW1 4271   1.331   4.541   4.419
 1124SOL    HW2 4272   1.171   4.522   4.448
 1125SOL     OW 4273   4.126   3.408   4.923
 1125SOL    HW1 4274   4.151   3.413   4.827
 1125SOL    HW2 4275   4.129   3.500   4.963
 1126SOL     OW 4276   5.798   6.956   2.379
 1126SOL    HW1 4277   5.793   0.036   2.370
 1126SOL    HW2 4278   5.845   6.918   2.299
 1127SOL     OW 4279   1.595   4.616   6.955
 1127SOL    HW1 4280   1.523   4.550   6.979
 1127SOL    HW2 4281   1.564   4.708   6.980
 1128SOL     OW 4282   3.116   1.587   4.659
 1128SOL    HW1 4283   3.046   1.639   4.707
 1128SOL    HW2 4284   3.158   1.645   4.589
 1129SOL     OW 4285   5.244   6.861   0.076
 1129SOL    HW1 4286   5.230   6.953   0.041
 1129SOL    HW2 4287   5.340   6.847   0.099
 1130SOL     OW 4288   0.221   4.984   5.779
 1130SOL    HW1 4289   0.252   5.046   5.851
 1130SOL    HW2 4290   0.293   4.974   5.711
 1131SOL     OW 4291   0.641   5.066   6.119
 1131SOL    HW1 4292   0.642   5.151   6.171
 1131SOL    HW2 4293   0.558   5.062   6.063
 1132SOL     OW 4294   4.849   0.380   5.970
 1132SOL    HW1 4295   4.787   0.367   6.048
 1132SOL    HW2 4296   4.874   0.290   5.933
 1133SOL     OW 4297   0.847   3.288   0.987
 1133SOL    HW1 4298   0.845   3.220   0.914
 1133SOL    HW2 4299   0.756   3.327   0.999
 1134SOL     OW 4300   6.370   2.949   5.616
 1134SOL    HW1 4301   6.322   3.021   5.565
 1134SOL    HW2 4302   6.445   2.990   5.667
 1135SOL     OW 4303   4.738   1.279   3.349
 1135SOL    HW1 4304   4.826   1.240   3.376
 1135SOL    HW2 4305   4.745   1.316   3.256
 1136SOL     OW 4306   3.483   5.238   4.408
 1136SOL    HW1 4307   3.418   5.237   4.333
 1136SOL    HW2 4308   3.571   5.201   4.378
 1137SOL     OW 4309   1.770   1.419   6.070
 1137SOL    HW1 4310   1.749   1.427   5.972
 1137SOL    HW2 4311   1.869   1.416   6.083
 1138SOL     OW 4312   0.756   4.377   5.500
 1138SOL    HW1 4313   0.780   4.468   5.466
 1138SOL    HW2 4314   0.838   4.320   5.503
 1139SOL     OW 4315   1.276   6.568   1.727
 1139SOL    HW1 4316   1.233   6.627   1.659
 1139SOL    HW2 4317   1.283   6.475   1.691
 1140SOL     OW 4318   3.079   1.866   4.003
 1140SOL    HW1 4319   3.049   1.809   4.080
 1140SOL    HW2 4320   3.146   1.815   3.949
 1141SOL     OW 4321   6.644   5.796   5.711
 1141SOL    HW1 4322   6.601   5.863   5.772
 1141SOL    HW2 4323   6.742   5.812   5.709
 1142SOL     OW 4324   5.855   0.861   3.888
 1142SOL    HW1 4325   5.844   0.782   3.828
 1142SOL    HW2 4326   5.949   0.866   3.920
 1143SOL     OW 4327   4.658   1.649   2.679
 1143SOL    HW1 4328   4.750   1.676   2.708
 1143SOL    HW2 4329   4.636   1.560   2.717
 1144SOL     OW 4330   0.268   6.412   5.036
 1144SOL    HW1 4331   0.353   6.446   5.076
 1144SOL    HW2 4332   0.190   6.454   5.083
 1145SOL     OW 4333   1.260   4.916   5.356
 1145SOL    HW1 4334   1.175   4.917   5.409
 1145SOL    HW2 4335   1.328   4.973   5.402
 1146SOL     OW 4336   5.746   2.172   0.900
 1146SOL    HW1 4337   5.786   2.104   0.961
 1146SOL    HW2 4338   5.663   2.210   0.941
 1147SOL     OW 4339   6.309   2.272   1.677
 1147SOL    HW1 4340   6.404   2.254   1.648
 1147SOL    HW2 4341   6.290   2.370   1.670
 1148SOL     OW 4342   4.503   0.321   0.271
 1148SOL    HW1 4343   4.490   0.369   0.185
 1148SOL    HW2 4344   4.588   0.353   0.315
 1149SOL     OW 4345   0.130   3.639   2.753
 1149SOL    HW1 4346   0.209   3.695   2.776
 1149SOL    HW2 4347   0.079   3.617   2.836
 1150SOL     OW 4348   1.286   4.928   6.427
 1150SOL    HW1 4349   1.344   4.993   6.477
 1150SOL    HW2 4350   1.308   4.933   6.330
 1151SOL     OW 4351   4.751   5.417   0.213
 1151SOL    HW1 4352   4.814   5.414   0.135
 1151SOL    HW2 4353   4.769   5.339   0.273
 1152SOL     OW 4354   0.191   0.614   4.846
 1152SOL    HW1 4355   0.236   0.540   4.895
 1152SOL    HW2 4356   0.205   0.602   4.748
 1153SOL     OW 4357   2.279   5.609   2.673
 1153SOL    HW1 4358   2.295   5.569   2.583
 1153SOL    HW2 4359   2.328   5.696   2.681
 1154SOL     OW 4360   1.649   4.563   1.771
 1154SOL    HW1 4361   1.647   4.602   1.680
 1154SOL    HW2 4362   1.615   4.630   1.837
 1155SOL     OW 4363   3.195   5.411   1.781
 1155SOL    HW1 4364   3.133   5.405   1.702
 1155SOL    HW2 4365   3.214   5.507   1.801
 1156SOL     OW 4366   1.799   1.029   4.191
 1156SOL    HW1 4367   1.750   1.039   4.277
 1156SOL    HW2 4368   1.779   0.940   4.150
 1157SOL     OW 4369   1.520   2.048   4.062
 1157SOL    HW1 4370   1.516   2.100   4.148
 1157SOL    HW2 4371   1.481   1.957   4.077
 1158SOL     OW 4372   4.599   5.178   5.481
 1158SOL    HW1 4373   4.621   5.090   5.439
 1158SOL    HW2 4374   4.657   5.193   5.561
 1159SOL     OW 4375   5.043   5.096   2.885
 1159SOL    HW1 4376   4.970   5.135   2.941
 1159SOL    HW2 4377   5.012   5.088   2.790
 1160SOL     OW 4378   2.884   3.167   0.611
 1160SOL    HW1 4379   2.846   3.165   0.704
 1160SOL    HW2 4380   2.896   3.262   0.582
 1161SOL     OW 4381   4.291   0.196   4.189
 1161SOL    HW1 4382   4.274   0.294   4.196
 1161SOL    HW2 4383   4.208   0.146   4.215
 1162SOL     OW 4384   3.558   4.432   1.643
 1162SOL    HW1 4385   3.614   4.355   1.673
 1162SOL    HW2 4386   3.552   4.500   1.717
 1163SOL     OW 4387   4.798   2.394   2.534
 1163SOL    HW1 4388   4.755   2.446   2.460
 1163SOL    HW2 4389   4.727   2.351   2.590
 1164SOL     OW 4390   6.090   3.294   3.740
 1164SOL    HW1 4391   6.035   3.246   3.672
 1164SOL    HW2 4392   6.072   3.392   3.734
 1165SOL     OW 4393   1.380   4.789   1.740
 1165SOL    HW1 4394   1.447   4.860   1.718
 1165SOL    HW2 4395   1.332   4.814   1.824
 1166SOL     OW 4396   3.716   3.186   6.511
 1166SOL    HW1 4397   3.764   3.105   6.544
 1166SOL    HW2 4398   3.765   3.268   6.539
 1167SOL     OW 4399   4.615   1.645   4.732
 1167SOL    HW1 4400   4.693   1.612   4.680
 1167SOL    HW2 4401   4.557   1.701   4.673
 1168SOL     OW 4402   6.193   5.993   3.715
 1168SOL    HW1 4403   6.234   5.914   3.759
 1168SOL    HW2 4404   6.242   6.013   3.630
 1169SOL     OW 4405   1.037   3.309   1.863
 1169SOL    HW1 4406   1.055   3.374   1.937
 1169SOL    HW2 4407   0.961   3.342   1.807
 1170SOL     OW 4408   2.772   0.408   0.853
 1170SOL    HW1 4409   2.704   0.373   0.918
 1170SOL    HW2 4410   2.729   0.478   0.796
 1171SOL     OW 4411   2.367   6.806   0.396
 1171SOL    HW1 4412   2.334   6.895   0.363
 1171SOL    HW2 4413   2.357   6.738   0.323
 1172SOL     OW 4414   3.410   3.498   4.811
 1172SOL    HW1 4415   3.337   3.556   4.847
 1172SOL    HW2 4416   3.392   3.479   4.714
 1173SOL     OW 4417   4.590   0.822   6.304
 1173SOL    HW1 4418   4.658   0.885   6.268
 1173SOL    HW2 4419   4.563   0.850   6.396
 1174SOL     OW 4420   3.138   6.585   1.304
 1174SOL    HW1 4421   3.167   6.675   1.338
 1174SOL    HW2 4422   3.132   6.588   1.204
 1175SOL     OW 4423   6.290   5.033   5.415
 1175SOL    HW1 4424   6.314   5.113   5.469
 1175SOL    HW2 4425   6.256   4.961   5.476
 1176SOL     OW 4426   6.475   3.587   0.966
 1176SOL    HW1 4427   6.509   3.669   1.010
 1176SOL    HW2 4428   6.455   3.517   1.035
 1177SOL     OW 4429   6.652   3.155   0.222
 1177SOL    HW1 4430   6.723   3.093   0.188
 1177SOL    HW2 4431   6.675   3.184   0.314
 1178SOL     OW 4432   5.623   3.975   1.897
 1178SOL    HW1 4433   5.704   3.998   1.844
 1178SOL    HW2 4434   5.552   4.044   1.882
 1179SOL     OW 4435   2.484   6.110   6.620
 1179SOL    HW1 4436   2.443   6.061   6.696
 1179SOL    HW2 4437   2.536   6.046   6.563
 1180SOL     OW 4438   2.443   1.739   4.174
 1180SOL    HW1 4439   2.440   1.688   4.260
 1180SOL    HW2 4440   2.360   1.795   4.166
 1181SOL     OW 4441   2.448   4.408   3.058
 1181SOL    HW1 4442   2.356   4.377   3.034
 1181SOL    HW2 4443   2.476   4.368   3.145
 1182SOL     OW 4444   1.361   4.741   2.850
 1182SOL    HW1 4445   1.354   4.837   2.824
 1182SOL    HW2 4446   1.328   4.729   2.943
 1183SOL     OW 4447   4.627   5.703   1.326
 1183SOL    HW1 4448   4.626   5.603   1.322
 1183SOL    HW2 4449   4.540   5.739   1.290
 1184SOL     OW 4450   3.232   3.041   5.488
 1184SOL    HW1 4451   3.240   3.008   5.394
 1184SOL    HW2 4452   3.156   2.993   5.534
 1185SOL     OW 4453   2.159   1.866   0.030
 1185SOL    HW1 4454   2.155   1.775   0.070
 1185SOL    HW2 4455   2.254   1.893   0.017
 1186SOL     OW 4456   3.693   1.309   5.140
 1186SOL    HW1 4457   3.636   1.273   5.214
 1186SOL    HW2 4458   3.643   1.301   5.054
 1187SOL     OW 4459   6.933   0.943   5.114
 1187SOL    HW1 4460   7.013   1.002   5.125
 1187SOL    HW2 4461   6.962   0.848   5.106
 1188SOL     OW 4462   1.142   0.337   5.571
 1188SOL    HW1 4463   1.167   0.350   5.475
 1188SOL    HW2 4464   1.063   0.277   5.577
 1189SOL     OW 4465   6.820   1.024   1.780
 1189SOL    HW1 4466   6.831   1.014   1.879
 1189SOL    HW2 4467   6.749   0.960   1.749
 1190SOL     OW 4468   4.345   4.609   2.958
 1190SOL    HW1 4469   4.272   4.675   2.978
 1190SOL    HW2 4470   4.403   4.644   2.885
 1191SOL     OW 4471   3.575   4.910   6.722
 1191SOL    HW1 4472   3.659   4.857   6.712
 1191SOL    HW2 4473   3.578   4.962   6.807
 1192SOL     OW 4474   4.437   4.813   2.347
 1192SOL    HW1 4475   4.508   4.848   2.286
 1192SOL    HW2 4476   4.384   4.743   2.299
 1193SOL     OW 4477   4.448   6.744   3.869
 1193SOL    HW1 4478   4.419   6.651   3.892
 1193SOL    HW2 4479   4.378   6.809   3.897
 1194SOL     OW 4480   6.326   0.360   0.967
 1194SOL    HW1 4481   6.369   0.319   1.048
 1194SOL    HW2 4482   6.395   0.403   0.910
 1195SOL     OW 4483   4.033   0.490   6.848
 1195SOL    HW1 4484   4.105   0.514   6.784
 1195SOL    HW2 4485   4.049   0.538   6.935
 1196SOL     OW 4486   6.946   5.479   2.391
 1196SOL    HW1 4487   6.941   5.380   2.410
 1196SOL    HW2 4488   6.854   5.516   2.380
 1197SOL     OW 4489   3.225   5.530   6.097
 1197SOL    HW1 4490   3.267   5.576   6.175
 1197SOL    HW2 4491   3.153   5.589   6.060
 1198SOL     OW 4492   3.010   1.417   3.040
 1198SOL    HW1 4493   3.041   1.467   3.120
 1198SOL    HW2 4494   3.010   1.478   2.960
 1199SOL     OW 4495   3.785   3.961   3.301
 1199SOL    HW1 4496   3.691   3.928   3.291
 1199SOL    HW2 4497   3.845   3.909   3.240
 1200SOL     OW 4498   3.963   4.559   0.194
 1200SOL    HW1 4499   3.952   4.601   0.104
 1200SOL    HW2 4500   3.894   4.489   0.207
 1201SOL     OW 4501   1.159   0.927   4.520
 1201SOL    HW1 4502   1.197   0.843   4.480
 1201SOL    HW2 4503   1.174   1.003   4.457
 1202SOL     OW 4504   6.025   0.400   5.042
 1202SOL    HW1 4505   5.940   0.414   5.093
 1202SOL    HW2 4506   6.099   0.451   5.085
 1203SOL     OW 4507   5.957   6.943   1.886
 1203SOL    HW1 4508   5.961   6.897   1.974
 1203SOL    HW2 4509   5.864   6.974   1.868
 1204SOL     OW 4510   2.975   0.495   0.606
 1204SOL    HW1 4511   3.032   0.413   0.603
 1204SOL    HW2 4512   2.913   0.491   0.684
 1205SOL     OW 4513   0.347   2.388   4.837
 1205SOL    HW1 4514   0.252   2.383   4.807
 1205SOL    HW2 4515   0.358   2.335   4.921
 1206SOL     OW 4516   0.754   1.519   4.588
 1206SOL    HW1 4517   0.775   1.423   4.608
 1206SOL    HW2 4518   0.770   1.537   4.491
 1207SOL     OW 4519   5.463   6.016   6.711
 1207SOL    HW1 4520   5.390   6.024   6.779
 1207SOL    HW2 4521   5.548   5.990   6.757
 1208SOL     OW 4522   3.804   3.966   3.571
 1208SOL    HW1 4523   3.774   4.060   3.585
 1208SOL    HW2 4524   3.791   3.942   3.474
 1209SOL     OW 4525   6.531   5.342   4.368
 1209SOL    HW1 4526   6.547   5.351   4.466
 1209SOL    HW2 4527   6.475   5.262   4.351
 1210SOL     OW 4528   2.970   6.819   2.651
 1210SOL    HW1 4529   3.056   6.793   2.607
 1210SOL    HW2 4530   2.954   6.917   2.640
 1211SOL     OW 4531   1.363   3.424   4.333
 1211SOL    HW1 4532   1.338   3.519   4.312
 1211SOL    HW2 4533   1.283   3.365   4.323
 1212SOL     OW 4534   2.192   4.098   4.786
 1212SOL    HW1 4535   2.219   4.190   4.813
 1212SOL    HW2 4536   2.244   4.031   4.840
 1213SOL     OW 4537   6.020   3.035   5.639
 1213SOL    HW1 4538   5.949   3.033   5.710
 1213SOL    HW2 4539   6.055   3.128   5.630
 1214SOL     OW 4540   2.185   2.472   3.087
 1214SOL    HW1 4541   2.097   2.510   3.117
 1214SOL    HW2 4542   2.170   2.382   3.045
 1215SOL     OW 4543   0.786   5.062   1.627
 1215SOL    HW1 4544   0.869   5.117   1.627
 1215SOL    HW2 4545   0.803   4.977   1.677
 1216SOL     OW 4546   2.888   0.099   1.837
 1216SOL    HW1 4547   2.849   0.130   1.750
 1216SOL    HW2 4548   2.976   0.142   1.852
 1217SOL     OW 4549   1.429   1.384   2.588
 1217SOL    HW1 4550   1.440   1.328   2.506
 1217SOL    HW2 4551   1.511   1.379   2.644
 1218SOL     OW 4552   0.675   3.803   4.016
 1218SOL    HW1 4553   0.606   3.836   4.081
 1218SOL    HW2 4554   0.630   3.771   3.933
 1219SOL     OW 4555   2.661   6.018   2.988
 1219SOL    HW1 4556   2.737   6.083   2.991
 1219SOL    HW2 4557   2.575   6.066   3.005
 1220SOL     OW 4558   6.955   4.234   2.987
 1220SOL    HW1 4559   0.011   4.280   3.033
 1220SOL    HW2 4560   6.983   4.141   2.962
 1221SOL     OW 4561   5.114   3.053   6.849
 1221SOL    HW1 4562   5.024   3.028   6.882
 1221SOL    HW2 4563   5.136   3.146   6.878
 1222SOL     OW 4564   6.084   6.307   1.033
 1222SOL    HW1 4565   6.105   6.404   1.021
 1222SOL    HW2 4566   6.080   6.263   0.944
 1223SOL     OW 4567   5.882   6.023   5.226
 1223SOL    HW1 4568   5.825   6.104   5.214
 1223SOL    HW2 4569   5.956   6.024   5.158
 1224SOL     OW 4570   5.471   4.751   2.055
 1224SOL    HW1 4571   5.549   4.799   2.094
 1224SOL    HW2 4572   5.398   4.745   2.123
 1225SOL     OW 4573   5.160   1.278   0.274
 1225SOL    HW1 4574   5.116   1.307   0.359
 1225SOL    HW2 4575   5.100   1.215   0.225
 1226SOL     OW 4576   5.159   4.563   0.124
 1226SOL    HW1 4577   5.126   4.634   0.187
 1226SOL    HW2 4578   5.082   4.520   0.078
 1227SOL     OW 4579   5.119   4.490   6.723
 1227SOL    HW1 4580   5.051   4.521   6.657
 1227SOL    HW2 4581   5.076   4.429   6.790
 1228SOL     OW 4582   3.949   3.475   4.067
 1228SOL    HW1 4583   3.870   3.507   4.015
 1228SOL    HW2 4584   3.950   3.375   4.069
 1229SOL     OW 4585   1.664   5.428   3.030
 1229SOL    HW1 4586   1.659   5.369   2.949
 1229SOL    HW2 4587   1.602   5.393   3.101
 1230SOL     OW 4588   5.346   4.688   1.661
 1230SOL    HW1 4589   5.307   4.737   1.739
 1230SOL    HW2 4590   5.437   4.724   1.641
 1231SOL     OW 4591   2.078   2.205   6.973
 1231SOL    HW1 4592   2.147   2.265   7.014
 1231SOL    HW2 4593   2.121   2.119   6.943
 1232SOL     OW 4594   2.577   0.730   5.238
 1232SOL    HW1 4595   2.613   0.679   5.160
 1232SOL    HW2 4596   2.481   0.707   5.251
 1233SOL     OW 4597   0.733   5.272   5.179
 1233SOL    HW1 4598   0.785   5.353   5.205
 1233SOL    HW2 4599   0.650   5.299   5.131
 1234SOL     OW 4600   6.705   3.642   0.253
 1234SOL    HW1 4601   6.790   3.593   0.273
 1234SOL    HW2 4602   6.724   3.718   0.190
 1235SOL     OW 4603   6.124   4.703   1.099
 1235SOL    HW1 4604   6.221   4.704   1.123
 1235SOL    HW2 4605   6.109   4.640   1.023
 1236SOL     OW 4606   1.608   1.521   2.362
 1236SOL    HW1 4607   1.618   1.421   2.357
 1236SOL    HW2 4608   1.698   1.563   2.375
 1237SOL     OW 4609   0.540   6.755   5.209
 1237SOL    HW1 4610   0.517   6.852   5.209
 1237SOL    HW2 4611   0.600   6.735   5.287
 1238SOL     OW 4612   0.724   0.636   4.440
 1238SOL    HW1 4613   0.649   0.629   4.375
 1238SOL    HW2 4614   0.711   0.717   4.498
 1239SOL     OW 4615   5.427   5.104   4.645
 1239SOL    HW1 4616   5.439   5.167   4.722
 1239SOL    HW2 4617   5.335   5.067   4.645
 1240SOL     OW 4618   0.619   3.900   2.413
 1240SOL    HW1 4619   0.554   3.968   2.448
 1240SOL    HW2 4620   0.573   3.812   2.404
 1241SOL     OW 4621   4.172   4.982   5.038
 1241SOL    HW1 4622   4.103   4.923   5.080
 1241SOL    HW2 4623   4.239   5.009   5.107
 1242SOL     OW 4624   2.093   4.802   0.828
 1242SOL    HW1 4625   2.163   4.730   0.838
 1242SOL    HW2 4626   2.031   4.799   0.906
 1243SOL     OW 4627   0.940   3.897   4.914
 1243SOL    HW1 4628   0.965   3.863   4.823
 1243SOL    HW2 4629   0.862   3.959   4.906
 1244SOL     OW 4630   5.840   0.191   5.492
 1244SOL    HW1 4631   5.749   0.160   5.465
 1244SOL    HW2 4632   5.870   0.140   5.573
 1245SOL     OW 4633   4.566   6.120   1.488
 1245SOL    HW1 4634   4.532   6.170   1.408
 1245SOL    HW2 4635   4.519   6.151   1.570
 1246SOL     OW 4636   4.778   0.729   0.621
 1246SOL    HW1 4637   4.703   0.669   0.648
 1246SOL    HW2 4638   4.742   0.804   0.565
 1247SOL     OW 4639   6.605   0.177   2.984
 1247SOL    HW1 4640   6.599   0.101   2.920
 1247SOL    HW2 4641   6.699   0.186   3.017
 1248SOL     OW 4642   1.384   6.435   5.061
 1248SOL    HW1 4643   1.339   6.359   5.107
 1248SOL    HW2 4644   1.463   6.465   5.114
 1249SOL     OW 4645   5.264   5.868   6.282
 1249SOL    HW1 4646   5.248   5.791   6.345
 1249SOL    HW2 4647   5.301   5.945   6.333
 1250SOL     OW 4648   6.789   3.227   4.671
 1250SOL    HW1 4649   6.879   3.269   4.659
 1250SOL    HW2 4650   6.800   3.133   4.704
 1251SOL     OW 4651   2.801   1.004   2.778
 1251SOL    HW1 4652   2.842   1.029   2.691
 1251SOL    HW2 4653   2.857   0.935   2.824
 1252SOL     OW 4654   2.102   6.158   6.427
 1252SOL    HW1 4655   2.092   6.130   6.331
 1252SOL    HW2 4656   2.170   6.231   6.433
 1253SOL     OW 4657   3.081   6.957   0.100
 1253SOL    HW1 4658   3.026   6.905   0.165
 1253SOL    HW2 4659   3.108   6.898   0.024
 1254SOL     OW 4660   5.981   0.392   2.914
 1254SOL    HW1 4661   5.977   0.351   2.823
 1254SOL    HW2 4662   5.890   0.391   2.955
 1255SOL     OW 4663   5.387   1.591   5.659
 1255SOL    HW1 4664   5.404   1.492   5.663
 1255SOL    HW2 4665   5.407   1.624   5.567
 1256SOL     OW 4666   0.528   5.440   4.444
 1256SOL    HW1 4667   0.569   5.490   4.521
 1256SOL    HW2 4668   0.582   5.458   4.361
 1257SOL     OW 4669   0.975   6.377   3.728
 1257SOL    HW1 4670   1.021   6.405   3.643
 1257SOL    HW2 4671   1.031   6.309   3.775
 1258SOL     OW 4672   4.362   6.041   5.603
 1258SOL    HW1 4673   4.274   5.997   5.618
 1258SOL    HW2 4674   4.436   5.978   5.627
 1259SOL     OW 4675   5.515   0.569   5.437
 1259SOL    HW1 4676   5.580   0.643   5.457
 1259SOL    HW2 4677   5.479   0.581   5.344
 1260SOL     OW 4678   2.667   1.457   1.336
 1260SOL    HW1 4679   2.740   1.391   1.354
 1260SOL    HW2 4680   2.692   1.546   1.376
 1261SOL     OW 4681   6.548   4.397   5.590
 1261SOL    HW1 4682   6.480   4.383   5.662
 1261SOL    HW2 4683   6.640   4.385   5.627
 1262SOL     OW 4684   4.439   4.993   0.720
 1262SOL    HW1 4685   4.414   4.907   0.675
 1262SOL    HW2 4686   4.488   4.973   0.805
 1263SOL     OW 4687   6.701   1.969   1.109
 1263SOL    HW1 4688   6.684   1.985   1.012
 1263SOL    HW2 4689   6.799   1.979   1.128
 1264SOL     OW 4690   0.285   3.144   4.104
 1264SOL    HW1 4691   0.332   3.057   4.119
 1264SOL    HW2 4692   0.332   3.195   4.031
 1265SOL     OW 4693   6.955   5.698   4.615
 1265SOL    HW1 4694   0.013   5.723   4.558
 1265SOL    HW2 4695   6.904   5.624   4.570
 1266SOL     OW 4696   1.510   1.572   4.745
 1266SOL    HW1 4697   1.535   1.542   4.837
 1266SOL    HW2 4698   1.411   1.567   4.734
 1267SOL     OW 4699   6.546   4.939   2.090
 1267SOL    HW1 4700   6.620   4.958   2.027
 1267SOL    HW2 4701   6.548   5.005   2.165
 1268SOL     OW 4702   6.712   3.426   0.053
 1268SOL    HW1 4703   6.689   3.501   0.116
 1268SOL    HW2 4704   6.707   3.339   0.102
 1269SOL     OW 4705   6.912   5.679   5.891
 1269SOL    HW1 4706   6.830   5.695   5.945
 1269SOL    HW2 4707   6.913   5.584   5.859
 1270SOL     OW 4708   1.605   2.929   4.800
 1270SOL    HW1 4709   1.509   2.902   4.798
 1270SOL    HW2 4710   1.634   2.942   4.895
 1271SOL     OW 4711   5.142   1.853   3.089
 1271SOL    HW1 4712   5.174   1.896   3.174
 1271SOL    HW2 4713   5.215   1.795   3.052
 1272SOL     OW 4714   0.589   6.051   1.589
 1272SOL    HW1 4715   0.510   6.046   1.528
 1272SOL    HW2 4716   0.560   6.041   1.684
 1273SOL     OW 4717   2.711   6.870   6.432
 1273SOL    HW1 4718   2.706   6.819   6.346
 1273SOL    HW2 4719   2.723   6.968   6.413
 1274SOL     OW 4720   6.453   2.907   1.617
 1274SOL    HW1 4721   6.450   2.946   1.709
 1274SOL    HW2 4722   6.524   2.951   1.563
 1275SOL     OW 4723   3.694   1.356   3.991
 1275SOL    HW1 4724   3.690   1.257   4.002
 1275SOL    HW2 4725   3.766   1.380   3.927
 1276SOL     OW 4726   6.191   0.481   3.832
 1276SOL    HW1 4727   6.120   0.443   3.891
 1276SOL    HW2 4728   6.149   0.515   3.747
 1277SOL     OW 4729   0.438   1.226   4.947
 1277SOL    HW1 4730   0.375   1.180   5.009
 1277SOL    HW2 4731   0.515   1.165   4.926
 1278SOL     OW 4732   2.472   1.817   5.398
 1278SOL    HW1 4733   2.510   1.847   5.311
 1278SOL    HW2 4734   2.448   1.720   5.393
 1279SOL     OW 4735   2.549   5.221   6.436
 1279SOL    HW1 4736   2.600   5.294   6.388
 1279SOL    HW2 4737   2.538   5.246   6.532
 1280SOL     OW 4738   1.979   6.756   3.953
 1280SOL    HW1 4739   1.896   6.701   3.955
 1280SOL    HW2 4740   2.054   6.706   3.997
 1281SOL     OW 4741   1.053   6.969   3.860
 1281SOL    HW1 4742   1.084   0.004   3.938
 1281SOL    HW2 4743   1.085   6.874   3.871
 1282SOL     OW 4744   1.109   0.360   2.132
 1282SOL    HW1 4745   1.031   0.371   2.071
 1282SOL    HW2 4746   1.085   0.394   2.223
 1283SOL     OW 4747   5.418   5.434   6.082
 1283SOL    HW1 4748   5.377   5.408   6.170
 1283SOL    HW2 4749   5.393   5.529   6.061
 1284SOL     OW 4750   2.261   2.185   1.895
 1284SOL    HW1 4751   2.295   2.224   1.981
 1284SOL    HW2 4752   2.199   2.250   1.851
 1285SOL     OW 4753   4.720   2.331   5.611
 1285SOL    HW1 4754   4.680   2.347   5.701
 1285SOL    HW2 4755   4.649   2.340   5.541
 1286SOL     OW 4756   6.512   5.356   1.765
 1286SOL    HW1 4757   6.514   5.327   1.669
 1286SOL    HW2 4758   6.420   5.389   1.787
 1287SOL     OW 4759   6.964   4.911   6.250
 1287SOL    HW1 4760   6.934   4.831   6.303
 1287SOL    HW2 4761   6.884   4.966   6.225
 1288SOL     OW 4762   6.617   3.030   2.365
 1288SOL    HW1 4763   6.547   2.969   2.401
 1288SOL    HW2 4764   6.610   3.033   2.265
 1289SOL     OW 4765   6.695   6.400   2.878
 1289SOL    HW1 4766   6.661   6.373   2.788
 1289SOL    HW2 4767   6.795   6.389   2.880
 1290SOL     OW 4768   0.651   6.486   1.474
 1290SOL    HW1 4769   0.688   6.393   1.479
 1290SOL    HW2 4770   0.711   6.549   1.525
 1291SOL     OW 4771   2.369   6.410   0.577
 1291SOL    HW1 4772   2.368   6.475   0.653
 1291SOL    HW2 4773   2.463   6.386   0.553
 1292SOL     OW 4774   0.852   5.916   0.828
 1292SOL    HW1 4775   0.945   5.917   0.865
 1292SOL    HW2 4776   0.856   5.911   0.728
 1293SOL     OW 4777   0.197   2.462   5.669
 1293SOL    HW1 4778   0.182   2.543   5.724
 1293SOL    HW2 4779   0.194   2.486   5.572
 1294SOL     OW 4780   0.268   2.114   2.638
 1294SOL    HW1 4781   0.270   2.121   2.538
 1294SOL    HW2 4782   0.217   2.033   2.665
 1295SOL     OW 4783   6.181   2.920   1.589
 1295SOL    HW1 4784   6.280   2.917   1.579
 1295SOL    HW2 4785   6.150   2.846   1.649
 1296SOL     OW 4786   3.892   2.409   6.291
 1296SOL    HW1 4787   3.963   2.367   6.234
 1296SOL    HW2 4788   3.900   2.509   6.284
 1297SOL     OW 4789   6.535   1.326   6.158
 1297SOL    HW1 4790   6.533   1.399   6.090
 1297SOL    HW2 4791   6.461   1.262   6.141
 1298SOL     OW 4792   5.498   3.365   3.423
 1298SOL    HW1 4793   5.588   3.383   3.463
 1298SOL    HW2 4794   5.452   3.294   3.475
 1299SOL     OW 4795   0.893   4.017   3.708
 1299SOL    HW1 4796   0.900   4.038   3.806
 1299SOL    HW2 4797   0.812   3.961   3.692
 1300SOL     OW 4798   3.172   3.390   1.499
 1300SOL    HW1 4799   3.237   3.393   1.575
 1300SOL    HW2 4800   3.212   3.338   1.424
 1301SOL     OW 4801   0.504   6.954   2.927
 1301SOL    HW1 4802   0.575   6.905   2.877
 1301SOL    HW2 4803   0.498   0.028   2.892
 1302SOL     OW 4804   2.810   5.852   4.951
 1302SOL    HW1 4805   2.761   5.806   4.876
 1302SOL    HW2 4806   2.768   5.827   5.038
 1303SOL     OW 4807   3.909   1.491   1.336
 1303SOL    HW1 4808   3.995   1.522   1.378
 1303SOL    HW2 4809   3.927   1.459   1.243
 1304SOL     OW 4810   2.416   0.644   6.712
 1304SOL    HW1 4811   2.356   0.654   6.633
 1304SOL    HW2 4812   2.484   0.718   6.712
 1305SOL     OW 4813   4.692   6.699   4.909
 1305SOL    HW1 4814   4.667   6.796   4.907
 1305SOL    HW2 4815   4.612   6.643   4.885
 1306SOL     OW 4816   1.005   4.446   3.817
 1306SOL    HW1 4817   1.096   4.482   3.793
 1306SOL    HW2 4818   0.935   4.512   3.788
 1307SOL     OW 4819   1.526   1.905   4.620
 1307SOL    HW1 4820   1.601   1.937   4.562
 1307SOL    HW2 4821   1.564   1.872   4.707
 1308SOL     OW 4822   5.190   6.089   2.933
 1308SOL    HW1 4823   5.253   6.034   2.988
 1308SOL    HW2 4824   5.131   6.029   2.880
 1309SOL     OW 4825   5.173   2.967   4.542
 1309SOL    HW1 4826   5.211   2.988   4.633
 1309SOL    HW2 4827   5.115   2.886   4.548
 1310SOL     OW 4828   4.764   3.783   5.310
 1310SOL    HW1 4829   4.812   3.743   5.387
 1310SOL    HW2 4830   4.723   3.711   5.254
 1311SOL     OW 4831   5.409   5.950   5.254
 1311SOL    HW1 4832   5.361   5.970   5.339
 1311SOL    HW2 4833   5.385   5.858   5.223
 1312SOL     OW 4834   1.208   6.847   0.709
 1312SOL    HW1 4835   1.117   6.824   0.674
 1312SOL    HW2 4836   1.217   6.946   0.716
 1313SOL     OW 4837   3.568   5.199   5.243
 1313SOL    HW1 4838   3.597   5.153   5.159
 1313SOL    HW2 4839   3.525   5.133   5.304
 1314SOL     OW 4840   6.306   1.632   4.450
 1314SOL    HW1 4841   6.335   1.682   4.368
 1314SOL    HW2 4842   6.273   1.541   4.424
 1315SOL     OW 4843   1.903   0.927   2.810
 1315SOL    HW1 4844   1.957   0.875   2.743
 1315SOL    HW2 4845   1.921   1.025   2.798
 1316SOL     OW 4846   3.174   6.752   2.392
 1316SOL    HW1 4847   3.191   6.686   2.318
 1316SOL    HW2 4848   3.087   6.798   2.377
 1317SOL     OW 4849   6.939   5.970   4.019
 1317SOL    HW1 4850   6.954   6.068   4.030
 1317SOL    HW2 4851   6.868   5.939   4.081
 1318SOL     OW 4852   6.706   6.660   0.435
 1318SOL    HW1 4853   6.759   6.613   0.365
 1318SOL    HW2 4854   6.730   6.757   0.435
 1319SOL     OW 4855   6.313   0.802   0.262
 1319SOL    HW1 4856   6.244   0.873   0.249
 1319SOL    HW2 4857   6.361   0.817   0.349
 1320SOL     OW 4858   5.325   5.098   6.409
 1320SOL    HW1 4859   5.373   5.040   6.343
 1320SOL    HW2 4860   5.227   5.098   6.388
 1321SOL     OW 4861   3.715   2.284   6.755
 1321SOL    HW1 4862   3.757   2.280   6.665
 1321SOL    HW2 4863   3.782   2.314   6.823
 1322SOL     OW 4864   6.011   1.676   5.086
 1322SOL    HW1 4865   6.059   1.741   5.028
 1322SOL    HW2 4866   5.919   1.710   5.106
 1323SOL     OW 4867   6.683   1.840   4.860
 1323SOL    HW1 4868   6.670   1.894   4.777
 1323SOL    HW2 4869   6.779   1.814   4.868
 1324SOL     OW 4870   1.352   3.849   0.602
 1324SOL    HW1 4871   1.348   3.823   0.699
 1324SOL    HW2 4872   1.283   3.919   0.584
 1325SOL     OW 4873   3.475   5.927   2.611
 1325SOL    HW1 4874   3.522   5.982   2.680
 1325SOL    HW2 4875   3.529   5.845   2.590
 1326SOL     OW 4876   5.624   3.451   4.331
 1326SOL    HW1 4877   5.664   3.377   4.278
 1326SOL    HW2 4878   5.528   3.432   4.348
 1327SOL     OW 4879   3.344   5.158   3.091
 1327SOL    HW1 4880   3.354   5.180   3.188
 1327SOL    HW2 4881   3.346   5.058   3.079
 1328SOL     OW 4882   1.670   2.423   6.562
 1328SOL    HW1 4883   1.582   2.446   6.522
 1328SOL    HW2 4884   1.657   2.387   6.654
 1329SOL     OW 4885   0.934   0.213   0.800
 1329SOL    HW1 4886   0.906   0.171   0.714
 1329SOL    HW2 4887   1.022   0.175   0.829
 1330SOL     OW 4888   5.849   6.306   1.162
 1330SOL    HW1 4889   5.939   6.309   1.119
 1330SOL    HW2 4890   5.780   6.342   1.099
 1331SOL     OW 4891   5.989   0.469   1.756
 1331SOL    HW1 4892   6.071   0.434   1.709
 1331SOL    HW2 4893   5.919   0.398   1.758
 1332SOL     OW 4894   4.320   1.647   1.642
 1332SOL    HW1 4895   4.404   1.700   1.635
 1332SOL    HW2 4896   4.340   1.557   1.683
 1333SOL     OW 4897   3.602   4.476   5.378
 1333SOL    HW1 4898   3.701   4.463   5.384
 1333SOL    HW2 4899   3.573   4.546   5.443
 1334SOL     OW 4900   0.363   3.730   4.382
 1334SOL    HW1 4901   0.427   3.757   4.453
 1334SOL    HW2 4902   0.269   3.739   4.416
 1335SOL     OW 4903   2.930   5.252   3.080
 1335SOL    HW1 4904   2.852   5.292   3.033
 1335SOL    HW2 4905   2.899   5.202   3.160
 1336SOL     OW 4906   0.338   0.726   5.305
 1336SOL    HW1 4907   0.386   0.798   5.254
 1336SOL    HW2 4908   0.374   0.636   5.278
 1337SOL     OW 4909   2.505   1.798   5.920
 1337SOL    HW1 4910   2.411   1.805   5.955
 1337SOL    HW2 4911   2.534   1.887   5.884
 1338SOL     OW 4912   3.930   5.423   0.429
 1338SOL    HW1 4913   4.019   5.453   0.464
 1338SOL    HW2 4914   3.876   5.504   0.403
 1339SOL     OW 4915   0.136   4.330   5.190
 1339SOL    HW1 4916   0.225   4.366   5.163
 1339SOL    HW2 4917   0.103   4.380   5.270
 1340SOL     OW 4918   1.958   1.927   6.192
 1340SOL    HW1 4919   1.939   2.025   6.197
 1340SOL    HW2 4920   1.899   1.878   6.256
 1341SOL     OW 4921   4.320   1.356   3.439
 1341SOL    HW1 4922   4.291   1.262   3.420
 1341SOL    HW2 4923   4.253   1.420   3.400
 1342SOL     OW 4924   0.334   6.575   0.916
 1342SOL    HW1 4925   0.385   6.661   0.907
 1342SOL    HW2 4926   0.332   6.528   0.827
 1343SOL     OW 4927   4.165   4.946   3.289
 1343SOL    HW1 4928   4.164   5.030   3.235
 1343SOL    HW2 4929   4.117   4.962   3.375
 1344SOL     OW 4930   6.414   1.053   2.525
 1344SOL    HW1 4931   6.436   0.956   2.522
 1344SOL    HW2 4932   6.376   1.076   2.615
 1345SOL     OW 4933   0.834   0.012   3.505
 1345SOL    HW1 4934   0.778   0.045   3.582
 1345SOL    HW2 4935   0.865   6.939   3.525
 1346SOL     OW 4936   0.127   0.910   3.954
 1346SOL    HW1 4937   0.219   0.933   3.984
 1346SOL    HW2 4938   0.121   0.812   3.935
 1347SOL     OW 4939   5.708   0.574   3.032
 1347SOL    HW1 4940   5.682   0.614   2.944
 1347SOL    HW2 4941   5.640   0.506   3.058
 1348SOL     OW 4942   5.236   4.348   4.828
 1348SOL    HW1 4943   5.317   4.300   4.796
 1348SOL    HW2 4944   5.259   4.444   4.845
 1349SOL     OW 4945   4.884   2.691   6.703
 1349SOL    HW1 4946   4.959   2.626   6.711
 1349SOL    HW2 4947   4.798   2.641   6.691
 1350SOL     OW 4948   3.267   0.485   5.832
 1350SOL    HW1 4949   3.217   0.398   5.827
 1350SOL    HW2 4950   3.339   0.478   5.900
 1351SOL     OW 4951   0.505   0.863   4.784
 1351SOL    HW1 4952   0.533   0.784   4.838
 1351SOL    HW2 4953   0.546   0.857   4.693
 1352SOL     OW 4954   0.418   0.796   3.142
 1352SOL    HW1 4955   0.378   0.781   3.051
 1352SOL    HW2 4956   0.415   0.894   3.164
 1353SOL     OW 4957   1.407   4.192   4.006
 1353SOL    HW1 4958   1.310   4.176   3.988
 1353SOL    HW2 4959   1.441   4.266   3.948
 1354SOL     OW 4960   0.547   0.284   1.766
 1354SOL    HW1 4961   0.490   0.361   1.795
 1354SOL    HW2 4962   0.631   0.319   1.724
 1355SOL     OW 4963   4.849   2.980   6.663
 1355SOL    HW1 4964   4.830   2.886   6.689
 1355SOL    HW2 4965   4.859   3.036   6.745
 1356SOL     OW 4966   2.972   3.703   2.409
 1356SOL    HW1 4967   2.920   3.623   2.382
 1356SOL    HW2 4968   2.982   3.765   2.331
 1357SOL     OW 4969   2.784   3.106   5.533
 1357SOL    HW1 4970   2.784   3.025   5.475
 1357SOL    HW2 4971   2.841   3.089   5.614
 1358SOL     OW 4972   2.073   2.446   5.533
 1358SOL    HW1 4973   2.151   2.389   5.506
 1358SOL    HW2 4974   2.098   2.542   5.522
 1359SOL     OW 4975   6.755   1.202   0.553
 1359SOL    HW1 4976   6.854   1.203   0.570
 1359SOL    HW2 4977   6.739   1.184   0.456
 1360SOL     OW 4978   3.275   3.724   4.532
 1360SOL    HW1 4979   3.370   3.753   4.535
 1360SOL    HW2 4980   3.256   3.664   4.610
 1361SOL     OW 4981   0.569   5.882   0.766
 1361SOL    HW1 4982   0.639   5.906   0.833
 1361SOL    HW2 4983   0.592   5.795   0.724
 1362SOL     OW 4984   3.170   3.061   6.350
 1362SOL    HW1 4985   3.167   2.985   6.414
 1362SOL    HW2 4986   3.153   3.028   6.258
 1363SOL     OW 4987   5.660   6.296   2.169
 1363SOL    HW1 4988   5.665   6.378   2.113
 1363SOL    HW2 4989   5.565   6.266   2.176
 1364SOL     OW 4990   0.506   3.210   1.417
 1364SOL    HW1 4991   0.604   3.205   1.440
 1364SOL    HW2 4992   0.463   3.280   1.473
 1365SOL     OW 4993   0.742   3.592   5.789
 1365SOL    HW1 4994   0.776   3.536   5.864
 1365SOL    HW2 4995   0.747   3.689   5.814
 1366SOL     OW 4996   5.255   0.782   0.884
 1366SOL    HW1 4997   5.274   0.696   0.933
 1366SOL    HW2 4998   5.157   0.803   0.893
 1367SOL     OW 4999   0.615   6.355   4.151
 1367SOL    HW1 5000   0.625   6.395   4.242
 1367SOL    HW2 5001   0.706   6.345   4.109
 1368SOL     OW 5002   0.993   6.287   5.662
 1368SOL    HW1 5003   1.004   6.196   5.703
 1368SOL    HW2 5004   0.930   6.341   5.717
 1369SOL     OW 5005   3.014   6.605   3.390
 1369SOL    HW1 5006   3.026   6.547   3.471
 1369SOL    HW2 5007   3.035   6.552   3.308
 1370SOL     OW 5008   6.366   2.449   2.862
 1370SOL    HW1 5009   6.462   2.430   2.840
 1370SOL    HW2 5010   6.350   2.548   2.858
 1371SOL     OW 5011   5.785   1.650   5.576
 1371SOL    HW1 5012   5.797   1.654   5.675
 1371SOL    HW2 5013   5.791   1.555   5.545
 1372SOL     OW 5014   6.444   2.717   7.014
 1372SOL    HW1 5015   6.454   2.816   7.004
 1372SOL    HW2 5016   6.506   2.685   0.067
 1373SOL     OW 5017   5.278   2.543   2.092
 1373SOL    HW1 5018   5.316   2.592   2.013
 1373SOL    HW2 5019   5.239   2.609   2.156
 1374SOL     OW 5020   3.957   4.247   0.225
 1374SOL    HW1 5021   4.011   4.255   0.309
 1374SOL    HW2 5022   3.890   4.321   0.221
 1375SOL     OW 5023   5.342   5.857   4.175
 1375SOL    HW1 5024   5.343   5.802   4.259
 1375SOL    HW2 5025   5.380   5.803   4.100
 1376SOL     OW 5026   2.707   4.848   5.852
 1376SOL    HW1 5027   2.789   4.865   5.907
 1376SOL    HW2 5028   2.734   4.830   5.758
 1377SOL     OW 5029   1.638   1.460   3.068
 1377SOL    HW1 5030   1.561   1.441   3.130
 1377SOL    HW2 5031   1.703   1.520   3.113
 1378SOL     OW 5032   4.680   2.371   3.981
 1378SOL    HW1 5033   4.664   2.470   3.985
 1378SOL    HW2 5034   4.684   2.334   4.074
 1379SOL     OW 5035   4.854   5.548   1.031
 1379SOL    HW1 5036   4.872   5.515   1.124
 1379SOL    HW2 5037   4.916   5.623   1.009
 1380SOL     OW 5038   6.882   6.083   1.931
 1380SOL    HW1 5039   6.839   6.018   1.993
 1380SOL    HW2 5040   6.963   6.041   1.890
 1381SOL     OW 5041   6.018   2.116   5.779
 1381SOL    HW1 5042   6.060   2.061   5.851
 1381SOL    HW2 5043   5.920   2.097   5.776
 1382SOL     OW 5044   5.040   2.246   0.072
 1382SOL    HW1 5045   5.098   2.264   0.152
 1382SOL    HW2 5046   4.969   2.180   0.097
 1383SOL     OW 5047   0.555   1.243   2.175
 1383SOL    HW1 5048   0.484   1.299   2.219
 1383SOL    HW2 5049   0.575   1.281   2.084
 1384SOL     OW 5050   6.083   1.588   1.713
 1384SOL    HW1 5051   5.985   1.592   1.729
 1384SOL    HW2 5052   6.128   1.662   1.763
 1385SOL     OW 5053   1.050   5.717   1.661
 1385SOL    HW1 5054   1.005   5.792   1.614
 1385SOL    HW2 5055   1.072   5.644   1.596
 1386SOL     OW 5056   2.450   5.833   4.591
 1386SOL    HW1 5057   2.434   5.894   4.514
 1386SOL    HW2 5058   2.369   5.777   4.606
 1387SOL     OW 5059   3.138   5.662   2.197
 1387SOL    HW1 5060   3.113   5.568   2.173
 1387SOL    HW2 5061   3.139   5.718   2.114
 1388SOL     OW 5062   6.759   0.375   1.582
 1388SOL    HW1 5063   6.788   0.470   1.593
 1388SOL    HW2 5064   6.742   0.356   1.485
 1389SOL     OW 5065   6.004   1.045   2.597
 1389SOL    HW1 5066   6.024   0.955   2.557
 1389SOL    HW2 5067   6.041   1.117   2.538
 1390SOL     OW 5068   0.154   2.023   5.972
 1390SOL    HW1 5069   0.240   1.973   5.986
 1390SOL    HW2 5070   0.079   1.973   6.016
 1391SOL     OW 5071   0.722   3.146   2.659
 1391SOL    HW1 5072   0.684   3.066   2.613
 1391SOL    HW2 5073   0.698   3.144   2.756
 1392SOL     OW 5074   5.041   4.637   5.420
 1392SOL    HW1 5075   5.075   4.665   5.330
 1392SOL    HW2 5076   5.078   4.547   5.443
 1393SOL     OW 5077   3.693   6.330   5.701
 1393SOL    HW1 5078   3.772   6.387   5.679
 1393SOL    HW2 5079   3.699   6.300   5.796
 1394SOL     OW 5080   2.257   6.378   5.839
 1394SOL    HW1 5081   2.334   6.327   5.877
 1394SOL    HW2 5082   2.290   6.461   5.796
 1395SOL     OW 5083   3.263   4.639   5.630
 1395SOL    HW1 5084   3.275   4.563   5.695
 1395SOL    HW2 5085   3.229   4.719   5.678
 1396SOL     OW 5086   6.005   6.122   4.362
 1396SOL    HW1 5087   5.955   6.085   4.284
 1396SOL    HW2 5088   5.972   6.215   4.381
 1397SOL     OW 5089   4.344   5.925   5.032
 1397SOL    HW1 5090   4.274   5.886   4.972
 1397SOL    HW2 5091   4.373   6.014   4.996
 1398SOL     OW 5092   1.221   1.223   4.809
 1398SOL    HW1 5093   1.228   1.123   4.812
 1398SOL    HW2 5094   1.223   1.254   4.714
 1399SOL     OW 5095   3.384   6.320   1.570
 1399SOL    HW1 5096   3.385   6.346   1.474
 1399SOL    HW2 5097   3.321   6.243   1.583
 1400SOL     OW 5098   1.114   0.169   1.573
 1400SOL    HW1 5099   1.050   0.099   1.540
 1400SOL    HW2 5100   1.103   0.180   1.671
 1401SOL     OW 5101   0.001   1.395   4.880
 1401SOL    HW1 5102   0.070   1.467   4.879
 1401SOL    HW2 5103   6.942   1.424   4.934
 1402SOL     OW 5104   6.688   2.820   0.367
 1402SOL    HW1 5105   6.770   2.775   0.404
 1402SOL    HW2 5106   6.635   2.755   0.314
 1403SOL     OW 5107   2.021   0.451   1.853
 1403SOL    HW1 5108   2.114   0.480   1.828
 1403SOL    HW2 5109   1.969   0.431   1.769
 1404SOL     OW 5110   5.640   0.497   0.265
 1404SOL    HW1 5111   5.633   0.486   0.364
 1404SOL    HW2 5112   5.576   0.567   0.234
 1405SOL     OW 5113   2.310   3.676   1.126
 1405SOL    HW1 5114   2.409   3.693   1.118
 1405SOL    HW2 5115   2.266   3.693   1.039
 1406SOL     OW 5116   1.839   4.210   1.202
 1406SOL    HW1 5117   1.937   4.224   1.190
 1406SOL    HW2 5118   1.824   4.131   1.262
 1407SOL     OW 5119   6.633   2.191   2.470
 1407SOL    HW1 5120   6.564   2.225   2.533
 1407SOL    HW2 5121   6.622   2.092   2.459
 1408SOL     OW 5122   5.788   0.502   6.252
 1408SOL    HW1 5123   5.822   0.595   6.243
 1408SOL    HW2 5124   5.801   0.470   6.346
 1409SOL     OW 5125   0.109   0.596   4.576
 1409SOL    HW1 5126   0.039   0.659   4.610
 1409SOL    HW2 5127   0.190   0.649   4.548
 1410SOL     OW 5128   0.118   2.994   6.823
 1410SOL    HW1 5129   0.150   2.949   6.906
 1410SOL    HW2 5130   0.195   3.038   6.777
 1411SOL     OW 5131   1.837   6.446   2.257
 1411SOL    HW1 5132   1.797   6.536   2.239
 1411SOL    HW2 5133   1.819   6.420   2.351
 1412SOL     OW 5134   1.092   2.842   0.379
 1412SOL    HW1 5135   1.066   2.838   0.476
 1412SOL    HW2 5136   1.012   2.863   0.324
 1413SOL     OW 5137   2.127   0.511   4.197
 1413SOL    HW1 5138   2.082   0.552   4.118
 1413SOL    HW2 5139   2.225   0.532   4.194
 1414SOL     OW 5140   2.082   1.824   2.018
 1414SOL    HW1 5141   2.162   1.849   2.072
 1414SOL    HW2 5142   2.013   1.896   2.024
 1415SOL     OW 5143   3.767   6.262   5.960
 1415SOL    HW1 5144   3.847   6.258   6.019
 1415SOL    HW2 5145   3.704   6.189   5.984
 1416SOL     OW 5146   4.481   5.053   1.943
 1416SOL    HW1 5147   4.406   5.069   2.008
 1416SOL    HW2 5148   4.465   4.967   1.894
 1417SOL     OW 5149   2.438   1.972   6.230
 1417SOL    HW1 5150   2.519   2.029   6.218
 1417SOL    HW2 5151   2.463   1.890   6.281
 1418SOL     OW 5152   3.572   4.131   2.970
 1418SOL    HW1 5153   3.542   4.102   3.062
 1418SOL    HW2 5154   3.588   4.229   2.970
 1419SOL     OW 5155   4.099   6.578   4.889
 1419SOL    HW1 5156   4.040   6.596   4.810
 1419SOL    HW2 5157   4.145   6.662   4.916
 1420SOL     OW 5158   0.955   5.752   2.147
 1420SOL    HW1 5159   0.969   5.678   2.082
 1420SOL    HW2 5160   0.888   5.724   2.216
 1421SOL     OW 5161   3.010   1.950   2.278
 1421SOL    HW1 5162   2.976   2.041   2.254
 1421SOL    HW2 5163   2.942   1.881   2.251
 1422SOL     OW 5164   2.741   5.475   0.482
 1422SOL    HW1 5165   2.791   5.559   0.501
 1422SOL    HW2 5166   2.806   5.400   0.467
 1423SOL     OW 5167   5.019   6.797   2.556
 1423SOL    HW1 5168   5.004   6.786   2.655
 1423SOL    HW2 5169   4.932   6.788   2.508
 1424SOL     OW 5170   6.004   5.378   4.784
 1424SOL    HW1 5171   6.052   5.324   4.715
 1424SOL    HW2 5172   5.906   5.379   4.763
 1425SOL     OW 5173   2.357   6.837   4.073
 1425SOL    HW1 5174   2.388   6.743   4.082
 1425SOL    HW2 5175   2.275   6.851   4.129
 1426SOL     OW 5176   1.188   1.832   5.784
 1426SOL    HW1 5177   1.192   1.900   5.857
 1426SOL    HW2 5178   1.151   1.746   5.820
 1427SOL     OW 5179   6.066   0.312   4.034
 1427SOL    HW1 5180   6.111   0.366   4.104
 1427SOL    HW2 5181   6.032   0.227   4.074
 1428SOL     OW 5182   5.694   2.131   6.834
 1428SOL    HW1 5183   5.767   2.158   6.770
 1428SOL    HW2 5184   5.678   2.206   6.898
 1429SOL     OW 5185   0.166   0.928   0.729
 1429SOL    HW1 5186   0.196   0.847   0.780
 1429SOL    HW2 5187   0.070   0.918   0.704
 1430SOL     OW 5188   1.926   4.840   3.005
 1430SOL    HW1 5189   1.829   4.864   3.004
 1430SOL    HW2 5190   1.981   4.924   3.016
 1431SOL     OW 5191   2.594   0.540   1.529
 1431SOL    HW1 5192   2.690   0.569   1.522
 1431SOL    HW2 5193   2.582   0.485   1.612
 1432SOL     OW 5194   2.220   1.203   2.351
 1432SOL    HW1 5195   2.131   1.249   2.357
 1432SOL    HW2 5196   2.265   1.228   2.266
 1433SOL     OW 5197   3.792   0.534   4.178
 1433SOL    HW1 5198   3.773   0.579   4.266
 1433SOL    HW2 5199   3.706   0.511   4.133
 1434SOL     OW 5200   0.900   0.863   5.439
 1434SOL    HW1 5201   0.907   0.934   5.508
 1434SOL    HW2 5202   0.822   0.882   5.379
 1435SOL     OW 5203   6.336   1.887   2.456
 1435SOL    HW1 5204   6.415   1.912   2.400
 1435SOL    HW2 5205   6.367   1.847   2.542
 1436SOL     OW 5206   4.330   3.416   0.076
 1436SOL    HW1 5207   4.320   3.486   0.146
 1436SOL    HW2 5208   4.420   3.422   0.034
 1437SOL     OW 5209   3.309   0.592   2.343
 1437SOL    HW1 5210   3.298   0.677   2.393
 1437SOL    HW2 5211   3.351   0.611   2.254
 1438SOL     OW 5212   3.079   6.816   1.472
 1438SOL    HW1 5213   3.124   6.810   1.561
 1438SOL    HW2 5214   2.982   6.792   1.481
 1439SOL     OW 5215   0.523   6.003   2.398
 1439SOL    HW1 5216   0.589   6.075   2.421
 1439SOL    HW2 5217   0.533   5.927   2.462
 1440SOL     OW 5218   2.981   3.152   1.032
 1440SOL    HW1 5219   2.930   3.125   1.114
 1440SOL    HW2 5220   3.053   3.216   1.058
 1441SOL     OW 5221   5.888   6.537   1.321
 1441SOL    HW1 5222   5.902   6.457   1.262
 1441SOL    HW2 5223   5.824   6.601   1.277
 1442SOL     OW 5224   5.891   5.167   0.639
 1442SOL    HW1 5225   5.847   5.095   0.586
 1442SOL    HW2 5226   5.976   5.194   0.594
 1443SOL     OW 5227   1.477   2.375   2.908
 1443SOL    HW1 5228   1.432   2.422   2.832
 1443SOL    HW2 5229   1.409   2.357   2.980
 1444SOL     OW 5230   6.023   5.331   0.201
 1444SOL    HW1 5231   6.045   5.409   0.143
 1444SOL    HW2 5232   5.941   5.285   0.165
 1445SOL     OW 5233   1.137   3.431   2.455
 1445SOL    HW1 5234   1.145   3.339   2.416
 1445SOL    HW2 5235   1.075   3.429   2.533
 1446SOL     OW 5236   6.401   0.069   6.727
 1446SOL    HW1 5237   6.496   0.079   6.759
 1446SOL    HW2 5238   6.371   0.155   6.686
 1447SOL     OW 5239   6.177   5.174   4.606
 1447SOL    HW1 5240   6.197   5.141   4.699
 1447SOL    HW2 5241   6.079   5.163   4.588
 1448SOL     OW 5242   0.899   3.061   5.985
 1448SOL    HW1 5243   0.900   3.051   6.085
 1448SOL    HW2 5244   0.993   3.058   5.950
 1449SOL     OW 5245   1.698   4.529   4.213
 1449SOL    HW1 5246   1.599   4.546   4.207
 1449SOL    HW2 5247   1.714   4.430   4.215
 1450SOL     OW 5248   2.091   2.054   4.815
 1450SOL    HW1 5249   2.067   1.989   4.743
 1450SOL    HW2 5250   2.007   2.094   4.852
 1451SOL     OW 5251   2.335   0.082   1.821
 1451SOL    HW1 5252   2.268   0.122   1.884
 1451SOL    HW2 5253   2.323   0.123   1.730
 1452SOL     OW 5254   5.245   2.948   5.567
 1452SOL    HW1 5255   5.183   2.882   5.608
 1452SOL    HW2 5256   5.324   2.963   5.627
 1453SOL     OW 5257   1.018   4.390   4.988
 1453SOL    HW1 5258   1.083   4.323   5.024
 1453SOL    HW2 5259   0.978   4.356   4.903
 1454SOL     OW 5260   3.074   1.628   3.759
 1454SOL    HW1 5261   3.156   1.611   3.705
 1454SOL    HW2 5262   2.998   1.651   3.698
 1455SOL     OW 5263   1.310   5.615   2.364
 1455SOL    HW1 5264   1.336   5.675   2.440
 1455SOL    HW2 5265   1.353   5.648   2.280
 1456SOL     OW 5266   6.184   5.480   5.589
 1456SOL    HW1 5267   6.119   5.537   5.539
 1456SOL    HW2 5268   6.158   5.477   5.686
 1457SOL     OW 5269   0.256   4.355   5.902
 1457SOL    HW1 5270   0.267   4.432   5.839
 1457SOL    HW2 5271   0.345   4.331   5.941
 1458SOL     OW 5272   5.222   4.752   5.261
 1458SOL    HW1 5273   5.295   4.752   5.193
 1458SOL    HW2 5274   5.228   4.834   5.317
 1459SOL     OW 5275   5.172   6.870   5.343
 1459SOL    HW1 5276   5.227   6.954   5.340
 1459SOL    HW2 5277   5.175   6.831   5.434
 1460SOL     OW 5278   1.847   6.315   5.608
 1460SOL    HW1 5279   1.776   6.245   5.608
 1460SOL    HW2 5280   1.896   6.313   5.696
 1461SOL     OW 5281   0.438   3.049   3.115
 1461SOL    HW1 5282   0.356   3.037   3.170
 1461SOL    HW2 5283   0.463   3.146   3.114
 1462SOL     OW 5284   0.637   0.067   0.761
 1462SOL    HW1 5285   0.602   0.130   0.692
 1462SOL    HW2 5286   0.639   0.113   0.850
 1463SOL     OW 5287   1.803   5.562   6.498
 1463SOL    HW1 5288   1.888   5.512   6.518
 1463SOL    HW2 5289   1.735   5.542   6.568
 1464SOL     OW 5290   0.212   4.537   4.267
 1464SOL    HW1 5291   0.271   4.546   4.187
 1464SOL    HW2 5292   0.253   4.472   4.331
 1465SOL     OW 5293   1.485   1.917   3.290
 1465SOL    HW1 5294   1.405   1.960   3.248
 1465SOL    HW2 5295   1.528   1.982   3.353
 1466SOL     OW 5296   4.374   1.939   1.861
 1466SOL    HW1 5297   4.346   2.023   1.816
 1466SOL    HW2 5298   4.294   1.880   1.874
 1467SOL     OW 5299   1.323   0.741   4.139
 1467SOL    HW1 5300   1.347   0.838   4.133
 1467SOL    HW2 5301   1.398   0.691   4.183
 1468SOL     OW 5302   2.289   6.095   2.498
 1468SOL    HW1 5303   2.377   6.068   2.538
 1468SOL    HW2 5304   2.303   6.137   2.409
 1469SOL     OW 5305   6.160   5.100   3.367
 1469SOL    HW1 5306   6.194   5.187   3.333
 1469SOL    HW2 5307   6.198   5.026   3.311
 1470SOL     OW 5308   6.321   2.094   0.715
 1470SOL    HW1 5309   6.340   2.187   0.684
 1470SOL    HW2 5310   6.227   2.070   0.694
 1471SOL     OW 5311   5.347   0.025   1.547
 1471SOL    HW1 5312   5.247   0.020   1.537
 1471SOL    HW2 5313   5.375   0.121   1.553
 1472SOL     OW 5314   1.628   6.649   6.576
 1472SOL    HW1 5315   1.567   6.711   6.626
 1472SOL    HW2 5316   1.663   6.696   6.495
 1473SOL     OW 5317   2.916   5.469   4.586
 1473SOL    HW1 5318   2.851   5.394   4.600
 1473SOL    HW2 5319   2.999   5.433   4.543
 1474SOL     OW 5320   4.045   4.889   1.495
 1474SOL    HW1 5321   3.994   4.969   1.527
 1474SOL    HW2 5322   4.065   4.830   1.573
 1475SOL     OW 5323   4.852   6.994   0.295
 1475SOL    HW1 5324   4.887   0.047   0.236
 1475SOL    HW2 5325   4.890   7.003   0.387
 1476SOL     OW 5326   3.974   0.975   1.389
 1476SOL    HW1 5327   3.997   1.055   1.334
 1476SOL    HW2 5328   4.037   0.969   1.467
 1477SOL     OW 5329   4.259   5.010   1.344
 1477SOL    HW1 5330   4.186   5.017   1.276
 1477SOL    HW2 5331   4.219   5.002   1.435
 1478SOL     OW 5332   4.932   5.881   5.674
 1478SOL    HW1 5333   4.974   5.968   5.650
 1478SOL    HW2 5334   4.850   5.867   5.618
 1479SOL     OW 5335   3.603   3.724   1.427
 1479SOL    HW1 5336   3.669   3.778   1.479
 1479SOL    HW2 5337   3.587   3.637   1.474
 1480SOL     OW 5338   2.900   0.402   5.062
 1480SOL    HW1 5339   2.969   0.351   5.012
 1480SOL    HW2 5340   2.904   0.499   5.035
 1481SOL     OW 5341   5.132   2.477   5.589
 1481SOL    HW1 5342   5.035   2.502   5.591
 1481SOL    HW2 5343   5.152   2.416   5.666
 1482SOL     OW 5344   4.582   1.330   0.205
 1482SOL    HW1 5345   4.581   1.282   0.118
 1482SOL    HW2 5346   4.498   1.384   0.215
 1483SOL     OW 5347   4.758   1.318   5.969
 1483SOL    HW1 5348   4.743   1.412   5.940
 1483SOL    HW2 5349   4.757   1.257   5.890
 1484SOL     OW 5350   3.248   5.833   5.051
 1484SOL    HW1 5351   3.170   5.770   5.048
 1484SOL    HW2 5352   3.309   5.813   4.974
 1485SOL     OW 5353   4.905   2.515   2.751
 1485SOL    HW1 5354   4.886   2.449   2.678
 1485SOL    HW2 5355   4.989   2.490   2.799
 1486SOL     OW 5356   5.055   6.999   3.807
 1486SOL    HW1 5357   5.032   6.916   3.857
 1486SOL    HW2 5358   4.972   0.033   3.791
 1487SOL     OW 5359   6.734   0.096   0.660
 1487SOL    HW1 5360   6.722   0.008   0.706
 1487SOL    HW2 5361   6.821   0.136   0.689
 1488SOL     OW 5362   6.156   0.955   3.016
 1488SOL    HW1 5363   6.103   0.885   2.968
 1488SOL    HW2 5364   6.151   0.939   3.115
 1489SOL     OW 5365   3.911   4.594   6.363
 1489SOL    HW1 5366   3.819   4.616   6.396
 1489SOL    HW2 5367   3.938   4.660   6.294
 1490SOL     OW 5368   0.446   2.308   2.662
 1490SOL    HW1 5369   0.411   2.366   2.588
 1490SOL    HW2 5370   0.380   2.236   2.681
 1491SOL     OW 5371   0.097   3.266   2.673
 1491SOL    HW1 5372   0.082   3.168   2.656
 1491SOL    HW2 5373   0.010   3.314   2.673
 1492SOL     OW 5374   5.883   1.431   2.802
 1492SOL    HW1 5375   5.942   1.361   2.843
 1492SOL    HW2 5376   5.939   1.504   2.764
 1493SOL     OW 5377   4.598   2.923   5.913
 1493SOL    HW1 5378   4.556   2.847   5.963
 1493SOL    HW2 5379   4.628   2.892   5.823
 1494SOL     OW 5380   6.425   4.323   5.808
 1494SOL    HW1 5381   6.344   4.335   5.865
 1494SOL    HW2 5382   6.427   4.230   5.772
 1495SOL     OW 5383   6.296   4.460   4.276
 1495SOL    HW1 5384   6.227   4.391   4.301
 1495SOL    HW2 5385   6.352   4.481   4.356
 1496SOL     OW 5386   6.654   5.564   6.536
 1496SOL    HW1 5387   6.737   5.573   6.481
 1496SOL    HW2 5388   6.675   5.581   6.632
 1497SOL     OW 5389   5.626   2.946   2.987
 1497SOL    HW1 5390   5.607   2.891   2.906
 1497SOL    HW2 5391   5.685   2.895   3.049
 1498SOL     OW 5392   3.071   4.661   0.852
 1498SOL    HW1 5393   3.033   4.569   0.847
 1498SOL    HW2 5394   3.015   4.724   0.800
 1499SOL     OW 5395   0.262   3.844   5.596
 1499SOL    HW1 5396   0.343   3.797   5.561
 1499SOL    HW2 5397   0.251   3.931   5.549
 1500SOL     OW 5398   0.786   5.411   1.764
 1500SOL    HW1 5399   0.839   5.339   1.809
 1500SOL    HW2 5400   0.782   5.393   1.666
 1501SOL     OW 5401   5.852   1.785   6.742
 1501SOL    HW1 5402   5.772   1.779   6.682
 1501SOL    HW2 5403   5.911   1.706   6.727
 1502SOL     OW 5404   6.258   6.822   6.724
 1502SOL    HW1 5405   6.281   6.918   6.705
 1502SOL    HW2 5406   6.332   6.763   6.695
 1503SOL     OW 5407   0.434   4.379   2.071
 1503SOL    HW1 5408   0.517   4.430   2.048
 1503SOL    HW2 5409   0.379   4.433   2.134
 1504SOL     OW 5410   0.666   0.616   2.637
 1504SOL    HW1 5411   0.703   0.533   2.680
 1504SOL    HW2 5412   0.588   0.593   2.580
 1505SOL     OW 5413   5.038   6.017   4.971
 1505SOL    HW1 5414   4.978   6.049   4.897
 1505SOL    HW2 5415   5.125   5.988   4.932
 1506SOL     OW 5416   0.658   1.072   0.593
 1506SOL    HW1 5417   0.674   1.126   0.510
 1506SOL    HW2 5418   0.745   1.035   0.626
 1507SOL     OW 5419   1.804   2.439   4.577
 1507SOL    HW1 5420   1.866   2.448   4.655
 1507SOL    HW2 5421   1.838   2.495   4.501
 1508SOL     OW 5422   0.964   0.764   0.398
 1508SOL    HW1 5423   0.885   0.706   0.417
 1508SOL    HW2 5424   1.044   0.731   0.448
 1509SOL     OW 5425   5.462   0.438   3.819
 1509SOL    HW1 5426   5.482   0.519   3.875
 1509SOL    HW2 5427   5.440   0.361   3.879
 1510SOL     OW 5428   3.698   5.909   4.041
 1510SOL    HW1 5429   3.783   5.940   3.998
 1510SOL    HW2 5430   3.718   5.833   4.103
 1511SOL     OW 5431   3.902   3.364   4.593
 1511SOL    HW1 5432   3.889   3.385   4.496
 1511SOL    HW2 5433   3.814   3.341   4.635
 1512SOL     OW 5434   6.424   6.267   1.080
 1512SOL    HW1 5435   6.425   6.360   1.046
 1512SOL    HW2 5436   6.357   6.259   1.154
 1513SOL     OW 5437   3.084   0.593   6.207
 1513SOL    HW1 5438   2.997   0.596   6.158
 1513SOL    HW2 5439   3.086   0.665   6.276
 1514SOL     OW 5440   3.550   2.226   5.649
 1514SOL    HW1 5441   3.638   2.262   5.620
 1514SOL    HW2 5442   3.536   2.246   5.746
 1515SOL     OW 5443   6.161   1.798   1.894
 1515SOL    HW1 5444   6.216   1.829   1.971
 1515SOL    HW2 5445   6.064   1.813   1.914
 1516SOL     OW 5446   5.679   6.765   4.786
 1516SOL    HW1 5447   5.630   6.811   4.712
 1516SOL    HW2 5448   5.777   6.766   4.767
 1517SOL     OW 5449   4.003   6.223   3.863
 1517SOL    HW1 5450   4.006   6.322   3.853
 1517SOL    HW2 5451   3.942   6.184   3.795
 1518SOL     OW 5452   0.322   2.399   0.410
 1518SOL    HW1 5453   0.417   2.368   0.400
 1518SOL    HW2 5454   0.310   2.442   0.500
 1519SOL     OW 5455   6.916   4.548   6.786
 1519SOL    HW1 5456   6.975   4.532   6.864
 1519SOL    HW2 5457   6.946   4.491   6.709
 1520SOL     OW 5458   0.057   5.848   2.189
 1520SOL    HW1 5459   0.039   5.802   2.102
 1520SOL    HW2 5460   0.078   5.779   2.259
 1521SOL     OW 5461   2.133   4.840   6.444
 1521SOL    HW1 5462   2.045   4.866   6.485
 1521SOL    HW2 5463   2.200   4.912   6.460
 1522SOL     OW 5464   4.958   5.451   4.579
 1522SOL    HW1 5465   4.894   5.420   4.510
 1522SOL    HW2 5466   4.908   5.485   4.659
 1523SOL     OW 5467   3.845   6.000   6.896
 1523SOL    HW1 5468   3.882   6.067   6.833
 1523SOL    HW2 5469   3.793   6.046   6.968
 1524SOL     OW 5470   2.305   1.774   2.210
 1524SOL    HW1 5471   2.355   1.860   2.225
 1524SOL    HW2 5472   2.339   1.730   2.127
 1525SOL     OW 5473   5.900   2.711   7.015
 1525SOL    HW1 5474   5.853   2.710   0.083
 1525SOL    HW2 5475   5.999   2.720   0.010
 1526SOL     OW 5476   1.057   1.020   0.374
 1526SOL    HW1 5477   1.028   0.925   0.385
 1526SOL    HW2 5478   1.157   1.024   0.368
 1527SOL     OW 5479   3.437   1.146   3.814
 1527SOL    HW1 5480   3.414   1.118   3.721
 1527SOL    HW2 5481   3.530   1.117   3.835
 1528SOL     OW 5482   4.955   3.610   1.143
 1528SOL    HW1 5483   5.008   3.531   1.111
 1528SOL    HW2 5484   5.016   3.675   1.188
 1529SOL     OW 5485   4.740   1.564   5.780
 1529SOL    HW1 5486   4.749   1.656   5.742
 1529SOL    HW2 5487   4.649   1.553   5.821
 1530SOL     OW 5488   3.706   6.178   1.592
 1530SOL    HW1 5489   3.656   6.162   1.507
 1530SOL    HW2 5490   3.673   6.262   1.635
 1531SOL     OW 5491   3.299   6.609   4.707
 1531SOL    HW1 5492   3.281   6.600   4.609
 1531SOL    HW2 5493   3.228   6.666   4.749
 1532SOL     OW 5494   2.574   5.222   6.112
 1532SOL    HW1 5495   2.488   5.172   6.125
 1532SOL    HW2 5496   2.565   5.287   6.036
 1533SOL     OW 5497   5.713   5.248   1.334
 1533SOL    HW1 5498   5.784   5.183   1.307
 1533SOL    HW2 5499   5.658   5.210   1.408
 1534SOL     OW 5500   3.825   5.786   6.431
 1534SOL    HW1 5501   3.733   5.811   6.460
 1534SOL    HW2 5502   3.878   5.755   6.510
 1535SOL     OW 5503   5.956   6.816   4.648
 1535SOL    HW1 5504   6.046   6.818   4.604
 1535SOL    HW2 5505   5.936   6.906   4.687
 1536SOL     OW 5506   4.150   4.034   6.882
 1536SOL    HW1 5507   4.201   4.119   6.870
 1536SOL    HW2 5508   4.117   4.002   6.792
 1537SOL     OW 5509   3.299   5.189   4.186
 1537SOL    HW1 5510   3.356   5.228   4.113
 1537SOL    HW2 5511   3.243   5.115   4.149
 1538SOL     OW 5512   3.129   1.379   6.897
 1538SOL    HW1 5513   3.206   1.404   6.957
 1538SOL    HW2 5514   3.054   1.443   6.912
 1539SOL     OW 5515   5.898   3.115   0.990
 1539SOL    HW1 5516   5.918   3.096   0.894
 1539SOL    HW2 5517   5.842   3.198   0.997
 1540SOL     OW 5518   3.135   0.283   4.927
 1540SOL    HW1 5519   3.177   0.336   4.854
 1540SOL    HW2 5520   3.198   0.275   5.004
 1541SOL     OW 5521   3.922   3.075   4.608
 1541SOL    HW1 5522   3.946   3.171   4.597
 1541SOL    HW2 5523   3.916   3.053   4.706
 1542SOL     OW 5524   6.903   0.406   2.629
 1542SOL    HW1 5525   6.969   0.390   2.703
 1542SOL    HW2 5526   6.861   0.496   2.641
 1543SOL     OW 5527   2.676   4.973   6.412
 1543SOL    HW1 5528   2.635   5.064   6.417
 1543SOL    HW2 5529   2.720   4.951   6.499
 1544SOL     OW 5530   4.058   3.178   3.805
 1544SOL    HW1 5531   3.983   3.142   3.749
 1544SOL    HW2 5532   4.043   3.153   3.901
 1545SOL     OW 5533   6.501   6.504   2.545
 1545SOL    HW1 5534   6.572   6.436   2.559
 1545SOL    HW2 5535   6.432   6.496   2.618
 1546SOL     OW 5536   5.085   6.564   5.722
 1546SOL    HW1 5537   5.120   6.543   5.630
 1546SOL    HW2 5538   5.058   6.660   5.726
 1547SOL     OW 5539   1.589   3.409   6.460
 1547SOL    HW1 5540   1.602   3.408   6.559
 1547SOL    HW2 5541   1.663   3.461   6.417
 1548SOL     OW 5542   5.929   2.237   6.730
 1548SOL    HW1 5543   5.989   2.262   6.654
 1548SOL    HW2 5544   5.954   2.289   6.811
 1549SOL     OW 5545   4.512   1.222   4.860
 1549SOL    HW1 5546   4.444   1.178   4.800
 1549SOL    HW2 5547   4.482   1.315   4.882
 1550SOL     OW 5548   3.649   2.921   3.120
 1550SOL    HW1 5549   3.713   2.956   3.052
 1550SOL    HW2 5550   3.648   2.821   3.116
 1551SOL     OW 5551   0.186   5.333   6.288
 1551SOL    HW1 5552   0.246   5.261   6.253
 1551SOL    HW2 5553   0.091   5.310   6.267
 1552SOL     OW 5554   2.485   4.209   1.735
 1552SOL    HW1 5555   2.395   4.175   1.759
 1552SOL    HW2 5556   2.495   4.303   1.768
 1553SOL     OW 5557   6.741   1.505   5.561
 1553SOL    HW1 5558   6.747   1.468   5.654
 1553SOL    HW2 5559   6.821   1.561   5.543
 1554SOL     OW 5560   2.691   1.682   3.748
 1554SOL    HW1 5561   2.757   1.748   3.783
 1554SOL    HW2 5562   2.695   1.598   3.803
 1555SOL     OW 5563   7.001   3.312   6.207
 1555SOL    HW1 5564   6.947   3.330   6.289
 1555SOL    HW2 5565   0.079   3.311   6.231
 1556SOL     OW 5566   2.123   1.401   5.905
 1556SOL    HW1 5567   2.082   1.454   5.830
 1556SOL    HW2 5568   2.105   1.304   5.890
 1557SOL     OW 5569   0.671   3.347   6.710
 1557SOL    HW1 5570   0.598   3.306   6.765
 1557SOL    HW2 5571   0.640   3.356   6.615
 1558SOL     OW 5572   6.532   0.477   5.237
 1558SOL    HW1 5573   6.469   0.428   5.177
 1558SOL    HW2 5574   6.599   0.413   5.275
 1559SOL     OW 5575   0.365   2.317   5.807
 1559SOL    HW1 5576   0.281   2.359   5.774
 1559SOL    HW2 5577   0.408   2.266   5.732
 1560SOL     OW 5578   6.953   0.698   6.477
 1560SOL    HW1 5579   6.957   0.724   6.574
 1560SOL    HW2 5580   6.924   0.776   6.423
 1561SOL     OW 5581   5.635   5.778   2.554
 1561SOL    HW1 5582   5.676   5.843   2.489
 1561SOL    HW2 5583   5.570   5.825   2.612
 1562SOL     OW 5584   5.479   0.431   3.054
 1562SOL    HW1 5585   5.486   0.381   3.140
 1562SOL    HW2 5586   5.467   0.366   2.979
 1563SOL     OW 5587   3.613   1.416   5.870
 1563SOL    HW1 5588   3.587   1.423   5.966
 1563SOL    HW2 5589   3.685   1.347   5.859
 1564SOL     OW 5590   2.056   2.151   2.655
 1564SOL    HW1 5591   1.970   2.164   2.703
 1564SOL    HW2 5592   2.045   2.176   2.559
 1565SOL     OW 5593   5.123   3.585   1.748
 1565SOL    HW1 5594   5.074   3.539   1.822
 1565SOL    HW2 5595   5.080   3.563   1.661
 1566SOL     OW 5596   5.353   4.329   3.532
 1566SOL    HW1 5597   5.363   4.374   3.621
 1566SOL    HW2 5598   5.259   4.300   3.519
 1567SOL     OW 5599   6.870   5.677   5.607
 1567SOL    HW1 5600   6.939   5.659   5.536
 1567SOL    HW2 5601   6.915   5.678   5.696
 1568SOL     OW 5602   0.286   0.450   0.833
 1568SOL    HW1 5603   0.364   0.414   0.884
 1568SOL    HW2 5604   0.298   0.431   0.736
 1569SOL     OW 5605   3.783   6.221   5.449
 1569SOL    HW1 5606   3.793   6.294   5.517
 1569SOL    HW2 5607   3.865   6.215   5.393
 1570SOL     OW 5608   3.115   1.921   1.516
 1570SOL    HW1 5609   3.147   1.888   1.428
 1570SOL    HW2 5610   3.025   1.963   1.506
 1571SOL     OW 5611   6.567   3.658   1.555
 1571SOL    HW1 5612   6.517   3.582   1.512
 1571SOL    HW2 5613   6.519   3.685   1.638
 1572SOL     OW 5614   1.422   0.018   2.182
 1572SOL    HW1 5615   1.426   6.997   2.090
 1572SOL    HW2 5616   1.327   0.025   2.211
 1573SOL     OW 5617   4.183   0.426   1.905
 1573SOL    HW1 5618   4.128   0.384   1.832
 1573SOL    HW2 5619   4.136   0.508   1.938
 1574SOL     OW 5620   6.941   2.392   1.783
 1574SOL    HW1 5621   0.017   2.412   1.764
 1574SOL    HW2 5622   6.902   2.337   1.709
 1575SOL     OW 5623   1.912   2.252   0.750
 1575SOL    HW1 5624   1.944   2.323   0.813
 1575SOL    HW2 5625   1.962   2.258   0.664
 1576SOL     OW 5626   5.973   6.132   3.984
 1576SOL    HW1 5627   5.981   6.192   3.904
 1576SOL    HW2 5628   6.055   6.074   3.989
 1577SOL     OW 5629   2.796   0.222   5.878
 1577SOL    HW1 5630   2.716   0.162   5.876
 1577SOL    HW2 5631   2.788   0.291   5.806
 1578SOL     OW 5632   6.213   4.496   5.680
 1578SOL    HW1 5633   6.255   4.562   5.743
 1578SOL    HW2 5634   6.218   4.404   5.720
 1579SOL     OW 5635   0.787   0.874   3.391
 1579SOL    HW1 5636   0.715   0.815   3.427
 1579SOL    HW2 5637   0.875   0.828   3.401
 1580SOL     OW 5638   2.995   4.249   5.256
 1580SOL    HW1 5639   3.095   4.257   5.251
 1580SOL    HW2 5640   2.953   4.331   5.217
 1581SOL     OW 5641   6.666   4.370   4.133
 1581SOL    HW1 5642   6.679   4.279   4.093
 1581SOL    HW2 5643   6.646   4.360   4.231
 1582SOL     OW 5644   6.971   5.386   4.593
 1582SOL    HW1 5645   6.954   5.373   4.691
 1582SOL    HW2 5646   0.046   5.360   4.573
 1583SOL     OW 5647   1.682   2.907   2.806
 1583SOL    HW1 5648   1.698   3.005   2.817
 1583SOL    HW2 5649   1.725   2.857   2.881
 1584SOL     OW 5650   2.225   0.132   6.110
 1584SOL    HW1 5651   2.221   0.204   6.041
 1584SOL    HW2 5652   2.314   0.132   6.154
 1585SOL     OW 5653   4.850   1.544   4.617
 1585SOL    HW1 5654   4.874   1.639   4.637
 1585SOL    HW2 5655   4.933   1.489   4.611
 1586SOL     OW 5656   3.593   4.090   2.512
 1586SOL    HW1 5657   3.584   4.026   2.588
 1586SOL    HW2 5658   3.577   4.184   2.545
 1587SOL     OW 5659   3.406   6.872   6.533
 1587SOL    HW1 5660   3.402   6.781   6.574
 1587SOL    HW2 5661   3.447   6.936   6.598
 1588SOL     OW 5662   5.821   3.088   1.823
 1588SOL    HW1 5663   5.777   2.999   1.813
 1588SOL    HW2 5664   5.869   3.111   1.738
 1589SOL     OW 5665   6.093   4.096   4.097
 1589SOL    HW1 5666   6.021   4.165   4.104
 1589SOL    HW2 5667   6.074   4.035   4.020
 1590SOL     OW 5668   1.314   0.702   6.025
 1590SOL    HW1 5669   1.336   0.605   6.034
 1590SOL    HW2 5670   1.363   0.740   5.946
 1591SOL     OW 5671   1.112   4.747   1.684
 1591SOL    HW1 5672   1.060   4.685   1.625
 1591SOL    HW2 5673   1.210   4.728   1.674
 1592SOL     OW 5674   3.329   3.266   2.740
 1592SOL    HW1 5675   3.357   3.212   2.661
 1592SOL    HW2 5676   3.233   3.246   2.762
 1593SOL     OW 5677   1.007   5.171   5.078
 1593SOL    HW1 5678   1.027   5.229   5.157
 1593SOL    HW2 5679   0.910   5.176   5.056
 1594SOL     OW 5680   6.871   5.311   2.687
 1594SOL    HW1 5681   6.879   5.222   2.643
 1594SOL    HW2 5682   6.953   5.365   2.667
 1595SOL     OW 5683   6.439   4.824   6.156
 1595SOL    HW1 5684   6.416   4.797   6.249
 1595SOL    HW2 5685   6.474   4.917   6.156
 1596SOL     OW 5686   2.854   5.183   5.865
 1596SOL    HW1 5687   2.889   5.196   5.772
 1596SOL    HW2 5688   2.762   5.143   5.860
 1597SOL     OW 5689   2.769   6.519   1.584
 1597SOL    HW1 5690   2.692   6.573   1.618
 1597SOL    HW2 5691   2.780   6.534   1.486
 1598SOL     OW 5692   0.149   5.050   1.172
 1598SOL    HW1 5693   0.114   5.074   1.263
 1598SOL    HW2 5694   0.222   5.114   1.147
 1599SOL     OW 5695   3.678   5.041   6.965
 1599SOL    HW1 5696   3.778   5.045   6.966
 1599SOL    HW2 5697   3.648   4.969   0.009
 1600SOL     OW 5698   3.837   1.245   4.500
 1600SOL    HW1 5699   3.921   1.194   4.518
 1600SOL    HW2 5700   3.763   1.207   4.555
 1601SOL     OW 5701   0.918   5.341   3.878
 1601SOL    HW1 5702   0.937   5.253   3.833
 1601SOL    HW2 5703   0.998   5.401   3.868
 1602SOL     OW 5704   1.371   4.995   3.442
 1602SOL    HW1 5705   1.439   5.058   3.481
 1602SOL    HW2 5706   1.381   4.905   3.484
 1603SOL     OW 5707   6.817   6.668   1.802
 1603SOL    HW1 5708   6.741   6.605   1.816
 1603SOL    HW2 5709   6.874   6.635   1.727
 1604SOL     OW 5710   0.838   5.589   6.252
 1604SOL    HW1 5711   0.885   5.669   6.289
 1604SOL    HW2 5712   0.826   5.600   6.153
 1605SOL     OW 5713   5.604   6.306   3.245
 1605SOL    HW1 5714   5.596   6.370   3.168
 1605SOL    HW2 5715   5.556   6.221   3.222
 1606SOL     OW 5716   5.056   6.865   6.544
 1606SOL    HW1 5717   4.965   6.823   6.545
 1606SOL    HW2 5718   5.117   6.814   6.604
 1607SOL     OW 5719   4.020   1.954   0.815
 1607SOL    HW1 5720   3.937   1.950   0.760
 1607SOL    HW2 5721   4.069   2.040   0.796
 1608SOL     OW 5722   2.484   0.238   0.479
 1608SOL    HW1 5723   2.405   0.229   0.418
 1608SOL    HW2 5724   2.459   0.294   0.558
 1609SOL     OW 5725   4.770   2.065   5.509
 1609SOL    HW1 5726   4.731   2.144   5.557
 1609SOL    HW2 5727   4.843   2.025   5.565
 1610SOL     OW 5728   6.489   5.400   4.717
 1610SOL    HW1 5729   6.491   5.301   4.699
 1610SOL    HW2 5730   6.400   5.425   4.755
 1611SOL     OW 5731   3.064   3.640   1.455
 1611SOL    HW1 5732   3.107   3.551   1.447
 1611SOL    HW2 5733   2.970   3.635   1.421
 1612SOL     OW 5734   2.655   0.732   4.801
 1612SOL    HW1 5735   2.603   0.817   4.792
 1612SOL    HW2 5736   2.642   0.677   4.718
 1613SOL     OW 5737   2.206   6.112   0.576
 1613SOL    HW1 5738   2.297   6.077   0.556
 1613SOL    HW2 5739   2.214   6.196   0.630
 1614SOL     OW 5740   6.064   2.282   6.961
 1614SOL    HW1 5741   6.106   2.199   6.925
 1614SOL    HW2 5742   6.119   2.317   0.016
 1615SOL     OW 5743   6.407   4.971   6.627
 1615SOL    HW1 5744   6.473   5.038   6.592
 1615SOL    HW2 5745   6.324   5.019   6.655
 1616SOL     OW 5746   3.271   2.141   5.957
 1616SOL    HW1 5747   3.217   2.216   5.918
 1616SOL    HW2 5748   3.218   2.056   5.953
 1617SOL     OW 5749   4.618   0.259   3.625
 1617SOL    HW1 5750   4.714   0.270   3.598
 1617SOL    HW2 5751   4.591   0.338   3.680
 1618SOL     OW 5752   5.260   2.487   1.115
 1618SOL    HW1 5753   5.201   2.510   1.037
 1618SOL    HW2 5754   5.245   2.552   1.189
 1619SOL     OW 5755   1.479   3.273   4.560
 1619SOL    HW1 5756   1.455   3.342   4.492
 1619SOL    HW2 5757   1.550   3.213   4.523
 1620SOL     OW 5758   3.011   5.280   1.410
 1620SOL    HW1 5759   3.107   5.274   1.383
 1620SOL    HW2 5760   2.967   5.191   1.396
 1621SOL     OW 5761   1.503   1.043   1.504
 1621SOL    HW1 5762   1.488   1.026   1.407
 1621SOL    HW2 5763   1.519   1.141   1.518
 1622SOL     OW 5764   1.972   1.904   4.623
 1622SOL    HW1 5765   1.948   1.809   4.604
 1622SOL    HW2 5766   2.000   1.949   4.537
 1623SOL     OW 5767   2.944   2.346   5.331
 1623SOL    HW1 5768   2.912   2.271   5.273
 1623SOL    HW2 5769   3.030   2.382   5.295
 1624SOL     OW 5770   2.039   1.389   0.124
 1624SOL    HW1 5771   1.944   1.419   0.130
 1624SOL    HW2 5772   2.068   1.390   0.028
 1625SOL     OW 5773   0.697   5.124   2.138
 1625SOL    HW1 5774   0.670   5.220   2.145
 1625SOL    HW2 5775   0.766   5.114   2.068
 1626SOL     OW 5776   1.976   2.194   6.489
 1626SOL    HW1 5777   1.906   2.192   6.418
 1626SOL    HW2 5778   1.998   2.100   6.517
 1627SOL     OW 5779   5.603   3.159   3.696
 1627SOL    HW1 5780   5.673   3.090   3.681
 1627SOL    HW2 5781   5.592   3.176   3.794
 1628SOL     OW 5782   3.220   3.877   0.062
 1628SOL    HW1 5783   3.149   3.805   0.059
 1628SOL    HW2 5784   3.284   3.862   7.007
 1629SOL     OW 5785   4.206   2.270   3.480
 1629SOL    HW1 5786   4.112   2.299   3.497
 1629SOL    HW2 5787   4.222   2.182   3.524
 1630SOL     OW 5788   0.409   4.976   5.036
 1630SOL    HW1 5789   0.310   4.992   5.030
 1630SOL    HW2 5790   0.457   5.048   4.986
 1631SOL     OW 5791   0.451   6.689   5.635
 1631SOL    HW1 5792   0.414   6.779   5.613
 1631SOL    HW2 5793   0.387   6.618   5.604
 1632SOL     OW 5794   5.928   0.924   1.365
 1632SOL    HW1 5795   6.023   0.949   1.382
 1632SOL    HW2 5796   5.894   0.867   1.440
 1633SOL     OW 5797   5.603   2.546   3.813
 1633SOL    HW1 5798   5.591   2.639   3.848
 1633SOL    HW2 5799   5.533   2.487   3.853
 1634SOL     OW 5800   3.550   1.119   6.609
 1634SOL    HW1 5801   3.612   1.040   6.614
 1634SOL    HW2 5802   3.605   1.203   6.602
 1635SOL     OW 5803   0.281   5.520   4.227
 1635SOL    HW1 5804   0.262   5.466   4.145
 1635SOL    HW2 5805   0.355   5.477   4.279
 1636SOL     OW 5806   2.125   5.895   1.203
 1636SOL    HW1 5807   2.176   5.826   1.254
 1636SOL    HW2 5808   2.034   5.906   1.243
 1637SOL     OW 5809   6.986   3.627   1.496
 1637SOL    HW1 5810   6.939   3.597   1.579
 1637SOL    HW2 5811   0.004   3.719   1.511
 1638SOL     OW 5812   0.935   3.057   4.696
 1638SOL    HW1 5813   0.885   2.977   4.728
 1638SOL    HW2 5814   1.033   3.042   4.707
 1639SOL     OW 5815   5.249   4.781   2.211
 1639SOL    HW1 5816   5.206   4.850   2.153
 1639SOL    HW2 5817   5.270   4.821   2.300
 1640SOL     OW 5818   6.150   0.280   1.337
 1640SOL    HW1 5819   6.234   0.290   1.284
 1640SOL    HW2 5820   6.087   0.354   1.312
 1641SOL     OW 5821   6.048   2.344   5.523
 1641SOL    HW1 5822   6.039   2.389   5.612
 1641SOL    HW2 5823   5.958   2.327   5.485
 1642SOL     OW 5824   0.084   2.560   1.999
 1642SOL    HW1 5825   7.004   2.570   2.001
 1642SOL    HW2 5826   0.113   2.544   1.904
 1643SOL     OW 5827   4.481   0.626   5.538
 1643SOL    HW1 5828   4.546   0.683   5.588
 1643SOL    HW2 5829   4.515   0.532   5.535
 1644SOL     OW 5830   3.023   0.530   1.247
 1644SOL    HW1 5831   3.112   0.572   1.259
 1644SOL    HW2 5832   3.034   0.433   1.224
 1645SOL     OW 5833   2.164   0.358   6.539
 1645SOL    HW1 5834   2.134   0.344   6.633
 1645SOL    HW2 5835   2.127   0.285   6.481
 1646SOL     OW 5836   0.978   3.738   1.237
 1646SOL    HW1 5837   0.943   3.729   1.144
 1646SOL    HW2 5838   0.995   3.648   1.276
 1647SOL     OW 5839   5.605   3.505   3.751
 1647SOL    HW1 5840   5.636   3.430   3.692
 1647SOL    HW2 5841   5.524   3.547   3.710
 1648SOL     OW 5842   4.347   0.200   2.251
 1648SOL    HW1 5843   4.338   0.287   2.204
 1648SOL    HW2 5844   4.442   0.170   2.250
 1649SOL     OW 5845   3.193   0.701   3.227
 1649SOL    HW1 5846   3.263   0.732   3.164
 1649SOL    HW2 5847   3.129   0.641   3.180
 1650SOL     OW 5848   2.880   6.318   3.748
 1650SOL    HW1 5849   2.800   6.327   3.689
 1650SOL    HW2 5850   2.851   6.284   3.838
 1651SOL     OW 5851   1.514   6.969   0.625
 1651SOL    HW1 5852   1.500   6.982   0.527
 1651SOL    HW2 5853   1.432   6.999   0.674
 1652SOL     OW 5854   2.784   2.653   1.468
 1652SOL    HW1 5855   2.795   2.621   1.562
 1652SOL    HW2 5856   2.714   2.599   1.422
 1653SOL     OW 5857   0.882   5.867   1.518
 1653SOL    HW1 5858   0.808   5.919   1.561
 1653SOL    HW2 5859   0.849   5.776   1.493
 1654SOL     OW 5860   0.281   3.424   3.025
 1654SOL    HW1 5861   0.218   3.451   3.098
 1654SOL    HW2 5862   0.249   3.338   2.985
 1655SOL     OW 5863   5.087   4.747   6.125
 1655SOL    HW1 5864   5.084   4.795   6.213
 1655SOL    HW2 5865   5.068   4.650   6.139
 1656SOL     OW 5866   0.621   5.234   3.167
 1656SOL    HW1 5867   0.672   5.310   3.208
 1656SOL    HW2 5868   0.543   5.212   3.225
 1657SOL     OW 5869   1.142   0.787   4.969
 1657SOL    HW1 5870   1.218   0.799   5.034
 1657SOL    HW2 5871   1.076   0.722   5.008
 1658SOL     OW 5872   6.096   6.109   2.558
 1658SOL    HW1 5873   6.151   6.072   2.633
 1658SOL    HW2 5874   6.050   6.034   2.511
 1659SOL     OW 5875   3.960   2.182   5.677
 1659SOL    HW1 5876   3.897   2.258   5.661
 1659SOL    HW2 5877   3.950   2.114   5.605
 1660SOL     OW 5878   1.854   5.946   3.510
 1660SOL    HW1 5879   1.812   5.904   3.591
 1660SOL    HW2 5880   1.953   5.931   3.512
 1661SOL     OW 5881   2.658   0.300   2.367
 1661SOL    HW1 5882   2.584   0.260   2.313
 1661SOL    HW2 5883   2.703   0.371   2.313
 1662SOL     OW 5884   0.553   0.543   3.031
 1662SOL    HW1 5885   0.469   0.584   2.995
 1662SOL    HW2 5886   0.598   0.608   3.092
 1663SOL     OW 5887   2.749   7.000   3.522
 1663SOL    HW1 5888   2.691   0.023   3.452
 1663SOL    HW2 5889   2.771   6.906   3.494
 1664SOL     OW 5890   2.217   5.683   4.579
 1664SOL    HW1 5891   2.183   5.700   4.487
 1664SOL    HW2 5892   2.290   5.614   4.574
 1665SOL     OW 5893   6.979   0.451   3.895
 1665SOL    HW1 5894   6.900   0.488   3.944
 1665SOL    HW2 5895   7.011   0.368   3.941
 1666SOL     OW 5896   5.960   2.305   6.042
 1666SOL    HW1 5897   5.954   2.400   6.010
 1666SOL    HW2 5898   5.882   2.253   6.008
 1667SOL     OW 5899   6.363   0.585   6.208
 1667SOL    HW1 5900   6.287   0.647   6.229
 1667SOL    HW2 5901   6.405   0.612   6.122
 1668SOL     OW 5902   3.485   1.180   5.355
 1668SOL    HW1 5903   3.506   1.172   5.452
 1668SOL    HW2 5904   3.487   1.090   5.312
 1669SOL     OW 5905   5.608   6.684   6.559
 1669SOL    HW1 5906   5.579   6.672   6.654
 1669SOL    HW2 5907   5.679   6.616   6.538
 1670SOL     OW 5908   5.651   4.124   5.808
 1670SOL    HW1 5909   5.748   4.125   5.834
 1670SOL    HW2 5910   5.610   4.037   5.835
 1671SOL     OW 5911   5.786   3.527   0.672
 1671SOL    HW1 5912   5.762   3.574   0.587
 1671SOL    HW2 5913   5.707   3.475   0.704
 1672SOL     OW 5914   1.614   5.196   2.340
 1672SOL    HW1 5915   1.712   5.191   2.322
 1672SOL    HW2 5916   1.598   5.235   2.430
 1673SOL     OW 5917   7.010   2.327   4.062
 1673SOL    HW1 5918   0.018   2.252   4.002
 1673SOL    HW2 5919   0.071   2.363   4.110
 1674SOL     OW 5920   0.304   4.232   6.382
 1674SOL    HW1 5921   0.385   4.188   6.420
 1674SOL    HW2 5922   0.332   4.302   6.316
 1675SOL     OW 5923   4.897   1.799   6.800
 1675SOL    HW1 5924   4.868   1.886   6.838
 1675SOL    HW2 5925   4.849   1.782   6.714
 1676SOL     OW 5926   1.668   0.210   2.987
 1676SOL    HW1 5927   1.632   0.118   2.973
 1676SOL    HW2 5928   1.620   0.274   2.927
 1677SOL     OW 5929   5.749   1.689   5.136
 1677SOL    HW1 5930   5.683   1.704   5.062
 1677SOL    HW2 5931   5.718   1.613   5.194
 1678SOL     OW 5932   5.315   0.382   1.379
 1678SOL    HW1 5933   5.328   0.301   1.322
 1678SOL    HW2 5934   5.228   0.426   1.354
 1679SOL     OW 5935   0.378   3.793   6.717
 1679SOL    HW1 5936   0.417   3.797   6.625
 1679SOL    HW2 5937   0.346   3.700   6.735
 1680SOL     OW 5938   1.024   1.717   4.288
 1680SOL    HW1 5939   1.097   1.706   4.220
 1680SOL    HW2 5940   1.064   1.749   4.374
 1681SOL     OW 5941   6.726   5.471   1.027
 1681SOL    HW1 5942   6.752   5.551   0.973
 1681SOL    HW2 5943   6.645   5.493   1.081
 1682SOL     OW 5944   6.371   3.618   5.394
 1682SOL    HW1 5945   6.279   3.608   5.434
 1682SOL    HW2 5946   6.433   3.554   5.438
 1683SOL     OW 5947   5.595   5.819   0.797
 1683SOL    HW1 5948   5.591   5.774   0.708
 1683SOL    HW2 5949   5.659   5.895   0.794
 1684SOL     OW 5950   0.913   5.719   5.072
 1684SOL    HW1 5951   0.905   5.668   5.158
 1684SOL    HW2 5952   0.998   5.770   5.071
 1685SOL     OW 5953   1.542   1.558   0.243
 1685SOL    HW1 5954   1.516   1.511   0.328
 1685SOL    HW2 5955   1.516   1.654   0.249
 1686SOL     OW 5956   1.644   6.786   0.220
 1686SOL    HW1 5957   1.698   6.854   0.171
 1686SOL    HW2 5958   1.704   6.723   0.268
 1687SOL     OW 5959   1.362   6.683   1.971
 1687SOL    HW1 5960   1.340   6.624   1.893
 1687SOL    HW2 5961   1.423   6.635   2.033
 1688SOL     OW 5962   0.866   2.369   3.236
 1688SOL    HW1 5963   0.866   2.360   3.336
 1688SOL    HW2 5964   0.772   2.374   3.203
 1689SOL     OW 5965   1.928   1.293   3.117
 1689SOL    HW1 5966   2.013   1.304   3.169
 1689SOL    HW2 5967   1.886   1.383   3.102
 1690SOL     OW 5968   1.044   1.141   0.860
 1690SOL    HW1 5969   0.985   1.205   0.909
 1690SOL    HW2 5970   1.140   1.165   0.877
 1691SOL     OW 5971   5.537   4.185   2.554
 1691SOL    HW1 5972   5.475   4.237   2.496
 1691SOL    HW2 5973   5.510   4.088   2.553
 1692SOL     OW 5974   1.574   0.476   3.129
 1692SOL    HW1 5975   1.541   0.382   3.141
 1692SOL    HW2 5976   1.573   0.500   3.032
 1693SOL     OW 5977   2.860   2.241   3.650
 1693SOL    HW1 5978   2.933   2.218   3.585
 1693SOL    HW2 5979   2.892   2.223   3.743
 1694SOL     OW 5980   4.958   5.901   5.208
 1694SOL    HW1 5981   5.048   5.886   5.249
 1694SOL    HW2 5982   4.966   5.964   5.131
 1695SOL     OW 5983   2.803   2.644   5.540
 1695SOL    HW1 5984   2.859   2.561   5.551
 1695SOL    HW2 5985   2.706   2.619   5.542
 1696SOL     OW 5986   4.256   5.754   0.721
 1696SOL    HW1 5987   4.172   5.776   0.671
 1696SOL    HW2 5988   4.279   5.658   0.709
 1697SOL     OW 5989   0.754   1.139   1.868
 1697SOL    HW1 5990   0.832   1.127   1.930
 1697SOL    HW2 5991   0.697   1.214   1.901
 1698SOL     OW 5992   4.776   1.984   1.615
 1698SOL    HW1 5993   4.750   2.050   1.685
 1698SOL    HW2 5994   4.859   2.015   1.569
 1699SOL     OW 5995   2.485   3.265   1.292
 1699SOL    HW1 5996   2.401   3.218   1.317
 1699SOL    HW2 5997   2.469   3.321   1.211
 1700SOL     OW 5998   6.560   3.464   3.617
 1700SOL    HW1 5999   6.571   3.383   3.559
 1700SOL    HW2 6000   6.522   3.436   3.705
 1701SOL     OW 6001   5.394   3.199   4.585
 1701SOL    HW1 6002   5.324   3.203   4.655
 1701SOL    HW2 6003   5.476   3.154   4.622
 1702SOL     OW 6004   4.969   2.749   0.398
 1702SOL    HW1 6005   4.992   2.652   0.401
 1702SOL    HW2 6006   4.944   2.781   0.490
 1703SOL     OW 6007   1.988   3.739   0.174
 1703SOL    HW1 6008   1.905   3.796   0.171
 1703SOL    HW2 6009   2.024   3.728   0.081
 1704SOL     OW 6010   0.954   1.343   2.295
 1704SOL    HW1 6011   1.049   1.372   2.302
 1704SOL    HW2 6012   0.913   1.339   2.386
 1705SOL     OW 6013   4.384   2.989   1.686
 1705SOL    HW1 6014   4.319   3.046   1.736
 1705SOL    HW2 6015   4.460   2.964   1.747
 1706SOL     OW 6016   2.847   1.163   0.127
 1706SOL    HW1 6017   2.883   1.132   0.215
 1706SOL    HW2 6018   2.890   1.110   0.053
 1707SOL     OW 6019   5.319   2.236   3.180
 1707SOL    HW1 6020   5.272   2.229   3.268
 1707SOL    HW2 6021   5.294   2.158   3.123
 1708SOL     OW 6022   0.097   5.031   3.118
 1708SOL    HW1 6023   0.007   5.036   3.160
 1708SOL    HW2 6024   0.107   5.105   3.052
 1709SOL     OW 6025   3.078   6.080   2.928
 1709SOL    HW1 6026   2.996   6.134   2.907
 1709SOL    HW2 6027   3.138   6.078   2.848
 1710SOL     OW 6028   0.087   5.976   4.290
 1710SOL    HW1 6029   0.037   5.909   4.236
 1710SOL    HW2 6030   0.082   6.065   4.246
 1711SOL     OW 6031   1.584   4.241   5.674
 1711SOL    HW1 6032   1.560   4.337   5.691
 1711SOL    HW2 6033   1.508   4.196   5.628
 1712SOL     OW 6034   0.876   4.517   0.656
 1712SOL    HW1 6035   0.946   4.455   0.620
 1712SOL    HW2 6036   0.866   4.595   0.594
 1713SOL     OW 6037   0.948   3.123   0.588
 1713SOL    HW1 6038   1.035   3.123   0.637
 1713SOL    HW2 6039   0.962   3.093   0.494
 1714SOL     OW 6040   3.112   1.755   0.577
 1714SOL    HW1 6041   3.107   1.682   0.645
 1714SOL    HW2 6042   3.167   1.725   0.499
 1715SOL     OW 6043   0.106   3.336   3.571
 1715SOL    HW1 6044   0.146   3.334   3.662
 1715SOL    HW2 6045   0.058   3.423   3.557
 1716SOL     OW 6046   0.065   6.477   0.335
 1716SOL    HW1 6047   6.990   6.499   0.313
 1716SOL    HW2 6048   0.124   6.551   0.305
 1717SOL     OW 6049   2.810   0.705   6.832
 1717SOL    HW1 6050   2.886   0.645   6.855
 1717SOL    HW2 6051   2.835   0.762   6.754
 1718SOL     OW 6052   1.308   4.982   6.164
 1718SOL    HW1 6053   1.337   4.948   6.074
 1718SOL    HW2 6054   1.255   5.066   6.152
 1719SOL     OW 6055   2.217   3.480   1.637
 1719SOL    HW1 6056   2.227   3.385   1.609
 1719SOL    HW2 6057   2.263   3.494   1.725
 1720SOL     OW 6058   6.592   1.032   1.075
 1720SOL    HW1 6059   6.581   1.117   1.127
 1720SOL    HW2 6060   6.650   1.049   0.996
 1721SOL     OW 6061   2.021   6.435   3.812
 1721SOL    HW1 6062   2.065   6.402   3.728
 1721SOL    HW2 6063   1.937   6.483   3.789
 1722SOL     OW 6064   6.036   6.350   2.291
 1722SOL    HW1 6065   5.998   6.435   2.255
 1722SOL    HW2 6066   5.961   6.293   2.325
 1723SOL     OW 6067   6.294   1.581   2.293
 1723SOL    HW1 6068   6.386   1.578   2.332
 1723SOL    HW2 6069   6.230   1.616   2.361
 1724SOL     OW 6070   5.099   0.683   0.140
 1724SOL    HW1 6071   5.086   0.711   0.045
 1724SOL    HW2 6072   5.101   0.583   0.145
 1725SOL     OW 6073   3.995   4.496   1.517
 1725SOL    HW1 6074   4.055   4.422   1.487
 1725SOL    HW2 6075   4.049   4.563   1.569
 1726SOL     OW 6076   0.886   4.435   4.346
 1726SOL    HW1 6077   0.900   4.478   4.257
 1726SOL    HW2 6078   0.945   4.479   4.414
 1727SOL     OW 6079   3.622   3.848   5.523
 1727SOL    HW1 6080   3.659   3.845   5.616
 1727SOL    HW2 6081   3.526   3.818   5.524
 1728SOL     OW 6082   4.564   4.443   3.019
 1728SOL    HW1 6083   4.481   4.499   3.020
 1728SOL    HW2 6084   4.596   4.432   2.925
 1729SOL     OW 6085   2.137   3.840   3.128
 1729SOL    HW1 6086   2.122   3.802   3.037
 1729SOL    HW2 6087   2.180   3.930   3.120
 1730SOL     OW 6088   6.060   2.835   5.451
 1730SOL    HW1 6089   5.991   2.824   5.379
 1730SOL    HW2 6090   6.019   2.883   5.528
 1731SOL     OW 6091   1.702   5.391   0.394
 1731SOL    HW1 6092   1.740   5.456   0.460
 1731SOL    HW2 6093   1.777   5.346   0.346
 1732SOL     OW 6094   0.469   4.609   6.950
 1732SOL    HW1 6095   0.481   4.565   6.861
 1732SOL    HW2 6096   0.520   4.695   6.950
 1733SOL     OW 6097   1.772   3.618   0.575
 1733SOL    HW1 6098   1.841   3.663   0.631
 1733SOL    HW2 6099   1.814   3.587   0.489
 1734SOL     OW 6100   4.803   2.546   0.796
 1734SOL    HW1 6101   4.773   2.455   0.768
 1734SOL    HW2 6102   4.743   2.580   0.868
 1735SOL     OW 6103   6.443   5.043   1.524
 1735SOL    HW1 6104   6.483   5.121   1.572
 1735SOL    HW2 6105   6.366   5.074   1.468
 1736SOL     OW 6106   4.105   3.375   0.690
 1736SOL    HW1 6107   4.127   3.294   0.635
 1736SOL    HW2 6108   4.017   3.363   0.734
 1737SOL     OW 6109   2.166   6.550   4.015
 1737SOL    HW1 6110   2.110   6.507   3.945
 1737SOL    HW2 6111   2.252   6.500   4.025
 1738SOL     OW 6112   2.184   2.914   2.271
 1738SOL    HW1 6113   2.204   2.994   2.215
 1738SOL    HW2 6114   2.107   2.864   2.232
 1739SOL     OW 6115   4.250   1.662   4.816
 1739SOL    HW1 6116   4.175   1.659   4.883
 1739SOL    HW2 6117   4.212   1.669   4.724
 1740SOL     OW 6118   0.792   1.258   5.705
 1740SOL    HW1 6119   0.837   1.218   5.625
 1740SOL    HW2 6120   0.716   1.199   5.734
 1741SOL     OW 6121   1.221   0.127   2.981
 1741SOL    HW1 6122   1.296   0.061   2.977
 1741SOL    HW2 6123   1.249   0.212   2.938
 1742SOL     OW 6124   6.213   0.779   4.776
 1742SOL    HW1 6125   6.278   0.784   4.851
 1742SOL    HW2 6126   6.259   0.744   4.694
 1743SOL     OW 6127   3.942   1.454   1.059
 1743SOL    HW1 6128   3.992   1.376   1.020
 1743SOL    HW2 6129   3.924   1.521   0.987
 1744SOL     OW 6130   2.796   0.642   1.086
 1744SOL    HW1 6131   2.733   0.585   1.033
 1744SOL    HW2 6132   2.867   0.585   1.126
 1745SOL     OW 6133   0.360   2.283   3.114
 1745SOL    HW1 6134   0.420   2.265   3.036
 1745SOL    HW2 6135   0.315   2.198   3.142
 1746SOL     OW 6136   2.718   1.261   5.716
 1746SOL    HW1 6137   2.677   1.203   5.786
 1746SOL    HW2 6138   2.761   1.203   5.647
 1747SOL     OW 6139   3.153   0.168   1.889
 1747SOL    HW1 6140   3.178   0.080   1.849
 1747SOL    HW2 6141   3.235   0.221   1.907
 1748SOL     OW 6142   5.547   2.099   2.631
 1748SOL    HW1 6143   5.494   2.180   2.657
 1748SOL    HW2 6144   5.508   2.059   2.548
 1749SOL     OW 6145   3.927   0.091   6.339
 1749SOL    HW1 6146   3.996   0.082   6.267
 1749SOL    HW2 6147   3.950   0.167   6.399
 1750SOL     OW 6148   4.533   1.064   3.399
 1750SOL    HW1 6149   4.603   0.999   3.430
 1750SOL    HW2 6150   4.576   1.151   3.377
 1751SOL     OW 6151   2.119   5.803   3.741
 1751SOL    HW1 6152   2.121   5.851   3.653
 1751SOL    HW2 6153   2.109   5.704   3.724
 1752SOL     OW 6154   5.967   2.252   0.746
 1752SOL    HW1 6155   5.876   2.242   0.788
 1752SOL    HW2 6156   6.008   2.162   0.735
 1753SOL     OW 6157   1.597   0.313   1.629
 1753SOL    HW1 6158   1.559   0.225   1.657
 1753SOL    HW2 6159   1.526   0.383   1.634
 1754SOL     OW 6160   4.218   3.399   0.932
 1754SOL    HW1 6161   4.314   3.372   0.937
 1754SOL    HW2 6162   4.189   3.400   0.836
 1755SOL     OW 6163   5.428   3.852   0.683
 1755SOL    HW1 6164   5.373   3.783   0.730
 1755SOL    HW2 6165   5.424   3.938   0.734
 1756SOL     OW 6166   6.584   5.778   4.614
 1756SOL    HW1 6167   6.623   5.870   4.616
 1756SOL    HW2 6168   6.610   5.732   4.529
 1757SOL     OW 6169   2.843   6.826   4.873
 1757SOL    HW1 6170   2.830   6.828   4.972
 1757SOL    HW2 6171   2.814   6.913   4.834
 1758SOL     OW 6172   2.062   0.632   3.109
 1758SOL    HW1 6173   2.015   0.716   3.082
 1758SOL    HW2 6174   2.007   0.553   3.081
 1759SOL     OW 6175   0.631   5.958   0.075
 1759SOL    HW1 6176   0.598   5.892   0.009
 1759SOL    HW2 6177   0.729   5.976   0.059
 1760SOL     OW 6178   6.244   0.591   2.705
 1760SOL    HW1 6179   6.315   0.629   2.765
 1760SOL    HW2 6180   6.285   0.562   2.619
 1761SOL     OW 6181   6.904   2.505   1.027
 1761SOL    HW1 6182   6.831   2.528   1.092
 1761SOL    HW2 6183   6.899   2.408   1.004
 1762SOL     OW 6184   6.523   1.701   6.208
 1762SOL    HW1 6185   6.598   1.653   6.253
 1762SOL    HW2 6186   6.446   1.638   6.195
 1763SOL     OW 6187   1.893   4.031   4.044
 1763SOL    HW1 6188   1.900   4.119   3.996
 1763SOL    HW2 6189   1.871   3.959   3.979
 1764SOL     OW 6190   0.068   3.277   4.068
 1764SOL    HW1 6191   0.143   3.213   4.088
 1764SOL    HW2 6192   0.085   3.363   4.116
 1765SOL     OW 6193   2.885   2.334   6.378
 1765SOL    HW1 6194   2.825   2.306   6.453
 1765SOL    HW2 6195   2.865   2.429   6.352
 1766SOL     OW 6196   5.566   2.852   5.065
 1766SOL    HW1 6197   5.590   2.948   5.052
 1766SOL    HW2 6198   5.503   2.844   5.142
 1767SOL     OW 6199   5.714   3.273   2.635
 1767SOL    HW1 6200   5.753   3.182   2.650
 1767SOL    HW2 6201   5.618   3.273   2.661
 1768SOL     OW 6202   5.225   6.753   4.063
 1768SOL    HW1 6203   5.216   6.754   3.964
 1768SOL    HW2 6204   5.320   6.733   4.088
 1769SOL     OW 6205   4.250   1.304   2.302
 1769SOL    HW1 6206   4.289   1.245   2.231
 1769SOL    HW2 6207   4.164   1.343   2.270
 1770SOL     OW 6208   2.063   5.724   5.701
 1770SOL    HW1 6209   2.000   5.720   5.778
 1770SOL    HW2 6210   2.148   5.769   5.730
 1771SOL     OW 6211   4.624   5.921   6.783
 1771SOL    HW1 6212   4.659   5.838   6.741
 1771SOL    HW2 6213   4.531   5.939   6.749
 1772SOL     OW 6214   3.625   6.398   3.098
 1772SOL    HW1 6215   3.566   6.472   3.065
 1772SOL    HW2 6216   3.708   6.437   3.137
 1773SOL     OW 6217   1.403   5.635   6.171
 1773SOL    HW1 6218   1.417   5.723   6.125
 1773SOL    HW2 6219   1.419   5.645   6.269
 1774SOL     OW 6220   4.164   5.330   1.622
 1774SOL    HW1 6221   4.216   5.394   1.679
 1774SOL    HW2 6222   4.205   5.238   1.630
 1775SOL     OW 6223   0.530   4.116   2.167
 1775SOL    HW1 6224   0.448   4.173   2.170
 1775SOL    HW2 6225   0.553   4.086   2.259
 1776SOL     OW 6226   3.270   6.107   5.015
 1776SOL    HW1 6227   3.187   6.141   4.971
 1776SOL    HW2 6228   3.265   6.007   5.024
 1777SOL     OW 6229   4.281   5.969   0.919
 1777SOL    HW1 6230   4.201   6.003   0.969
 1777SOL    HW2 6231   4.276   5.870   0.912
 1778SOL     OW 6232   5.352   3.635   5.980
 1778SOL    HW1 6233   5.275   3.646   5.917
 1778SOL    HW2 6234   5.417   3.570   5.941
 1779SOL     OW 6235   3.602   0.309   4.804
 1779SOL    HW1 6236   3.661   0.229   4.796
 1779SOL    HW2 6237   3.659   0.392   4.804
 1780SOL     OW 6238   3.346   3.287   6.318
 1780SOL    HW1 6239   3.287   3.210   6.342
 1780SOL    HW2 6240   3.439   3.255   6.302
 1781SOL     OW 6241   3.604   5.532   2.733
 1781SOL    HW1 6242   3.612   5.595   2.811
 1781SOL    HW2 6243   3.509   5.504   2.722
 1782SOL     OW 6244   2.975   1.094   3.385
 1782SOL    HW1 6245   3.047   1.026   3.400
 1782SOL    HW2 6246   2.902   1.054   3.330
 1783SOL     OW 6247   1.973   5.843   6.795
 1783SOL    HW1 6248   2.024   5.895   6.727
 1783SOL    HW2 6249   2.007   5.748   6.797
 1784SOL     OW 6250   3.395   6.969   5.854
 1784SOL    HW1 6251   3.447   0.017   5.906
 1784SOL    HW2 6252   3.350   6.905   5.918
 1785SOL     OW 6253   6.350   3.662   2.647
 1785SOL    HW1 6254   6.289   3.737   2.619
 1785SOL    HW2 6255   6.445   3.693   2.639
 1786SOL     OW 6256   3.274   2.110   0.931
 1786SOL    HW1 6257   3.219   2.150   1.005
 1786SOL    HW2 6258   3.245   2.149   0.844
 1787SOL     OW 6259   3.563   1.484   6.130
 1787SOL    HW1 6260   3.535   1.404   6.184
 1787SOL    HW2 6261   3.504   1.561   6.151
 1788SOL     OW 6262   1.770   5.206   5.433
 1788SOL    HW1 6263   1.753   5.224   5.529
 1788SOL    HW2 6264   1.850   5.147   5.423
 1789SOL     OW 6265   6.390   1.678   6.997
 1789SOL    HW1 6266   6.355   1.754   0.034
 1789SOL    HW2 6267   6.315   1.615   6.976
 1790SOL     OW 6268   3.995   6.501   3.864
 1790SOL    HW1 6269   4.064   6.536   3.927
 1790SOL    HW2 6270   3.958   6.576   3.809
 1791SOL     OW 6271   6.836   6.617   2.779
 1791SOL    HW1 6272   6.738   6.622   2.799
 1791SOL    HW2 6273   6.886   6.669   2.848
 1792SOL     OW 6274   1.144   3.295   5.084
 1792SOL    HW1 6275   1.202   3.373   5.108
 1792SOL    HW2 6276   1.050   3.326   5.069
 1793SOL     OW 6277   6.847   0.560   3.687
 1793SOL    HW1 6278   6.914   0.625   3.651
 1793SOL    HW2 6279   6.889   0.506   3.760
 1794SOL     OW 6280   4.691   5.368   5.987
 1794SOL    HW1 6281   4.719   5.299   5.920
 1794SOL    HW2 6282   4.662   5.450   5.940
 1795SOL     OW 6283   0.191   2.832   0.577
 1795SOL    HW1 6284   0.238   2.744   0.572
 1795SOL    HW2 6285   0.243   2.895   0.634
 1796SOL     OW 6286   2.898   0.779   5.843
 1796SOL    HW1 6287   2.943   0.715   5.781
 1796SOL    HW2 6288   2.818   0.819   5.797
 1797SOL     OW 6289   0.803   6.622   0.749
 1797SOL    HW1 6290   0.864   6.654   0.676
 1797SOL    HW2 6291   0.774   6.529   0.729
 1798SOL     OW 6292   4.602   2.450   3.243
 1798SOL    HW1 6293   4.683   2.498   3.277
 1798SOL    HW2 6294   4.534   2.444   3.316
 1799SOL     OW 6295   1.017   2.071   6.189
 1799SOL    HW1 6296   1.077   2.040   6.115
 1799SOL    HW2 6297   0.981   2.162   6.166
 1800SOL     OW 6298   4.230   4.752   1.148
 1800SOL    HW1 6299   4.209   4.842   1.109
 1800SOL    HW2 6300   4.329   4.739   1.149
 1801SOL     OW 6301   0.061   6.900   2.173
 1801SOL    HW1 6302   0.149   6.911   2.127
 1801SOL    HW2 6303   7.011   6.875   2.106
 1802SOL     OW 6304   6.170   5.684   4.482
 1802SOL    HW1 6305   6.087   5.667   4.535
 1802SOL    HW2 6306   6.248   5.694   4.544
 1803SOL     OW 6307   0.016   5.887   0.369
 1803SOL    HW1 6308   0.083   5.866   0.440
 1803SOL    HW2 6309   0.059   5.943   0.298
 1804SOL     OW 6310   3.079   3.604   5.142
 1804SOL    HW1 6311   3.101   3.636   5.234
 1804SOL    HW2 6312   3.039   3.513   5.147
 1805SOL     OW 6313   5.178   3.261   5.820
 1805SOL    HW1 6314   5.104   3.302   5.873
 1805SOL    HW2 6315   5.252   3.234   5.880
 1806SOL     OW 6316   1.492   6.622   1.542
 1806SOL    HW1 6317   1.448   6.575   1.465
 1806SOL    HW2 6318   1.427   6.626   1.618
 1807SOL     OW 6319   6.419   1.745   4.960
 1807SOL    HW1 6320   6.392   1.841   4.958
 1807SOL    HW2 6321   6.503   1.732   4.908
 1808SOL     OW 6322   0.750   4.184   4.219
 1808SOL    HW1 6323   0.789   4.267   4.260
 1808SOL    HW2 6324   0.677   4.150   4.278
 1809SOL     OW 6325   3.153   1.799   5.706
 1809SOL    HW1 6326   3.176   1.881   5.653
 1809SOL    HW2 6327   3.057   1.775   5.691
 1810SOL     OW 6328   3.145   6.547   2.986
 1810SOL    HW1 6329   3.171   6.520   3.079
 1810SOL    HW2 6330   3.160   6.645   2.975
 1811SOL     OW 6331   5.985   5.424   3.172
 1811SOL    HW1 6332   5.958   5.348   3.113
 1811SOL    HW2 6333   6.084   5.419   3.189
 1812SOL     OW 6334   4.142   5.340   5.979
 1812SOL    HW1 6335   4.090   5.336   6.064
 1812SOL    HW2 6336   4.103   5.411   5.920
 1813SOL     OW 6337   6.221   4.631   6.972
 1813SOL    HW1 6338   6.277   4.616   6.890
 1813SOL    HW2 6339   6.204   4.543   7.016
 1814SOL     OW 6340   4.498   6.543   2.511
 1814SOL    HW1 6341   4.452   6.606   2.448
 1814SOL    HW2 6342   4.434   6.472   2.540
 1815SOL     OW 6343   6.888   0.310   2.908
 1815SOL    HW1 6344   6.929   0.234   2.858
 1815SOL    HW2 6345   6.883   0.286   3.005
 1816SOL     OW 6346   1.499   3.702   7.019
 1816SOL    HW1 6347   1.407   3.669   6.996
 1816SOL    HW2 6348   1.508   3.706   0.099
 1817SOL     OW 6349   1.877   5.489   2.386
 1817SOL    HW1 6350   1.815   5.545   2.331
 1817SOL    HW2 6351   1.883   5.397   2.347
 1818SOL     OW 6352   1.589   0.775   3.393
 1818SOL    HW1 6353   1.576   0.845   3.462
 1818SOL    HW2 6354   1.531   0.696   3.413
 1819SOL     OW 6355   1.488   4.650   1.308
 1819SOL    HW1 6356   1.539   4.603   1.236
 1819SOL    HW2 6357   1.445   4.583   1.368
 1820SOL     OW 6358   4.918   0.195   2.685
 1820SOL    HW1 6359   4.995   0.150   2.731
 1820SOL    HW2 6360   4.920   0.172   2.588
 1821SOL     OW 6361   2.621   2.067   2.785
 1821SOL    HW1 6362   2.565   2.054   2.703
 1821SOL    HW2 6363   2.632   2.164   2.802
 1822SOL     OW 6364   3.490   2.633   1.622
 1822SOL    HW1 6365   3.465   2.689   1.701
 1822SOL    HW2 6366   3.419   2.565   1.605
 1823SOL     OW 6367   4.134   6.706   2.172
 1823SOL    HW1 6368   4.134   6.763   2.090
 1823SOL    HW2 6369   4.207   6.736   2.233
 1824SOL     OW 6370   4.833   2.388   1.694
 1824SOL    HW1 6371   4.903   2.459   1.704
 1824SOL    HW2 6372   4.743   2.428   1.706
 1825SOL     OW 6373   1.192   0.615   1.747
 1825SOL    HW1 6374   1.146   0.545   1.692
 1825SOL    HW2 6375   1.126   0.688   1.769
 1826SOL     OW 6376   3.380   0.206   6.915
 1826SOL    HW1 6377   3.328   0.218   6.830
 1826SOL    HW2 6378   3.393   0.295   6.959
 1827SOL     OW 6379   0.095   5.871   1.538
 1827SOL    HW1 6380   0.127   5.778   1.520
 1827SOL    HW2 6381   0.154   5.937   1.492
 1828SOL     OW 6382   0.761   2.405   6.281
 1828SOL    HW1 6383   0.704   2.481   6.250
 1828SOL    HW2 6384   0.719   2.362   6.361
 1829SOL     OW 6385   5.526   5.569   2.828
 1829SOL    HW1 6386   5.553   5.539   2.736
 1829SOL    HW2 6387   5.504   5.667   2.827
 1830SOL     OW 6388   4.518   6.227   3.314
 1830SOL    HW1 6389   4.540   6.307   3.259
 1830SOL    HW2 6390   4.596   6.163   3.312
 1831SOL     OW 6391   5.337   6.532   2.050
 1831SOL    HW1 6392   5.303   6.563   1.962
 1831SOL    HW2 6393   5.296   6.443   2.072
 1832SOL     OW 6394   4.620   2.700   0.971
 1832SOL    HW1 6395   4.523   2.680   0.985
 1832SOL    HW2 6396   4.665   2.712   1.059
 1833SOL     OW 6397   4.732   0.845   4.936
 1833SOL    HW1 6398   4.774   0.757   4.960
 1833SOL    HW2 6399   4.704   0.843   4.840
 1834SOL     OW 6400   3.636   3.260   1.405
 1834SOL    HW1 6401   3.715   3.300   1.359
 1834SOL    HW2 6402   3.659   3.169   1.438
 1835SOL     OW 6403   1.780   5.272   1.016
 1835SOL    HW1 6404   1.752   5.367   1.008
 1835SOL    HW2 6405   1.771   5.226   0.928
 1836SOL     OW 6406   0.706   6.902   0.571
 1836SOL    HW1 6407   0.670   6.962   0.643
 1836SOL    HW2 6408   0.744   6.819   0.613
 1837SOL     OW 6409   0.811   2.205   4.789
 1837SOL    HW1 6410   0.849   2.284   4.837
 1837SOL    HW2 6411   0.838   2.209   4.693
 1838SOL     OW 6412   0.045   2.713   4.139
 1838SOL    HW1 6413   6.995   2.660   4.188
 1838SOL    HW2 6414   0.042   2.808   4.169
 1839SOL     OW 6415   6.562   2.658   5.782
 1839SOL    HW1 6416   6.583   2.583   5.720
 1839SOL    HW2 6417   6.616   2.648   5.865
 1840SOL     OW 6418   2.716   5.944   0.624
 1840SOL    HW1 6419   2.680   5.892   0.702
 1840SOL    HW2 6420   2.750   5.880   0.555
 1841SOL     OW 6421   2.356   2.743   3.340
 1841SOL    HW1 6422   2.310   2.821   3.298
 1841SOL    HW2 6423   2.381   2.677   3.270
 1842SOL     OW 6424   0.989   4.707   0.455
 1842SOL    HW1 6425   0.929   4.755   0.391
 1842SOL    HW2 6426   1.075   4.757   0.463
 1843SOL     OW 6427   2.406   1.866   4.759
 1843SOL    HW1 6428   2.410   1.859   4.859
 1843SOL    HW2 6429   2.337   1.933   4.733
 1844SOL     OW 6430   4.012   2.189   3.951
 1844SOL    HW1 6431   3.916   2.186   3.982
 1844SOL    HW2 6432   4.014   2.183   3.852
 1845SOL     OW 6433   4.038   0.254   0.134
 1845SOL    HW1 6434   3.949   0.209   0.143
 1845SOL    HW2 6435   4.042   0.333   0.196
 1846SOL     OW 6436   3.288   2.174   6.453
 1846SOL    HW1 6437   3.235   2.134   6.527
 1846SOL    HW2 6438   3.357   2.236   6.490
 1847SOL     OW 6439   0.086   0.402   1.054
 1847SOL    HW1 6440   0.050   0.472   1.115
 1847SOL    HW2 6441   0.169   0.435   1.009
 1848SOL     OW 6442   2.702   6.571   1.949
 1848SOL    HW1 6443   2.750   6.641   1.896
 1848SOL    HW2 6444   2.639   6.614   2.013
 1849SOL     OW 6445   3.181   1.998   6.650
 1849SOL    HW1 6446   3.171   2.065   6.724
 1849SOL    HW2 6447   3.110   1.929   6.657
 1850SOL     OW 6448   6.396   2.898   2.444
 1850SOL    HW1 6449   6.347   2.856   2.519
 1850SOL    HW2 6450   6.364   2.860   2.357
 1851SOL     OW 6451   0.609   2.848   2.652
 1851SOL    HW1 6452   0.554   2.930   2.634
 1851SOL    HW2 6453   0.572   2.800   2.732
 1852SOL     OW 6454   4.447   3.017   0.125
 1852SOL    HW1 6455   4.378   2.994   0.057
 1852SOL    HW2 6456   4.532   2.968   0.104
 1853SOL     OW 6457   1.279   4.762   1.079
 1853SOL    HW1 6458   1.199   4.734   1.133
 1853SOL    HW2 6459   1.358   4.772   1.140
 1854SOL     OW 6460   2.518   5.735   5.096
 1854SOL    HW1 6461   2.491   5.746   5.000
 1854SOL    HW2 6462   2.479   5.650   5.132
 1855SOL     OW 6463   5.162   4.895   0.826
 1855SOL    HW1 6464   5.249   4.874   0.870
 1855SOL    HW2 6465   5.102   4.816   0.831
 1856SOL     OW 6466   5.584   2.155   4.712
 1856SOL    HW1 6467   5.668   2.112   4.747
 1856SOL    HW2 6468   5.532   2.087   4.659
 1857SOL     OW 6469   4.081   1.251   3.622
 1857SOL    HW1 6470   4.146   1.206   3.561
 1857SOL    HW2 6471   4.107   1.346   3.636
 1858SOL     OW 6472   4.883   3.244   3.886
 1858SOL    HW1 6473   4.888   3.336   3.846
 1858SOL    HW2 6474   4.893   3.249   3.985
 1859SOL     OW 6475   4.477   2.070   3.381
 1859SOL    HW1 6476   4.419   2.018   3.444
 1859SOL    HW2 6477   4.420   2.113   3.311
 1860SOL     OW 6478   5.759   0.903   4.426
 1860SOL    HW1 6479   5.793   0.977   4.484
 1860SOL    HW2 6480   5.729   0.827   4.483
 1861SOL     OW 6481   5.279   6.340   2.973
 1861SOL    HW1 6482   5.235   6.250   2.966
 1861SOL    HW2 6483   5.209   6.410   2.985
 1862SOL     OW 6484   1.900   1.511   0.549
 1862SOL    HW1 6485   1.928   1.598   0.508
 1862SOL    HW2 6486   1.840   1.528   0.627
 1863SOL     OW 6487   3.020   2.562   1.365
 1863SOL    HW1 6488   2.979   2.485   1.318
 1863SOL    HW2 6489   2.950   2.628   1.390
 1864SOL     OW 6490   0.946   6.814   4.858
 1864SOL    HW1 6491   0.957   6.795   4.955
 1864SOL    HW2 6492   0.983   6.738   4.804
 1865SOL     OW 6493   4.380   2.317   6.363
 1865SOL    HW1 6494   4.461   2.259   6.378
 1865SOL    HW2 6495   4.306   2.286   6.423
 1866SOL     OW 6496   4.757   4.255   2.214
 1866SOL    HW1 6497   4.728   4.243   2.119
 1866SOL    HW2 6498   4.692   4.316   2.261
 1867SOL     OW 6499   0.360   4.218   0.287
 1867SOL    HW1 6500   0.330   4.139   0.234
 1867SOL    HW2 6501   0.287   4.244   0.351
 1868SOL     OW 6502   5.957   4.233   5.724
 1868SOL    HW1 6503   5.976   4.203   5.818
 1868SOL    HW2 6504   6.034   4.210   5.665
 1869SOL     OW 6505   6.347   1.302   5.138
 1869SOL    HW1 6506   6.416   1.287   5.067
 1869SOL    HW2 6507   6.309   1.394   5.128
 1870SOL     OW 6508   1.735   5.596   4.376
 1870SOL    HW1 6509   1.815   5.539   4.354
 1870SOL    HW2 6510   1.742   5.682   4.326
 1871SOL     OW 6511   2.226   0.304   0.387
 1871SOL    HW1 6512   2.192   0.236   0.452
 1871SOL    HW2 6513   2.176   0.297   0.301
 1872SOL     OW 6514   2.127   4.166   0.133
 1872SOL    HW1 6515   2.147   4.101   0.061
 1872SOL    HW2 6516   2.142   4.259   0.100
 1873SOL     OW 6517   4.684   1.307   6.631
 1873SOL    HW1 6518   4.729   1.372   6.571
 1873SOL    HW2 6519   4.607   1.264   6.583
 1874SOL     OW 6520   1.257   1.769   2.389
 1874SOL    HW1 6521   1.328   1.733   2.448
 1874SOL    HW2 6522   1.167   1.742   2.424
 1875SOL     OW 6523   0.961   6.521   6.816
 1875SOL    HW1 6524   0.909   6.518   6.901
 1875SOL    HW2 6525   1.054   6.553   6.834
 1876SOL     OW 6526   3.028   6.878   3.881
 1876SOL    HW1 6527   3.120   6.866   3.846
 1876SOL    HW2 6528   3.032   6.915   3.974
 1877SOL     OW 6529   0.461   6.859   3.167
 1877SOL    HW1 6530   0.473   6.901   3.078
 1877SOL    HW2 6531   0.432   6.928   3.234
 1878SOL     OW 6532   6.322   2.814   4.949
 1878SOL    HW1 6533   6.367   2.758   4.879
 1878SOL    HW2 6534   6.383   2.888   4.977
 1879SOL     OW 6535   1.304   3.885   5.294
 1879SOL    HW1 6536   1.360   3.959   5.333
 1879SOL    HW2 6537   1.296   3.898   5.195
 1880SOL     OW 6538   5.418   1.180   5.296
 1880SOL    HW1 6539   5.343   1.208   5.356
 1880SOL    HW2 6540   5.396   1.204   5.202
 1881SOL     OW 6541   6.712   2.012   0.837
 1881SOL    HW1 6542   6.648   2.016   0.759
 1881SOL    HW2 6543   6.805   2.001   0.803
 1882SOL     OW 6544   1.047   4.162   6.107
 1882SOL    HW1 6545   0.968   4.110   6.139
 1882SOL    HW2 6546   1.075   4.228   6.177
 1883SOL     OW 6547   0.194   2.668   3.536
 1883SOL    HW1 6548   0.224   2.691   3.629
 1883SOL    HW2 6549   0.260   2.703   3.470
 1884SOL     OW 6550   0.055   2.321   1.337
 1884SOL    HW1 6551   0.107   2.315   1.252
 1884SOL    HW2 6552   0.058   2.414   1.372
 1885SOL     OW 6553   2.362   1.851   5.035
 1885SOL    HW1 6554   2.443   1.821   5.087
 1885SOL    HW2 6555   2.295   1.776   5.032
 1886SOL     OW 6556   1.339   6.475   3.675
 1886SOL    HW1 6557   1.346   6.473   3.774
 1886SOL    HW2 6558   1.302   6.563   3.645
 1887SOL     OW 6559   1.514   6.059   6.667
 1887SOL    HW1 6560   1.611   6.070   6.687
 1887SOL    HW2 6561   1.493   6.101   6.579
 1888SOL     OW 6562   2.526   0.797   1.508
 1888SOL    HW1 6563   2.523   0.832   1.601
 1888SOL    HW2 6564   2.544   0.698   1.510
 1889SOL     OW 6565   1.174   3.326   3.299
 1889SOL    HW1 6566   1.249   3.330   3.364
 1889SOL    HW2 6567   1.119   3.409   3.306
 1890SOL     OW 6568   0.385   5.762   3.785
 1890SOL    HW1 6569   0.343   5.678   3.750
 1890SOL    HW2 6570   0.324   5.804   3.853
 1891SOL     OW 6571   3.985   3.677   2.500
 1891SOL    HW1 6572   4.010   3.687   2.404
 1891SOL    HW2 6573   4.002   3.763   2.548
 1892SOL     OW 6574   0.524   0.514   2.185
 1892SOL    HW1 6575   0.472   0.434   2.155
 1892SOL    HW2 6576   0.489   0.596   2.139
 1893SOL     OW 6577   3.566   3.367   3.435
 1893SOL    HW1 6578   3.577   3.311   3.517
 1893SOL    HW2 6579   3.637   3.342   3.369
 1894SOL     OW 6580   3.498   4.099   4.431
 1894SOL    HW1 6581   3.577   4.158   4.421
 1894SOL    HW2 6582   3.461   4.108   4.524
 1895SOL     OW 6583   3.598   6.680   6.818
 1895SOL    HW1 6584   3.682   6.699   6.766
 1895SOL    HW2 6585   3.519   6.686   6.757
 1896SOL     OW 6586   5.572   1.990   1.234
 1896SOL    HW1 6587   5.605   1.939   1.154
 1896SOL    HW2 6588   5.524   2.073   1.203
 1897SOL     OW 6589   2.271   5.088   3.524
 1897SOL    HW1 6590   2.305   5.042   3.443
 1897SOL    HW2 6591   2.348   5.110   3.585
 1898SOL     OW 6592   1.689   6.260   3.906
 1898SOL    HW1 6593   1.775   6.307   3.927
 1898SOL    HW2 6594   1.709   6.165   3.881
 1899SOL     OW 6595   6.860   0.158   1.928
 1899SOL    HW1 6596   6.882   0.065   1.900
 1899SOL    HW2 6597   6.923   0.187   2.000
 1900SOL     OW 6598   2.827   6.829   0.050
 1900SOL    HW1 6599   2.744   6.784   0.017
 1900SOL    HW2 6600   2.815   6.853   0.147
 1901SOL     OW 6601   2.806   3.703   0.742
 1901SOL    HW1 6602   2.834   3.619   0.789
 1901SOL    HW2 6603   2.865   3.718   0.662
 1902SOL     OW 6604   1.260   6.301   4.764
 1902SOL    HW1 6605   1.344   6.273   4.717
 1902SOL    HW2 6606   1.284   6.349   4.848
 1903SOL     OW 6607   1.393   2.409   4.522
 1903SOL    HW1 6608   1.308   2.445   4.482
 1903SOL    HW2 6609   1.468   2.472   4.501
 1904SOL     OW 6610   5.670   5.520   2.337
 1904SOL    HW1 6611   5.609   5.534   2.259
 1904SOL    HW2 6612   5.619   5.535   2.422
 1905SOL     OW 6613   0.028   0.721   3.578
 1905SOL    HW1 6614   0.102   0.764   3.629
 1905SOL    HW2 6615   7.010   0.786   3.512
 1906SOL     OW 6616   2.190   0.223   5.541
 1906SOL    HW1 6617   2.208   0.321   5.533
 1906SOL    HW2 6618   2.273   0.177   5.570
 1907SOL     OW 6619   5.311   2.844   0.270
 1907SOL    HW1 6620   5.242   2.784   0.310
 1907SOL    HW2 6621   5.278   2.881   0.183
 1908SOL     OW 6622   3.647   0.950   1.143
 1908SOL    HW1 6623   3.721   0.954   1.077
 1908SOL    HW2 6624   3.586   0.874   1.120
 1909SOL     OW 6625   0.197   4.626   5.099
 1909SOL    HW1 6626   0.242   4.647   5.012
 1909SOL    HW2 6627   0.108   4.585   5.082
 1910SOL     OW 6628   6.503   6.365   5.670
 1910SOL    HW1 6629   6.524   6.366   5.768
 1910SOL    HW2 6630   6.404   6.368   5.658
 1911SOL     OW 6631   0.157   4.959   4.285
 1911SOL    HW1 6632   0.146   4.951   4.384
 1911SOL    HW2 6633   0.094   4.896   4.240
 1912SOL     OW 6634   2.549   5.319   2.633
 1912SOL    HW1 6635   2.580   5.414   2.634
 1912SOL    HW2 6636   2.611   5.264   2.578
 1913SOL     OW 6637   2.697   4.666   5.319
 1913SOL    HW1 6638   2.768   4.599   5.294
 1913SOL    HW2 6639   2.632   4.623   5.382
 1914SOL     OW 6640   2.475   4.131   6.498
 1914SOL    HW1 6641   2.475   4.179   6.411
 1914SOL    HW2 6642   2.496   4.034   6.484
 1915SOL     OW 6643   4.567   2.145   6.449
 1915SOL    HW1 6644   4.509   2.064   6.443
 1915SOL    HW2 6645   4.653   2.128   6.400
 1916SOL     OW 6646   3.613   0.840   2.107
 1916SOL    HW1 6647   3.621   0.908   2.180
 1916SOL    HW2 6648   3.667   0.869   2.028
 1917SOL     OW 6649   2.641   3.933   1.427
 1917SOL    HW1 6650   2.658   4.015   1.482
 1917SOL    HW2 6651   2.620   3.960   1.333
 1918SOL     OW 6652   6.289   2.419   4.445
 1918SOL    HW1 6653   6.251   2.511   4.438
 1918SOL    HW2 6654   6.372   2.422   4.501
 1919SOL     OW 6655   0.842   1.804   1.174
 1919SOL    HW1 6656   0.857   1.767   1.083
 1919SOL    HW2 6657   0.929   1.834   1.213
 1920SOL     OW 6658   5.094   2.233   0.561
 1920SOL    HW1 6659   5.157   2.255   0.636
 1920SOL    HW2 6660   5.025   2.168   0.594
 1921SOL     OW 6661   1.858   2.545   6.922
 1921SOL    HW1 6662   1.903   2.488   6.853
 1921SOL    HW2 6663   1.919   2.620   6.947
 1922SOL     OW 6664   3.171   3.474   2.238
 1922SOL    HW1 6665   3.103   3.427   2.181
 1922SOL    HW2 6666   3.159   3.573   2.230
 1923SOL     OW 6667   3.778   0.598   5.236
 1923SOL    HW1 6668   3.865   0.613   5.190
 1923SOL    HW2 6669   3.782   0.635   5.328
 1924SOL     OW 6670   4.298   0.391   0.927
 1924SOL    HW1 6671   4.270   0.334   0.850
 1924SOL    HW2 6672   4.389   0.428   0.910
 1925SOL     OW 6673   1.455   4.939   1.326
 1925SOL    HW1 6674   1.470   4.841   1.335
 1925SOL    HW2 6675   1.527   4.979   1.268
 1926SOL     OW 6676   3.384   6.930   1.962
 1926SOL    HW1 6677   3.467   6.874   1.970
 1926SOL    HW2 6678   3.409   0.002   1.930
 1927SOL     OW 6679   2.114   5.374   1.550
 1927SOL    HW1 6680   2.091   5.452   1.492
 1927SOL    HW2 6681   2.154   5.301   1.494
 1928SOL     OW 6682   5.403   4.156   2.874
 1928SOL    HW1 6683   5.389   4.253   2.853
 1928SOL    HW2 6684   5.350   4.100   2.811
 1929SOL     OW 6685   3.002   0.087   2.644
 1929SOL    HW1 6686   2.938   0.162   2.629
 1929SOL    HW2 6687   3.086   0.105   2.592
 1930SOL     OW 6688   4.886   3.205   6.196
 1930SOL    HW1 6689   4.890   3.181   6.294
 1930SOL    HW2 6690   4.821   3.279   6.182
 1931SOL     OW 6691   0.646   1.895   4.423
 1931SOL    HW1 6692   0.704   1.975   4.407
 1931SOL    HW2 6693   0.670   1.853   4.511
 1932SOL     OW 6694   4.333   2.158   2.129
 1932SOL    HW1 6695   4.380   2.240   2.163
 1932SOL    HW2 6696   4.401   2.088   2.108
 1933SOL     OW 6697   1.144   1.535   1.013
 1933SOL    HW1 6698   1.182   1.481   0.938
 1933SOL    HW2 6699   1.074   1.597   0.977
 1934SOL     OW 6700   0.091   0.519   5.962
 1934SOL    HW1 6701   0.052   0.538   6.052
 1934SOL    HW2 6702   0.190   0.537   5.964
 1935SOL     OW 6703   6.858   5.509   3.824
 1935SOL    HW1 6704   6.801   5.462   3.757
 1935SOL    HW2 6705   6.862   5.455   3.908
 1936SOL     OW 6706   4.634   3.051   5.270
 1936SOL    HW1 6707   4.613   3.147   5.250
 1936SOL    HW2 6708   4.553   3.007   5.310
 1937SOL     OW 6709   5.505   5.176   6.632
 1937SOL    HW1 6710   5.447   5.253   6.659
 1937SOL    HW2 6711   5.462   5.128   6.555
 1938SOL     OW 6712   0.685   3.071   6.688
 1938SOL    HW1 6713   0.613   3.052   6.621
 1938SOL    HW2 6714   0.699   3.170   6.693
 1939SOL     OW 6715   0.732   0.306   4.760
 1939SOL    HW1 6716   0.793   0.385   4.763
 1939SOL    HW2 6717   0.773   0.229   4.809
 1940SOL     OW 6718   6.846   4.734   0.611
 1940SOL    HW1 6719   6.878   4.812   0.557
 1940SOL    HW2 6720   6.924   4.689   0.654
 1941SOL     OW 6721   6.059   2.211   4.450
 1941SOL    HW1 6722   6.143   2.263   4.467
 1941SOL    HW2 6723   5.983   2.274   4.436
 1942SOL     OW 6724   5.907   3.719   2.589
 1942SOL    HW1 6725   5.962   3.709   2.506
 1942SOL    HW2 6726   5.965   3.749   2.665
 1943SOL     OW 6727   0.966   1.510   2.721
 1943SOL    HW1 6728   1.040   1.445   2.738
 1943SOL    HW2 6729   0.946   1.561   2.804
 1944SOL     OW 6730   0.203   2.977   3.229
 1944SOL    HW1 6731   0.225   2.963   3.325
 1944SOL    HW2 6732   0.172   2.891   3.189
 1945SOL     OW 6733   4.883   0.959   2.225
 1945SOL    HW1 6734   4.836   1.017   2.157
 1945SOL    HW2 6735   4.968   0.925   2.186
 1946SOL     OW 6736   6.220   5.205   1.119
 1946SOL    HW1 6737   6.270   5.170   1.040
 1946SOL    HW2 6738   6.225   5.304   1.120
 1947SOL     OW 6739   5.849   4.717   3.802
 1947SOL    HW1 6740   5.932   4.671   3.834
 1947SOL    HW2 6741   5.818   4.782   3.871
 1948SOL     OW 6742   4.937   3.387   3.186
 1948SOL    HW1 6743   4.919   3.332   3.268
 1948SOL    HW2 6744   4.963   3.479   3.213
 1949SOL     OW 6745   3.806   4.566   6.697
 1949SOL    HW1 6746   3.825   4.656   6.658
 1949SOL    HW2 6747   3.750   4.513   6.632
 1950SOL     OW 6748   2.975   3.800   3.328
 1950SOL    HW1 6749   3.023   3.807   3.416
 1950SOL    HW2 6750   2.935   3.708   3.320
 1951SOL     OW 6751   5.984   4.494   5.811
 1951SOL    HW1 6752   6.063   4.506   5.751
 1951SOL    HW2 6753   5.947   4.402   5.799
 1952SOL     OW 6754   5.759   4.903   0.112
 1952SOL    HW1 6755   5.704   4.831   0.069
 1952SOL    HW2 6756   5.856   4.883   0.099
 1953SOL     OW 6757   0.482   0.663   6.778
 1953SOL    HW1 6758   0.464   0.632   6.871
 1953SOL    HW2 6759   0.462   0.588   6.714
 1954SOL     OW 6760   4.230   0.136   1.948
 1954SOL    HW1 6761   4.323   0.172   1.947
 1954SOL    HW2 6762   4.165   0.212   1.940
 1955SOL     OW 6763   0.547   2.264   2.923
 1955SOL    HW1 6764   0.505   2.293   2.837
 1955SOL    HW2 6765   0.590   2.175   2.911
 1956SOL     OW 6766   5.748   0.295   1.717
 1956SOL    HW1 6767   5.734   0.315   1.620
 1956SOL    HW2 6768   5.722   0.201   1.736
 1957SOL     OW 6769   5.410   2.064   4.511
 1957SOL    HW1 6770   5.364   1.975   4.509
 1957SOL    HW2 6771   5.375   2.121   4.437
 1958SOL     OW 6772   4.381   2.050   1.092
 1958SOL    HW1 6773   4.353   2.109   1.169
 1958SOL    HW2 6774   4.474   2.074   1.064
 1959SOL     OW 6775   0.263   0.880   4.925
 1959SOL    HW1 6776   0.343   0.901   4.871
 1959SOL    HW2 6777   0.228   0.790   4.901
 1960SOL     OW 6778   6.386   4.204   4.044
 1960SOL    HW1 6779   6.296   4.177   4.077
 1960SOL    HW2 6780   6.457   4.151   4.090
 1961SOL     OW 6781   0.072   4.067   4.561
 1961SOL    HW1 6782   0.168   4.060   4.589
 1961SOL    HW2 6783   0.021   3.990   4.600
 1962SOL     OW 6784   1.133   0.434   2.657
 1962SOL    HW1 6785   1.125   0.423   2.558
 1962SOL    HW2 6786   1.122   0.531   2.681
 1963SOL     OW 6787   0.583   2.607   1.569
 1963SOL    HW1 6788   0.581   2.606   1.669
 1963SOL    HW2 6789   0.628   2.690   1.538
 1964SOL     OW 6790   5.957   3.524   1.166
 1964SOL    HW1 6791   6.029   3.520   1.235
 1964SOL    HW2 6792   5.994   3.498   1.077
 1965SOL     OW 6793   0.381   4.548   4.065
 1965SOL    HW1 6794   0.357   4.464   4.016
 1965SOL    HW2 6795   0.479   4.550   4.084
 1966SOL     OW 6796   1.919   5.090   0.146
 1966SOL    HW1 6797   1.943   5.020   0.213
 1966SOL    HW2 6798   1.869   5.048   0.070
 1967SOL     OW 6799   6.341   3.662   3.068
 1967SOL    HW1 6800   6.397   3.582   3.046
 1967SOL    HW2 6801   6.334   3.722   2.988
 1968SOL     OW 6802   2.396   1.226   5.243
 1968SOL    HW1 6803   2.450   1.247   5.325
 1968SOL    HW2 6804   2.386   1.308   5.188
 1969SOL     OW 6805   2.763   6.392   0.117
 1969SOL    HW1 6806   2.688   6.454   0.137
 1969SOL    HW2 6807   2.837   6.442   0.072
 1970SOL     OW 6808   5.968   5.604   5.407
 1970SOL    HW1 6809   5.904   5.532   5.433
 1970SOL    HW2 6810   5.935   5.692   5.444
 1971SOL     OW 6811   1.923   5.667   4.681
 1971SOL    HW1 6812   1.885   5.758   4.698
 1971SOL    HW2 6813   2.015   5.676   4.643
 1972SOL     OW 6814   6.703   2.861   2.802
 1972SOL    HW1 6815   6.718   2.766   2.775
 1972SOL    HW2 6816   6.701   2.919   2.721
 1973SOL     OW 6817   2.660   3.365   6.835
 1973SOL    HW1 6818   2.592   3.426   6.876
 1973SOL    HW2 6819   2.623   3.272   6.831
 1974SOL     OW 6820   3.115   6.791   4.803
 1974SOL    HW1 6821   3.016   6.799   4.789
 1974SOL    HW2 6822   3.142   6.841   4.885
 1975SOL     OW 6823   1.908   2.457   3.437
 1975SOL    HW1 6824   1.932   2.368   3.475
 1975SOL    HW2 6825   1.887   2.448   3.339
 1976SOL     OW 6826   6.975   7.001   6.196
 1976SOL    HW1 6827   6.979   6.988   6.097
 1976SOL    HW2 6828   0.004   0.066   6.220
 1977SOL     OW 6829   1.998   4.672   5.650
 1977SOL    HW1 6830   2.046   4.615   5.583
 1977SOL    HW2 6831   1.996   4.625   5.738
 1978SOL     OW 6832   2.663   6.862   1.374
 1978SOL    HW1 6833   2.706   6.825   1.456
 1978SOL    HW2 6834   2.568   6.886   1.394
 1979SOL     OW 6835   0.183   5.045   6.306
 1979SOL    HW1 6836   0.096   4.996   6.298
 1979SOL    HW2 6837   0.256   4.989   6.266
 1980SOL     OW 6838   3.255   1.692   0.344
 1980SOL    HW1 6839   3.227   1.601   0.313
 1980SOL    HW2 6840   3.355   1.695   0.350
 1981SOL     OW 6841   3.506   2.023   3.043
 1981SOL    HW1 6842   3.436   1.982   2.985
 1981SOL    HW2 6843   3.577   2.064   2.986
 1982SOL     OW 6844   0.385   2.798   5.450
 1982SOL    HW1 6845   0.479   2.765   5.457
 1982SOL    HW2 6846   0.382   2.896   5.473
 1983SOL     OW 6847   0.252   0.606   2.629
 1983SOL    HW1 6848   0.178   0.664   2.594
 1983SOL    HW2 6849   0.318   0.589   2.557
 1984SOL     OW 6850   5.029   2.880   5.831
 1984SOL    HW1 6851   4.993   2.793   5.865
 1984SOL    HW2 6852   4.959   2.951   5.839
 1985SOL     OW 6853   6.325   3.551   2.367
 1985SOL    HW1 6854   6.358   3.526   2.458
 1985SOL    HW2 6855   6.341   3.475   2.303
 1986SOL     OW 6856   4.361   2.655   1.693
 1986SOL    HW1 6857   4.378   2.720   1.618
 1986SOL    HW2 6858   4.445   2.641   1.744
 1987SOL     OW 6859   2.746   1.195   1.626
 1987SOL    HW1 6860   2.778   1.287   1.602
 1987SOL    HW2 6861   2.687   1.161   1.553
 1988SOL     OW 6862   0.337   2.314   1.172
 1988SOL    HW1 6863   0.358   2.347   1.264
 1988SOL    HW2 6864   0.418   2.322   1.114
 1989SOL     OW 6865   2.529   4.922   4.947
 1989SOL    HW1 6866   2.546   4.834   4.989
 1989SOL    HW2 6867   2.615   4.973   4.939
 1990SOL     OW 6868   4.095   0.274   0.460
 1990SOL    HW1 6869   4.018   0.213   0.439
 1990SOL    HW2 6870   4.062   0.356   0.506
 1991SOL     OW 6871   2.481   5.253   1.143
 1991SOL    HW1 6872   2.495   5.317   1.067
 1991SOL    HW2 6873   2.383   5.231   1.150
 1992SOL     OW 6874   0.753   6.230   1.474
 1992SOL    HW1 6875   0.710   6.163   1.534
 1992SOL    HW2 6876   0.695   6.246   1.394
 1993SOL     OW 6877   2.219   2.596   3.833
 1993SOL    HW1 6878   2.247   2.598   3.737
 1993SOL    HW2 6879   2.301   2.594   3.891
 1994SOL     OW 6880   3.387   2.536   0.943
 1994SOL    HW1 6881   3.407   2.565   0.849
 1994SOL    HW2 6882   3.466   2.488   0.980
 1995SOL     OW 6883   5.576   2.243   4.327
 1995SOL    HW1 6884   5.493   2.246   4.382
 1995SOL    HW2 6885   5.608   2.337   4.310
 1996SOL     OW 6886   3.618   1.625   0.982
 1996SOL    HW1 6887   3.567   1.540   0.993
 1996SOL    HW2 6888   3.673   1.642   1.064
 1997SOL     OW 6889   4.053   0.272   3.900
 1997SOL    HW1 6890   3.969   0.283   3.847
 1997SOL    HW2 6891   4.057   0.343   3.970
 1998SOL     OW 6892   1.858   3.463   1.203
 1998SOL    HW1 6893   1.871   3.530   1.130
 1998SOL    HW2 6894   1.761   3.446   1.215
 1999SOL     OW 6895   1.435   6.894   6.626
 1999SOL    HW1 6896   1.459   6.883   6.529
 1999SOL    HW2 6897   1.340   6.925   6.633
 2000SOL     OW 6898   3.667   4.220   5.776
 2000SOL    HW1 6899   3.733   4.160   5.822
 2000SOL    HW2 6900   3.698   4.315   5.784
 2001SOL     OW 6901   1.958   1.736   0.858
 2001SOL    HW1 6902   2.023   1.741   0.934
 2001SOL    HW2 6903   1.980   1.807   0.791
 2002SOL     OW 6904   0.408   4.546   0.425
 2002SOL    HW1 6905   0.456   4.492   0.355
 2002SOL    HW2 6906   0.318   4.573   0.389
 2003SOL     OW 6907   6.734   5.225   2.961
 2003SOL    HW1 6908   6.686   5.137   2.967
 2003SOL    HW2 6909   6.764   5.241   2.867
 2004SOL     OW 6910   3.659   0.022   3.437
 2004SOL    HW1 6911   3.619   0.059   3.522
 2004SOL    HW2 6912   3.599   0.044   3.360
 2005SOL     OW 6913   1.465   6.206   0.498
 2005SOL    HW1 6914   1.477   6.274   0.426
 2005SOL    HW2 6915   1.479   6.249   0.587
 2006SOL     OW 6916   5.680   6.630   2.597
 2006SOL    HW1 6917   5.703   6.629   2.500
 2006SOL    HW2 6918   5.696   6.721   2.635
 2007SOL     OW 6919   5.844   4.616   6.535
 2007SOL    HW1 6920   5.812   4.537   6.586
 2007SOL    HW2 6921   5.844   4.595   6.437
 2008SOL     OW 6922   1.467   3.674   4.066
 2008SOL    HW1 6923   1.431   3.696   4.157
 2008SOL    HW2 6924   1.424   3.733   3.998
 2009SOL     OW 6925   6.206   0.074   3.310
 2009SOL    HW1 6926   6.137   0.146   3.310
 2009SOL    HW2 6927   6.267   0.087   3.232
 2010SOL     OW 6928   1.188   1.991   1.659
 2010SOL    HW1 6929   1.196   2.051   1.739
 2010SOL    HW2 6930   1.252   2.022   1.589
 2011SOL     OW 6931   1.136   6.782   5.690
 2011SOL    HW1 6932   1.081   6.721   5.748
 2011SOL    HW2 6933   1.147   6.870   5.736
 2012SOL     OW 6934   1.401   3.174   1.536
 2012SOL    HW1 6935   1.344   3.152   1.615
 2012SOL    HW2 6936   1.464   3.248   1.559
 2013SOL     OW 6937   0.463   3.418   2.424
 2013SOL    HW1 6938   0.554   3.380   2.443
 2013SOL    HW2 6939   0.394   3.361   2.468
 2014SOL     OW 6940   3.744   0.620   4.467
 2014SOL    HW1 6941   3.717   0.597   4.560
 2014SOL    HW2 6942   3.840   0.647   4.465
 2015SOL     OW 6943   4.483   0.791   2.048
 2015SOL    HW1 6944   4.477   0.756   2.142
 2015SOL    HW2 6945   4.454   0.887   2.046
 2016SOL     OW 6946   1.655   0.714   5.850
 2016SOL    HW1 6947   1.600   0.795   5.831
 2016SOL    HW2 6948   1.752   0.739   5.852
 2017SOL     OW 6949   3.931   6.329   3.548
 2017SOL    HW1 6950   3.896   6.248   3.596
 2017SOL    HW2 6951   3.984   6.300   3.469
 2018SOL     OW 6952   1.200   1.071   3.823
 2018SOL    HW1 6953   1.292   1.034   3.837
 2018SOL    HW2 6954   1.136   1.023   3.883
 2019SOL     OW 6955   5.732   5.252   6.259
 2019SOL    HW1 6956   5.783   5.311   6.197
 2019SOL    HW2 6957   5.719   5.162   6.217
 2020SOL     OW 6958   2.128   5.941   6.601
 2020SOL    HW1 6959   2.220   5.903   6.595
 2020SOL    HW2 6960   2.127   6.033   6.560
 2021SOL     OW 6961   6.737   6.146   4.258
 2021SOL    HW1 6962   6.703   6.195   4.338
 2021SOL    HW2 6963   6.796   6.206   4.205
 2022SOL     OW 6964   1.912   4.273   5.055
 2022SOL    HW1 6965   1.935   4.263   4.959
 2022SOL    HW2 6966   1.888   4.183   5.093
 2023SOL     OW 6967   6.502   6.435   0.451
 2023SOL    HW1 6968   6.479   6.393   0.539
 2023SOL    HW2 6969   6.577   6.500   0.464
 2024SOL     OW 6970   0.450   6.002   4.653
 2024SOL    HW1 6971   0.370   6.007   4.593
 2024SOL    HW2 6972   0.528   5.965   4.602
 2025SOL     OW 6973   1.250   6.616   4.704
 2025SOL    HW1 6974   1.287   6.619   4.611
 2025SOL    HW2 6975   1.325   6.626   4.770
 2026SOL     OW 6976   0.051   0.233   6.034
 2026SOL    HW1 6977   0.074   0.325   6.004
 2026SOL    HW2 6978   6.980   0.208   5.999
 2027SOL     OW 6979   6.917   6.152   2.248
 2027SOL    HW1 6980   6.937   6.092   2.325
 2027SOL    HW2 6981   7.000   6.166   2.194
 2028SOL     OW 6982   3.102   5.357   4.417
 2028SOL    HW1 6983   3.027   5.292   4.429
 2028SOL    HW2 6984   3.175   5.314   4.365
 2029SOL     OW 6985   6.408   2.550   6.606
 2029SOL    HW1 6986   6.399   2.649   6.592
 2029SOL    HW2 6987   6.464   2.511   6.533
 2030SOL     OW 6988   2.225   6.574   2.096
 2030SOL    HW1 6989   2.208   6.508   2.170
 2030SOL    HW2 6990   2.172   6.548   2.016
 2031SOL     OW 6991   6.797   5.880   4.237
 2031SOL    HW1 6992   6.786   5.972   4.276
 2031SOL    HW2 6993   6.707   5.842   4.216
 2032SOL     OW 6994   2.901   2.135   6.086
 2032SOL    HW1 6995   2.866   2.073   6.016
 2032SOL    HW2 6996   2.964   2.085   6.146
 2033SOL     OW 6997   2.313   2.104   0.590
 2033SOL    HW1 6998   2.291   2.019   0.542
 2033SOL    HW2 6999   2.376   2.158   0.534
 2034SOL     OW 7000   0.261   4.221   4.746
 2034SOL    HW1 7001   0.206   4.193   4.825
 2034SOL    HW2 7002   0.230   4.311   4.714
 2035SOL     OW 7003   5.734   0.132   2.761
 2035SOL    HW1 7004   5.711   0.036   2.745
 2035SOL    HW2 7005   5.786   0.167   2.683
 2036SOL     OW 7006   1.007   4.186   1.351
 2036SOL    HW1 7007   1.038   4.175   1.445
 2036SOL    HW2 7008   0.959   4.103   1.322
 2037SOL     OW 7009   0.264   2.465   0.163
 2037SOL    HW1 7010   0.344   2.439   0.109
 2037SOL    HW2 7011   0.280   2.443   0.259
 2038SOL     OW 7012   1.488   1.255   6.493
 2038SOL    HW1 7013   1.497   1.267   6.394
 2038SOL    HW2 7014   1.529   1.333   6.540
 2039SOL     OW 7015   5.684   6.362   2.619
 2039SOL    HW1 7016   5.772   6.329   2.653
 2039SOL    HW2 7017   5.688   6.461   2.607
 2040SOL     OW 7018   1.722   2.649   0.746
 2040SOL    HW1 7019   1.770   2.664   0.832
 2040SOL    HW2 7020   1.757   2.712   0.677
 2041SOL     OW 7021   2.417   0.568   6.354
 2041SOL    HW1 7022   2.356   0.575   6.433
 2041SOL    HW2 7023   2.366   0.592   6.271
 2042SOL     OW 7024   5.122   1.430   5.694
 2042SOL    HW1 7025   5.032   1.419   5.650
 2042SOL    HW2 7026   5.166   1.511   5.658
 2043SOL     OW 7027   0.108   4.003   1.273
 2043SOL    HW1 7028   0.179   3.949   1.229
 2043SOL    HW2 7029   0.108   3.985   1.371
 2044SOL     OW 7030   4.003   0.745   0.732
 2044SOL    HW1 7031   3.907   0.718   0.724
 2044SOL    HW2 7032   4.060   0.684   0.676
 2045SOL     OW 7033   1.032   6.381   5.397
 2045SOL    HW1 7034   1.015   6.358   5.493
 2045SOL    HW2 7035   1.014   6.300   5.340
 2046SOL     OW 7036   1.019   1.624   4.884
 2046SOL    HW1 7037   1.065   1.712   4.888
 2046SOL    HW2 7038   0.953   1.617   4.958
 2047SOL     OW 7039   0.221   0.709   0.876
 2047SOL    HW1 7040   0.185   0.711   0.970
 2047SOL    HW2 7041   0.273   0.625   0.862
 2048SOL     OW 7042   0.689   2.161   4.303
 2048SOL    HW1 7043   0.603   2.130   4.263
 2048SOL    HW2 7044   0.746   2.203   4.233
 2049SOL     OW 7045   4.829   1.817   5.310
 2049SOL    HW1 7046   4.747   1.855   5.269
 2049SOL    HW2 7047   4.892   1.788   5.238
 2050SOL     OW 7048   0.415   1.395   4.100
 2050SOL    HW1 7049   0.414   1.494   4.104
 2050SOL    HW2 7050   0.395   1.357   4.191
 2051SOL     OW 7051   3.094   6.639   6.960
 2051SOL    HW1 7052   3.190   6.659   6.938
 2051SOL    HW2 7053   3.079   6.649   0.038
 2052SOL     OW 7054   1.220   4.510   6.360
 2052SOL    HW1 7055   1.154   4.576   6.323
 2052SOL    HW2 7056   1.263   4.549   6.442
 2053SOL     OW 7057   6.816   6.451   3.378
 2053SOL    HW1 7058   6.778   6.536   3.412
 2053SOL    HW2 7059   6.774   6.428   3.290
 2054SOL     OW 7060   3.185   3.555   3.274
 2054SOL    HW1 7061   3.183   3.608   3.189
 2054SOL    HW2 7062   3.235   3.470   3.260
 2055SOL     OW 7063   3.148   2.264   5.619
 2055SOL    HW1 7064   3.205   2.321   5.559
 2055SOL    HW2 7065   3.158   2.168   5.592
 2056SOL     OW 7066   4.302   4.348   0.866
 2056SOL    HW1 7067   4.319   4.291   0.786
 2056SOL    HW2 7068   4.309   4.445   0.840
 2057SOL     OW 7069   5.252   2.452   4.279
 2057SOL    HW1 7070   5.291   2.540   4.253
 2057SOL    HW2 7071   5.152   2.459   4.278
 2058SOL     OW 7072   6.891   0.022   2.816
 2058SOL    HW1 7073   6.926   7.010   2.903
 2058SOL    HW2 7074   6.805   6.994   2.795
 2059SOL     OW 7075   0.753   0.654   5.838
 2059SOL    HW1 7076   0.849   0.673   5.859
 2059SOL    HW2 7077   0.695   0.718   5.888
 2060SOL     OW 7078   1.668   2.329   6.820
 2060SOL    HW1 7079   1.570   2.330   6.836
 2060SOL    HW2 7080   1.710   2.410   6.861
 2061SOL     OW 7081   1.986   2.679   2.278
 2061SOL    HW1 7082   1.911   2.713   2.334
 2061SOL    HW2 7083   1.980   2.719   2.187
 2062SOL     OW 7084   0.580   5.191   4.913
 2062SOL    HW1 7085   0.670   5.232   4.896
 2062SOL    HW2 7086   0.516   5.263   4.941
 2063SOL     OW 7087   0.658   1.050   4.901
 2063SOL    HW1 7088   0.725   1.001   4.957
 2063SOL    HW2 7089   0.601   0.984   4.853
 2064SOL     OW 7090   0.881   3.068   3.894
 2064SOL    HW1 7091   0.850   2.988   3.945
 2064SOL    HW2 7092   0.930   3.039   3.812
 2065SOL     OW 7093   4.188   3.776   5.609
 2065SOL    HW1 7094   4.278   3.741   5.632
 2065SOL    HW2 7095   4.186   3.875   5.624
 2066SOL     OW 7096   0.623   3.208   5.866
 2066SOL    HW1 7097   0.694   3.275   5.844
 2066SOL    HW2 7098   0.639   3.171   5.958
 2067SOL     OW 7099   6.847   5.060   1.623
 2067SOL    HW1 7100   6.930   5.012   1.593
 2067SOL    HW2 7101   6.810   5.113   1.547
 2068SOL     OW 7102   4.257   0.878   4.562
 2068SOL    HW1 7103   4.257   0.803   4.628
 2068SOL    HW2 7104   4.335   0.869   4.500
 2069SOL     OW 7105   0.518   2.054   3.890
 2069SOL    HW1 7106   0.504   2.141   3.938
 2069SOL    HW2 7107   0.550   2.072   3.797
 2070SOL     OW 7108   0.890   4.894   1.114
 2070SOL    HW1 7109   0.965   4.946   1.074
 2070SOL    HW2 7110   0.892   4.904   1.214
 2071SOL     OW 7111   0.090   1.369   5.534
 2071SOL    HW1 7112   0.180   1.370   5.489
 2071SOL    HW2 7113   0.049   1.460   5.526
 2072SOL     OW 7114   4.788   4.597   5.513
 2072SOL    HW1 7115   4.882   4.627   5.496
 2072SOL    HW2 7116   4.777   4.502   5.482
 2073SOL     OW 7117   3.064   5.676   6.529
 2073SOL    HW1 7118   3.016   5.646   6.447
 2073SOL    HW2 7119   3.134   5.608   6.553
 2074SOL     OW 7120   1.325   4.538   5.942
 2074SOL    HW1 7121   1.252   4.604   5.961
 2074SOL    HW2 7122   1.294   4.446   5.963
 2075SOL     OW 7123   6.550   2.265   0.856
 2075SOL    HW1 7124   6.630   2.215   0.888
 2075SOL    HW2 7125   6.500   2.301   0.934
 2076SOL     OW 7126   6.451   6.662   4.632
 2076SOL    HW1 7127   6.469   6.585   4.572
 2076SOL    HW2 7128   6.464   6.634   4.727
 2077SOL     OW 7129   6.394   4.662   0.750
 2077SOL    HW1 7130   6.428   4.694   0.662
 2077SOL    HW2 7131   6.307   4.707   0.770
 2078SOL     OW 7132   0.940   3.012   5.594
 2078SOL    HW1 7133   0.911   3.075   5.522
 2078SOL    HW2 7134   1.039   3.020   5.606
 2079SOL     OW 7135   5.416   1.257   2.196
 2079SOL    HW1 7136   5.445   1.306   2.278
 2079SOL    HW2 7137   5.407   1.321   2.120
 2080SOL     OW 7138   2.616   2.938   6.131
 2080SOL    HW1 7139   2.690   2.883   6.168
 2080SOL    HW2 7140   2.592   3.010   6.196
 2081SOL     OW 7141   6.146   5.490   2.220
 2081SOL    HW1 7142   6.051   5.477   2.193
 2081SOL    HW2 7143   6.152   5.494   2.320
 2082SOL     OW 7144   6.444   6.316   4.123
 2082SOL    HW1 7145   6.397   6.315   4.035
 2082SOL    HW2 7146   6.378   6.334   4.196
 2083SOL     OW 7147   0.037   6.614   3.772
 2083SOL    HW1 7148   0.080   6.628   3.683
 2083SOL    HW2 7149   0.106   6.626   3.844
 2084SOL     OW 7150   6.064   2.322   1.101
 2084SOL    HW1 7151   6.020   2.408   1.077
 2084SOL    HW2 7152   5.995   2.252   1.116
 2085SOL     OW 7153   5.779   5.867   1.053
 2085SOL    HW1 7154   5.745   5.805   0.982
 2085SOL    HW2 7155   5.879   5.870   1.050
 2086SOL     OW 7156   5.106   0.710   6.895
 2086SOL    HW1 7157   5.136   0.636   6.835
 2086SOL    HW2 7158   5.025   0.754   6.857
 2087SOL     OW 7159   4.028   1.485   6.653
 2087SOL    HW1 7160   4.026   1.385   6.658
 2087SOL    HW2 7161   3.980   1.515   6.571
 2088SOL     OW 7162   0.791   5.638   5.815
 2088SOL    HW1 7163   0.775   5.559   5.875
 2088SOL    HW2 7164   0.724   5.709   5.835
 2089SOL     OW 7165   2.479   3.643   0.068
 2089SOL    HW1 7166   2.566   3.628   0.022
 2089SOL    HW2 7167   2.492   3.709   0.143
 2090SOL     OW 7168   5.496   2.941   5.784
 2090SOL    HW1 7169   5.595   2.931   5.777
 2090SOL    HW2 7170   5.457   2.858   5.823
 2091SOL     OW 7171   5.190   6.473   1.596
 2091SOL    HW1 7172   5.187   6.373   1.594
 2091SOL    HW2 7173   5.113   6.511   1.545
 2092SOL     OW 7174   3.924   3.729   1.735
 2092SOL    HW1 7175   3.894   3.693   1.823
 2092SOL    HW2 7176   3.893   3.669   1.662
 2093SOL     OW 7177   4.096   1.292   1.572
 2093SOL    HW1 7178   4.128   1.309   1.479
 2093SOL    HW2 7179   4.163   1.326   1.638
 2094SOL     OW 7180   5.380   2.105   6.022
 2094SOL    HW1 7181   5.412   2.032   6.083
 2094SOL    HW2 7182   5.376   2.191   6.073
 2095SOL     OW 7183   5.596   5.534   4.146
 2095SOL    HW1 7184   5.575   5.585   4.063
 2095SOL    HW2 7185   5.642   5.595   4.211
 2096SOL     OW 7186   4.563   0.037   2.162
 2096SOL    HW1 7187   4.518   6.969   2.144
 2096SOL    HW2 7188   4.548   0.099   2.085
 2097SOL     OW 7189   0.926   5.851   6.313
 2097SOL    HW1 7190   0.862   5.881   6.384
 2097SOL    HW2 7191   1.016   5.837   6.354
 2098SOL     OW 7192   2.858   5.744   3.530
 2098SOL    HW1 7193   2.948   5.775   3.499
 2098SOL    HW2 7194   2.846   5.767   3.627
 2099SOL     OW 7195   4.994   1.712   6.207
 2099SOL    HW1 7196   4.982   1.627   6.258
 2099SOL    HW2 7197   4.975   1.789   6.268
 2100SOL     OW 7198   5.029   0.084   1.512
 2100SOL    HW1 7199   4.954   0.051   1.570
 2100SOL    HW2 7200   4.999   0.084   1.416
 2101SOL     OW 7201   0.590   7.019   2.345
 2101SOL    HW1 7202   0.654   6.947   2.372
 2101SOL    HW2 7203   0.566   0.054   2.425
 2102SOL     OW 7204   3.700   2.002   1.058
 2102SOL    HW1 7205   3.798   1.982   1.064
 2102SOL    HW2 7206   3.672   2.056   1.137
 2103SOL     OW 7207   2.736   5.938   0.299
 2103SOL    HW1 7208   2.706   6.029   0.328
 2103SOL    HW2 7209   2.829   5.943   0.262
 2104SOL     OW 7210   1.521   3.937   3.433
 2104SOL    HW1 7211   1.543   4.012   3.496
 2104SOL    HW2 7212   1.425   3.942   3.407
 2105SOL     OW 7213   5.687   5.899   4.945
 2105SOL    HW1 7214   5.727   5.988   4.924
 2105SOL    HW2 7215   5.597   5.913   4.989
 2106SOL     OW 7216   4.285   3.005   0.734
 2106SOL    HW1 7217   4.323   2.920   0.697
 2106SOL    HW2 7218   4.213   3.039   0.674
 2107SOL     OW 7219   5.632   4.798   5.322
 2107SOL    HW1 7220   5.591   4.798   5.231
 2107SOL    HW2 7221   5.559   4.801   5.391
 2108SOL     OW 7222   4.922   0.191   5.252
 2108SOL    HW1 7223   4.924   0.123   5.178
 2108SOL    HW2 7224   5.014   0.207   5.285
 2109SOL     OW 7225   2.859   6.594   2.237
 2109SOL    HW1 7226   2.869   6.693   2.245
 2109SOL    HW2 7227   2.829   6.571   2.144
 2110SOL     OW 7228   3.814   6.790   0.184
 2110SOL    HW1 7229   3.835   6.743   0.270
 2110SOL    HW2 7230   3.717   6.779   0.163
 2111SOL     OW 7231   0.903   2.401   5.863
 2111SOL    HW1 7232   0.992   2.397   5.817
 2111SOL    HW2 7233   0.832   2.416   5.794
 2112SOL     OW 7234   0.798   0.509   0.006
 2112SOL    HW1 7235   0.850   0.462   0.078
 2112SOL    HW2 7236   0.774   0.443   6.955
 2113SOL     OW 7237   0.298   1.167   4.679
 2113SOL    HW1 7238   0.328   1.185   4.773
 2113SOL    HW2 7239   0.369   1.116   4.631
 2114SOL     OW 7240   1.390   1.560   5.917
 2114SOL    HW1 7241   1.325   1.525   5.850
 2114SOL    HW2 7242   1.342   1.611   5.987
 2115SOL     OW 7243   6.287   6.180   3.260
 2115SOL    HW1 7244   6.287   6.273   3.296
 2115SOL    HW2 7245   6.379   6.156   3.229
 2116SOL     OW 7246   1.316   1.753   6.992
 2116SOL    HW1 7247   1.243   1.755   0.040
 2116SOL    HW2 7248   1.357   1.844   6.984
 2117SOL     OW 7249   6.561   1.868   2.316
 2117SOL    HW1 7250   6.639   1.904   2.264
 2117SOL    HW2 7251   6.592   1.796   2.378
 2118SOL     OW 7252   6.963   2.759   2.645
 2118SOL    HW1 7253   6.906   2.837   2.673
 2118SOL    HW2 7254   0.006   2.736   2.719
 2119SOL     OW 7255   1.506   1.404   0.459
 2119SOL    HW1 7256   1.468   1.432   0.548
 2119SOL    HW2 7257   1.488   1.306   0.445
 2120SOL     OW 7258   5.904   1.176   0.863
 2120SOL    HW1 7259   5.822   1.231   0.882
 2120SOL    HW2 7260   5.904   1.149   0.767
 2121SOL     OW 7261   1.666   0.427   6.845
 2121SOL    HW1 7262   1.608   0.508   6.839
 2121SOL    HW2 7263   1.648   0.367   6.767
 2122SOL     OW 7264   6.258   1.266   4.083
 2122SOL    HW1 7265   6.341   1.301   4.039
 2122SOL    HW2 7266   6.186   1.257   4.014
 2123SOL     OW 7267   1.218   5.315   2.955
 2123SOL    HW1 7268   1.190   5.242   3.018
 2123SOL    HW2 7269   1.272   5.275   2.881
 2124SOL     OW 7270   4.144   3.824   6.156
 2124SOL    HW1 7271   4.143   3.920   6.185
 2124SOL    HW2 7272   4.233   3.784   6.177
 2125SOL     OW 7273   1.530   6.137   4.538
 2125SOL    HW1 7274   1.490   6.227   4.519
 2125SOL    HW2 7275   1.622   6.133   4.500
 2126SOL     OW 7276   2.795   3.897   6.974
 2126SOL    HW1 7277   2.711   3.944   6.947
 2126SOL    HW2 7278   2.856   3.889   6.895
 2127SOL     OW 7279   0.613   2.543   4.517
 2127SOL    HW1 7280   0.597   2.464   4.577
 2127SOL    HW2 7281   0.624   2.625   4.572
 2128SOL     OW 7282   5.347   3.216   1.467
 2128SOL    HW1 7283   5.417   3.146   1.479
 2128SOL    HW2 7284   5.298   3.200   1.381
 2129SOL     OW 7285   5.454   4.015   4.582
 2129SOL    HW1 7286   5.420   3.998   4.489
 2129SOL    HW2 7287   5.551   4.038   4.577
 2130SOL     OW 7288   3.032   0.975   1.240
 2130SOL    HW1 7289   2.940   0.955   1.204
 2130SOL    HW2 7290   3.030   0.971   1.340
 2131SOL     OW 7291   5.115   0.401   5.482
 2131SOL    HW1 7292   5.019   0.425   5.466
 2131SOL    HW2 7293   5.161   0.477   5.527
 2132SOL     OW 7294   2.093   2.251   0.553
 2132SOL    HW1 7295   2.186   2.215   0.548
 2132SOL    HW2 7296   2.051   2.248   0.462
 2133SOL     OW 7297   3.193   2.257   1.617
 2133SOL    HW1 7298   3.201   2.212   1.706
 2133SOL    HW2 7299   3.096   2.272   1.596
 2134SOL     OW 7300   2.188   6.445   4.652
 2134SOL    HW1 7301   2.191   6.541   4.677
 2134SOL    HW2 7302   2.240   6.391   4.719
 2135SOL     OW 7303   0.933   0.066   4.334
 2135SOL    HW1 7304   0.956   0.104   4.244
 2135SOL    HW2 7305   0.849   0.107   4.367
 2136SOL     OW 7306   1.237   4.579   3.772
 2136SOL    HW1 7307   1.245   4.652   3.840
 2136SOL    HW2 7308   1.247   4.618   3.680
 2137SOL     OW 7309   0.923   1.015   4.637
 2137SOL    HW1 7310   0.937   1.005   4.736
 2137SOL    HW2 7311   1.005   0.986   4.589
 2138SOL     OW 7312   0.536   2.425   0.016
 2138SOL    HW1 7313   0.563   2.466   6.949
 2138SOL    HW2 7314   0.617   2.398   0.068
 2139SOL     OW 7315   2.019   0.978   4.870
 2139SOL    HW1 7316   2.004   0.918   4.791
 2139SOL    HW2 7317   2.096   0.944   4.924
 2140SOL     OW 7318   1.926   5.911   3.914
 2140SOL    HW1 7319   2.001   5.862   3.869
 2140SOL    HW2 7320   1.927   5.888   4.012
 2141SOL     OW 7321   6.537   1.411   7.018
 2141SOL    HW1 7322   6.529   1.397   6.919
 2141SOL    HW2 7323   6.495   1.498   0.023
 2142SOL     OW 7324   2.894   1.627   3.576
 2142SOL    HW1 7325   2.816   1.660   3.630
 2142SOL    HW2 7326   2.905   1.529   3.591
 2143SOL     OW 7327   3.545   6.683   0.115
 2143SOL    HW1 7328   3.464   6.738   0.136
 2143SOL    HW2 7329   3.556   6.676   0.016
 2144SOL     OW 7330   6.886   0.945   2.636
 2144SOL    HW1 7331   6.819   0.997   2.689
 2144SOL    HW2 7332   6.978   0.971   2.665
 2145SOL     OW 7333   4.038   5.391   2.794
 2145SOL    HW1 7334   3.964   5.447   2.832
 2145SOL    HW2 7335   4.014   5.363   2.701
 2146SOL     OW 7336   3.693   2.809   1.476
 2146SOL    HW1 7337   3.623   2.833   1.408
 2146SOL    HW2 7338   3.683   2.868   1.556
 2147SOL     OW 7339   0.031   0.659   5.118
 2147SOL    HW1 7340   0.018   0.567   5.155
 2147SOL    HW2 7341   0.093   0.655   5.039
 2148SOL     OW 7342   4.896   3.047   2.847
 2148SOL    HW1 7343   4.868   3.044   2.943
 2148SOL    HW2 7344   4.884   2.956   2.806
 2149SOL     OW 7345   3.573   0.946   3.612
 2149SOL    HW1 7346   3.587   0.871   3.678
 2149SOL    HW2 7347   3.662   0.973   3.574
 2150SOL     OW 7348   3.610   1.536   2.512
 2150SOL    HW1 7349   3.583   1.560   2.605
 2150SOL    HW2 7350   3.566   1.599   2.447
 2151SOL     OW 7351   3.507   2.855   5.650
 2151SOL    HW1 7352   3.515   2.857   5.550
 2151SOL    HW2 7353   3.544   2.940   5.687
 2152SOL     OW 7354   6.343   5.820   1.821
 2152SOL    HW1 7355   6.372   5.879   1.896
 2152SOL    HW2 7356   6.247   5.837   1.800
 2153SOL     OW 7357   4.831   2.764   2.721
 2153SOL    HW1 7358   4.792   2.763   2.629
 2153SOL    HW2 7359   4.854   2.671   2.748
 2154SOL     OW 7360   4.436   5.674   5.036
 2154SOL    HW1 7361   4.387   5.760   5.052
 2154SOL    HW2 7362   4.375   5.597   5.053
 2155SOL     OW 7363   6.336   3.672   6.901
 2155SOL    HW1 7364   6.271   3.682   6.976
 2155SOL    HW2 7365   6.343   3.575   6.876
 2156SOL     OW 7366   1.088   1.390   1.683
 2156SOL    HW1 7367   1.144   1.344   1.752
 2156SOL    HW2 7368   1.013   1.331   1.656
 2157SOL     OW 7369   0.592   1.250   4.675
 2157SOL    HW1 7370   0.569   1.280   4.768
 2157SOL    HW2 7371   0.692   1.243   4.667
 2158SOL     OW 7372   4.573   6.120   2.518
 2158SOL    HW1 7373   4.664   6.123   2.560
 2158SOL    HW2 7374   4.577   6.162   2.427
 2159SOL     OW 7375   2.038   6.064   4.738
 2159SOL    HW1 7376   2.113   6.043   4.676
 2159SOL    HW2 7377   2.002   6.154   4.718
 2160SOL     OW 7378   2.999   3.428   0.552
 2160SOL    HW1 7379   3.092   3.400   0.575
 2160SOL    HW2 7380   2.982   3.519   0.587
 2161SOL     OW 7381   5.197   2.329   3.760
 2161SOL    HW1 7382   5.267   2.362   3.823
 2161SOL    HW2 7383   5.202   2.229   3.754
 2162SOL     OW 7384   1.232   1.522   6.858
 2162SOL    HW1 7385   1.234   1.599   6.921
 2162SOL    HW2 7386   1.137   1.501   6.834
 2163SOL     OW 7387   2.814   2.606   0.449
 2163SOL    HW1 7388   2.714   2.607   0.446
 2163SOL    HW2 7389   2.846   2.685   0.501
 2164SOL     OW 7390   1.063   6.971   1.347
 2164SOL    HW1 7391   0.989   6.994   1.411
 2164SOL    HW2 7392   1.123   6.902   1.388
 2165SOL     OW 7393   2.776   6.896   1.640
 2165SOL    HW1 7394   2.806   6.984   1.603
 2165SOL    HW2 7395   2.815   6.883   1.731
 2166SOL     OW 7396   6.081   2.309   6.499
 2166SOL    HW1 7397   6.043   2.380   6.440
 2166SOL    HW2 7398   6.099   2.227   6.444
 2167SOL     OW 7399   2.528   0.364   1.729
 2167SOL    HW1 7400   2.437   0.323   1.732
 2167SOL    HW2 7401   2.562   0.377   1.823
 2168SOL     OW 7402   6.023   5.785   4.740
 2168SOL    HW1 7403   5.990   5.753   4.829
 2168SOL    HW2 7404   5.948   5.785   4.674
 2169SOL     OW 7405   5.397   2.190   5.136
 2169SOL    HW1 7406   5.351   2.201   5.048
 2169SOL    HW2 7407   5.438   2.277   5.163
 2170SOL     OW 7408   5.675   5.041   4.478
 2170SOL    HW1 7409   5.623   4.992   4.408
 2170SOL    HW2 7410   5.617   5.057   4.557
 2171SOL     OW 7411   6.720   2.160   0.394
 2171SOL    HW1 7412   6.668   2.099   0.454
 2171SOL    HW2 7413   6.757   2.107   0.318
 2172SOL     OW 7414   2.377   0.584   0.983
 2172SOL    HW1 7415   2.340   0.516   1.047
 2172SOL    HW2 7416   2.383   0.543   0.892
 2173SOL     OW 7417   5.035   1.724   5.136
 2173SOL    HW1 7418   5.063   1.738   5.040
 2173SOL    HW2 7419   5.113   1.741   5.196
 2174SOL     OW 7420   1.205   5.310   4.659
 2174SOL    HW1 7421   1.266   5.300   4.737
 2174SOL    HW2 7422   1.211   5.404   4.624
 2175SOL     OW 7423   2.068   6.475   5.205
 2175SOL    HW1 7424   2.154   6.479   5.154
 2175SOL    HW2 7425   2.047   6.566   5.241
 2176SOL     OW 7426   2.003   2.580   1.953
 2176SOL    HW1 7427   1.945   2.517   2.004
 2176SOL    HW2 7428   2.085   2.601   2.007
 2177SOL     OW 7429   6.739   1.149   2.180
 2177SOL    HW1 7430   6.798   1.099   2.117
 2177SOL    HW2 7431   6.688   1.219   2.129
 2178SOL     OW 7432   1.094   5.267   0.650
 2178SOL    HW1 7433   1.168   5.249   0.586
 2178SOL    HW2 7434   1.049   5.182   0.676
 2179SOL     OW 7435   0.919   4.866   3.897
 2179SOL    HW1 7436   0.854   4.816   3.954
 2179SOL    HW2 7437   0.877   4.951   3.866
 2180SOL     OW 7438   4.261   3.181   1.849
 2180SOL    HW1 7439   4.239   3.192   1.945
 2180SOL    HW2 7440   4.297   3.268   1.813
 2181SOL     OW 7441   4.639   6.324   0.366
 2181SOL    HW1 7442   4.662   6.288   0.275
 2181SOL    HW2 7443   4.567   6.267   0.406
 2182SOL     OW 7444   5.603   1.834   0.423
 2182SOL    HW1 7445   5.606   1.932   0.441
 2182SOL    HW2 7446   5.619   1.784   0.508
 2183SOL     OW 7447   2.748   2.691   1.023
 2183SOL    HW1 7448   2.804   2.610   1.040
 2183SOL    HW2 7449   2.784   2.768   1.076
 2184SOL     OW 7450   4.180   2.921   6.062
 2184SOL    HW1 7451   4.221   2.834   6.034
 2184SOL    HW2 7452   4.139   2.966   5.983
 2185SOL     OW 7453   1.394   0.727   1.061
 2185SOL    HW1 7454   1.321   0.661   1.078
 2185SOL    HW2 7455   1.388   0.759   0.966
 2186SOL     OW 7456   0.156   4.936   2.859
 2186SOL    HW1 7457   0.144   4.933   2.958
 2186SOL    HW2 7458   0.174   4.844   2.825
 2187SOL     OW 7459   0.718   1.559   6.694
 2187SOL    HW1 7460   0.660   1.533   6.616
 2187SOL    HW2 7461   0.769   1.642   6.671
 2188SOL     OW 7462   4.973   0.719   3.546
 2188SOL    HW1 7463   4.925   0.754   3.465
 2188SOL    HW2 7464   5.070   0.739   3.538
 2189SOL     OW 7465   2.835   0.241   6.738
 2189SOL    HW1 7466   2.879   0.323   6.777
 2189SOL    HW2 7467   2.849   0.164   6.800
 2190SOL     OW 7468   4.970   2.099   1.451
 2190SOL    HW1 7469   5.007   2.108   1.543
 2190SOL    HW2 7470   4.986   2.184   1.400
 2191SOL     OW 7471   2.807   1.794   0.042
 2191SOL    HW1 7472   2.764   1.722   0.097
 2191SOL    HW2 7473   2.902   1.805   0.069
 2192SOL     OW 7474   3.875   5.264   3.612
 2192SOL    HW1 7475   3.921   5.220   3.689
 2192SOL    HW2 7476   3.933   5.336   3.575
 2193SOL     OW 7477   0.494   5.147   5.842
 2193SOL    HW1 7478   0.555   5.156   5.764
 2193SOL    HW2 7479   0.489   5.052   5.871
 2194SOL     OW 7480   3.373   0.237   1.284
 2194SOL    HW1 7481   3.376   0.140   1.310
 2194SOL    HW2 7482   3.278   0.266   1.273
 2195SOL     OW 7483   1.401   5.051   2.271
 2195SOL    HW1 7484   1.477   5.106   2.307
 2195SOL    HW2 7485   1.315   5.096   2.292
 2196SOL     OW 7486   4.266   2.903   6.983
 2196SOL    HW1 7487   4.272   2.917   6.884
 2196SOL    HW2 7488   4.182   2.944   7.017
 2197SOL     OW 7489   4.286   4.491   0.519
 2197SOL    HW1 7490   4.267   4.396   0.543
 2197SOL    HW2 7491   4.200   4.543   0.517
 2198SOL     OW 7492   6.201   4.649   0.392
 2198SOL    HW1 7493   6.297   4.621   0.394
 2198SOL    HW2 7494   6.145   4.572   0.362
 2199SOL     OW 7495   4.445   0.531   2.412
 2199SOL    HW1 7496   4.527   0.508   2.358
 2199SOL    HW2 7497   4.363   0.510   2.359
 2200SOL     OW 7498   2.429   6.921   4.485
 2200SOL    HW1 7499   2.351   6.863   4.462
 2200SOL    HW2 7500   2.485   6.938   4.404
 2201SOL     OW 7501   4.897   3.983   2.620
 2201SOL    HW1 7502   4.813   4.012   2.575
 2201SOL    HW2 7503   4.970   4.048   2.601
 2202SOL     OW 7504   5.017   5.728   3.735
 2202SOL    HW1 7505   5.019   5.647   3.794
 2202SOL    HW2 7506   5.017   5.810   3.792
 2203SOL     OW 7507   3.259   1.889   2.633
 2203SOL    HW1 7508   3.206   1.959   2.585
 2203SOL    HW2 7509   3.356   1.901   2.613
 2204SOL     OW 7510   2.899   2.322   1.308
 2204SOL    HW1 7511   2.914   2.345   1.404
 2204SOL    HW2 7512   2.980   2.275   1.272
 2205SOL     OW 7513   2.255   0.479   1.205
 2205SOL    HW1 7514   2.168   0.430   1.209
 2205SOL    HW2 7515   2.244   0.571   1.242
 2206SOL     OW 7516   2.031   3.034   0.115
 2206SOL    HW1 7517   1.935   3.018   0.088
 2206SOL    HW2 7518   2.068   3.110   0.062
 2207SOL     OW 7519   0.536   4.452   4.581
 2207SOL    HW1 7520   0.608   4.383   4.573
 2207SOL    HW2 7521   0.549   4.503   4.666
 2208SOL     OW 7522   6.860   4.664   1.853
 2208SOL    HW1 7523   6.795   4.729   1.814
 2208SOL    HW2 7524   6.864   4.582   1.796
 2209SOL     OW 7525   1.200   6.402   1.223
 2209SOL    HW1 7526   1.128   6.460   1.261
 2209SOL    HW2 7527   1.183   6.388   1.125
 2210SOL     OW 7528   1.183   5.751   3.746
 2210SOL    HW1 7529   1.255   5.810   3.784
 2210SOL    HW2 7530   1.107   5.807   3.715
 2211SOL     OW 7531   0.367   1.452   5.462
 2211SOL    HW1 7532   0.431   1.486   5.393
 2211SOL    HW2 7533   0.386   1.497   5.550
 2212SOL     OW 7534   1.938   6.930   6.636
 2212SOL    HW1 7535   1.942   6.831   6.652
 2212SOL    HW2 7536   1.847   6.954   6.602
 2213SOL     OW 7537   3.145   1.314   3.465
 2213SOL    HW1 7538   3.211   1.239   3.474
 2213SOL    HW2 7539   3.054   1.280   3.489
 2214SOL     OW 7540   4.173   0.358   5.321
 2214SOL    HW1 7541   4.247   0.295   5.297
 2214SOL    HW2 7542   4.191   0.400   5.410
 2215SOL     OW 7543   5.763   2.855   4.598
 2215SOL    HW1 7544   5.738   2.952   4.597
 2215SOL    HW2 7545   5.838   2.840   4.663
 2216SOL     OW 7546   2.319   0.617   1.995
 2216SOL    HW1 7547   2.234   0.652   2.035
 2216SOL    HW2 7548   2.365   0.557   2.061
 2217SOL     OW 7549   4.582   1.229   2.208
 2217SOL    HW1 7550   4.609   1.275   2.123
 2217SOL    HW2 7551   4.598   1.290   2.285
 2218SOL     OW 7552   1.044   6.779   2.619
 2218SOL    HW1 7553   1.044   6.784   2.719
 2218SOL    HW2 7554   1.097   6.700   2.589
 2219SOL     OW 7555   1.559   2.105   2.838
 2219SOL    HW1 7556   1.532   2.200   2.858
 2219SOL    HW2 7557   1.561   2.091   2.739
 2220SOL     OW 7558   0.891   0.493   1.149
 2220SOL    HW1 7559   0.862   0.420   1.212
 2220SOL    HW2 7560   0.887   0.459   1.055
 2221SOL     OW 7561   0.157   1.546   0.214
 2221SOL    HW1 7562   0.120   1.482   0.282
 2221SOL    HW2 7563   0.215   1.613   0.260
 2222SOL     OW 7564   5.863   5.873   2.893
 2222SOL    HW1 7565   5.789   5.919   2.940
 2222SOL    HW2 7566   5.887   5.789   2.942
 2223SOL     OW 7567   6.233   5.075   1.360
 2223SOL    HW1 7568   6.228   5.124   1.273
 2223SOL    HW2 7569   6.157   5.104   1.419
 2224SOL     OW 7570   0.691   4.909   2.295
 2224SOL    HW1 7571   0.788   4.886   2.303
 2224SOL    HW2 7572   0.681   4.994   2.244
 2225SOL     OW 7573   0.425   4.427   1.137
 2225SOL    HW1 7574   0.344   4.458   1.087
 2225SOL    HW2 7575   0.423   4.327   1.145
 2226SOL     OW 7576   4.224   3.784   1.512
 2226SOL    HW1 7577   4.213   3.834   1.598
 2226SOL    HW2 7578   4.293   3.830   1.456
 2227SOL     OW 7579   1.014   3.124   4.433
 2227SOL    HW1 7580   1.062   3.211   4.446
 2227SOL    HW2 7581   0.996   3.082   4.522
 2228SOL     OW 7582   2.738   5.056   4.769
 2228SOL    HW1 7583   2.680   4.992   4.719
 2228SOL    HW2 7584   2.732   5.146   4.726
 2229SOL     OW 7585   5.626   6.776   2.972
 2229SOL    HW1 7586   5.545   6.785   3.031
 2229SOL    HW2 7587   5.648   6.679   2.961
 2230SOL     OW 7588   3.055   5.157   0.949
 2230SOL    HW1 7589   2.972   5.207   0.928
 2230SOL    HW2 7590   3.117   5.214   1.003
 2231SOL     OW 7591   2.726   5.714   1.242
 2231SOL    HW1 7592   2.738   5.636   1.304
 2231SOL    HW2 7593   2.635   5.712   1.202
 2232SOL     OW 7594   6.334   2.856   3.812
 2232SOL    HW1 7595   6.252   2.861   3.870
 2232SOL    HW2 7596   6.416   2.860   3.869
 2233SOL     OW 7597   2.930   1.858   6.696
 2233SOL    HW1 7598   2.845   1.896   6.659
 2233SOL    HW2 7599   2.947   1.897   6.787
 2234SOL     OW 7600   3.303   1.980   1.255
 2234SOL    HW1 7601   3.393   1.980   1.299
 2234SOL    HW2 7602   3.313   1.961   1.158
 2235SOL     OW 7603   1.791   0.893   1.328
 2235SOL    HW1 7604   1.835   0.941   1.404
 2235SOL    HW2 7605   1.845   0.906   1.245
 2236SOL     OW 7606   6.945   3.806   6.176
 2236SOL    HW1 7607   0.020   3.775   6.168
 2236SOL    HW2 7608   6.942   3.906   6.172
 2237SOL     OW 7609   6.296   2.976   4.117
 2237SOL    HW1 7610   6.226   2.995   4.186
 2237SOL    HW2 7611   6.312   3.059   4.062
 2238SOL     OW 7612   6.924   6.365   1.996
 2238SOL    HW1 7613   6.923   6.268   1.972
 2238SOL    HW2 7614   6.831   6.396   2.013
 2239SOL     OW 7615   5.707   5.465   2.976
 2239SOL    HW1 7616   5.623   5.482   2.925
 2239SOL    HW2 7617   5.763   5.549   2.978
 2240SOL     OW 7618   5.823   3.606   1.895
 2240SOL    HW1 7619   5.858   3.530   1.841
 2240SOL    HW2 7620   5.739   3.640   1.855
 2241SOL     OW 7621   0.850   6.855   1.977
 2241SOL    HW1 7622   0.796   6.938   1.994
 2241SOL    HW2 7623   0.815   6.780   2.033
 2242SOL     OW 7624   4.933   1.955   2.662
 2242SOL    HW1 7625   4.882   2.016   2.723
 2242SOL    HW2 7626   4.918   1.860   2.690
 2243SOL     OW 7627   2.790   6.312   5.531
 2243SOL    HW1 7628   2.752   6.326   5.622
 2243SOL    HW2 7629   2.826   6.219   5.524
 2244SOL     OW 7630   2.747   0.887   5.411
 2244SOL    HW1 7631   2.679   0.835   5.359
 2244SOL    HW2 7632   2.835   0.842   5.405
 2245SOL     OW 7633   0.221   1.880   2.107
 2245SOL    HW1 7634   0.264   1.961   2.067
 2245SOL    HW2 7635   0.135   1.861   2.059
 2246SOL     OW 7636   1.460   4.598   4.486
 2246SOL    HW1 7637   1.539   4.659   4.483
 2246SOL    HW2 7638   1.429   4.588   4.581
 2247SOL     OW 7639   1.692   1.315   5.541
 2247SOL    HW1 7640   1.718   1.264   5.459
 2247SOL    HW2 7641   1.610   1.369   5.523
 2248SOL     OW 7642   4.541   4.324   5.230
 2248SOL    HW1 7643   4.457   4.365   5.195
 2248SOL    HW2 7644   4.618   4.384   5.208
 2249SOL     OW 7645   4.358   5.378   4.865
 2249SOL    HW1 7646   4.421   5.417   4.798
 2249SOL    HW2 7647   4.272   5.355   4.821
 2250SOL     OW 7648   5.385   5.230   0.651
 2250SOL    HW1 7649   5.298   5.271   0.679
 2250SOL    HW2 7650   5.420   5.280   0.571
 2251SOL     OW 7651   0.230   0.690   6.338
 2251SOL    HW1 7652   0.168   0.628   6.290
 2251SOL    HW2 7653   0.275   0.750   6.272
 2252SOL     OW 7654   3.691   1.597   5.661
 2252SOL    HW1 7655   3.788   1.574   5.662
 2252SOL    HW2 7656   3.647   1.560   5.744
 2253SOL     OW 7657   1.378   2.419   6.045
 2253SOL    HW1 7658   1.313   2.440   6.118
 2253SOL    HW2 7659   1.470   2.447   6.073
 2254SOL     OW 7660   1.780   3.697   5.602
 2254SOL    HW1 7661   1.854   3.699   5.669
 2254SOL    HW2 7662   1.697   3.661   5.644
 2255SOL     OW 7663   5.124   3.065   0.645
 2255SOL    HW1 7664   5.172   3.065   0.557
 2255SOL    HW2 7665   5.142   2.978   0.692
 2256SOL     OW 7666   3.326   4.882   2.151
 2256SOL    HW1 7667   3.254   4.854   2.088
 2256SOL    HW2 7668   3.415   4.859   2.112
 2257SOL     OW 7669   2.080   3.643   3.823
 2257SOL    HW1 7670   2.031   3.557   3.808
 2257SOL    HW2 7671   2.107   3.651   3.919
 2258SOL     OW 7672   2.266   5.221   5.341
 2258SOL    HW1 7673   2.213   5.170   5.273
 2258SOL    HW2 7674   2.362   5.193   5.336
 2259SOL     OW 7675   6.373   3.253   6.396
 2259SOL    HW1 7676   6.459   3.276   6.350
 2259SOL    HW2 7677   6.393   3.219   6.488
 2260SOL     OW 7678   4.713   4.052   0.709
 2260SOL    HW1 7679   4.808   4.050   0.741
 2260SOL    HW2 7680   4.663   3.974   0.748
 2261SOL     OW 7681   3.812   6.760   5.051
 2261SOL    HW1 7682   3.784   6.681   5.106
 2261SOL    HW2 7683   3.889   6.805   5.095
 2262SOL     OW 7684   3.170   1.748   3.353
 2262SOL    HW1 7685   3.245   1.736   3.417
 2262SOL    HW2 7686   3.139   1.843   3.355
 2263SOL     OW 7687   0.048   4.287   5.683
 2263SOL    HW1 7688   0.120   4.354   5.699
 2263SOL    HW2 7689   0.080   4.219   5.617
 2264SOL     OW 7690   3.573   4.079   3.864
 2264SOL    HW1 7691   3.637   4.082   3.941
 2264SOL    HW2 7692   3.563   3.984   3.833
 2265SOL     OW 7693   0.270   6.806   2.829
 2265SOL    HW1 7694   0.350   6.767   2.783
 2265SOL    HW2 7695   0.299   6.861   2.907
 2266SOL     OW 7696   5.813   0.116   0.098
 2266SOL    HW1 7697   5.832   0.029   0.142
 2266SOL    HW2 7698   5.716   0.138   0.108
 2267SOL     OW 7699   5.247   1.864   5.278
 2267SOL    HW1 7700   5.197   1.949   5.295
 2267SOL    HW2 7701   5.308   1.876   5.200
 2268SOL     OW 7702   6.210   5.120   6.717
 2268SOL    HW1 7703   6.153   5.107   6.636
 2268SOL    HW2 7704   6.206   5.216   6.746
 2269SOL     OW 7705   0.318   5.788   4.230
 2269SOL    HW1 7706   0.286   5.694   4.234
 2269SOL    HW2 7707   0.241   5.850   4.248
 2270SOL     OW 7708   4.097   3.511   2.687
 2270SOL    HW1 7709   4.134   3.432   2.638
 2270SOL    HW2 7710   4.044   3.567   2.624
 2271SOL     OW 7711   0.524   4.387   2.850
 2271SOL    HW1 7712   0.500   4.484   2.852
 2271SOL    HW2 7713   0.584   4.366   2.927
 2272SOL     OW 7714   4.828   2.178   6.294
 2272SOL    HW1 7715   4.921   2.215   6.289
 2272SOL    HW2 7716   4.769   2.227   6.229
 2273SOL     OW 7717   0.434   1.032   3.979
 2273SOL    HW1 7718   0.461   1.105   3.915
 2273SOL    HW2 7719   0.455   1.060   4.072
 2274SOL     OW 7720   1.155   3.659   2.847
 2274SOL    HW1 7721   1.186   3.746   2.886
 2274SOL    HW2 7722   1.083   3.621   2.905
 2275SOL     OW 7723   4.973   6.168   3.511
 2275SOL    HW1 7724   4.999   6.174   3.415
 2275SOL    HW2 7725   4.941   6.075   3.532
 2276SOL     OW 7726   3.457   5.394   1.648
 2276SOL    HW1 7727   3.417   5.470   1.595
 2276SOL    HW2 7728   3.393   5.367   1.719
 2277SOL     OW 7729   3.608   3.453   1.044
 2277SOL    HW1 7730   3.597   3.498   0.956
 2277SOL    HW2 7731   3.549   3.373   1.049
 2278SOL     OW 7732   5.286   6.660   1.130
 2278SOL    HW1 7733   5.212   6.599   1.159
 2278SOL    HW2 7734   5.262   6.703   1.043
 2279SOL     OW 7735   5.240   3.994   5.267
 2279SOL    HW1 7736   5.214   4.083   5.228
 2279SOL    HW2 7737   5.332   3.999   5.304
 2280SOL     OW 7738   5.817   6.918   6.218
 2280SOL    HW1 7739   5.871   6.940   6.138
 2280SOL    HW2 7740   5.753   6.844   6.196
 2281SOL     OW 7741   3.320   2.748   0.289
 2281SOL    HW1 7742   3.275   2.800   0.216
 2281SOL    HW2 7743   3.419   2.752   0.278
 2282SOL     OW 7744   4.063   5.610   2.205
 2282SOL    HW1 7745   4.054   5.678   2.132
 2282SOL    HW2 7746   4.108   5.528   2.168
 2283SOL     OW 7747   6.959   3.841   1.895
 2283SOL    HW1 7748   6.956   3.763   1.957
 2283SOL    HW2 7749   6.918   3.816   1.807
 2284SOL     OW 7750   2.594   2.358   2.190
 2284SOL    HW1 7751   2.609   2.345   2.288
 2284SOL    HW2 7752   2.677   2.332   2.140
 2285SOL     OW 7753   1.848   3.733   6.306
 2285SOL    HW1 7754   1.932   3.771   6.268
 2285SOL    HW2 7755   1.870   3.678   6.387
 2286SOL     OW 7756   5.175   6.991   4.187
 2286SOL    HW1 7757   5.184   6.910   4.129
 2286SOL    HW2 7758   5.266   0.006   4.210
 2287SOL     OW 7759   1.920   2.881   1.463
 2287SOL    HW1 7760   1.946   2.973   1.433
 2287SOL    HW2 7761   1.998   2.819   1.452
 2288SOL     OW 7762   2.110   5.923   4.276
 2288SOL    HW1 7763   2.013   5.911   4.254
 2288SOL    HW2 7764   2.166   5.873   4.210
 2289SOL     OW 7765   4.514   1.844   0.389
 2289SOL    HW1 7766   4.418   1.868   0.404
 2289SOL    HW2 7767   4.548   1.892   0.308
 2290SOL     OW 7768   3.333   3.324   3.271
 2290SOL    HW1 7769   3.380   3.271   3.200
 2290SOL    HW2 7770   3.400   3.353   3.339
 2291SOL     OW 7771   1.045   2.827   6.337
 2291SOL    HW1 7772   0.959   2.867   6.370
 2291SOL    HW2 7773   1.081   2.884   6.263
 2292SOL     OW 7774   5.233   1.597   2.749
 2292SOL    HW1 7775   5.249   1.655   2.669
 2292SOL    HW2 7776   5.198   1.508   2.719
 2293SOL     OW 7777   0.281   0.420   0.527
 2293SOL    HW1 7778   0.296   0.515   0.500
 2293SOL    HW2 7779   0.198   0.385   0.483
 2294SOL     OW 7780   6.705   0.933   5.682
 2294SOL    HW1 7781   6.769   0.926   5.606
 2294SOL    HW2 7782   6.626   0.875   5.664
 2295SOL     OW 7783   5.836   6.055   1.274
 2295SOL    HW1 7784   5.799   5.992   1.205
 2295SOL    HW2 7785   5.826   6.149   1.243
 2296SOL     OW 7786   3.487   4.912   4.107
 2296SOL    HW1 7787   3.576   4.866   4.117
 2296SOL    HW2 7788   3.486   4.962   4.021
 2297SOL     OW 7789   4.984   3.949   5.518
 2297SOL    HW1 7790   4.980   3.957   5.617
 2297SOL    HW2 7791   5.079   3.937   5.489
 2298SOL     OW 7792   3.487   3.836   4.316
 2298SOL    HW1 7793   3.491   3.911   4.382
 2298SOL    HW2 7794   3.467   3.872   4.225
 2299SOL     OW 7795   5.674   3.107   4.391
 2299SOL    HW1 7796   5.658   3.115   4.489
 2299SOL    HW2 7797   5.587   3.110   4.342
 2300SOL     OW 7798   4.654   6.649   2.195
 2300SOL    HW1 7799   4.717   6.666   2.119
 2300SOL    HW2 7800   4.622   6.554   2.191
 2301SOL     OW 7801   3.780   2.904   4.882
 2301SOL    HW1 7802   3.783   2.903   4.982
 2301SOL    HW2 7803   3.796   2.811   4.848
 2302SOL     OW 7804   6.289   2.653   5.903
 2302SOL    HW1 7805   6.245   2.587   5.842
 2302SOL    HW2 7806   6.382   2.670   5.872
 2303SOL     OW 7807   2.805   2.804   0.056
 2303SOL    HW1 7808   2.791   2.869   0.132
 2303SOL    HW2 7809   2.858   2.726   0.089
 2304SOL     OW 7810   6.680   6.293   2.616
 2304SOL    HW1 7811   6.615   6.220   2.594
 2304SOL    HW2 7812   6.760   6.286   2.557
 2305SOL     OW 7813   2.937   0.221   4.764
 2305SOL    HW1 7814   3.008   0.227   4.835
 2305SOL    HW2 7815   2.961   0.281   4.688
 2306SOL     OW 7816   1.391   4.912   4.716
 2306SOL    HW1 7817   1.303   4.913   4.765
 2306SOL    HW2 7818   1.376   4.936   4.620
 2307SOL     OW 7819   6.330   3.203   5.355
 2307SOL    HW1 7820   6.429   3.208   5.350
 2307SOL    HW2 7821   6.299   3.116   5.315
 2308SOL     OW 7822   1.538   5.014   1.695
 2308SOL    HW1 7823   1.496   5.083   1.636
 2308SOL    HW2 7824   1.638   5.018   1.685
 2309SOL     OW 7825   1.665   0.340   5.088
 2309SOL    HW1 7826   1.750   0.314   5.042
 2309SOL    HW2 7827   1.620   0.259   5.124
 2310SOL     OW 7828   4.050   0.442   1.032
 2310SOL    HW1 7829   4.049   0.506   1.109
 2310SOL    HW2 7830   4.143   0.434   0.997
 2311SOL     OW 7831   2.640   5.224   1.363
 2311SOL    HW1 7832   2.581   5.261   1.291
 2311SOL    HW2 7833   2.633   5.125   1.365
 2312SOL     OW 7834   3.368   5.193   1.889
 2312SOL    HW1 7835   3.428   5.117   1.866
 2312SOL    HW2 7836   3.300   5.206   1.817
 2313SOL     OW 7837   5.310   5.737   1.227
 2313SOL    HW1 7838   5.336   5.827   1.192
 2313SOL    HW2 7839   5.281   5.679   1.152
 2314SOL     OW 7840   1.661   4.882   4.412
 2314SOL    HW1 7841   1.703   4.791   4.416
 2314SOL    HW2 7842   1.689   4.927   4.327
 2315SOL     OW 7843   4.573   2.596   6.357
 2315SOL    HW1 7844   4.501   2.561   6.416
 2315SOL    HW2 7845   4.617   2.675   6.401
 2316SOL     OW 7846   5.926   3.772   2.101
 2316SOL    HW1 7847   6.019   3.803   2.117
 2316SOL    HW2 7848   5.924   3.712   2.021
 2317SOL     OW 7849   0.197   5.967   3.631
 2317SOL    HW1 7850   0.161   5.897   3.570
 2317SOL    HW2 7851   0.170   5.947   3.725
 2318SOL     OW 7852   6.246   1.047   4.250
 2318SOL    HW1 7853   6.245   1.133   4.198
 2318SOL    HW2 7854   6.155   1.031   4.288
 2319SOL     OW 7855   0.824   5.172   2.728
 2319SOL    HW1 7856   0.826   5.172   2.828
 2319SOL    HW2 7857   0.730   5.158   2.697
 2320SOL     OW 7858   6.605   5.117   5.301
 2320SOL    HW1 7859   6.656   5.117   5.387
 2320SOL    HW2 7860   6.512   5.084   5.317
 2321SOL     OW 7861   3.715   4.955   4.947
 2321SOL    HW1 7862   3.740   5.016   4.872
 2321SOL    HW2 7863   3.616   4.955   4.959
 2322SOL     OW 7864   3.271   1.112   5.737
 2322SOL    HW1 7865   3.207   1.112   5.661
 2322SOL    HW2 7866   3.242   1.044   5.805
 2323SOL     OW 7867   5.168   3.799   1.905
 2323SOL    HW1 7868   5.226   3.774   1.982
 2323SOL    HW2 7869   5.150   3.718   1.849
 2324SOL     OW 7870   6.926   5.089   3.325
 2324SOL    HW1 7871   6.849   5.148   3.299
 2324SOL    HW2 7872   6.973   5.129   3.403
 2325SOL     OW 7873   0.497   2.306   0.747
 2325SOL    HW1 7874   0.557   2.332   0.672
 2325SOL    HW2 7875   0.403   2.296   0.713
 2326SOL     OW 7876   1.706   3.891   0.027
 2326SOL    HW1 7877   1.623   3.855   7.003
 2326SOL    HW2 7878   1.681   3.938   0.111
 2327SOL     OW 7879   5.448   1.916   3.777
 2327SOL    HW1 7880   5.530   1.971   3.762
 2327SOL    HW2 7881   5.454   1.831   3.723
 2328SOL     OW 7882   6.033   6.610   4.049
 2328SOL    HW1 7883   5.964   6.549   4.010
 2328SOL    HW2 7884   6.064   6.674   3.979
 2329SOL     OW 7885   6.415   5.828   3.194
 2329SOL    HW1 7886   6.333   5.806   3.142
 2329SOL    HW2 7887   6.391   5.842   3.290
 2330SOL     OW 7888   0.309   3.519   1.833
 2330SOL    HW1 7889   0.237   3.450   1.828
 2330SOL    HW2 7890   0.270   3.610   1.818
 2331SOL     OW 7891   0.894   5.110   5.825
 2331SOL    HW1 7892   0.910   5.085   5.920
 2331SOL    HW2 7893   0.979   5.101   5.773
 2332SOL     OW 7894   5.439   2.532   4.515
 2332SOL    HW1 7895   5.490   2.611   4.480
 2332SOL    HW2 7896   5.392   2.487   4.440
 2333SOL     OW 7897   2.548   4.596   3.462
 2333SOL    HW1 7898   2.550   4.591   3.562
 2333SOL    HW2 7899   2.481   4.531   3.426
 2334SOL     OW 7900   3.242   0.303   0.639
 2334SOL    HW1 7901   3.325   0.261   0.675
 2334SOL    HW2 7902   3.168   0.295   0.706
 2335SOL     OW 7903   4.775   5.111   4.295
 2335SOL    HW1 7904   4.754   5.200   4.335
 2335SOL    HW2 7905   4.693   5.054   4.295
 2336SOL     OW 7906   4.195   2.433   5.694
 2336SOL    HW1 7907   4.142   2.505   5.739
 2336SOL    HW2 7908   4.243   2.379   5.763
 2337SOL     OW 7909   5.847   0.409   4.400
 2337SOL    HW1 7910   5.884   0.336   4.343
 2337SOL    HW2 7911   5.913   0.434   4.471
 2338SOL     OW 7912   1.725   0.121   6.824
 2338SOL    HW1 7913   1.819   0.148   6.807
 2338SOL    HW2 7914   1.664   0.171   6.761
 2339SOL     OW 7915   4.464   4.202   6.316
 2339SOL    HW1 7916   4.378   4.247   6.342
 2339SOL    HW2 7917   4.504   4.160   6.398
 2340SOL     OW 7918   3.549   5.411   3.827
 2340SOL    HW1 7919   3.596   5.389   3.741
 2340SOL    HW2 7920   3.615   5.451   3.891
 2341SOL     OW 7921   6.042   5.132   6.118
 2341SOL    HW1 7922   6.085   5.042   6.113
 2341SOL    HW2 7923   6.006   5.158   6.028
 2342SOL     OW 7924   6.385   0.228   5.158
 2342SOL    HW1 7925   6.414   0.135   5.182
 2342SOL    HW2 7926   6.316   0.259   5.222
 2343SOL     OW 7927   0.922   0.061   0.580
 2343SOL    HW1 7928   0.852   7.009   0.576
 2343SOL    HW2 7929   0.932   0.102   0.489
 2344SOL     OW 7930   2.198   1.297   3.205
 2344SOL    HW1 7931   2.151   1.282   3.292
 2344SOL    HW2 7932   2.290   1.258   3.209
 2345SOL     OW 7933   1.303   1.359   3.501
 2345SOL    HW1 7934   1.275   1.324   3.590
 2345SOL    HW2 7935   1.385   1.311   3.470
 2346SOL     OW 7936   5.322   3.363   5.581
 2346SOL    HW1 7937   5.389   3.428   5.617
 2346SOL    HW2 7938   5.286   3.307   5.656
 2347SOL     OW 7939   1.218   3.796   1.022
 2347SOL    HW1 7940   1.138   3.856   1.024
 2347SOL    HW2 7941   1.274   3.813   1.102
 2348SOL     OW 7942   2.914   5.669   1.932
 2348SOL    HW1 7943   2.976   5.601   1.893
 2348SOL    HW2 7944   2.831   5.623   1.965
 2349SOL     OW 7945   4.392   4.728   5.892
 2349SOL    HW1 7946   4.362   4.655   5.954
 2349SOL    HW2 7947   4.491   4.739   5.899
 2350SOL     OW 7948   1.988   5.883   5.499
 2350SOL    HW1 7949   1.986   5.801   5.556
 2350SOL    HW2 7950   2.007   5.857   5.404
 2351SOL     OW 7951   2.323   5.641   3.376
 2351SOL    HW1 7952   2.273   5.568   3.329
 2351SOL    HW2 7953   2.330   5.720   3.316
 2352SOL     OW 7954   6.099   4.168   1.770
 2352SOL    HW1 7955   6.163   4.244   1.783
 2352SOL    HW2 7956   6.127   4.114   1.691
 2353SOL     OW 7957   3.000   3.656   6.361
 2353SOL    HW1 7958   2.902   3.673   6.347
 2353SOL    HW2 7959   3.038   3.728   6.418
 2354SOL     OW 7960   4.032   2.524   1.662
 2354SOL    HW1 7961   3.941   2.566   1.659
 2354SOL    HW2 7962   4.027   2.438   1.711
 2355SOL     OW 7963   6.578   1.095   1.405
 2355SOL    HW1 7964   6.487   1.064   1.434
 2355SOL    HW2 7965   6.587   1.193   1.421
 2356SOL     OW 7966   2.687   5.094   3.833
 2356SOL    HW1 7967   2.595   5.101   3.871
 2356SOL    HW2 7968   2.753   5.080   3.907
 2357SOL     OW 7969   6.494   4.302   0.772
 2357SOL    HW1 7970   6.503   4.209   0.807
 2357SOL    HW2 7971   6.485   4.365   0.849
 2358SOL     OW 7972   3.758   1.978   5.204
 2358SOL    HW1 7973   3.790   1.889   5.172
 2358SOL    HW2 7974   3.658   1.975   5.215
 2359SOL     OW 7975   1.731   1.930   5.945
 2359SOL    HW1 7976   1.766   1.840   5.971
 2359SOL    HW2 7977   1.806   1.987   5.912
 2360SOL     OW 7978   3.302   4.816   6.696
 2360SOL    HW1 7979   3.252   4.873   6.631
 2360SOL    HW2 7980   3.395   4.851   6.706
 2361SOL     OW 7981   4.246   5.494   1.833
 2361SOL    HW1 7982   4.284   5.582   1.806
 2361SOL    HW2 7983   4.248   5.486   1.932
 2362SOL     OW 7984   3.977   5.160   3.835
 2362SOL    HW1 7985   4.015   5.082   3.784
 2362SOL    HW2 7986   3.905   5.128   3.896
 2363SOL     OW 7987   1.778   4.237   0.571
 2363SOL    HW1 7988   1.736   4.186   0.646
 2363SOL    HW2 7989   1.711   4.252   0.498
 2364SOL     OW 7990   3.505   1.216   2.825
 2364SOL    HW1 7991   3.523   1.148   2.896
 2364SOL    HW2 7992   3.415   1.257   2.840
 2365SOL     OW 7993   4.640   4.257   3.445
 2365SOL    HW1 7994   4.694   4.176   3.419
 2365SOL    HW2 7995   4.643   4.324   3.370
 2366SOL     OW 7996   2.845   4.896   5.021
 2366SOL    HW1 7997   2.907   4.941   4.956
 2366SOL    HW2 7998   2.858   4.797   5.017
 2367SOL     OW 7999   5.847   5.433   6.065
 2367SOL    HW1 8000   5.876   5.520   6.104
 2367SOL    HW2 8001   5.762   5.446   6.013
 2368SOL     OW 8002   5.944   0.049   4.740
 2368SOL    HW1 8003   6.014   0.119   4.749
 2368SOL    HW2 8004   5.854   0.088   4.760
 2369SOL     OW 8005   3.190   2.163   4.518
 2369SOL    HW1 8006   3.253   2.194   4.589
 2369SOL    HW2 8007   3.096   2.166   4.552
 2370SOL     OW 8008   6.001   2.338   1.899
 2370SOL    HW1 8009   6.046   2.336   1.988
 2370SOL    HW2 8010   5.915   2.387   1.907
 2371SOL     OW 8011   0.746   6.112   3.084
 2371SOL    HW1 8012   0.830   6.158   3.055
 2371SOL    HW2 8013   0.667   6.163   3.053
 2372SOL     OW 8014   6.044   6.201   6.753
 2372SOL    HW1 8015   6.134   6.157   6.747
 2372SOL    HW2 8016   6.056   6.297   6.777
 2373SOL     OW 8017   6.481   5.094   6.140
 2373SOL    HW1 8018   6.419   5.133   6.072
 2373SOL    HW2 8019   6.451   5.122   6.232
 2374SOL     OW 8020   6.535   6.093   2.428
 2374SOL    HW1 8021   6.464   6.155   2.462
 2374SOL    HW2 8022   6.499   6.000   2.425
 2375SOL     OW 8023   1.559   0.579   4.171
 2375SOL    HW1 8024   1.537   0.580   4.073
 2375SOL    HW2 8025   1.623   0.505   4.190
 2376SOL     OW 8026   5.472   1.922   3.205
 2376SOL    HW1 8027   5.488   1.983   3.128
 2376SOL    HW2 8028   5.464   1.828   3.172
 2377SOL     OW 8029   4.526   4.091   5.928
 2377SOL    HW1 8030   4.558   4.119   5.838
 2377SOL    HW2 8031   4.427   4.103   5.934
 2378SOL     OW 8032   0.217   1.100   0.173
 2378SOL    HW1 8033   0.124   1.138   0.176
 2378SOL    HW2 8034   0.212   1.001   0.158
 2379SOL     OW 8035   6.626   5.219   1.996
 2379SOL    HW1 8036   6.558   5.227   1.923
 2379SOL    HW2 8037   6.628   5.303   2.049
 2380SOL     OW 8038   4.738   6.221   5.902
 2380SOL    HW1 8039   4.828   6.247   5.866
 2380SOL    HW2 8040   4.749   6.171   5.988
 2381SOL     OW 8041   2.218   4.704   4.249
 2381SOL    HW1 8042   2.193   4.613   4.216
 2381SOL    HW2 8043   2.227   4.701   4.349
 2382SOL     OW 8044   6.865   5.655   2.642
 2382SOL    HW1 8045   6.958   5.621   2.660
 2382SOL    HW2 8046   6.860   5.689   2.549
 2383SOL     OW 8047   5.307   4.869   5.970
 2383SOL    HW1 8048   5.222   4.824   5.998
 2383SOL    HW2 8049   5.333   4.937   6.039
 2384SOL     OW 8050   0.290   1.867   2.949
 2384SOL    HW1 8051   0.209   1.916   2.918
 2384SOL    HW2 8052   0.350   1.847   2.871
 2385SOL     OW 8053   0.612   1.296   0.765
 2385SOL    HW1 8054   0.705   1.275   0.734
 2385SOL    HW2 8055   0.552   1.217   0.750
 2386SOL     OW 8056   6.247   5.923   4.273
 2386SOL    HW1 8057   6.223   5.827   4.288
 2386SOL    HW2 8058   6.194   5.981   4.335
 2387SOL     OW 8059   1.006   1.442   3.636
 2387SOL    HW1 8060   1.096   1.424   3.677
 2387SOL    HW2 8061   0.981   1.537   3.650
 2388SOL     OW 8062   0.202   2.613   5.425
 2388SOL    HW1 8063   0.258   2.695   5.414
 2388SOL    HW2 8064   0.209   2.556   5.343
 2389SOL     OW 8065   4.149   4.891   3.744
 2389SOL    HW1 8066   4.189   4.980   3.724
 2389SOL    HW2 8067   4.199   4.820   3.693
 2390SOL     OW 8068   4.862   3.052   5.959
 2390SOL    HW1 8069   4.768   3.016   5.957
 2390SOL    HW2 8070   4.878   3.098   6.046
 2391SOL     OW 8071   3.056   3.821   5.519
 2391SOL    HW1 8072   3.032   3.813   5.615
 2391SOL    HW2 8073   3.010   3.901   5.480
 2392SOL     OW 8074   4.698   4.318   5.449
 2392SOL    HW1 8075   4.632   4.295   5.377
 2392SOL    HW2 8076   4.787   4.278   5.427
 2393SOL     OW 8077   4.156   4.487   1.167
 2393SOL    HW1 8078   4.113   4.572   1.196
 2393SOL    HW2 8079   4.250   4.505   1.137
 2394SOL     OW 8080   0.374   2.437   3.892
 2394SOL    HW1 8081   0.363   2.531   3.924
 2394SOL    HW2 8082   0.455   2.397   3.935
 2395SOL     OW 8083   0.967   2.457   4.648
 2395SOL    HW1 8084   0.871   2.465   4.675
 2395SOL    HW2 8085   0.972   2.408   4.561
 2396SOL     OW 8086   0.409   0.585   5.551
 2396SOL    HW1 8087   0.349   0.630   5.485
 2396SOL    HW2 8088   0.498   0.630   5.551
 2397SOL     OW 8089   0.219   3.931   5.099
 2397SOL    HW1 8090   0.188   3.903   5.008
 2397SOL    HW2 8091   0.316   3.955   5.095
 2398SOL     OW 8092   3.627   6.351   4.383
 2398SOL    HW1 8093   3.554   6.367   4.317
 2398SOL    HW2 8094   3.652   6.438   4.426
 2399SOL     OW 8095   3.154   2.032   3.499
 2399SOL    HW1 8096   3.175   2.072   3.589
 2399SOL    HW2 8097   3.211   2.075   3.430
 2400SOL     OW 8098   1.513   4.098   0.597
 2400SOL    HW1 8099   1.497   4.126   0.692
 2400SOL    HW2 8100   1.451   4.024   0.573
 2401SOL     OW 8101   1.574   0.145   6.322
 2401SOL    HW1 8102   1.537   0.169   6.232
 2401SOL    HW2 8103   1.644   0.211   6.348
 2402SOL     OW 8104   1.442   4.151   1.644
 2402SOL    HW1 8105   1.364   4.158   1.707
 2402SOL    HW2 8106   1.525   4.183   1.690
 2403SOL     OW 8107   4.141   3.423   3.866
 2403SOL    HW1 8108   4.124   3.424   3.964
 2403SOL    HW2 8109   4.113   3.334   3.829
 2404SOL     OW 8110   6.077   1.052   1.031
 2404SOL    HW1 8111   6.011   1.094   0.970
 2404SOL    HW2 8112   6.108   1.118   1.100
 2405SOL     OW 8113   1.946   3.142   0.507
 2405SOL    HW1 8114   1.871   3.201   0.538
 2405SOL    HW2 8115   1.962   3.071   0.575
 2406SOL     OW 8116   2.719   6.065   4.335
 2406SOL    HW1 8117   2.771   6.128   4.278
 2406SOL    HW2 8118   2.712   6.102   4.427
 2407SOL     OW 8119   2.482   0.995   3.453
 2407SOL    HW1 8120   2.443   1.005   3.361
 2407SOL    HW2 8121   2.531   0.908   3.459
 2408SOL     OW 8122   3.680   6.059   5.255
 2408SOL    HW1 8123   3.766   6.050   5.206
 2408SOL    HW2 8124   3.693   6.114   5.337
 2409SOL     OW 8125   1.217   3.334   0.291
 2409SOL    HW1 8126   1.273   3.257   0.260
 2409SOL    HW2 8127   1.248   3.363   0.381
 2410SOL     OW 8128   0.627   2.785   4.659
 2410SOL    HW1 8129   0.688   2.840   4.717
 2410SOL    HW2 8130   0.553   2.748   4.714
 2411SOL     OW 8131   3.244   2.445   0.202
 2411SOL    HW1 8132   3.321   2.475   0.259
 2411SOL    HW2 8133   3.267   2.358   0.158
 2412SOL     OW 8134   3.359   2.030   6.218
 2412SOL    HW1 8135   3.347   2.065   6.125
 2412SOL    HW2 8136   3.338   2.102   6.284
 2413SOL     OW 8137   0.303   3.451   6.959
 2413SOL    HW1 8138   0.373   3.409   6.902
 2413SOL    HW2 8139   0.259   3.380   7.015
 2414SOL     OW 8140   5.948   2.005   5.066
 2414SOL    HW1 8141   6.024   1.955   5.025
 2414SOL    HW2 8142   5.928   1.967   5.157
 2415SOL     OW 8143   2.504   5.593   6.691
 2415SOL    HW1 8144   2.535   5.590   6.596
 2415SOL    HW2 8145   2.405   5.605   6.693
 2416SOL     OW 8146   0.168   3.339   2.409
 2416SOL    HW1 8147   0.142   3.302   2.498
 2416SOL    HW2 8148   0.171   3.265   2.341
 2417SOL     OW 8149   2.913   2.591   1.715
 2417SOL    HW1 8150   2.995   2.645   1.733
 2417SOL    HW2 8151   2.908   2.515   1.780
 2418SOL     OW 8152   4.673   4.380   6.666
 2418SOL    HW1 8153   4.767   4.407   6.686
 2418SOL    HW2 8154   4.669   4.281   6.652
 2419SOL     OW 8155   3.126   7.017   3.193
 2419SOL    HW1 8156   3.108   0.042   3.105
 2419SOL    HW2 8157   3.182   0.058   3.250
 2420SOL     OW 8158   1.517   4.260   2.385
 2420SOL    HW1 8159   1.534   4.219   2.296
 2420SOL    HW2 8160   1.591   4.236   2.448
 2421SOL     OW 8161   3.189   6.828   3.365
 2421SOL    HW1 8162   3.154   6.918   3.338
 2421SOL    HW2 8163   3.116   6.759   3.354
 2422SOL     OW 8164   4.206   5.447   1.085
 2422SOL    HW1 8165   4.254   5.368   1.123
 2422SOL    HW2 8166   4.272   5.508   1.042
 2423SOL     OW 8167   2.400   5.867   2.847
 2423SOL    HW1 8168   2.361   5.804   2.914
 2423SOL    HW2 8169   2.497   5.849   2.836
 2424SOL     OW 8170   5.244   6.979   6.349
 2424SOL    HW1 8171   5.332   6.937   6.372
 2424SOL    HW2 8172   5.171   6.933   6.399
 2425SOL     OW 8173   5.465   5.573   4.787
 2425SOL    HW1 8174   5.549   5.626   4.803
 2425SOL    HW2 8175   5.395   5.600   4.853
 2426SOL     OW 8176   2.166   3.225   5.615
 2426SOL    HW1 8177   2.209   3.232   5.705
 2426SOL    HW2 8178   2.237   3.210   5.546
 2427SOL     OW 8179   5.477   0.519   6.966
 2427SOL    HW1 8180   5.555   0.577   6.944
 2427SOL    HW2 8181   5.458   0.523   0.045
 2428SOL     OW 8182   0.796   0.721   2.874
 2428SOL    HW1 8183   0.781   0.771   2.959
 2428SOL    HW2 8184   0.713   0.724   2.819
 2429SOL     OW 8185   5.517   4.697   1.256
 2429SOL    HW1 8186   5.468   4.756   1.191
 2429SOL    HW2 8187   5.481   4.604   1.249
 2430SOL     OW 8188   6.084   0.626   6.423
 2430SOL    HW1 8189   6.038   0.648   6.337
 2430SOL    HW2 8190   6.033   0.667   6.499
 2431SOL     OW 8191   0.605   3.012   2.081
 2431SOL    HW1 8192   0.554   3.080   2.028
 2431SOL    HW2 8193   0.664   3.059   2.146
 2432SOL     OW 8194   2.831   5.215   1.861
 2432SOL    HW1 8195   2.928   5.229   1.840
 2432SOL    HW2 8196   2.779   5.209   1.776
 2433SOL     OW 8197   6.811   4.094   5.374
 2433SOL    HW1 8198   6.910   4.108   5.372
 2433SOL    HW2 8199   6.791   3.996   5.363
 2434SOL     OW 8200   4.428   0.963   2.523
 2434SOL    HW1 8201   4.474   0.928   2.442
 2434SOL    HW2 8202   4.416   1.062   2.514
 2435SOL     OW 8203   6.269   6.763   7.003
 2435SOL    HW1 8204   6.350   6.708   6.981
 2435SOL    HW2 8205   6.238   6.809   6.920
 2436SOL     OW 8206   1.410   2.040   1.513
 2436SOL    HW1 8207   1.404   2.094   1.429
 2436SOL    HW2 8208   1.505   2.017   1.531
 2437SOL     OW 8209   0.306   4.279   2.894
 2437SOL    HW1 8210   0.233   4.272   2.826
 2437SOL    HW2 8211   0.380   4.336   2.857
 2438SOL     OW 8212   3.202   1.333   4.630
 2438SOL    HW1 8213   3.176   1.429   4.640
 2438SOL    HW2 8214   3.131   1.274   4.669
 2439SOL     OW 8215   1.740   6.155   1.231
 2439SOL    HW1 8216   1.644   6.140   1.205
 2439SOL    HW2 8217   1.790   6.195   1.155
 2440SOL     OW 8218   5.181   1.322   5.378
 2440SOL    HW1 8219   5.107   1.309   5.313
 2440SOL    HW2 8220   5.232   1.405   5.354
 2441SOL     OW 8221   6.166   0.291   0.470
 2441SOL    HW1 8222   6.174   0.372   0.528
 2441SOL    HW2 8223   6.176   0.209   0.525
 2442SOL     OW 8224   5.045   2.925   1.369
 2442SOL    HW1 8225   5.046   2.976   1.455
 2442SOL    HW2 8226   4.965   2.951   1.315
 2443SOL     OW 8227   0.960   3.122   2.040
 2443SOL    HW1 8228   0.912   3.164   2.117
 2443SOL    HW2 8229   1.004   3.193   1.985
 2444SOL     OW 8230   3.494   5.723   1.974
 2444SOL    HW1 8231   3.471   5.626   1.972
 2444SOL    HW2 8232   3.575   5.739   1.917
 2445SOL     OW 8233   0.589   2.800   1.252
 2445SOL    HW1 8234   0.623   2.833   1.340
 2445SOL    HW2 8235   0.615   2.864   1.180
 2446SOL     OW 8236   1.326   5.323   1.366
 2446SOL    HW1 8237   1.347   5.325   1.269
 2446SOL    HW2 8238   1.404   5.286   1.417
 2447SOL     OW 8239   2.600   6.728   6.993
 2447SOL    HW1 8240   2.598   6.734   6.893
 2447SOL    HW2 8241   2.526   6.783   0.011
 2448SOL     OW 8242   5.857   1.539   4.304
 2448SOL    HW1 8243   5.763   1.522   4.275
 2448SOL    HW2 8244   5.901   1.453   4.327
 2449SOL     OW 8245   1.663   4.282   1.812
 2449SOL    HW1 8246   1.693   4.235   1.895
 2449SOL    HW2 8247   1.651   4.380   1.832
 2450SOL     OW 8248   1.188   7.015   5.845
 2450SOL    HW1 8249   1.120   0.000   5.918
 2450SOL    HW2 8250   1.267   6.962   5.876
 2451SOL     OW 8251   0.579   6.263   4.672
 2451SOL    HW1 8252   0.652   6.256   4.741
 2451SOL    HW2 8253   0.529   6.177   4.668
 2452SOL     OW 8254   2.221   2.108   3.400
 2452SOL    HW1 8255   2.158   2.159   3.459
 2452SOL    HW2 8256   2.263   2.034   3.453
 2453SOL     OW 8257   0.392   0.875   6.184
 2453SOL    HW1 8258   0.446   0.901   6.265
 2453SOL    HW2 8259   0.331   0.950   6.159
 2454SOL     OW 8260   3.406   5.546   1.096
 2454SOL    HW1 8261   3.381   5.642   1.082
 2454SOL    HW2 8262   3.419   5.502   1.007
 2455SOL     OW 8263   4.064   2.783   0.662
 2455SOL    HW1 8264   4.023   2.700   0.624
 2455SOL    HW2 8265   3.992   2.846   0.690
 2456SOL     OW 8266   0.780   4.344   6.267
 2456SOL    HW1 8267   0.728   4.392   6.338
 2456SOL    HW2 8268   0.871   4.323   6.301
 2457SOL     OW 8269   4.607   2.246   5.098
 2457SOL    HW1 8270   4.676   2.214   5.032
 2457SOL    HW2 8271   4.556   2.322   5.057
 2458SOL     OW 8272   0.757   0.526   2.309
 2458SOL    HW1 8273   0.678   0.508   2.251
 2458SOL    HW2 8274   0.776   0.624   2.311
 2459SOL     OW 8275   2.744   0.166   0.470
 2459SOL    HW1 8276   2.773   0.133   0.560
 2459SOL    HW2 8277   2.647   0.188   0.472
 2460SOL     OW 8278   1.198   0.968   4.776
 2460SOL    HW1 8279   1.184   0.896   4.843
 2460SOL    HW2 8280   1.183   0.931   4.684
 2461SOL     OW 8281   4.684   0.052   3.294
 2461SOL    HW1 8282   4.711   0.142   3.326
 2461SOL    HW2 8283   4.617   0.062   3.220
 2462SOL     OW 8284   0.328   3.934   0.540
 2462SOL    HW1 8285   0.273   4.016   0.528
 2462SOL    HW2 8286   0.386   3.921   0.459
 2463SOL     OW 8287   6.841   0.630   0.140
 2463SOL    HW1 8288   6.864   0.559   0.206
 2463SOL    HW2 8289   6.811   0.588   0.055
 2464SOL     OW 8290   0.629   2.876   3.200
 2464SOL    HW1 8291   0.557   2.933   3.161
 2464SOL    HW2 8292   0.702   2.933   3.238
 2465SOL     OW 8293   6.858   6.016   5.594
 2465SOL    HW1 8294   6.955   6.011   5.571
 2465SOL    HW2 8295   6.804   5.982   5.517
 2466SOL     OW 8296   0.602   2.368   2.055
 2466SOL    HW1 8297   0.544   2.292   2.084
 2466SOL    HW2 8298   0.612   2.433   2.130
 2467SOL     OW 8299   5.809   1.873   5.322
 2467SOL    HW1 8300   5.801   1.795   5.260
 2467SOL    HW2 8301   5.828   1.841   5.415
 2468SOL     OW 8302   2.945   6.729   5.498
 2468SOL    HW1 8303   2.967   6.821   5.465
 2468SOL    HW2 8304   3.018   6.666   5.472
 2469SOL     OW 8305   3.671   2.390   5.875
 2469SOL    HW1 8306   3.597   2.371   5.941
 2469SOL    HW2 8307   3.634   2.442   5.799
 2470SOL     OW 8308   3.045   4.385   6.029
 2470SOL    HW1 8309   2.968   4.326   6.005
 2470SOL    HW2 8310   3.017   4.446   6.104
 2471SOL     OW 8311   3.270   5.671   1.721
 2471SOL    HW1 8312   3.194   5.704   1.665
 2471SOL    HW2 8313   3.356   5.682   1.671
 2472SOL     OW 8314   4.293   1.710   4.117
 2472SOL    HW1 8315   4.207   1.761   4.118
 2472SOL    HW2 8316   4.313   1.679   4.024
 2473SOL     OW 8317   0.492   4.274   4.886
 2473SOL    HW1 8318   0.408   4.258   4.835
 2473SOL    HW2 8319   0.472   4.330   4.966
 2474SOL     OW 8320   1.276   5.566   1.888
 2474SOL    HW1 8321   1.362   5.610   1.861
 2474SOL    HW2 8322   1.243   5.510   1.812
 2475SOL     OW 8323   4.619   0.895   0.845
 2475SOL    HW1 8324   4.638   0.931   0.754
 2475SOL    HW2 8325   4.523   0.913   0.869
 2476SOL     OW 8326   5.769   0.597   6.542
 2476SOL    HW1 8327   5.820   0.602   6.628
 2476SOL    HW2 8328   5.684   0.547   6.555
 2477SOL     OW 8329   3.892   0.405   3.511
 2477SOL    HW1 8330   3.988   0.393   3.483
 2477SOL    HW2 8331   3.879   0.368   3.603
 2478SOL     OW 8332   4.789   0.022   3.774
 2478SOL    HW1 8333   4.818   0.005   3.680
 2478SOL    HW2 8334   4.723   6.972   3.802
 2479SOL     OW 8335   0.030   3.787   7.000
 2479SOL    HW1 8336   0.111   3.813   0.033
 2479SOL    HW2 8337   0.028   3.688   6.988
 2480SOL     OW 8338   3.267   2.504   1.566
 2480SOL    HW1 8339   3.248   2.406   1.574
 2480SOL    HW2 8340   3.181   2.554   1.561
 2481SOL     OW 8341   3.433   0.036   0.904
 2481SOL    HW1 8342   3.467   0.088   0.982
 2481SOL    HW2 8343   3.457   6.960   0.915
 2482SOL     OW 8344   5.889   3.238   6.494
 2482SOL    HW1 8345   5.921   3.231   6.400
 2482SOL    HW2 8346   5.800   3.284   6.496
 2483SOL     OW 8347   0.876   2.738   0.679
 2483SOL    HW1 8348   0.965   2.784   0.685
 2483SOL    HW2 8349   0.813   2.779   0.745
 2484SOL     OW 8350   5.599   1.443   1.448
 2484SOL    HW1 8351   5.572   1.355   1.488
 2484SOL    HW2 8352   5.576   1.517   1.512
 2485SOL     OW 8353   6.196   2.180   6.086
 2485SOL    HW1 8354   6.107   2.224   6.092
 2485SOL    HW2 8355   6.184   2.081   6.087
 2486SOL     OW 8356   0.630   4.051   5.435
 2486SOL    HW1 8357   0.539   4.082   5.406
 2486SOL    HW2 8358   0.699   4.092   5.376
 2487SOL     OW 8359   4.509   5.924   0.363
 2487SOL    HW1 8360   4.597   5.879   0.349
 2487SOL    HW2 8361   4.507   5.965   0.454
 2488SOL     OW 8362   6.810   3.783   1.207
 2488SOL    HW1 8363   6.869   3.710   1.173
 2488SOL    HW2 8364   6.847   3.820   1.292
 2489SOL     OW 8365   0.166   6.676   4.361
 2489SOL    HW1 8366   0.225   6.596   4.366
 2489SOL    HW2 8367   0.197   6.736   4.287
 2490SOL     OW 8368   2.737   6.246   2.263
 2490SOL    HW1 8369   2.749   6.307   2.341
 2490SOL    HW2 8370   2.815   6.184   2.257
 2491SOL     OW 8371   3.870   4.751   1.319
 2491SOL    HW1 8372   3.966   4.750   1.347
 2491SOL    HW2 8373   3.832   4.843   1.335
 2492SOL     OW 8374   6.761   4.473   1.054
 2492SOL    HW1 8375   6.847   4.502   1.097
 2492SOL    HW2 8376   6.746   4.526   0.971
 2493SOL     OW 8377   6.549   6.575   1.812
 2493SOL    HW1 8378   6.599   6.534   1.889
 2493SOL    HW2 8379   6.564   6.520   1.730
 2494SOL     OW 8380   6.148   3.434   1.967
 2494SOL    HW1 8381   6.063   3.406   2.012
 2494SOL    HW2 8382   6.136   3.525   1.926
 2495SOL     OW 8383   6.689   4.900   3.798
 2495SOL    HW1 8384   6.705   4.828   3.731
 2495SOL    HW2 8385   6.686   4.861   3.890
 2496SOL     OW 8386   6.084   5.022   6.483
 2496SOL    HW1 8387   6.043   4.952   6.424
 2496SOL    HW2 8388   6.016   5.091   6.505
 2497SOL     OW 8389   0.406   0.088   1.926
 2497SOL    HW1 8390   0.496   0.071   1.967
 2497SOL    HW2 8391   0.411   0.172   1.870
 2498SOL     OW 8392   2.206   3.137   6.088
 2498SOL    HW1 8393   2.251   3.216   6.129
 2498SOL    HW2 8394   2.113   3.130   6.124
 2499SOL     OW 8395   6.687   3.304   1.550
 2499SOL    HW1 8396   6.723   3.359   1.475
 2499SOL    HW2 8397   6.592   3.329   1.568
 2500SOL     OW 8398   3.473   4.425   7.018
 2500SOL    HW1 8399   3.477   4.498   6.951
 2500SOL    HW2 8400   3.540   4.354   6.996
 2501SOL     OW 8401   6.149   5.510   0.565
 2501SOL    HW1 8402   6.197   5.435   0.520
 2501SOL    HW2 8403   6.122   5.482   0.657
 2502SOL     OW 8404   2.840   5.813   4.519
 2502SOL    HW1 8405   2.767   5.771   4.573
 2502SOL    HW2 8406   2.803   5.891   4.468
 2503SOL     OW 8407   2.497   6.848   5.920
 2503SOL    HW1 8408   2.540   6.927   5.876
 2503SOL    HW2 8409   2.428   6.809   5.858
 2504SOL     OW 8410   3.319   5.631   2.405
 2504SOL    HW1 8411   3.249   5.665   2.342
 2504SOL    HW2 8412   3.307   5.673   2.495
 2505SOL     OW 8413   0.037   5.993   2.768
 2505SOL    HW1 8414   6.969   5.991   2.815
 2505SOL    HW2 8415   0.110   6.006   2.835
 2506SOL     OW 8416   5.361   5.316   5.597
 2506SOL    HW1 8417   5.316   5.314   5.508
 2506SOL    HW2 8418   5.422   5.237   5.605
 2507SOL     OW 8419   0.116   3.366   0.582
 2507SOL    HW1 8420   0.162   3.323   0.660
 2507SOL    HW2 8421   0.023   3.392   0.609
 2508SOL     OW 8422   4.017   1.878   3.786
 2508SOL    HW1 8423   4.052   1.917   3.871
 2508SOL    HW2 8424   3.917   1.883   3.785
 2509SOL     OW 8425   6.926   3.574   5.754
 2509SOL    HW1 8426   6.910   3.497   5.692
 2509SOL    HW2 8427   6.906   3.547   5.848
 2510SOL     OW 8428   3.195   3.951   1.872
 2510SOL    HW1 8429   3.150   3.876   1.824
 2510SOL    HW2 8430   3.146   4.036   1.854
 2511SOL     OW 8431   2.153   0.912   5.306
 2511SOL    HW1 8432   2.198   0.936   5.221
 2511SOL    HW2 8433   2.187   0.970   5.380
 2512SOL     OW 8434   3.890   4.955   4.491
 2512SOL    HW1 8435   3.970   4.903   4.464
 2512SOL    HW2 8436   3.810   4.895   4.495
 2513SOL     OW 8437   2.319   6.334   6.185
 2513SOL    HW1 8438   2.298   6.432   6.182
 2513SOL    HW2 8439   2.234   6.282   6.181
 2514SOL     OW 8440   1.250   2.967   3.494
 2514SOL    HW1 8441   1.226   2.870   3.487
 2514SOL    HW2 8442   1.345   2.981   3.465
 2515SOL     OW 8443   1.703   1.559   1.440
 2515SOL    HW1 8444   1.793   1.520   1.459
 2515SOL    HW2 8445   1.653   1.499   1.378
 2516SOL     OW 8446   5.529   1.721   3.594
 2516SOL    HW1 8447   5.608   1.746   3.538
 2516SOL    HW2 8448   5.450   1.705   3.534
 2517SOL     OW 8449   0.897   0.692   4.235
 2517SOL    HW1 8450   0.874   0.787   4.212
 2517SOL    HW2 8451   0.840   0.661   4.311
 2518SOL     OW 8452   2.665   4.643   1.165
 2518SOL    HW1 8453   2.612   4.674   1.244
 2518SOL    HW2 8454   2.673   4.543   1.168
 2519SOL     OW 8455   1.952   1.266   0.450
 2519SOL    HW1 8456   1.926   1.355   0.488
 2519SOL    HW2 8457   2.024   1.225   0.506
 2520SOL     OW 8458   3.619   2.523   1.346
 2520SOL    HW1 8459   3.624   2.603   1.405
 2520SOL    HW2 8460   3.601   2.441   1.401
 2521SOL     OW 8461   4.449   1.508   5.166
 2521SOL    HW1 8462   4.425   1.585   5.225
 2521SOL    HW2 8463   4.438   1.534   5.070
 2522SOL     OW 8464   0.486   1.851   5.350
 2522SOL    HW1 8465   0.448   1.886   5.436
 2522SOL    HW2 8466   0.542   1.921   5.306
 2523SOL     OW 8467   2.065   4.645   0.001
 2523SOL    HW1 8468   1.987   4.583   0.003
 2523SOL    HW2 8469   2.095   4.657   6.926
 2524SOL     OW 8470   1.635   6.648   4.094
 2524SOL    HW1 8471   1.631   6.642   4.194
 2524SOL    HW2 8472   1.634   6.744   4.066
 2525SOL     OW 8473   0.363   2.573   4.376
 2525SOL    HW1 8474   0.342   2.666   4.346
 2525SOL    HW2 8475   0.456   2.570   4.413
 2526SOL     OW 8476   0.856   5.932   0.539
 2526SOL    HW1 8477   0.773   5.984   0.519
 2526SOL    HW2 8478   0.853   5.845   0.489
 2527SOL     OW 8479   5.029   5.243   6.654
 2527SOL    HW1 8480   5.026   5.249   6.555
 2527SOL    HW2 8481   5.115   5.282   6.687
 2528SOL     OW 8482   4.678   5.049   6.303
 2528SOL    HW1 8483   4.660   5.087   6.394
 2528SOL    HW2 8484   4.736   5.113   6.252
 2529SOL     OW 8485   0.378   6.874   6.058
 2529SOL    HW1 8486   0.464   6.860   6.008
 2529SOL    HW2 8487   0.314   6.926   6.001
 2530SOL     OW 8488   2.571   5.752   5.626
 2530SOL    HW1 8489   2.487   5.731   5.676
 2530SOL    HW2 8490   2.558   5.838   5.576
 2531SOL     OW 8491   6.410   5.597   5.873
 2531SOL    HW1 8492   6.425   5.528   5.944
 2531SOL    HW2 8493   6.343   5.664   5.905
 2532SOL     OW 8494   0.764   6.744   1.097
 2532SOL    HW1 8495   0.839   6.759   1.033
 2532SOL    HW2 8496   0.755   6.823   1.157
 2533SOL     OW 8497   5.420   0.678   2.996
 2533SOL    HW1 8498   5.499   0.729   3.029
 2533SOL    HW2 8499   5.425   0.583   3.029
 2534SOL     OW 8500   4.909   1.946   1.991
 2534SOL    HW1 8501   4.973   2.019   2.012
 2534SOL    HW2 8502   4.955   1.874   1.939
 2535SOL     OW 8503   3.579   2.912   6.140
 2535SOL    HW1 8504   3.513   2.882   6.070
 2535SOL    HW2 8505   3.656   2.958   6.095
 2536SOL     OW 8506   1.480   0.884   6.723
 2536SOL    HW1 8507   1.491   0.854   6.629
 2536SOL    HW2 8508   1.510   0.978   6.733
 2537SOL     OW 8509   4.208   1.340   0.047
 2537SOL    HW1 8510   4.177   1.403   6.995
 2537SOL    HW2 8511   4.249   1.259   0.005
 2538SOL     OW 8512   6.787   3.873   3.773
 2538SOL    HW1 8513   6.741   3.926   3.844
 2538SOL    HW2 8514   6.885   3.891   3.776
 2539SOL     OW 8515   5.435   1.271   4.358
 2539SOL    HW1 8516   5.357   1.301   4.303
 2539SOL    HW2 8517   5.457   1.176   4.335
 2540SOL     OW 8518   3.687   1.765   2.846
 2540SOL    HW1 8519   3.768   1.718   2.879
 2540SOL    HW2 8520   3.693   1.862   2.870
 2541SOL     OW 8521   3.189   6.612   5.464
 2541SOL    HW1 8522   3.239   6.694   5.437
 2541SOL    HW2 8523   3.206   6.539   5.399
 2542SOL     OW 8524   1.277   4.693   6.833
 2542SOL    HW1 8525   1.216   4.768   6.859
 2542SOL    HW2 8526   1.366   4.730   6.809
 2543SOL     OW 8527   0.857   2.131   4.524
 2543SOL    HW1 8528   0.953   2.150   4.502
 2543SOL    HW2 8529   0.800   2.150   4.445
 2544SOL     OW 8530   1.241   5.204   0.425
 2544SOL    HW1 8531   1.210   5.253   0.344
 2544SOL    HW2 8532   1.339   5.217   0.436
 2545SOL     OW 8533   1.993   6.283   3.038
 2545SOL    HW1 8534   1.977   6.200   3.091
 2545SOL    HW2 8535   1.928   6.288   2.962
 2546SOL     OW 8536   6.143   1.380   0.723
 2546SOL    HW1 8537   6.200   1.300   0.744
 2546SOL    HW2 8538   6.109   1.419   0.808
 2547SOL     OW 8539   6.788   3.821   5.331
 2547SOL    HW1 8540   6.855   3.748   5.316
 2547SOL    HW2 8541   6.705   3.801   5.280
 2548SOL     OW 8542   0.089   6.498   4.095
 2548SOL    HW1 8543   0.170   6.540   4.053
 2548SOL    HW2 8544   0.035   6.570   4.139
 2549SOL     OW 8545   0.473   0.638   1.773
 2549SOL    HW1 8546   0.469   0.631   1.674
 2549SOL    HW2 8547   0.405   0.576   1.814
 2550SOL     OW 8548   5.767   6.347   0.411
 2550SOL    HW1 8549   5.825   6.345   0.493
 2550SOL    HW2 8550   5.785   6.430   0.359
 2551SOL     OW 8551   2.143   4.028   6.923
 2551SOL    HW1 8552   2.199   4.066   6.849
 2551SOL    HW2 8553   2.060   3.988   6.885
 2552SOL     OW 8554   3.035   5.158   3.708
 2552SOL    HW1 8555   2.985   5.244   3.697
 2552SOL    HW2 8556   3.010   5.115   3.794
 2553SOL     OW 8557   4.397   3.426   5.914
 2553SOL    HW1 8558   4.383   3.347   5.855
 2553SOL    HW2 8559   4.485   3.469   5.894
 2554SOL     OW 8560   1.480   1.995   0.816
 2554SOL    HW1 8561   1.473   1.966   0.912
 2554SOL    HW2 8562   1.567   2.044   0.803
 2555SOL     OW 8563   5.214   2.621   5.271
 2555SOL    HW1 8564   5.139   2.675   5.309
 2555SOL    HW2 8565   5.181   2.566   5.194
 2556SOL     OW 8566   3.865   5.782   0.943
 2556SOL    HW1 8567   3.932   5.786   1.017
 2556SOL    HW2 8568   3.816   5.695   0.948
 2557SOL     OW 8569   2.131   4.118   6.227
 2557SOL    HW1 8570   2.119   4.184   6.301
 2557SOL    HW2 8571   2.063   4.135   6.157
 2558SOL     OW 8572   4.623   1.182   5.691
 2558SOL    HW1 8573   4.606   1.235   5.608
 2558SOL    HW2 8574   4.540   1.178   5.746
 2559SOL     OW 8575   0.402   5.009   5.560
 2559SOL    HW1 8576   0.365   5.022   5.467
 2559SOL    HW2 8577   0.488   4.959   5.555
 2560SOL     OW 8578   5.812   1.694   5.833
 2560SOL    HW1 8579   5.839   1.782   5.872
 2560SOL    HW2 8580   5.731   1.660   5.881
 2561SOL     OW 8581   2.598   5.450   4.865
 2561SOL    HW1 8582   2.501   5.468   4.879
 2561SOL    HW2 8583   2.637   5.408   4.947
 2562SOL     OW 8584   1.973   3.577   0.400
 2562SOL    HW1 8585   1.993   3.646   0.331
 2562SOL    HW2 8586   2.057   3.527   0.423
 2563SOL     OW 8587   2.487   1.414   0.115
 2563SOL    HW1 8588   2.427   1.374   0.046
 2563SOL    HW2 8589   2.436   1.479   0.171
 2564SOL     OW 8590   2.054   4.961   1.595
 2564SOL    HW1 8591   2.137   4.937   1.544
 2564SOL    HW2 8592   2.045   4.900   1.673
 2565SOL     OW 8593   1.279   0.876   1.508
 2565SOL    HW1 8594   1.205   0.889   1.573
 2565SOL    HW2 8595   1.335   0.959   1.504
 2566SOL     OW 8596   2.202   6.659   6.849
 2566SOL    HW1 8597   2.232   6.750   6.874
 2566SOL    HW2 8598   2.268   6.591   6.881
 2567SOL     OW 8599   1.927   6.787   0.417
 2567SOL    HW1 8600   1.875   6.718   0.367
 2567SOL    HW2 8601   1.870   6.828   0.488
 2568SOL     OW 8602   4.232   2.084   0.132
 2568SOL    HW1 8603   4.263   2.178   0.121
 2568SOL    HW2 8604   4.146   2.071   0.081
 2569SOL     OW 8605   3.812   0.287   3.761
 2569SOL    HW1 8606   3.777   0.340   3.839
 2569SOL    HW2 8607   3.763   0.201   3.754
 2570SOL     OW 8608   5.635   1.688   6.196
 2570SOL    HW1 8609   5.601   1.778   6.222
 2570SOL    HW2 8610   5.598   1.662   6.107
 2571SOL     OW 8611   1.603   4.819   3.682
 2571SOL    HW1 8612   1.511   4.803   3.717
 2571SOL    HW2 8613   1.669   4.814   3.757
 2572SOL     OW 8614   2.834   5.121   3.335
 2572SOL    HW1 8615   2.829   5.207   3.386
 2572SOL    HW2 8616   2.741   5.089   3.317
 2573SOL     OW 8617   0.097   0.800   1.142
 2573SOL    HW1 8618   0.009   0.788   1.188
 2573SOL    HW2 8619   0.120   0.897   1.138
 2574SOL     OW 8620   6.020   3.372   0.655
 2574SOL    HW1 8621   5.926   3.406   0.659
 2574SOL    HW2 8622   6.019   3.274   0.637
 2575SOL     OW 8623   6.804   5.884   6.683
 2575SOL    HW1 8624   6.822   5.957   6.617
 2575SOL    HW2 8625   6.709   5.890   6.715
 2576SOL     OW 8626   5.360   5.942   3.860
 2576SOL    HW1 8627   5.334   5.849   3.882
 2576SOL    HW2 8628   5.298   6.006   3.905
 2577SOL     OW 8629   2.820   4.804   2.395
 2577SOL    HW1 8630   2.775   4.777   2.310
 2577SOL    HW2 8631   2.919   4.807   2.381
 2578SOL     OW 8632   3.809   1.661   3.673
 2578SOL    HW1 8633   3.758   1.575   3.674
 2578SOL    HW2 8634   3.747   1.736   3.652
 2579SOL     OW 8635   0.460   6.904   3.690
 2579SOL    HW1 8636   0.410   6.958   3.758
 2579SOL    HW2 8637   0.422   6.921   3.599
 2580SOL     OW 8638   2.413   2.937   6.975
 2580SOL    HW1 8639   2.314   2.944   6.964
 2580SOL    HW2 8640   2.438   2.841   6.985
 2581SOL     OW 8641   2.505   0.235   5.637
 2581SOL    HW1 8642   2.594   0.200   5.608
 2581SOL    HW2 8643   2.457   0.274   5.559
 2582SOL     OW 8644   6.781   3.458   1.348
 2582SOL    HW1 8645   6.831   3.536   1.387
 2582SOL    HW2 8646   6.818   3.436   1.258
 2583SOL     OW 8647   6.131   6.589   0.978
 2583SOL    HW1 8648   6.123   6.646   1.060
 2583SOL    HW2 8649   6.153   6.647   0.900
 2584SOL     OW 8650   4.591   4.639   5.308
 2584SOL    HW1 8651   4.647   4.650   5.226
 2584SOL    HW2 8652   4.650   4.627   5.388
 2585SOL     OW 8653   3.208   5.212   6.623
 2585SOL    HW1 8654   3.178   5.125   6.586
 2585SOL    HW2 8655   3.154   5.234   6.705
 2586SOL     OW 8656   1.408   0.772   5.097
 2586SOL    HW1 8657   1.434   0.685   5.056
 2586SOL    HW2 8658   1.435   0.773   5.194
 2587SOL     OW 8659   6.580   1.827   3.239
 2587SOL    HW1 8660   6.525   1.756   3.196
 2587SOL    HW2 8661   6.615   1.795   3.327
 2588SOL     OW 8662   4.451   1.525   4.899
 2588SOL    HW1 8663   4.360   1.558   4.874
 2588SOL    HW2 8664   4.519   1.561   4.835
 2589SOL     OW 8665   1.419   6.911   0.320
 2589SOL    HW1 8666   1.495   6.864   0.275
 2589SOL    HW2 8667   1.338   6.853   0.316
 2590SOL     OW 8668   2.523   5.373   0.049
 2590SOL    HW1 8669   2.598   5.408   0.106
 2590SOL    HW2 8670   2.477   5.449   0.003
 2591SOL     OW 8671   6.056   5.322   4.301
 2591SOL    HW1 8672   5.988   5.285   4.237
 2591SOL    HW2 8673   6.072   5.255   4.375
 2592SOL     OW 8674   2.977   4.764   6.629
 2592SOL    HW1 8675   2.936   4.679   6.596
 2592SOL    HW2 8676   2.906   4.833   6.640
 2593SOL     OW 8677   2.622   4.681   0.758
 2593SOL    HW1 8678   2.561   4.658   0.682
 2593SOL    HW2 8679   2.624   4.606   0.824
 2594SOL     OW 8680   2.082   4.357   4.395
 2594SOL    HW1 8681   2.168   4.350   4.344
 2594SOL    HW2 8682   2.085   4.294   4.473
 2595SOL     OW 8683   2.068   0.382   3.617
 2595SOL    HW1 8684   2.101   0.416   3.529
 2595SOL    HW2 8685   2.001   0.310   3.602
 2596SOL     OW 8686   0.961   2.085   0.222
 2596SOL    HW1 8687   0.923   2.150   0.156
 2596SOL    HW2 8688   0.888   2.044   0.276
 2597SOL     OW 8689   0.410   6.134   6.455
 2597SOL    HW1 8690   0.338   6.198   6.481
 2597SOL    HW2 8691   0.382   6.041   6.482
 2598SOL     OW 8692   5.739   2.541   2.558
 2598SOL    HW1 8693   5.836   2.558   2.576
 2598SOL    HW2 8694   5.728   2.449   2.520
 2599SOL     OW 8695   2.447   0.073   2.320
 2599SOL    HW1 8696   2.523   0.039   2.375
 2599SOL    HW2 8697   2.476   0.082   2.225
 2600SOL     OW 8698   6.275   3.963   4.256
 2600SOL    HW1 8699   6.358   3.999   4.212
 2600SOL    HW2 8700   6.195   4.006   4.215
 2601SOL     OW 8701   0.685   2.042   2.812
 2601SOL    HW1 8702   0.766   2.031   2.754
 2601SOL    HW2 8703   0.628   1.960   2.806
 2602SOL     OW 8704   2.135   5.472   4.021
 2602SOL    HW1 8705   2.077   5.435   3.948
 2602SOL    HW2 8706   2.205   5.531   3.982
 2603SOL     OW 8707   2.970   0.815   2.909
 2603SOL    HW1 8708   3.024   0.898   2.925
 2603SOL    HW2 8709   3.030   0.743   2.874
 2604SOL     OW 8710   4.809   2.092   2.875
 2604SOL    HW1 8711   4.856   2.165   2.924
 2604SOL    HW2 8712   4.726   2.128   2.833
 2605SOL     OW 8713   1.127   3.911   1.896
 2605SOL    HW1 8714   1.048   3.960   1.933
 2605SOL    HW2 8715   1.115   3.899   1.797
 2606SOL     OW 8716   4.273   4.052   0.835
 2606SOL    HW1 8717   4.320   4.116   0.896
 2606SOL    HW2 8718   4.246   3.971   0.886
 2607SOL     OW 8719   2.604   2.105   1.080
 2607SOL    HW1 8720   2.703   2.115   1.075
 2607SOL    HW2 8721   2.563   2.126   0.991
 2608SOL     OW 8722   2.578   5.577   6.452
 2608SOL    HW1 8723   2.563   5.645   6.380
 2608SOL    HW2 8724   2.618   5.495   6.412
 2609SOL     OW 8725   6.932   0.537   1.255
 2609SOL    HW1 8726   6.890   0.626   1.242
 2609SOL    HW2 8727   6.865   0.474   1.293
 2610SOL     OW 8728   1.397   4.942   4.440
 2610SOL    HW1 8729   1.325   4.885   4.399
 2610SOL    HW2 8730   1.486   4.903   4.418
 2611SOL     OW 8731   5.177   6.559   6.412
 2611SOL    HW1 8732   5.136   6.503   6.341
 2611SOL    HW2 8733   5.112   6.570   6.488
 2612SOL     OW 8734   6.053   0.196   5.732
 2612SOL    HW1 8735   6.080   0.257   5.658
 2612SOL    HW2 8736   5.993   0.245   5.796
 2613SOL     OW 8737   1.346   5.698   6.930
 2613SOL    HW1 8738   1.353   5.744   6.842
 2613SOL    HW2 8739   1.422   5.727   6.989
 2614SOL     OW 8740   0.096   1.432   6.982
 2614SOL    HW1 8741   0.122   1.480   0.046
 2614SOL    HW2 8742   7.016   1.424   6.978
 2615SOL     OW 8743   1.028   2.988   0.023
 2615SOL    HW1 8744   0.989   3.067   6.996
 2615SOL    HW2 8745   0.964   2.957   0.093
 2616SOL     OW 8746   1.343   0.571   5.565
 2616SOL    HW1 8747   1.268   0.506   5.575
 2616SOL    HW2 8748   1.394   0.576   5.650
 2617SOL     OW 8749   5.171   0.050   0.946
 2617SOL    HW1 8750   5.204   0.072   0.854
 2617SOL    HW2 8751   5.234   7.005   0.989
 2618SOL     OW 8752   2.256   6.610   6.231
 2618SOL    HW1 8753   2.191   6.671   6.276
 2618SOL    HW2 8754   2.223   6.588   6.139
 2619SOL     OW 8755   4.810   1.126   2.433
 2619SOL    HW1 8756   4.875   1.110   2.507
 2619SOL    HW2 8757   4.837   1.074   2.353
 2620SOL     OW 8758   6.531   6.728   1.109
 2620SOL    HW1 8759   6.617   6.743   1.159
 2620SOL    HW2 8760   6.454   6.748   1.169
 2621SOL     OW 8761   2.026   5.915   2.339
 2621SOL    HW1 8762   2.028   6.008   2.376
 2621SOL    HW2 8763   2.023   5.849   2.414
 2622SOL     OW 8764   3.716   3.456   6.232
 2622SOL    HW1 8765   3.776   3.473   6.153
 2622SOL    HW2 8766   3.669   3.369   6.219
 2623SOL     OW 8767   0.657   6.709   3.706
 2623SOL    HW1 8768   0.748   6.729   3.668
 2623SOL    HW2 8769   0.601   6.791   3.702
 2624SOL     OW 8770   0.070   2.247   4.356
 2624SOL    HW1 8771   0.143   2.265   4.290
 2624SOL    HW2 8772   0.056   2.148   4.364
 2625SOL     OW 8773   1.531   5.442   5.800
 2625SOL    HW1 8774   1.458   5.450   5.868
 2625SOL    HW2 8775   1.583   5.357   5.817
 2626SOL     OW 8776   6.953   5.326   6.142
 2626SOL    HW1 8777   6.913   5.237   6.119
 2626SOL    HW2 8778   6.887   5.379   6.197
 2627SOL     OW 8779   1.585   6.764   5.723
 2627SOL    HW1 8780   1.608   6.857   5.696
 2627SOL    HW2 8781   1.651   6.700   5.683
 2628SOL     OW 8782   0.666   4.547   1.928
 2628SOL    HW1 8783   0.679   4.524   1.832
 2628SOL    HW2 8784   0.658   4.647   1.937
 2629SOL     OW 8785   3.104   3.808   3.575
 2629SOL    HW1 8786   3.193   3.773   3.544
 2629SOL    HW2 8787   3.041   3.732   3.589
 2630SOL     OW 8788   3.894   0.791   3.925
 2630SOL    HW1 8789   3.952   0.856   3.877
 2630SOL    HW2 8790   3.924   0.783   4.020
 2631SOL     OW 8791   5.849   0.764   0.404
 2631SOL    HW1 8792   5.878   0.668   0.407
 2631SOL    HW2 8793   5.751   0.768   0.382
 2632SOL     OW 8794   5.575   4.082   2.256
 2632SOL    HW1 8795   5.566   4.180   2.239
 2632SOL    HW2 8796   5.505   4.053   2.321
 2633SOL     OW 8797   0.254   2.978   6.153
 2633SOL    HW1 8798   0.200   2.903   6.191
 2633SOL    HW2 8799   0.204   3.018   6.075
 2634SOL     OW 8800   6.538   0.741   5.652
 2634SOL    HW1 8801   6.476   0.697   5.717
 2634SOL    HW2 8802   6.520   0.706   5.560
 2635SOL     OW 8803   5.439   5.060   3.749
 2635SOL    HW1 8804   5.405   4.987   3.808
 2635SOL    HW2 8805   5.534   5.082   3.774
 2636SOL     OW 8806   3.755   6.644   5.480
 2636SOL    HW1 8807   3.665   6.602   5.485
 2636SOL    HW2 8808   3.753   6.732   5.528
 2637SOL     OW 8809   1.094   1.760   3.364
 2637SOL    HW1 8810   1.010   1.714   3.394
 2637SOL    HW2 8811   1.082   1.859   3.373
 2638SOL     OW 8812   0.931   6.552   4.409
 2638SOL    HW1 8813   0.962   6.615   4.337
 2638SOL    HW2 8814   0.996   6.477   4.419
 2639SOL     OW 8815   4.168   4.686   5.352
 2639SOL    HW1 8816   4.084   4.632   5.343
 2639SOL    HW2 8817   4.172   4.728   5.442
 2640SOL     OW 8818   1.004   6.585   4.689
 2640SOL    HW1 8819   0.975   6.576   4.594
 2640SOL    HW2 8820   1.104   6.588   4.693
 2641SOL     OW 8821   5.636   2.742   6.512
 2641SOL    HW1 8822   5.735   2.759   6.520
 2641SOL    HW2 8823   5.594   2.814   6.457
 2642SOL     OW 8824   6.437   1.397   3.613
 2642SOL    HW1 8825   6.406   1.488   3.585
 2642SOL    HW2 8826   6.433   1.391   3.713
 2643SOL     OW 8827   2.142   4.674   3.445
 2643SOL    HW1 8828   2.211   4.741   3.417
 2643SOL    HW2 8829   2.069   4.670   3.377
 2644SOL     OW 8830   4.975   4.973   4.455
 2644SOL    HW1 8831   4.932   4.885   4.476
 2644SOL    HW2 8832   4.932   5.012   4.374
 2645SOL     OW 8833   5.017   5.573   2.772
 2645SOL    HW1 8834   4.963   5.500   2.731
 2645SOL    HW2 8835   4.971   5.605   2.855
 2646SOL     OW 8836   0.446   2.889   6.695
 2646SOL    HW1 8837   0.448   2.934   6.605
 2646SOL    HW2 8838   0.447   2.790   6.683
 2647SOL     OW 8839   5.172   0.838   1.595
 2647SOL    HW1 8840   5.175   0.937   1.578
 2647SOL    HW2 8841   5.175   0.822   1.694
 2648SOL     OW 8842   1.172   0.099   6.306
 2648SOL    HW1 8843   1.094   0.050   6.345
 2648SOL    HW2 8844   1.225   0.037   6.248
 2649SOL     OW 8845   5.071   2.162   2.033
 2649SOL    HW1 8846   5.098   2.102   2.108
 2649SOL    HW2 8847   5.147   2.223   2.010
 2650SOL     OW 8848   3.036   6.279   4.509
 2650SOL    HW1 8849   2.997   6.370   4.499
 2650SOL    HW2 8850   3.066   6.265   4.603
 2651SOL     OW 8851   4.000   2.067   4.559
 2651SOL    HW1 8852   3.975   2.092   4.652
 2651SOL    HW2 8853   4.074   2.127   4.527
 2652SOL     OW 8854   4.625   4.814   5.618
 2652SOL    HW1 8855   4.648   4.726   5.576
 2652SOL    HW2 8856   4.630   4.806   5.717
 2653SOL     OW 8857   2.560   5.715   0.272
 2653SOL    HW1 8858   2.607   5.801   0.289
 2653SOL    HW2 8859   2.622   5.651   0.227
 2654SOL     OW 8860   6.646   0.736   0.420
 2654SOL    HW1 8861   6.714   0.792   0.373
 2654SOL    HW2 8862   6.568   0.792   0.446
 2655SOL     OW 8863   4.876   6.169   2.526
 2655SOL    HW1 8864   4.947   6.100   2.538
 2655SOL    HW2 8865   4.894   6.245   2.588
 2656SOL     OW 8866   3.965   6.106   3.027
 2656SOL    HW1 8867   3.923   6.193   3.053
 2656SOL    HW2 8868   4.018   6.118   2.943
 2657SOL     OW 8869   1.513   4.037   0.169
 2657SOL    HW1 8870   1.490   3.956   0.222
 2657SOL    HW2 8871   1.555   4.105   0.228
 2658SOL     OW 8872   3.961   5.391   6.675
 2658SOL    HW1 8873   3.890   5.327   6.646
 2658SOL    HW2 8874   4.049   5.344   6.676
 2659SOL     OW 8875   0.085   2.102   4.629
 2659SOL    HW1 8876   0.182   2.109   4.651
 2659SOL    HW2 8877   0.069   2.016   4.580
 2660SOL     OW 8878   0.780   2.310   2.364
 2660SOL    HW1 8879   0.861   2.268   2.404
 2660SOL    HW2 8880   0.708   2.242   2.354
 2661SOL     OW 8881   1.504   1.112   0.468
 2661SOL    HW1 8882   1.577   1.047   0.448
 2661SOL    HW2 8883   1.434   1.107   0.397
 2662SOL     OW 8884   2.102   0.747   2.081
 2662SOL    HW1 8885   2.009   0.782   2.089
 2662SOL    HW2 8886   2.166   0.815   2.116
 2663SOL     OW 8887   4.400   6.445   0.874
 2663SOL    HW1 8888   4.432   6.446   0.779
 2663SOL    HW2 8889   4.391   6.539   0.906
 2664SOL     OW 8890   4.554   3.702   5.491
 2664SOL    HW1 8891   4.560   3.800   5.506
 2664SOL    HW2 8892   4.638   3.658   5.523
 2665SOL     OW 8893   2.096   3.938   4.397
 2665SOL    HW1 8894   2.106   3.843   4.426
 2665SOL    HW2 8895   2.007   3.973   4.425
 2666SOL     OW 8896   1.672   3.550   1.986
 2666SOL    HW1 8897   1.635   3.603   2.062
 2666SOL    HW2 8898   1.737   3.607   1.935
 2667SOL     OW 8899   6.657   3.452   4.626
 2667SOL    HW1 8900   6.690   3.362   4.656
 2667SOL    HW2 8901   6.678   3.520   4.697
 2668SOL     OW 8902   6.209   0.753   3.872
 2668SOL    HW1 8903   6.167   0.749   3.963
 2668SOL    HW2 8904   6.230   0.660   3.841
 2669SOL     OW 8905   2.567   0.391   0.106
 2669SOL    HW1 8906   2.647   0.351   0.150
 2669SOL    HW2 8907   2.591   0.420   0.013
 2670SOL     OW 8908   0.016   6.882   6.569
 2670SOL    HW1 8909   6.992   6.840   6.649
 2670SOL    HW2 8910   6.966   6.904   6.501
 2671SOL     OW 8911   4.957   4.508   6.209
 2671SOL    HW1 8912   4.858   4.496   6.210
 2671SOL    HW2 8913   5.000   4.428   6.167
 2672SOL     OW 8914   3.377   0.612   1.810
 2672SOL    HW1 8915   3.353   0.704   1.779
 2672SOL    HW2 8916   3.344   0.545   1.744
 2673SOL     OW 8917   4.228   0.293   2.702
 2673SOL    HW1 8918   4.279   0.379   2.711
 2673SOL    HW2 8919   4.167   0.282   2.780
 2674SOL     OW 8920   0.162   4.911   2.021
 2674SOL    HW1 8921   0.087   4.907   2.088
 2674SOL    HW2 8922   0.250   4.909   2.069
 2675SOL     OW 8923   5.573   6.975   4.165
 2675SOL    HW1 8924   5.640   6.924   4.219
 2675SOL    HW2 8925   5.507   7.019   4.227
 2676SOL     OW 8926   3.745   3.895   2.889
 2676SOL    HW1 8927   3.654   3.923   2.921
 2676SOL    HW2 8928   3.815   3.935   2.949
 2677SOL     OW 8929   2.481   4.747   1.362
 2677SOL    HW1 8930   2.439   4.748   1.272
 2677SOL    HW2 8931   2.410   4.754   1.432
 2678SOL     OW 8932   4.347   1.616   2.784
 2678SOL    HW1 8933   4.297   1.543   2.738
 2678SOL    HW2 8934   4.424   1.645   2.727
 2679SOL     OW 8935   2.217   4.085   3.093
 2679SOL    HW1 8936   2.229   4.113   3.188
 2679SOL    HW2 8937   2.204   4.166   3.036
 2680SOL     OW 8938   6.353   1.144   0.427
 2680SOL    HW1 8939   6.431   1.140   0.365
 2680SOL    HW2 8940   6.373   1.206   0.502
 2681SOL     OW 8941   1.927   1.720   4.900
 2681SOL    HW1 8942   1.929   1.645   4.834
 2681SOL    HW2 8943   1.922   1.807   4.852
 2682SOL     OW 8944   4.106   3.943   1.750
 2682SOL    HW1 8945   4.075   4.016   1.689
 2682SOL    HW2 8946   4.032   3.878   1.765
 2683SOL     OW 8947   2.471   4.497   2.270
 2683SOL    HW1 8948   2.423   4.585   2.277
 2683SOL    HW2 8949   2.568   4.513   2.256
 2684SOL     OW 8950   6.486   6.598   3.567
 2684SOL    HW1 8951   6.489   6.534   3.644
 2684SOL    HW2 8952   6.400   6.650   3.569
 2685SOL     OW 8953   1.501   5.722   5.751
 2685SOL    HW1 8954   1.588   5.673   5.756
 2685SOL    HW2 8955   1.426   5.659   5.771
 2686SOL     OW 8956   0.835   1.570   5.067
 2686SOL    HW1 8957   0.892   1.539   5.143
 2686SOL    HW2 8958   0.789   1.655   5.092
 2687SOL     OW 8959   3.934   1.777   1.587
 2687SOL    HW1 8960   3.870   1.702   1.604
 2687SOL    HW2 8961   3.988   1.756   1.506
 2688SOL     OW 8962   3.941   2.939   6.246
 2688SOL    HW1 8963   4.022   2.899   6.289
 2688SOL    HW2 8964   3.959   2.955   6.149
 2689SOL     OW 8965   0.970   3.835   3.253
 2689SOL    HW1 8966   0.999   3.918   3.205
 2689SOL    HW2 8967   0.975   3.849   3.352
 2690SOL     OW 8968   4.148   1.622   5.915
 2690SOL    HW1 8969   4.106   1.625   6.006
 2690SOL    HW2 8970   4.186   1.711   5.892
 2691SOL     OW 8971   6.748   4.142   3.944
 2691SOL    HW1 8972   6.661   4.160   3.897
 2691SOL    HW2 8973   6.824   4.165   3.883
 2692SOL     OW 8974   2.935   5.711   2.379
 2692SOL    HW1 8975   3.014   5.677   2.328
 2692SOL    HW2 8976   2.965   5.777   2.448
 2693SOL     OW 8977   1.900   5.712   3.104
 2693SOL    HW1 8978   1.897   5.811   3.115
 2693SOL    HW2 8979   1.933   5.691   3.012
 2694SOL     OW 8980   3.169   0.366   3.036
 2694SOL    HW1 8981   3.258   0.396   3.070
 2694SOL    HW2 8982   3.115   0.329   3.112
 2695SOL     OW 8983   6.993   5.605   2.971
 2695SOL    HW1 8984   0.022   5.675   3.024
 2695SOL    HW2 8985   6.920   5.566   3.027
 2696SOL     OW 8986   5.503   4.539   6.097
 2696SOL    HW1 8987   5.525   4.445   6.069
 2696SOL    HW2 8988   5.484   4.594   6.016
 2697SOL     OW 8989   4.356   2.327   0.091
 2697SOL    HW1 8990   4.446   2.345   0.050
 2697SOL    HW2 8991   4.288   2.386   0.049
 2698SOL     OW 8992   1.683   4.259   6.308
 2698SOL    HW1 8993   1.664   4.233   6.403
 2698SOL    HW2 8994   1.682   4.178   6.250
 2699SOL     OW 8995   3.012   6.217   1.970
 2699SOL    HW1 8996   2.924   6.249   1.937
 2699SOL    HW2 8997   2.999   6.158   2.050
 2700SOL     OW 8998   3.675   1.668   1.876
 2700SOL    HW1 8999   3.675   1.766   1.899
 2700SOL    HW2 9000   3.718   1.655   1.787
 2701SOL     OW 9001   5.111   2.856   4.919
 2701SOL    HW1 9002   5.187   2.909   4.882
 2701SOL    HW2 9003   5.102   2.771   4.867
 2702SOL     OW 9004   2.696   1.074   4.706
 2702SOL    HW1 9005   2.724   1.096   4.800
 2702SOL    HW2 9006   2.760   1.009   4.666
 2703SOL     OW 9007   1.524   6.557   2.601
 2703SOL    HW1 9008   1.465   6.580   2.678
 2703SOL    HW2 9009   1.468   6.527   2.524
 2704SOL     OW 9010   5.148   0.283   3.867
 2704SOL    HW1 9011   5.078   0.273   3.937
 2704SOL    HW2 9012   5.234   0.245   3.900
 2705SOL     OW 9013   0.082   0.345   5.419
 2705SOL    HW1 9014   0.070   0.443   5.404
 2705SOL    HW2 9015   0.106   0.328   5.514
 2706SOL     OW 9016   6.961   3.588   3.555
 2706SOL    HW1 9017   6.887   3.564   3.493
 2706SOL    HW2 9018   6.928   3.586   3.649
 2707SOL     OW 9019   3.984   0.966   3.233
 2707SOL    HW1 9020   3.896   0.960   3.185
 2707SOL    HW2 9021   4.052   0.910   3.186
 2708SOL     OW 9022   6.150   3.336   6.596
 2708SOL    HW1 9023   6.068   3.297   6.556
 2708SOL    HW2 9024   6.221   3.346   6.526
 2709SOL     OW 9025   5.054   1.261   5.160
 2709SOL    HW1 9026   4.961   1.225   5.150
 2709SOL    HW2 9027   5.059   1.351   5.118
 2710SOL     OW 9028   1.216   2.751   4.117
 2710SOL    HW1 9029   1.263   2.772   4.031
 2710SOL    HW2 9030   1.277   2.772   4.194
 2711SOL     OW 9031   3.304   1.336   1.813
 2711SOL    HW1 9032   3.315   1.434   1.800
 2711SOL    HW2 9033   3.393   1.291   1.798
 2712SOL     OW 9034   4.018   5.803   1.927
 2712SOL    HW1 9035   3.952   5.750   1.873
 2712SOL    HW2 9036   3.983   5.895   1.942
 2713SOL     OW 9037   3.981   4.802   6.199
 2713SOL    HW1 9038   3.934   4.886   6.173
 2713SOL    HW2 9039   4.046   4.776   6.127
 2714SOL     OW 9040   2.633   4.676   6.234
 2714SOL    HW1 9041   2.566   4.603   6.220
 2714SOL    HW2 9042   2.609   4.755   6.177
 2715SOL     OW 9043   4.156   0.943   6.637
 2715SOL    HW1 9044   4.102   0.868   6.601
 2715SOL    HW2 9045   4.242   0.951   6.586
 2716SOL     OW 9046   3.416   1.268   3.267
 2716SOL    HW1 9047   3.454   1.337   3.328
 2716SOL    HW2 9048   3.366   1.312   3.193
 2717SOL     OW 9049   0.885   1.147   2.563
 2717SOL    HW1 9050   0.838   1.064   2.593
 2717SOL    HW2 9051   0.982   1.129   2.554
 2718SOL     OW 9052   6.852   0.906   5.942
 2718SOL    HW1 9053   6.794   0.873   5.868
 2718SOL    HW2 9054   6.897   0.990   5.914
 2719SOL     OW 9055   1.992   4.247   2.147
 2719SOL    HW1 9056   1.982   4.180   2.220
 2719SOL    HW2 9057   1.928   4.226   2.073
 2720SOL     OW 9058   2.505   6.714   6.696
 2720SOL    HW1 9059   2.595   6.757   6.704
 2720SOL    HW2 9060   2.515   6.615   6.700
 2721SOL     OW 9061   3.184   6.121   1.568
 2721SOL    HW1 9062   3.089   6.147   1.551
 2721SOL    HW2 9063   3.198   6.104   1.666
 2722SOL     OW 9064   4.280   6.583   0.456
 2722SOL    HW1 9065   4.225   6.592   0.539
 2722SOL    HW2 9066   4.225   6.606   0.376
 2723SOL     OW 9067   3.288   6.323   6.273
 2723SOL    HW1 9068   3.340   6.297   6.354
 2723SOL    HW2 9069   3.311   6.262   6.197
 2724SOL     OW 9070   1.126   6.422   0.914
 2724SOL    HW1 9071   1.057   6.407   0.842
 2724SOL    HW2 9072   1.160   6.516   0.909
 2725SOL     OW 9073   6.250   4.078   5.031
 2725SOL    HW1 9074   6.191   4.156   5.013
 2725SOL    HW2 9075   6.206   3.995   4.997
 2726SOL     OW 9076   6.643   2.027   2.083
 2726SOL    HW1 9077   6.585   2.108   2.081
 2726SOL    HW2 9078   6.617   1.966   2.008
 2727SOL     OW 9079   1.960   5.041   3.875
 2727SOL    HW1 9080   1.863   5.031   3.900
 2727SOL    HW2 9081   2.007   4.954   3.889
 2728SOL     OW 9082   5.204   4.998   5.740
 2728SOL    HW1 9083   5.179   5.089   5.772
 2728SOL    HW2 9084   5.241   4.944   5.816
 2729SOL     OW 9085   5.401   6.741   6.386
 2729SOL    HW1 9086   5.475   6.715   6.447
 2729SOL    HW2 9087   5.319   6.688   6.408
 2730SOL     OW 9088   0.834   6.106   1.845
 2730SOL    HW1 9089   0.836   6.073   1.939
 2730SOL    HW2 9090   0.779   6.189   1.840
 2731SOL     OW 9091   3.509   3.594   4.053
 2731SOL    HW1 9092   3.428   3.645   4.021
 2731SOL    HW2 9093   3.524   3.614   4.150
 2732SOL     OW 9094   5.579   0.969   1.848
 2732SOL    HW1 9095   5.676   0.975   1.827
 2732SOL    HW2 9096   5.534   0.911   1.780
 2733SOL     OW 9097   1.239   6.723   6.822
 2733SOL    HW1 9098   1.229   6.637   6.872
 2733SOL    HW2 9099   1.263   6.796   6.885
 2734SOL     OW 9100   3.533   6.320   1.780
 2734SOL    HW1 9101   3.477   6.312   1.698
 2734SOL    HW2 9102   3.475   6.313   1.861
 2735SOL     OW 9103   0.892   1.613   1.963
 2735SOL    HW1 9104   0.985   1.577   1.959
 2735SOL    HW2 9105   0.855   1.621   1.870
 2736SOL     OW 9106   5.769   4.248   3.084
 2736SOL    HW1 9107   5.715   4.184   3.030
 2736SOL    HW2 9108   5.754   4.232   3.181
 2737SOL     OW 9109   2.453   1.551   5.342
 2737SOL    HW1 9110   2.433   1.476   5.405
 2737SOL    HW2 9111   2.450   1.517   5.248
 2738SOL     OW 9112   5.281   6.648   1.798
 2738SOL    HW1 9113   5.324   6.723   1.747
 2738SOL    HW2 9114   5.251   6.577   1.734
 2739SOL     OW 9115   6.464   5.586   1.414
 2739SOL    HW1 9116   6.558   5.621   1.413
 2739SOL    HW2 9117   6.408   5.642   1.475
 2740SOL     OW 9118   6.584   5.613   3.832
 2740SOL    HW1 9119   6.594   5.520   3.797
 2740SOL    HW2 9120   6.660   5.669   3.800
 2741SOL     OW 9121   1.254   1.450   5.392
 2741SOL    HW1 9122   1.323   1.392   5.434
 2741SOL    HW2 9123   1.297   1.514   5.329
 2742SOL     OW 9124   3.059   5.710   1.561
 2742SOL    HW1 9125   2.987   5.779   1.549
 2742SOL    HW2 9126   3.017   5.622   1.583
 2743SOL     OW 9127   5.666   3.211   2.959
 2743SOL    HW1 9128   5.602   3.247   2.891
 2743SOL    HW2 9129   5.640   3.118   2.984
 2744SOL     OW 9130   3.070   3.602   3.026
 2744SOL    HW1 9131   3.055   3.701   3.032
 2744SOL    HW2 9132   3.107   3.579   2.936
 2745SOL     OW 9133   0.683   6.839   0.041
 2745SOL    HW1 9134   0.649   6.913   7.003
 2745SOL    HW2 9135   0.656   6.856   0.136
 2746SOL     OW 9136   1.667   1.366   3.418
 2746SOL    HW1 9137   1.616   1.414   3.347
 2746SOL    HW2 9138   1.668   1.268   3.399
 2747SOL     OW 9139   3.812   5.113   0.586
 2747SOL    HW1 9140   3.891   5.161   0.547
 2747SOL    HW2 9141   3.843   5.027   0.627
 2748SOL     OW 9142   4.432   6.543   1.361
 2748SOL    HW1 9143   4.529   6.564   1.345
 2748SOL    HW2 9144   4.379   6.628   1.357
 2749SOL     OW 9145   3.362   3.241   0.047
 2749SOL    HW1 9146   3.349   3.274   6.973
 2749SOL    HW2 9147   3.387   3.144   0.045
 2750SOL     OW 9148   2.410   5.976   2.105
 2750SOL    HW1 9149   2.367   5.907   2.163
 2750SOL    HW2 9150   2.397   5.952   2.009
 2751SOL     OW 9151   6.088   3.664   0.633
 2751SOL    HW1 9152   6.026   3.708   0.698
 2751SOL    HW2 9153   6.059   3.570   0.617
 2752SOL     OW 9154   3.961   5.033   6.957
 2752SOL    HW1 9155   4.012   5.102   7.008
 2752SOL    HW2 9156   4.014   5.007   6.876
 2753SOL     OW 9157   6.324   6.082   5.428
 2753SOL    HW1 9158   6.404   6.143   5.425
 2753SOL    HW2 9159   6.280   6.082   5.338
 2754SOL     OW 9160   1.008   0.024   6.056
 2754SOL    HW1 9161   1.044   0.096   6.116
 2754SOL    HW2 9162   0.910   0.013   6.073
 2755SOL     OW 9163   2.636   0.618   2.433
 2755SOL    HW1 9164   2.565   0.662   2.379
 2755SOL    HW2 9165   2.598   0.537   2.479
 2756SOL     OW 9166   4.532   6.101   0.590
 2756SOL    HW1 9167   4.588   6.074   0.668
 2756SOL    HW2 9168   4.440   6.125   0.622
 2757SOL     OW 9169   0.653   5.256   1.245
 2757SOL    HW1 9170   0.728   5.210   1.197
 2757SOL    HW2 9171   0.618   5.330   1.187
 2758SOL     OW 9172   4.873   0.738   5.641
 2758SOL    HW1 9173   4.860   0.830   5.606
 2758SOL    HW2 9174   4.925   0.741   5.726
 2759SOL     OW 9175   5.930   5.803   5.003
 2759SOL    HW1 9176   5.989   5.882   5.019
 2759SOL    HW2 9177   5.835   5.832   4.998
 2760SOL     OW 9178   2.710   5.612   3.157
 2760SOL    HW1 9179   2.708   5.599   3.256
 2760SOL    HW2 9180   2.668   5.533   3.112
 2761SOL     OW 9181   2.209   5.975   3.102
 2761SOL    HW1 9182   2.222   5.986   3.200
 2761SOL    HW2 9183   2.215   5.878   3.079
 2762SOL     OW 9184   0.596   6.576   4.991
 2762SOL    HW1 9185   0.571   6.645   5.059
 2762SOL    HW2 9186   0.625   6.621   4.907
 2763SOL     OW 9187   5.864   1.862   2.369
 2763SOL    HW1 9188   5.779   1.857   2.316
 2763SOL    HW2 9189   5.844   1.898   2.460
 2764SOL     OW 9190   6.314   1.311   2.237
 2764SOL    HW1 9191   6.321   1.406   2.267
 2764SOL    HW2 9192   6.385   1.256   2.281
 2765SOL     OW 9193   6.006   1.318   1.691
 2765SOL    HW1 9194   5.944   1.280   1.760
 2765SOL    HW2 9195   6.014   1.417   1.705
 2766SOL     OW 9196   6.059   0.769   2.466
 2766SOL    HW1 9197   6.147   0.731   2.438
 2766SOL    HW2 9198   5.988   0.742   2.400
 2767SOL     OW 9199   5.780   4.127   6.086
 2767SOL    HW1 9200   5.803   4.172   6.172
 2767SOL    HW2 9201   5.682   4.136   6.068
 2768SOL     OW 9202   5.629   1.139   6.722
 2768SOL    HW1 9203   5.629   1.231   6.684
 2768SOL    HW2 9204   5.723   1.111   6.740
 2769SOL     OW 9205   0.534   3.642   1.595
 2769SOL    HW1 9206   0.451   3.693   1.573
 2769SOL    HW2 9207   0.514   3.576   1.668
 2770SOL     OW 9208   0.574   5.599   1.546
 2770SOL    HW1 9209   0.524   5.671   1.595
 2770SOL    HW2 9210   0.667   5.629   1.529
 2771SOL     OW 9211   4.798   1.086   1.445
 2771SOL    HW1 9212   4.815   1.104   1.542
 2771SOL    HW2 9213   4.807   0.988   1.428
 2772SOL     OW 9214   3.289   2.635   6.161
 2772SOL    HW1 9215   3.291   2.643   6.061
 2772SOL    HW2 9216   3.259   2.544   6.187
 2773SOL     OW 9217   4.118   3.943   6.592
 2773SOL    HW1 9218   4.039   3.885   6.577
 2773SOL    HW2 9219   4.089   4.039   6.596
 2774SOL     OW 9220   5.682   3.544   2.580
 2774SOL    HW1 9221   5.767   3.595   2.593
 2774SOL    HW2 9222   5.697   3.448   2.603
 2775SOL     OW 9223   6.900   6.263   1.578
 2775SOL    HW1 9224   6.993   6.259   1.613
 2775SOL    HW2 9225   6.844   6.194   1.624
 2776SOL     OW 9226   2.636   6.278   6.122
 2776SOL    HW1 9227   2.608   6.374   6.132
 2776SOL    HW2 9228   2.631   6.233   6.212
 2777SOL     OW 9229   3.251   1.269   2.928
 2777SOL    HW1 9230   3.166   1.300   2.885
 2777SOL    HW2 9231   3.272   1.326   3.007
 2778SOL     OW 9232   2.243   2.094   5.761
 2778SOL    HW1 9233   2.283   2.116   5.850
 2778SOL    HW2 9234   2.314   2.062   5.699
 2779SOL     OW 9235   5.691   0.682   6.903
 2779SOL    HW1 9236   5.626   0.732   6.846
 2779SOL    HW2 9237   5.767   0.743   6.929
 2780SOL     OW 9238   4.859   5.011   6.666
 2780SOL    HW1 9239   4.780   5.050   6.620
 2780SOL    HW2 9240   4.934   5.078   6.668
 2781SOL     OW 9241   5.430   4.570   0.623
 2781SOL    HW1 9242   5.470   4.660   0.643
 2781SOL    HW2 9243   5.499   4.513   0.578
 2782SOL     OW 9244   2.418   2.459   5.793
 2782SOL    HW1 9245   2.456   2.422   5.709
 2782SOL    HW2 9246   2.418   2.559   5.789
 2783SOL     OW 9247   0.112   4.916   5.440
 2783SOL    HW1 9248   0.204   4.956   5.440
 2783SOL    HW2 9249   0.116   4.823   5.404
 2784SOL     OW 9250   1.903   1.618   1.716
 2784SOL    HW1 9251   1.937   1.531   1.680
 2784SOL    HW2 9252   1.809   1.606   1.749
 2785SOL     OW 9253   6.430   0.844   0.963
 2785SOL    HW1 9254   6.394   0.904   0.891
 2785SOL    HW2 9255   6.493   0.896   1.021
 2786SOL     OW 9256   4.163   6.488   1.136
 2786SOL    HW1 9257   4.222   6.407   1.142
 2786SOL    HW2 9258   4.165   6.537   1.224
 2787SOL     OW 9259   2.463   2.898   5.524
 2787SOL    HW1 9260   2.553   2.893   5.480
 2787SOL    HW2 9261   2.391   2.881   5.457
 2788SOL     OW 9262   1.067   3.645   0.513
 2788SOL    HW1 9263   1.116   3.595   0.585
 2788SOL    HW2 9264   1.107   3.623   0.424
 2789SOL     OW 9265   0.549   2.314   4.067
 2789SOL    HW1 9266   0.641   2.276   4.063
 2789SOL    HW2 9267   0.501   2.276   4.146
 2790SOL     OW 9268   3.886   5.584   2.912
 2790SOL    HW1 9269   3.957   5.620   2.972
 2790SOL    HW2 9270   3.809   5.648   2.910
 2791SOL     OW 9271   1.722   3.390   4.592
 2791SOL    HW1 9272   1.637   3.345   4.622
 2791SOL    HW2 9273   1.769   3.332   4.526
 2792SOL     OW 9274   0.942   2.226   5.483
 2792SOL    HW1 9275   0.988   2.139   5.503
 2792SOL    HW2 9276   0.966   2.293   5.553
 2793SOL     OW 9277   4.642   1.227   3.639
 2793SOL    HW1 9278   4.640   1.128   3.628
 2793SOL    HW2 9279   4.642   1.271   3.549
 2794SOL     OW 9280   0.932   0.711   0.939
 2794SOL    HW1 9281   0.889   0.629   0.902
 2794SOL    HW2 9282   0.902   0.725   1.034
 2795SOL     OW 9283   2.641   4.078   1.158
 2795SOL    HW1 9284   2.715   4.145   1.150
 2795SOL    HW2 9285   2.665   3.997   1.104
 2796SOL     OW 9286   5.416   3.942   2.452
 2796SOL    HW1 9287   5.319   3.920   2.443
 2796SOL    HW2 9288   5.471   3.866   2.417
 2797SOL     OW 9289   4.897   4.816   4.832
 2797SOL    HW1 9290   4.994   4.809   4.855
 2797SOL    HW2 9291   4.872   4.741   4.770
 2798SOL     OW 9292   0.914   3.717   4.121
 2798SOL    HW1 9293   0.967   3.675   4.047
 2798SOL    HW2 9294   0.820   3.730   4.092
 2799SOL     OW 9295   6.619   4.706   5.979
 2799SOL    HW1 9296   6.573   4.728   6.065
 2799SOL    HW2 9297   6.641   4.791   5.931
 2800SOL     OW 9298   3.092   4.460   6.680
 2800SOL    HW1 9299   3.078   4.409   6.765
 2800SOL    HW2 9300   3.092   4.558   6.699
 2801SOL     OW 9301   5.597   5.791   1.980
 2801SOL    HW1 9302   5.692   5.770   1.954
 2801SOL    HW2 9303   5.554   5.708   2.015
 2802SOL     OW 9304   4.515   1.679   6.079
 2802SOL    HW1 9305   4.429   1.685   6.130
 2802SOL    HW2 9306   4.502   1.622   5.998
 2803SOL     OW 9307   3.141   6.497   6.637
 2803SOL    HW1 9308   3.106   6.506   6.544
 2803SOL    HW2 9309   3.074   6.531   6.702
 2804SOL     OW 9310   6.968   4.264   3.330
 2804SOL    HW1 9311   6.921   4.180   3.302
 2804SOL    HW2 9312   0.015   4.289   3.260
 2805SOL     OW 9313   5.582   3.336   0.268
 2805SOL    HW1 9314   5.484   3.315   0.264
 2805SOL    HW2 9315   5.616   3.355   0.176
 2806SOL     OW 9316   6.255   5.315   3.265
 2806SOL    HW1 9317   6.270   5.412   3.287
 2806SOL    HW2 9318   6.322   5.286   3.197
 2807SOL     OW 9319   4.459   4.952   3.366
 2807SOL    HW1 9320   4.528   4.880   3.367
 2807SOL    HW2 9321   4.369   4.912   3.348
 2808SOL     OW 9322   5.416   0.494   4.124
 2808SOL    HW1 9323   5.367   0.572   4.086
 2808SOL    HW2 9324   5.353   0.434   4.173
 2809SOL     OW 9325   5.016   2.566   0.957
 2809SOL    HW1 9326   4.948   2.532   0.893
 2809SOL    HW2 9327   4.972   2.628   1.023
 2810SOL     OW 9328   2.082   6.759   5.248
 2810SOL    HW1 9329   2.065   6.844   5.298
 2810SOL    HW2 9330   2.154   6.774   5.180
 2811SOL     OW 9331   6.838   1.784   3.484
 2811SOL    HW1 9332   6.906   1.753   3.550
 2811SOL    HW2 9333   6.847   1.883   3.470
 2812SOL     OW 9334   4.993   3.605   2.227
 2812SOL    HW1 9335   4.972   3.661   2.148
 2812SOL    HW2 9336   4.955   3.647   2.309
 2813SOL     OW 9337   6.026   0.764   6.716
 2813SOL    HW1 9338   6.060   0.826   6.787
 2813SOL    HW2 9339   5.995   0.679   6.758
 2814SOL     OW 9340   4.665   4.022   5.201
 2814SOL    HW1 9341   4.611   3.971   5.269
 2814SOL    HW2 9342   4.634   4.117   5.198
 2815SOL     OW 9343   0.279   0.974   5.169
 2815SOL    HW1 9344   0.267   0.942   5.075
 2815SOL    HW2 9345   0.231   1.060   5.181
 2816SOL     OW 9346   5.474   6.579   3.606
 2816SOL    HW1 9347   5.532   6.603   3.528
 2816SOL    HW2 9348   5.384   6.621   3.594
 2817SOL     OW 9349   0.941   1.775   1.540
 2817SOL    HW1 9350   0.855   1.810   1.502
 2817SOL    HW2 9351   0.999   1.852   1.567
 2818SOL     OW 9352   6.955   4.413   5.410
 2818SOL    HW1 9353   6.935   4.349   5.484
 2818SOL    HW2 9354   6.870   4.451   5.375
 2819SOL     OW 9355   0.152   2.933   1.442
 2819SOL    HW1 9356   0.251   2.943   1.455
 2819SOL    HW2 9357   0.135   2.855   1.381
 2820SOL     OW 9358   6.843   3.165   3.905
 2820SOL    HW1 9359   6.930   3.207   3.928
 2820SOL    HW2 9360   6.830   3.082   3.958
 2821SOL     OW 9361   1.438   4.015   4.562
 2821SOL    HW1 9362   1.496   4.047   4.486
 2821SOL    HW2 9363   1.482   3.937   4.605
 2822SOL     OW 9364   4.801   2.068   6.855
 2822SOL    HW1 9365   4.836   2.121   6.932
 2822SOL    HW2 9366   4.764   2.131   6.786
 2823SOL     OW 9367   1.879   6.524   3.178
 2823SOL    HW1 9368   1.882   6.438   3.128
 2823SOL    HW2 9369   1.803   6.522   3.243
 2824SOL     OW 9370   3.039   1.564   5.357
 2824SOL    HW1 9371   3.098   1.576   5.277
 2824SOL    HW2 9372   3.095   1.566   5.440
 2825SOL     OW 9373   6.290   5.974   1.405
 2825SOL    HW1 9374   6.372   6.023   1.434
 2825SOL    HW2 9375   6.285   5.972   1.305
 2826SOL     OW 9376   4.764   1.528   4.366
 2826SOL    HW1 9377   4.681   1.583   4.366
 2826SOL    HW2 9378   4.810   1.536   4.455
 2827SOL     OW 9379   5.630   1.008   5.201
 2827SOL    HW1 9380   5.572   1.075   5.248
 2827SOL    HW2 9381   5.581   0.971   5.122
 2828SOL     OW 9382   3.922   1.314   5.452
 2828SOL    HW1 9383   3.841   1.365   5.423
 2828SOL    HW2 9384   3.935   1.235   5.392
 2829SOL     OW 9385   2.408   6.855   6.296
 2829SOL    HW1 9386   2.382   6.763   6.328
 2829SOL    HW2 9387   2.502   6.853   6.262
 2830SOL     OW 9388   4.209   3.527   6.840
 2830SOL    HW1 9389   4.240   3.468   6.915
 2830SOL    HW2 9390   4.154   3.602   6.877
 2831SOL     OW 9391   5.840   6.325   4.449
 2831SOL    HW1 9392   5.787   6.310   4.365
 2831SOL    HW2 9393   5.784   6.301   4.528
 2832SOL     OW 9394   0.404   0.908   2.355
 2832SOL    HW1 9395   0.324   0.967   2.367
 2832SOL    HW2 9396   0.487   0.963   2.356
 2833SOL     OW 9397   6.163   2.981   2.027
 2833SOL    HW1 9398   6.088   3.047   2.029
 2833SOL    HW2 9399   6.156   2.919   2.104
 2834SOL     OW 9400   3.952   1.411   5.118
 2834SOL    HW1 9401   3.855   1.386   5.123
 2834SOL    HW2 9402   3.978   1.461   5.201
 2835SOL     OW 9403   0.114   6.689   2.602
 2835SOL    HW1 9404   0.130   6.746   2.682
 2835SOL    HW2 9405   0.105   6.746   2.521
 2836SOL     OW 9406   6.575   0.646   1.272
 2836SOL    HW1 9407   6.554   0.642   1.370
 2836SOL    HW2 9408   6.621   0.732   1.251
 2837SOL     OW 9409   5.034   4.063   3.926
 2837SOL    HW1 9410   5.125   4.023   3.935
 2837SOL    HW2 9411   5.035   4.156   3.960
 2838SOL     OW 9412   3.155   4.880   2.895
 2838SOL    HW1 9413   3.188   4.887   2.801
 2838SOL    HW2 9414   3.232   4.885   2.958
 2839SOL     OW 9415   5.404   2.289   1.480
 2839SOL    HW1 9416   5.365   2.257   1.394
 2839SOL    HW2 9417   5.418   2.212   1.542
 2840SOL     OW 9418   6.507   1.434   5.480
 2840SOL    HW1 9419   6.498   1.455   5.383
 2840SOL    HW2 9420   6.599   1.458   5.511
 2841SOL     OW 9421   0.656   6.258   1.209
 2841SOL    HW1 9422   0.653   6.355   1.181
 2841SOL    HW2 9423   0.713   6.207   1.145
 2842SOL     OW 9424   0.040   3.699   3.032
 2842SOL    HW1 9425   0.077   3.753   3.107
 2842SOL    HW2 9426   7.004   3.624   3.069
 2843SOL     OW 9427   3.894   0.829   4.245
 2843SOL    HW1 9428   3.955   0.902   4.217
 2843SOL    HW2 9429   3.803   0.845   4.208
 2844SOL     OW 9430   0.458   4.049   6.504
 2844SOL    HW1 9431   0.496   3.958   6.519
 2844SOL    HW2 9432   0.448   4.095   6.592
 2845SOL     OW 9433   0.021   4.795   5.739
 2845SOL    HW1 9434   7.019   4.780   5.642
 2845SOL    HW2 9435   0.106   4.846   5.746
 2846SOL     OW 9436   4.926   1.922   6.350
 2846SOL    HW1 9437   4.847   1.980   6.330
 2846SOL    HW2 9438   5.008   1.979   6.358
 2847SOL     OW 9439   5.689   4.613   4.384
 2847SOL    HW1 9440   5.747   4.693   4.402
 2847SOL    HW2 9441   5.719   4.568   4.301
 2848SOL     OW 9442   1.317   5.213   4.396
 2848SOL    HW1 9443   1.290   5.117   4.388
 2848SOL    HW2 9444   1.304   5.243   4.491
 2849SOL     OW 9445   2.730   1.920   1.384
 2849SOL    HW1 9446   2.786   1.906   1.303
 2849SOL    HW2 9447   2.648   1.972   1.358
 2850SOL     OW 9448   3.638   0.774   0.356
 2850SOL    HW1 9449   3.621   0.872   0.371
 2850SOL    HW2 9450   3.722   0.747   0.402
 2851SOL     OW 9451   1.293   4.307   5.336
 2851SOL    HW1 9452   1.360   4.233   5.331
 2851SOL    HW2 9453   1.270   4.326   5.431
 2852SOL     OW 9454   0.001   3.282   6.653
 2852SOL    HW1 9455   6.953   3.258   6.723
 2852SOL    HW2 9456   6.991   3.246   6.564
 2853SOL     OW 9457   3.609   3.651   0.839
 2853SOL    HW1 9458   3.576   3.602   0.758
 2853SOL    HW2 9459   3.550   3.729   0.858
 2854SOL     OW 9460   2.687   1.049   3.971
 2854SOL    HW1 9461   2.763   1.094   3.923
 2854SOL    HW2 9462   2.715   1.030   4.066
 2855SOL     OW 9463   1.962   0.711   5.121
 2855SOL    HW1 9464   1.900   0.790   5.127
 2855SOL    HW2 9465   2.010   0.699   5.208
 2856SOL     OW 9466   2.390   2.776   5.268
 2856SOL    HW1 9467   2.478   2.735   5.291
 2856SOL    HW2 9468   2.397   2.824   5.181
 2857SOL     OW 9469   3.227   3.331   1.984
 2857SOL    HW1 9470   3.262   3.370   2.069
 2857SOL    HW2 9471   3.182   3.244   2.004
 2858SOL     OW 9472   6.928   3.722   2.622
 2858SOL    HW1 9473   7.007   3.660   2.622
 2858SOL    HW2 9474   6.876   3.709   2.706
 2859SOL     OW 9475   5.654   0.355   0.960
 2859SOL    HW1 9476   5.752   0.341   0.952
 2859SOL    HW2 9477   5.634   0.406   1.044
 2860SOL     OW 9478   4.025   1.417   2.185
 2860SOL    HW1 9479   3.954   1.437   2.253
 2860SOL    HW2 9480   4.054   1.502   2.141
 2861SOL     OW 9481   3.667   5.561   5.789
 2861SOL    HW1 9482   3.639   5.475   5.832
 2861SOL    HW2 9483   3.594   5.595   5.730
 2862SOL     OW 9484   5.952   1.272   3.968
 2862SOL    HW1 9485   5.888   1.311   3.903
 2862SOL    HW2 9486   5.910   1.193   4.014
 2863SOL     OW 9487   6.644   1.876   6.906
 2863SOL    HW1 9488   6.683   1.917   6.988
 2863SOL    HW2 9489   6.547   1.857   6.920
 2864SOL     OW 9490   3.648   1.075   0.378
 2864SOL    HW1 9491   3.716   1.013   0.417
 2864SOL    HW2 9492   3.665   1.085   0.280
 2865SOL     OW 9493   4.837   4.342   5.133
 2865SOL    HW1 9494   4.797   4.287   5.059
 2865SOL    HW2 9495   4.827   4.439   5.111
 2866SOL     OW 9496   0.539   6.446   6.602
 2866SOL    HW1 9497   0.578   6.362   6.638
 2866SOL    HW2 9498   0.582   6.525   6.647
 2867SOL     OW 9499   6.490   4.141   3.788
 2867SOL    HW1 9500   6.528   4.211   3.727
 2867SOL    HW2 9501   6.439   4.186   3.861
 2868SOL     OW 9502   1.559   4.162   5.173
 2868SOL    HW1 9503   1.601   4.252   5.163
 2868SOL    HW2 9504   1.571   4.111   5.088
 2869SOL     OW 9505   5.983   0.960   2.178
 2869SOL    HW1 9506   6.083   0.953   2.185
 2869SOL    HW2 9507   5.941   0.875   2.209
 2870SOL     OW 9508   5.639   2.385   2.845
 2870SOL    HW1 9509   5.608   2.357   2.935
 2870SOL    HW2 9510   5.739   2.390   2.844
 2871SOL     OW 9511   1.654   2.205   6.070
 2871SOL    HW1 9512   1.636   2.110   6.044
 2871SOL    HW2 9513   1.652   2.263   5.988
 2872SOL     OW 9514   2.592   0.309   3.792
 2872SOL    HW1 9515   2.669   0.325   3.730
 2872SOL    HW2 9516   2.507   0.304   3.740
 2873SOL     OW 9517   0.606   5.748   2.024
 2873SOL    HW1 9518   0.687   5.752   1.966
 2873SOL    HW2 9519   0.548   5.672   1.995
 2874SOL     OW 9520   6.224   2.789   2.640
 2874SOL    HW1 9521   6.157   2.812   2.569
 2874SOL    HW2 9522   6.197   2.830   2.727
 2875SOL     OW 9523   3.705   5.333   6.590
 2875SOL    HW1 9524   3.634   5.262   6.596
 2875SOL    HW2 9525   3.691   5.400   6.663
 2876SOL     OW 9526   0.236   0.881   1.450
 2876SOL    HW1 9527   0.281   0.861   1.537
 2876SOL    HW2 9528   0.304   0.914   1.384
 2877SOL     OW 9529   3.232   2.715   5.550
 2877SOL    HW1 9530   3.210   2.702   5.453
 2877SOL    HW2 9531   3.323   2.757   5.557
 2878SOL     OW 9532   2.514   4.548   5.463
 2878SOL    HW1 9533   2.511   4.469   5.524
 2878SOL    HW2 9534   2.508   4.632   5.516
 2879SOL     OW 9535   5.135   4.364   0.500
 2879SOL    HW1 9536   5.037   4.370   0.515
 2879SOL    HW2 9537   5.183   4.372   0.587
 2880SOL     OW 9538   1.278   6.306   1.598
 2880SOL    HW1 9539   1.181   6.317   1.579
 2880SOL    HW2 9540   1.312   6.224   1.552
 2881SOL     OW 9541   6.929   6.439   0.623
 2881SOL    HW1 9542   6.997   6.477   0.561
 2881SOL    HW2 9543   6.968   6.359   0.670
 2882SOL     OW 9544   0.483   3.071   3.433
 2882SOL    HW1 9545   0.460   3.158   3.388
 2882SOL    HW2 9546   0.399   3.021   3.454
 2883SOL     OW 9547   3.822   0.228   2.118
 2883SOL    HW1 9548   3.831   0.326   2.101
 2883SOL    HW2 9549   3.780   0.214   2.208
 2884SOL     OW 9550   0.753   5.749   3.274
 2884SOL    HW1 9551   0.843   5.783   3.247
 2884SOL    HW2 9552   0.755   5.720   3.370
 2885SOL     OW 9553   1.060   2.688   3.153
 2885SOL    HW1 9554   0.966   2.660   3.173
 2885SOL    HW2 9555   1.064   2.788   3.147
 2886SOL     OW 9556   2.660   2.125   6.225
 2886SOL    HW1 9557   2.733   2.127   6.157
 2886SOL    HW2 9558   2.673   2.201   6.289
 2887SOL     OW 9559   1.378   0.514   4.755
 2887SOL    HW1 9560   1.285   0.549   4.753
 2887SOL    HW2 9561   1.426   0.550   4.835
 2888SOL     OW 9562   6.010   4.811   6.981
 2888SOL    HW1 9563   6.081   4.741   6.981
 2888SOL    HW2 9564   5.981   4.830   6.888
 2889SOL     OW 9565   0.129   0.173   1.531
 2889SOL    HW1 9566   0.172   0.255   1.493
 2889SOL    HW2 9567   0.082   0.196   1.616
 2890SOL     OW 9568   4.075   0.655   1.969
 2890SOL    HW1 9569   4.098   0.685   1.876
 2890SOL    HW2 9570   4.100   0.728   2.033
 2891SOL     OW 9571   2.464   4.542   4.072
 2891SOL    HW1 9572   2.375   4.556   4.029
 2891SOL    HW2 9573   2.462   4.458   4.126
 2892SOL     OW 9574   4.434   3.851   6.267
 2892SOL    HW1 9575   4.466   3.929   6.214
 2892SOL    HW2 9576   4.508   3.783   6.275
 2893SOL     OW 9577   2.148   0.268   5.015
 2893SOL    HW1 9578   2.218   0.323   5.062
 2893SOL    HW2 9579   2.078   0.241   5.081
 2894SOL     OW 9580   3.570   2.595   0.041
 2894SOL    HW1 9581   3.518   2.528   7.008
 2894SOL    HW2 9582   3.658   2.612   7.015
 2895SOL     OW 9583   3.673   3.703   6.343
 2895SOL    HW1 9584   3.752   3.760   6.366
 2895SOL    HW2 9585   3.704   3.617   6.303
 2896SOL     OW 9586   2.353   4.934   0.953
 2896SOL    HW1 9587   2.424   4.959   0.887
 2896SOL    HW2 9588   2.276   4.892   0.904
 2897SOL     OW 9589   2.275   6.105   4.056
 2897SOL    HW1 9590   2.192   6.128   4.106
 2897SOL    HW2 9591   2.305   6.013   4.081
 2898SOL     OW 9592   3.717   5.390   1.718
 2898SOL    HW1 9593   3.736   5.312   1.777
 2898SOL    HW2 9594   3.618   5.401   1.708
 2899SOL     OW 9595   6.578   7.018   0.196
 2899SOL    HW1 9596   6.596   0.092   0.226
 2899SOL    HW2 9597   6.488   7.013   0.152
 2900SOL     OW 9598   1.337   5.167   5.895
 2900SOL    HW1 9599   1.436   5.179   5.893
 2900SOL    HW2 9600   1.296   5.240   5.951
 2901SOL     OW 9601   2.846   0.498   1.748
 2901SOL    HW1 9602   2.856   0.576   1.809
 2901SOL    HW2 9603   2.753   0.460   1.757
 2902SOL     OW 9604   5.457   6.078   0.866
 2902SOL    HW1 9605   5.487   6.024   0.787
 2902SOL    HW2 9606   5.483   6.030   0.950
 2903SOL     OW 9607   2.268   1.199   2.001
 2903SOL    HW1 9608   2.326   1.280   2.004
 2903SOL    HW2 9609   2.317   1.123   1.959
 2904SOL     OW 9610   2.179   2.475   5.187
 2904SOL    HW1 9611   2.245   2.550   5.191
 2904SOL    HW2 9612   2.166   2.438   5.279
 2905SOL     OW 9613   1.713   1.981   1.893
 2905SOL    HW1 9614   1.766   1.982   1.978
 2905SOL    HW2 9615   1.645   2.054   1.895
 2906SOL     OW 9616   5.542   5.535   2.094
 2906SOL    HW1 9617   5.449   5.511   2.067
 2906SOL    HW2 9618   5.607   5.486   2.036
 2907SOL     OW 9619   6.780   1.546   4.246
 2907SOL    HW1 9620   6.791   1.493   4.330
 2907SOL    HW2 9621   6.687   1.582   4.240
 2908SOL     OW 9622   3.340   6.061   4.432
 2908SOL    HW1 9623   3.341   6.135   4.365
 2908SOL    HW2 9624   3.296   5.980   4.393
 2909SOL     OW 9625   1.293   5.557   4.563
 2909SOL    HW1 9626   1.392   5.574   4.563
 2909SOL    HW2 9627   1.263   5.531   4.471
 2910SOL     OW 9628   4.364   6.196   6.182
 2910SOL    HW1 9629   4.266   6.215   6.187
 2910SOL    HW2 9630   4.415   6.282   6.189
 2911SOL     OW 9631   1.911   4.683   3.283
 2911SOL    HW1 9632   1.894   4.664   3.186
 2911SOL    HW2 9633   1.823   4.689   3.331
 2912SOL     OW 9634   2.715   6.230   0.332
 2912SOL    HW1 9635   2.656   6.288   0.389
 2912SOL    HW2 9636   2.746   6.282   0.253
 2913SOL     OW 9637   1.788   3.840   2.461
 2913SOL    HW1 9638   1.734   3.771   2.414
 2913SOL    HW2 9639   1.841   3.797   2.534
 2914SOL     OW 9640   5.071   5.746   5.898
 2914SOL    HW1 9641   5.100   5.660   5.856
 2914SOL    HW2 9642   5.021   5.800   5.830
 2915SOL     OW 9643   4.461   1.794   3.751
 2915SOL    HW1 9644   4.460   1.786   3.652
 2915SOL    HW2 9645   4.457   1.890   3.778
 2916SOL     OW 9646   5.671   5.709   5.237
 2916SOL    HW1 9647   5.595   5.702   5.302
 2916SOL    HW2 9648   5.739   5.773   5.271
 2917SOL     OW 9649   4.632   0.522   2.168
 2917SOL    HW1 9650   4.570   0.484   2.100
 2917SOL    HW2 9651   4.671   0.608   2.133
 2918SOL     OW 9652   0.527   3.716   3.804
 2918SOL    HW1 9653   0.484   3.767   3.728
 2918SOL    HW2 9654   0.597   3.655   3.767
 2919SOL     OW 9655   5.944   5.869   0.497
 2919SOL    HW1 9656   5.878   5.940   0.473
 2919SOL    HW2 9657   5.898   5.780   0.501
 2920SOL     OW 9658   4.236   2.292   2.785
 2920SOL    HW1 9659   4.304   2.335   2.725
 2920SOL    HW2 9660   4.249   2.326   2.879
 2921SOL     OW 9661   0.056   0.750   2.504
 2921SOL    HW1 9662   0.041   0.686   2.429
 2921SOL    HW2 9663   6.990   0.761   2.555
 2922SOL     OW 9664   4.354   0.195   5.212
 2922SOL    HW1 9665   4.403   0.206   5.125
 2922SOL    HW2 9666   4.316   0.103   5.217
 2923SOL     OW 9667   6.251   4.769   2.139
 2923SOL    HW1 9668   6.158   4.733   2.138
 2923SOL    HW2 9669   6.250   4.863   2.104
 2924SOL     OW 9670   0.506   1.563   5.235
 2924SOL    HW1 9671   0.476   1.557   5.140
 2924SOL    HW2 9672   0.463   1.643   5.278
 2925SOL     OW 9673   5.588   3.084   1.634
 2925SOL    HW1 9674   5.584   2.986   1.652
 2925SOL    HW2 9675   5.533   3.133   1.702
 2926SOL     OW 9676   6.934   2.078   4.994
 2926SOL    HW1 9677   6.884   2.012   5.050
 2926SOL    HW2 9678   0.009   2.082   5.024
 2927SOL     OW 9679   0.867   2.742   2.643
 2927SOL    HW1 9680   0.849   2.674   2.572
 2927SOL    HW2 9681   0.785   2.796   2.659
 2928SOL     OW 9682   5.741   0.027   0.739
 2928SOL    HW1 9683   5.775   0.121   0.739
 2928SOL    HW2 9684   5.653   0.024   0.786
 2929SOL     OW 9685   0.210   6.982   5.880
 2929SOL    HW1 9686   0.124   6.955   5.921
 2929SOL    HW2 9687   0.193   0.019   5.799
 2930SOL     OW 9688   4.061   6.689   4.382
 2930SOL    HW1 9689   4.125   6.766   4.378
 2930SOL    HW2 9690   4.002   6.690   4.301
 2931SOL     OW 9691   4.283   6.817   6.363
 2931SOL    HW1 9692   4.349   6.866   6.305
 2931SOL    HW2 9693   4.317   6.816   6.457
 2932SOL     OW 9694   1.285   3.821   1.297
 2932SOL    HW1 9695   1.317   3.837   1.390
 2932SOL    HW2 9696   1.197   3.866   1.284
 2933SOL     OW 9697   5.318   2.266   3.486
 2933SOL    HW1 9698   5.236   2.219   3.519
 2933SOL    HW2 9699   5.304   2.365   3.490
 2934SOL     OW 9700   2.470   0.746   0.122
 2934SOL    HW1 9701   2.568   0.762   0.125
 2934SOL    HW2 9702   2.447   0.666   0.176
 2935SOL     OW 9703   5.775   2.588   1.304
 2935SOL    HW1 9704   5.824   2.645   1.371
 2935SOL    HW2 9705   5.801   2.615   1.212
 2936SOL     OW 9706   4.970   5.964   0.149
 2936SOL    HW1 9707   4.895   5.944   0.086
 2936SOL    HW2 9708   4.934   5.983   0.240
 2937SOL     OW 9709   3.397   5.668   6.785
 2937SOL    HW1 9710   3.409   5.765   6.768
 2937SOL    HW2 9711   3.486   5.625   6.799
 2938SOL     OW 9712   4.634   5.530   5.219
 2938SOL    HW1 9713   4.571   5.461   5.253
 2938SOL    HW2 9714   4.595   5.575   5.138
 2939SOL     OW 9715   6.571   6.485   5.435
 2939SOL    HW1 9716   6.530   6.458   5.523
 2939SOL    HW2 9717   6.669   6.468   5.438
 2940SOL     OW 9718   4.970   0.009   5.070
 2940SOL    HW1 9719   5.060   7.018   5.027
 2940SOL    HW2 9720   4.908   0.052   5.005
 2941SOL     OW 9721   1.646   1.812   5.409
 2941SOL    HW1 9722   1.643   1.909   5.385
 2941SOL    HW2 9723   1.652   1.802   5.508
 2942SOL     OW 9724   3.379   6.450   2.783
 2942SOL    HW1 9725   3.298   6.494   2.821
 2942SOL    HW2 9726   3.461   6.499   2.813
 2943SOL     OW 9727   6.080   3.971   3.486
 2943SOL    HW1 9728   6.111   3.885   3.527
 2943SOL    HW2 9729   5.989   3.958   3.448
 2944SOL     OW 9730   4.149   5.786   5.605
 2944SOL    HW1 9731   4.051   5.771   5.612
 2944SOL    HW2 9732   4.191   5.782   5.696
 2945SOL     OW 9733   3.108   3.214   3.389
 2945SOL    HW1 9734   3.197   3.232   3.347
 2945SOL    HW2 9735   3.051   3.296   3.383
 2946SOL     OW 9736   0.074   5.938   6.712
 2946SOL    HW1 9737   0.077   6.038   6.717
 2946SOL    HW2 9738   6.998   5.908   6.707
 2947SOL     OW 9739   6.452   4.551   0.383
 2947SOL    HW1 9740   6.475   4.558   0.286
 2947SOL    HW2 9741   6.534   4.528   0.436
 2948SOL     OW 9742   5.714   4.113   4.565
 2948SOL    HW1 9743   5.717   4.208   4.534
 2948SOL    HW2 9744   5.723   4.052   4.487
 2949SOL     OW 9745   0.981   6.755   0.562
 2949SOL    HW1 9746   1.025   6.665   0.568
 2949SOL    HW2 9747   0.969   6.780   0.466
 2950SOL     OW 9748   5.274   3.256   4.184
 2950SOL    HW1 9749   5.304   3.293   4.096
 2950SOL    HW2 9750   5.298   3.320   4.257
 2951SOL     OW 9751   0.649   1.448   1.498
 2951SOL    HW1 9752   0.695   1.359   1.505
 2951SOL    HW2 9753   0.664   1.486   1.407
 2952SOL     OW 9754   1.681   4.168   2.573
 2952SOL    HW1 9755   1.666   4.073   2.600
 2952SOL    HW2 9756   1.699   4.223   2.654
 2953SOL     OW 9757   4.492   2.428   2.188
 2953SOL    HW1 9758   4.591   2.446   2.192
 2953SOL    HW2 9759   4.447   2.476   2.262
 2954SOL     OW 9760   6.530   6.762   2.851
 2954SOL    HW1 9761   6.476   6.680   2.871
 2954SOL    HW2 9762   6.578   6.792   2.934
 2955SOL     OW 9763   0.577   2.890   0.561
 2955SOL    HW1 9764   0.603   2.930   0.473
 2955SOL    HW2 9765   0.500   2.941   0.599
 2956SOL     OW 9766   6.993   5.031   2.698
 2956SOL    HW1 9767   7.016   4.997   2.607
 2956SOL    HW2 9768   0.036   4.991   2.765
 2957SOL     OW 9769   0.790   3.746   1.954
 2957SOL    HW1 9770   0.723   3.718   2.023
 2957SOL    HW2 9771   0.767   3.702   1.867
 2958SOL     OW 9772   1.729   4.521   6.172
 2958SOL    HW1 9773   1.792   4.570   6.232
 2958SOL    HW2 9774   1.728   4.424   6.196
 2959SOL     OW 9775   4.285   5.592   6.598
 2959SOL    HW1 9776   4.383   5.603   6.579
 2959SOL    HW2 9777   4.241   5.682   6.597
 2960SOL     OW 9778   1.775   1.425   0.145
 2960SOL    HW1 9779   1.783   1.456   0.050
 2960SOL    HW2 9780   1.710   1.483   0.194
 2961SOL     OW 9781   5.475   3.801   3.944
 2961SOL    HW1 9782   5.513   3.828   3.856
 2961SOL    HW2 9783   5.539   3.740   3.991
 2962SOL     OW 9784   4.525   0.722   3.481
 2962SOL    HW1 9785   4.554   0.660   3.408
 2962SOL    HW2 9786   4.463   0.674   3.543
 2963SOL     OW 9787   2.071   1.636   5.289
 2963SOL    HW1 9788   1.981   1.613   5.326
 2963SOL    HW2 9789   2.107   1.716   5.338
 2964SOL     OW 9790   3.294   6.200   0.431
 2964SOL    HW1 9791   3.213   6.242   0.392
 2964SOL    HW2 9792   3.267   6.133   0.501
 2965SOL     OW 9793   0.171   1.735   6.235
 2965SOL    HW1 9794   0.077   1.706   6.251
 2965SOL    HW2 9795   0.230   1.654   6.229
 2966SOL     OW 9796   5.071   4.574   4.253
 2966SOL    HW1 9797   5.153   4.590   4.309
 2966SOL    HW2 9798   5.048   4.658   4.204
 2967SOL     OW 9799   6.125   2.794   3.966
 2967SOL    HW1 9800   6.141   2.867   4.033
 2967SOL    HW2 9801   6.101   2.709   4.014
 2968SOL     OW 9802   0.590   4.098   3.570
 2968SOL    HW1 9803   0.671   4.043   3.589
 2968SOL    HW2 9804   0.508   4.040   3.575
 2969SOL     OW 9805   4.842   2.192   4.617
 2969SOL    HW1 9806   4.939   2.189   4.642
 2969SOL    HW2 9807   4.830   2.155   4.525
 2970SOL     OW 9808   1.020   4.294   6.351
 2970SOL    HW1 9809   1.047   4.221   6.414
 2970SOL    HW2 9810   1.078   4.373   6.365
 2971SOL     OW 9811   5.266   2.076   2.956
 2971SOL    HW1 9812   5.207   2.129   2.895
 2971SOL    HW2 9813   5.216   1.996   2.989
 2972SOL     OW 9814   6.754   3.418   5.447
 2972SOL    HW1 9815   6.705   3.500   5.476
 2972SOL    HW2 9816   6.693   3.359   5.394
 2973SOL     OW 9817   4.763   6.200   4.150
 2973SOL    HW1 9818   4.842   6.180   4.092
 2973SOL    HW2 9819   4.700   6.261   4.102
 2974SOL     OW 9820   6.711   4.215   2.927
 2974SOL    HW1 9821   6.805   4.240   2.952
 2974SOL    HW2 9822   6.690   4.252   2.837
 2975SOL     OW 9823   0.094   0.631   5.447
 2975SOL    HW1 9824   0.183   0.664   5.416
 2975SOL    HW2 9825   0.081   0.657   5.543
 2976SOL     OW 9826   3.758   0.821   2.564
 2976SOL    HW1 9827   3.732   0.791   2.472
 2976SOL    HW2 9828   3.840   0.772   2.593
 2977SOL     OW 9829   3.257   6.648   4.107
 2977SOL    HW1 9830   3.169   6.693   4.118
 2977SOL    HW2 9831   3.266   6.614   4.013
 2978SOL     OW 9832   5.607   4.766   6.946
 2978SOL    HW1 9833   5.526   4.760   7.004
 2978SOL    HW2 9834   5.595   4.837   6.877
 2979SOL     OW 9835   3.835   0.523   3.191
 2979SOL    HW1 9836   3.885   0.514   3.277
 2979SOL    HW2 9837   3.856   0.612   3.150
 2980SOL     OW 9838   0.198   6.021   4.536
 2980SOL    HW1 9839   0.161   6.004   4.628
 2980SOL    HW2 9840   0.127   6.004   4.468
 2981SOL     OW 9841   2.086   1.138   5.884
 2981SOL    HW1 9842   2.157   1.068   5.887
 2981SOL    HW2 9843   2.007   1.103   5.834
 2982SOL     OW 9844   4.576   6.142   2.151
 2982SOL    HW1 9845   4.571   6.121   2.053
 2982SOL    HW2 9846   4.669   6.126   2.184
 2983SOL     OW 9847   6.681   1.083   4.007
 2983SOL    HW1 9848   6.584   1.057   4.009
 2983SOL    HW2 9849   6.737   1.003   3.986
 2984SOL     OW 9850   5.664   5.396   1.879
 2984SOL    HW1 9851   5.575   5.375   1.839
 2984SOL    HW2 9852   5.710   5.464   1.822
 2985SOL     OW 9853   6.234   2.446   3.174
 2985SOL    HW1 9854   6.268   2.491   3.092
 2985SOL    HW2 9855   6.148   2.489   3.202
 2986SOL     OW 9856   1.698   3.213   5.354
 2986SOL    HW1 9857   1.746   3.128   5.376
 2986SOL    HW2 9858   1.710   3.279   5.428
 2987SOL     OW 9859   4.294   2.371   4.675
 2987SOL    HW1 9860   4.255   2.363   4.584
 2987SOL    HW2 9861   4.225   2.345   4.743
 2988SOL     OW 9862   1.363   0.076   1.620
 2988SOL    HW1 9863   1.385   0.100   1.715
 2988SOL    HW2 9864   1.272   0.110   1.597
 2989SOL     OW 9865   6.921   5.004   1.062
 2989SOL    HW1 9866   7.006   5.052   1.082
 2989SOL    HW2 9867   6.941   4.909   1.038
 2990SOL     OW 9868   3.829   1.332   1.532
 2990SOL    HW1 9869   3.873   1.392   1.466
 2990SOL    HW2 9870   3.898   1.288   1.589
 2991SOL     OW 9871   6.869   3.885   0.408
 2991SOL    HW1 9872   6.821   3.808   0.366
 2991SOL    HW2 9873   6.884   3.866   0.505
 2992SOL     OW 9874   3.470   5.185   6.222
 2992SOL    HW1 9875   3.476   5.086   6.209
 2992SOL    HW2 9876   3.391   5.205   6.280
 2993SOL     OW 9877   1.339   5.783   1.284
 2993SOL    HW1 9878   1.293   5.725   1.351
 2993SOL    HW2 9879   1.436   5.760   1.282
 2994SOL     OW 9880   4.832   6.674   6.936
 2994SOL    HW1 9881   4.921   6.640   6.908
 2994SOL    HW2 9882   4.841   6.767   6.972
 2995SOL     OW 9883   1.859   1.669   6.512
 2995SOL    HW1 9884   1.848   1.717   6.599
 2995SOL    HW2 9885   1.847   1.733   6.437
 2996SOL     OW 9886   4.035   5.050   5.958
 2996SOL    HW1 9887   4.082   5.111   6.022
 2996SOL    HW2 9888   4.085   4.964   5.951
 2997SOL     OW 9889   5.719   6.735   1.207
 2997SOL    HW1 9890   5.698   6.790   1.126
 2997SOL    HW2 9891   5.663   6.765   1.284
 2998SOL     OW 9892   6.209   5.695   4.058
 2998SOL    HW1 9893   6.111   5.717   4.055
 2998SOL    HW2 9894   6.225   5.623   4.126
 2999SOL     OW 9895   3.518   6.992   3.173
 2999SOL    HW1 9896   3.509   6.932   3.094
 2999SOL    HW2 9897   3.452   0.047   3.167
 3000SOL     OW 9898   1.207   3.001   5.721
 3000SOL    HW1 9899   1.295   3.023   5.680
 3000SOL    HW2 9900   1.191   2.903   5.716
 3001SOL     OW 9901   4.804   6.839   5.626
 3001SOL    HW1 9902   4.888   6.849   5.678
 3001SOL    HW2 9903   4.792   6.919   5.566
 3002SOL     OW 9904   3.881   0.207   5.929
 3002SOL    HW1 9905   3.803   0.167   5.881
 3002SOL    HW2 9906   3.867   0.306   5.938
 3003SOL     OW 9907   2.777   6.618   5.719
 3003SOL    HW1 9908   2.690   6.660   5.693
 3003SOL    HW2 9909   2.845   6.636   5.649
 3004SOL     OW 9910   5.914   3.214   4.366
 3004SOL    HW1 9911   5.895   3.289   4.430
 3004SOL    HW2 9912   5.833   3.156   4.357
 3005SOL     OW 9913   4.006   2.881   1.116
 3005SOL    HW1 9914   3.928   2.908   1.172
 3005SOL    HW2 9915   4.038   2.959   1.063
 3006SOL     OW 9916   5.554   0.698   1.317
 3006SOL    HW1 9917   5.471   0.661   1.359
 3006SOL    HW2 9918   5.631   0.687   1.380
 3007SOL     OW 9919   6.035   4.746   3.123
 3007SOL    HW1 9920   6.019   4.784   3.032
 3007SOL    HW2 9921   5.954   4.763   3.180
 3008SOL     OW 9922   3.193   6.509   5.722
 3008SOL    HW1 9923   3.186   6.529   5.625
 3008SOL    HW2 9924   3.221   6.591   5.771
 3009SOL     OW 9925   1.321   6.909   3.224
 3009SOL    HW1 9926   1.258   6.963   3.280
 3009SOL    HW2 9927   1.394   6.873   3.282
 3010SOL     OW 9928   3.666   6.094   2.756
 3010SOL    HW1 9929   3.747   6.061   2.709
 3010SOL    HW2 9930   3.684   6.101   2.854
 3011SOL     OW 9931   5.448   6.948   0.318
 3011SOL    HW1 9932   5.470   6.885   0.244
 3011SOL    HW2 9933   5.512   6.934   0.394
 3012SOL     OW 9934   0.400   3.874   3.305
 3012SOL    HW1 9935   0.414   3.876   3.404
 3012SOL    HW2 9936   0.488   3.878   3.259
 3013SOL     OW 9937   5.764   5.091   2.155
 3013SOL    HW1 9938   5.736   5.154   2.228
 3013SOL    HW2 9939   5.787   5.143   2.073
 3014SOL     OW 9940   4.661   0.682   4.151
 3014SOL    HW1 9941   4.710   0.599   4.126
 3014SOL    HW2 9942   4.724   0.760   4.150
 3015SOL     OW 9943   3.190   2.181   0.672
 3015SOL    HW1 9944   3.214   2.255   0.609
 3015SOL    HW2 9945   3.133   2.113   0.624
 3016SOL     OW 9946   3.969   0.003   3.494
 3016SOL    HW1 9947   3.875   0.009   3.459
 3016SOL    HW2 9948   3.979   0.066   3.572
 3017SOL     OW 9949   0.651   5.761   1.096
 3017SOL    HW1 9950   0.560   5.746   1.133
 3017SOL    HW2 9951   0.707   5.809   1.163
 3018SOL     OW 9952   4.151   6.585   0.199
 3018SOL    HW1 9953   4.245   6.559   0.177
 3018SOL    HW2 9954   4.109   6.516   0.258
 3019SOL     OW 9955   3.919   7.002   1.233
 3019SOL    HW1 9956   3.976   0.059   1.205
 3019SOL    HW2 9957   3.977   6.925   1.259
 3020SOL     OW 9958   2.759   3.412   1.194
 3020SOL    HW1 9959   2.788   3.497   1.150
 3020SOL    HW2 9960   2.717   3.433   1.283
 3021SOL     OW 9961   2.188   2.119   0.273
 3021SOL    HW1 9962   2.263   2.053   0.266
 3021SOL    HW2 9963   2.216   2.205   0.231
 3022SOL     OW 9964   4.974   6.750   2.805
 3022SOL    HW1 9965   4.883   6.792   2.793
 3022SOL    HW2 9966   4.992   6.736   2.902
 3023SOL     OW 9967   4.790   5.770   2.708
 3023SOL    HW1 9968   4.721   5.747   2.777
 3023SOL    HW2 9969   4.793   5.698   2.639
 3024SOL     OW 9970   3.143   0.470   0.063
 3024SOL    HW1 9971   3.122   0.499   0.156
 3024SOL    HW2 9972   3.240   0.485   0.044
 3025SOL     OW 9973   2.482   2.735   0.947
 3025SOL    HW1 9974   2.431   2.766   1.027
 3025SOL    HW2 9975   2.577   2.718   0.972
 3026SOL     OW 9976   2.058   4.068   0.858
 3026SOL    HW1 9977   2.081   4.120   0.940
 3026SOL    HW2 9978   2.072   4.125   0.777
 3027SOL     OW 9979   1.931   1.962   3.330
 3027SOL    HW1 9980   1.908   1.873   3.370
 3027SOL    HW2 9981   1.940   1.952   3.231
 3028SOL     OW 9982   1.216   6.079   5.541
 3028SOL    HW1 9983   1.253   6.170   5.519
 3028SOL    HW2 9984   1.290   6.013   5.544
 3029SOL     OW 9985   6.187   5.739   5.326
 3029SOL    HW1 9986   6.130   5.809   5.284
 3029SOL    HW2 9987   6.129   5.667   5.365
 3030SOL     OW 9988   1.344   1.812   5.538
 3030SOL    HW1 9989   1.304   1.759   5.463
 3030SOL    HW2 9990   1.285   1.807   5.618
 3031SOL     OW 9991   0.432   4.566   5.754
 3031SOL    HW1 9992   0.337   4.580   5.728
 3031SOL    HW2 9993   0.473   4.495   5.696
 3032SOL     OW 9994   5.362   0.455   5.863
 3032SOL    HW1 9995   5.361   0.423   5.768
 3032SOL    HW2 9996   5.269   0.451   5.900
 3033SOL     OW 9997   0.236   3.963   6.858
 3033SOL    HW1 9998   0.307   3.893   6.846
 3033SOL    HW2 9999   0.146   3.919   6.858
 3034SOL     OW10000   2.791   6.083   4.653
 3034SOL    HW110001   2.804   6.024   4.733
 3034SOL    HW210002   2.777   6.177   4.683
 3035SOL     OW10003   5.468   1.256   7.014
 3035SOL    HW110004   5.554   1.229   0.039
 3035SOL    HW210005   5.485   1.331   6.951
 3036SOL     OW10006   1.084   4.245   6.975
 3036SOL    HW110007   1.125   4.336   6.962
 3036SOL    HW210008   1.157   4.179   6.990
 3037SOL     OW10009   6.779   6.394   5.164
 3037SOL    HW110010   6.818   6.318   5.112
 3037SOL    HW210011   6.679   6.393   5.155
 3038SOL     OW10012   5.530   6.719   6.156
 3038SOL    HW110013   5.489   6.772   6.082
 3038SOL    HW210014   5.494   6.751   6.244
 3039SOL     OW10015   0.715   4.503   1.667
 3039SOL    HW110016   0.645   4.553   1.616
 3039SOL    HW210017   0.773   4.453   1.603
 3040SOL     OW10018   2.907   3.435   6.916
 3040SOL    HW110019   2.967   3.355   6.920
 3040SOL    HW210020   2.820   3.409   6.872
 3041SOL     OW10021   2.090   2.314   6.087
 3041SOL    HW110022   2.166   2.252   6.108
 3041SOL    HW210023   2.102   2.351   5.995
 3042SOL     OW10024   4.435   0.480   2.003
 3042SOL    HW110025   4.449   0.576   1.982
 3042SOL    HW210026   4.371   0.440   1.937
 3043SOL     OW10027   0.692   5.645   0.680
 3043SOL    HW110028   0.682   5.558   0.728
 3043SOL    HW210029   0.738   5.631   0.593
 3044SOL     OW10030   3.235   4.319   6.199
 3044SOL    HW110031   3.153   4.338   6.145
 3044SOL    HW210032   3.278   4.235   6.167
 3045SOL     OW10033   5.528   2.014   2.953
 3045SOL    HW110034   5.561   2.093   2.902
 3045SOL    HW210035   5.429   2.009   2.946
 3046SOL     OW10036   1.677   2.546   5.530
 3046SOL    HW110037   1.758   2.502   5.570
 3046SOL    HW210038   1.628   2.596   5.601
 3047SOL     OW10039   6.358   5.131   2.336
 3047SOL    HW110040   6.347   5.175   2.425
 3047SOL    HW210041   6.306   5.182   2.267
 3048SOL     OW10042   3.216   3.004   1.440
 3048SOL    HW110043   3.234   2.917   1.394
 3048SOL    HW210044   3.258   3.078   1.389
 3049SOL     OW10045   0.778   0.237   2.280
 3049SOL    HW110046   0.760   0.333   2.303
 3049SOL    HW210047   0.852   0.202   2.338
 3050SOL     OW10048   4.488   5.662   3.723
 3050SOL    HW110049   4.546   5.580   3.723
 3050SOL    HW210050   4.506   5.715   3.806
 3051SOL     OW10051   2.918   5.133   0.047
 3051SOL    HW110052   2.985   5.186   7.016
 3051SOL    HW210053   2.917   5.039   0.013
 3052SOL     OW10054   3.759   6.794   3.314
 3052SOL    HW110055   3.676   6.740   3.299
 3052SOL    HW210056   3.739   6.870   3.376
 3053SOL     OW10057   5.690   6.244   0.137
 3053SOL    HW110058   5.611   6.206   0.184
 3053SOL    HW210059   5.773   6.201   0.171
 3054SOL     OW10060   0.603   3.376   0.026
 3054SOL    HW110061   0.554   3.318   6.980
 3054SOL    HW210062   0.682   3.417   7.001
 3055SOL     OW10063   5.622   6.204   3.614
 3055SOL    HW110064   5.538   6.187   3.561
 3055SOL    HW210065   5.667   6.286   3.578
 3056SOL     OW10066   6.828   0.598   0.864
 3056SOL    HW110067   6.779   0.685   0.862
 3056SOL    HW210068   6.904   0.604   0.929
 3057SOL     OW10069   5.976   5.141   2.529
 3057SOL    HW110070   6.000   5.094   2.444
 3057SOL    HW210071   5.934   5.075   2.592
 3058SOL     OW10072   6.915   5.377   1.235
 3058SOL    HW110073   7.010   5.396   1.210
 3058SOL    HW210074   6.854   5.426   1.173
 3059SOL     OW10075   1.476   2.280   4.781
 3059SOL    HW110076   1.458   2.339   4.703
 3059SOL    HW210077   1.575   2.271   4.794
 3060SOL     OW10078   6.534   6.628   1.443
 3060SOL    HW110079   6.568   6.555   1.503
 3060SOL    HW210080   6.609   6.692   1.424
 3061SOL     OW10081   0.395   0.329   5.665
 3061SOL    HW110082   0.297   0.317   5.683
 3061SOL    HW210083   0.410   0.418   5.621
 3062SOL     OW10084   2.838   6.180   0.587
 3062SOL    HW110085   2.790   6.096   0.610
 3062SOL    HW210086   2.825   6.201   0.490
 3063SOL     OW10087   1.960   5.150   1.176
 3063SOL    HW110088   1.892   5.194   1.117
 3063SOL    HW210089   2.051   5.161   1.135
 3064SOL     OW10090   5.988   3.996   3.117
 3064SOL    HW110091   6.087   4.008   3.105
 3064SOL    HW210092   5.940   4.040   3.041
 3065SOL     OW10093   1.541   0.737   0.106
 3065SOL    HW110094   1.587   0.818   0.142
 3065SOL    HW210095   1.442   0.754   0.101
 3066SOL     OW10096   6.542   4.788   1.554
 3066SOL    HW110097   6.463   4.743   1.513
 3066SOL    HW210098   6.521   4.885   1.566
 3067SOL     OW10099   4.693   6.911   4.167
 3067SOL    HW110100   4.763   6.869   4.225
 3067SOL    HW210101   4.699   7.011   4.174
 3068SOL     OW10102   5.619   5.050   0.973
 3068SOL    HW110103   5.698   4.989   0.965
 3068SOL    HW210104   5.619   5.094   1.063
 3069SOL     OW10105   0.528   5.997   2.104
 3069SOL    HW110106   0.537   6.015   2.202
 3069SOL    HW210107   0.607   5.945   2.072
 3070SOL     OW10108   3.132   1.239   4.218
 3070SOL    HW110109   3.178   1.256   4.132
 3070SOL    HW210110   3.059   1.172   4.204
 3071SOL     OW10111   5.418   0.069   3.473
 3071SOL    HW110112   5.382   7.005   3.514
 3071SOL    HW210113   5.487   0.109   3.534
 3072SOL     OW10114   0.659   6.655   2.054
 3072SOL    HW110115   0.568   6.694   2.062
 3072SOL    HW210116   0.687   6.654   1.959
 3073SOL     OW10117   1.461   3.654   5.359
 3073SOL    HW110118   1.546   3.673   5.310
 3073SOL    HW210119   1.409   3.739   5.371
 3074SOL     OW10120   4.563   3.189   5.943
 3074SOL    HW110121   4.550   3.090   5.937
 3074SOL    HW210122   4.608   3.223   5.861
 3075SOL     OW10123   1.556   5.825   0.973
 3075SOL    HW110124   1.601   5.879   1.045
 3075SOL    HW210125   1.590   5.731   0.976
 3076SOL     OW10126   6.348   0.762   5.019
 3076SOL    HW110127   6.439   0.797   5.040
 3076SOL    HW210128   6.280   0.809   5.075
 3077SOL     OW10129   5.472   4.738   4.587
 3077SOL    HW110130   5.545   4.763   4.523
 3077SOL    HW210131   5.414   4.817   4.605
 3078SOL     OW10132   1.584   3.775   1.781
 3078SOL    HW110133   1.674   3.732   1.783
 3078SOL    HW210134   1.514   3.709   1.806
 3079SOL     OW10135   6.709   2.309   5.390
 3079SOL    HW110136   6.683   2.392   5.341
 3079SOL    HW210137   6.733   2.238   5.324
 3080SOL     OW10138   6.516   5.085   0.626
 3080SOL    HW110139   6.418   5.076   0.613
 3080SOL    HW210140   6.548   5.016   0.691
 3081SOL     OW10141   0.483   4.521   5.407
 3081SOL    HW110142   0.415   4.594   5.395
 3081SOL    HW210143   0.550   4.526   5.333
 3082SOL     OW10144   3.266   0.111   2.537
 3082SOL    HW110145   3.303   0.202   2.557
 3082SOL    HW210146   3.320   0.042   2.585
 3083SOL     OW10147   3.193   0.837   2.098
 3083SOL    HW110148   3.260   0.763   2.097
 3083SOL    HW210149   3.114   0.810   2.152
 3084SOL     OW10150   5.739   5.733   4.727
 3084SOL    HW110151   5.752   5.786   4.643
 3084SOL    HW210152   5.753   5.792   4.806
 3085SOL     OW10153   0.460   5.738   2.525
 3085SOL    HW110154   0.380   5.795   2.513
 3085SOL    HW210155   0.497   5.712   2.436
 3086SOL     OW10156   4.640   1.157   3.944
 3086SOL    HW110157   4.572   1.225   3.971
 3086SOL    HW210158   4.606   1.103   3.868
 3087SOL     OW10159   6.242   4.066   3.052
 3087SOL    HW110160   6.220   4.156   3.014
 3087SOL    HW210161   6.291   4.012   2.983
 3088SOL     OW10162   2.495   4.749   5.648
 3088SOL    HW110163   2.430   4.810   5.604
 3088SOL    HW210164   2.524   4.788   5.735
 3089SOL     OW10165   1.506   2.583   7.000
 3089SOL    HW110166   1.425   2.576   0.038
 3089SOL    HW210167   1.587   2.598   0.037
 3090SOL     OW10168   1.155   1.853   1.140
 3090SOL    HW110169   1.185   1.764   1.177
 3090SOL    HW210170   1.131   1.842   1.044
 3091SOL     OW10171   2.916   0.065   0.716
 3091SOL    HW110172   2.948   6.995   0.685
 3091SOL    HW210173   2.986   0.108   0.772
 3092SOL     OW10174   5.687   0.124   1.354
 3092SOL    HW110175   5.727   0.109   1.263
 3092SOL    HW210176   5.667   0.035   1.396
 3093SOL     OW10177   5.828   5.384   5.428
 3093SOL    HW110178   5.827   5.330   5.513
 3093SOL    HW210179   5.743   5.370   5.378
 3094SOL     OW10180   2.923   6.082   5.478
 3094SOL    HW110181   3.021   6.093   5.461
 3094SOL    HW210182   2.891   5.998   5.433
 3095SOL     OW10183   2.721   4.729   4.722
 3095SOL    HW110184   2.732   4.652   4.785
 3095SOL    HW210185   2.648   4.709   4.657
 3096SOL     OW10186   0.329   0.999   5.439
 3096SOL    HW110187   0.300   0.972   5.347
 3096SOL    HW210188   0.259   0.970   5.506
 3097SOL     OW10189   1.264   2.901   0.093
 3097SOL    HW110190   1.264   2.804   0.118
 3097SOL    HW210191   1.175   2.925   0.056
 3098SOL     OW10192   2.568   2.982   0.527
 3098SOL    HW110193   2.589   3.066   0.478
 3098SOL    HW210194   2.476   2.951   0.503
 3099SOL     OW10195   0.850   5.858   5.570
 3099SOL    HW110196   0.920   5.877   5.502
 3099SOL    HW210197   0.793   5.939   5.583
 3100SOL     OW10198   6.712   6.676   6.496
 3100SOL    HW110199   6.714   6.767   6.455
 3100SOL    HW210200   6.803   6.636   6.495
 3101SOL     OW10201   4.969   0.161   6.485
 3101SOL    HW110202   4.912   0.081   6.466
 3101SOL    HW210203   5.061   0.131   6.510
 3102SOL     OW10204   1.886   4.478   0.858
 3102SOL    HW110205   1.975   4.476   0.812
 3102SOL    HW210206   1.817   4.515   0.795
 3103SOL     OW10207   4.108   2.791   1.706
 3103SOL    HW110208   4.043   2.720   1.678
 3103SOL    HW210209   4.199   2.751   1.713
 3104SOL     OW10210   5.797   6.069   4.192
 3104SOL    HW110211   5.833   6.088   4.100
 3104SOL    HW210212   5.726   6.136   4.214
 3105SOL     OW10213   5.576   6.613   4.424
 3105SOL    HW110214   5.668   6.625   4.459
 3105SOL    HW210215   5.517   6.576   4.496
 3106SOL     OW10216   0.045   2.715   3.203
 3106SOL    HW110217   0.008   2.661   3.279
 3106SOL    HW210218   6.993   2.728   3.134
 3107SOL     OW10219   2.381   0.553   4.144
 3107SOL    HW110220   2.433   0.494   4.081
 3107SOL    HW210221   2.414   0.538   4.237
 3108SOL     OW10222   2.526   1.165   3.790
 3108SOL    HW110223   2.441   1.117   3.770
 3108SOL    HW210224   2.590   1.102   3.834
 3109SOL     OW10225   5.014   5.764   3.115
 3109SOL    HW110226   5.101   5.715   3.112
 3109SOL    HW210227   4.944   5.711   3.066
 3110SOL     OW10228   1.311   3.117   2.694
 3110SOL    HW110229   1.339   3.064   2.774
 3110SOL    HW210230   1.379   3.188   2.676
 3111SOL     OW10231   0.458   5.323   3.586
 3111SOL    HW110232   0.556   5.340   3.597
 3111SOL    HW210233   0.437   5.316   3.489
 3112SOL     OW10234   4.633   3.869   6.747
 3112SOL    HW110235   4.720   3.915   6.766
 3112SOL    HW210236   4.647   3.801   6.675
 3113SOL     OW10237   2.801   6.791   3.366
 3113SOL    HW110238   2.813   6.795   3.267
 3113SOL    HW210239   2.865   6.725   3.406
 3114SOL     OW10240   6.408   4.948   0.948
 3114SOL    HW110241   6.421   4.968   1.045
 3114SOL    HW210242   6.497   4.934   0.904
 3115SOL     OW10243   3.259   4.114   0.949
 3115SOL    HW110244   3.320   4.065   0.886
 3115SOL    HW210245   3.312   4.156   1.021
 3116SOL     OW10246   6.591   2.395   0.392
 3116SOL    HW110247   6.633   2.307   0.374
 3116SOL    HW210248   6.493   2.390   0.371
 3117SOL     OW10249   4.042   3.081   5.265
 3117SOL    HW110250   3.956   3.064   5.216
 3117SOL    HW210251   4.023   3.135   5.347
 3118SOL     OW10252   6.267   3.981   0.929
 3118SOL    HW110253   6.364   3.958   0.932
 3118SOL    HW210254   6.241   4.008   0.837
 3119SOL     OW10255   2.230   4.272   5.497
 3119SOL    HW110256   2.282   4.300   5.577
 3119SOL    HW210257   2.292   4.237   5.427
 3120SOL     OW10258   3.038   5.649   5.046
 3120SOL    HW110259   3.071   5.583   5.113
 3120SOL    HW210260   2.940   5.663   5.059
 3121SOL     OW10261   6.497   0.457   2.332
 3121SOL    HW110262   6.495   0.444   2.233
 3121SOL    HW210263   6.430   0.396   2.375
 3122SOL     OW10264   2.911   5.732   6.744
 3122SOL    HW110265   2.851   5.811   6.734
 3122SOL    HW210266   2.952   5.711   6.655
 3123SOL     OW10267   3.345   6.448   3.866
 3123SOL    HW110268   3.266   6.413   3.917
 3123SOL    HW210269   3.417   6.378   3.864
 3124SOL     OW10270   4.197   1.024   5.699
 3124SOL    HW110271   4.159   1.116   5.690
 3124SOL    HW210272   4.240   0.996   5.613
 3125SOL     OW10273   6.771   1.573   5.867
 3125SOL    HW110274   6.700   1.508   5.894
 3125SOL    HW210275   6.753   1.662   5.909
 3126SOL     OW10276   4.337   6.401   0.070
 3126SOL    HW110277   4.419   6.352   0.040
 3126SOL    HW210278   4.302   6.358   0.154
 3127SOL     OW10279   0.874   1.773   4.060
 3127SOL    HW110280   0.914   1.776   4.151
 3127SOL    HW210281   0.919   1.840   4.001
 3128SOL     OW10282   1.621   1.175   1.080
 3128SOL    HW110283   1.613   1.183   0.981
 3128SOL    HW210284   1.629   1.079   1.105
 3129SOL     OW10285   0.080   3.612   5.035
 3129SOL    HW110286   0.027   3.601   5.119
 3129SOL    HW210287   0.018   3.610   4.956
 3130SOL     OW10288   1.620   4.734   1.980
 3130SOL    HW110289   1.678   4.701   2.054
 3130SOL    HW210290   1.596   4.830   1.997
 3131SOL     OW10291   6.924   3.506   3.195
 3131SOL    HW110292   6.845   3.567   3.188
 3131SOL    HW210293   6.913   3.429   3.132
 3132SOL     OW10294   5.391   6.244   5.524
 3132SOL    HW110295   5.310   6.223   5.469
 3132SOL    HW210296   5.474   6.229   5.469
 3133SOL     OW10297   2.862   1.785   3.351
 3133SOL    HW110298   2.889   1.751   3.260
 3133SOL    HW210299   2.886   1.717   3.420
 3134SOL     OW10300   4.936   3.160   1.946
 3134SOL    HW110301   4.955   3.214   2.028
 3134SOL    HW210302   4.861   3.096   1.965
 3135SOL     OW10303   3.501   1.868   3.423
 3135SOL    HW110304   3.587   1.899   3.381
 3135SOL    HW210305   3.426   1.926   3.390
 3136SOL     OW10306   5.706   6.278   5.218
 3136SOL    HW110307   5.687   6.363   5.267
 3136SOL    HW210308   5.763   6.296   5.138
 3137SOL     OW10309   5.690   2.007   3.669
 3137SOL    HW110310   5.623   2.025   3.597
 3137SOL    HW210311   5.775   1.973   3.627
 3138SOL     OW10312   5.647   1.556   4.856
 3138SOL    HW110313   5.690   1.549   4.766
 3138SOL    HW210314   5.662   1.472   4.907
 3139SOL     OW10315   4.778   6.165   5.256
 3139SOL    HW110316   4.812   6.238   5.316
 3139SOL    HW210317   4.793   6.190   5.161
 3140SOL     OW10318   6.713   6.207   6.686
 3140SOL    HW110319   6.657   6.176   6.763
 3140SOL    HW210320   6.810   6.204   6.712
 3141SOL     OW10321   1.190   5.378   0.243
 3141SOL    HW110322   1.151   5.339   0.159
 3141SOL    HW210323   1.197   5.477   0.234
 3142SOL     OW10324   4.538   6.402   6.335
 3142SOL    HW110325   4.590   6.474   6.288
 3142SOL    HW210326   4.446   6.435   6.354
 3143SOL     OW10327   6.654   1.490   0.507
 3143SOL    HW110328   6.700   1.535   0.430
 3143SOL    HW210329   6.704   1.407   0.531
 3144SOL     OW10330   1.810   2.940   6.556
 3144SOL    HW110331   1.742   3.006   6.524
 3144SOL    HW210332   1.775   2.847   6.543
 3145SOL     OW10333   3.286   6.121   2.673
 3145SOL    HW110334   3.359   6.062   2.637
 3145SOL    HW210335   3.289   6.210   2.628
 3146SOL     OW10336   1.096   0.049   3.417
 3146SOL    HW110337   1.131   0.057   3.510
 3146SOL    HW210338   0.996   0.041   3.418
 3147SOL     OW10339   4.881   3.940   0.103
 3147SOL    HW110340   4.928   3.862   0.144
 3147SOL    HW210341   4.937   4.022   0.114
 3148SOL     OW10342   3.380   5.086   4.619
 3148SOL    HW110343   3.427   5.119   4.538
 3148SOL    HW210344   3.324   5.160   4.657
 3149SOL     OW10345   3.537   0.730   5.734
 3149SOL    HW110346   3.561   0.826   5.743
 3149SOL    HW210347   3.583   0.677   5.806
 3150SOL     OW10348   5.552   6.519   4.786
 3150SOL    HW110349   5.526   6.498   4.880
 3150SOL    HW210350   5.567   6.617   4.776
 3151SOL     OW10351   4.469   1.315   6.085
 3151SOL    HW110352   4.483   1.363   5.999
 3151SOL    HW210353   4.555   1.270   6.112
 3152SOL     OW10354   1.108   5.889   0.910
 3152SOL    HW110355   1.152   5.918   0.996
 3152SOL    HW210356   1.149   5.940   0.834
 3153SOL     OW10357   6.782   4.518   2.304
 3153SOL    HW110358   6.872   4.551   2.331
 3153SOL    HW210359   6.768   4.425   2.338
 3154SOL     OW10360   5.713   2.274   5.896
 3154SOL    HW110361   5.654   2.336   5.948
 3154SOL    HW210362   5.656   2.209   5.845
 3155SOL     OW10363   5.714   5.495   1.177
 3155SOL    HW110364   5.710   5.416   1.239
 3155SOL    HW210365   5.665   5.572   1.219
 3156SOL     OW10366   3.472   3.594   3.683
 3156SOL    HW110367   3.561   3.555   3.656
 3156SOL    HW210368   3.408   3.520   3.704
 3157SOL     OW10369   2.271   4.132   4.503
 3157SOL    HW110370   2.276   4.117   4.602
 3157SOL    HW210371   2.229   4.052   4.460
 3158SOL     OW10372   4.967   6.391   0.907
 3158SOL    HW110373   5.012   6.302   0.917
 3158SOL    HW210374   4.870   6.376   0.889
 3159SOL     OW10375   5.203   5.214   0.196
 3159SOL    HW110376   5.149   5.243   0.276
 3159SOL    HW210377   5.155   5.139   0.149
 3160SOL     OW10378   5.035   4.283   6.883
 3160SOL    HW110379   4.968   4.224   6.928
 3160SOL    HW210380   5.113   4.228   6.852
 3161SOL     OW10381   1.100   1.888   3.050
 3161SOL    HW110382   1.200   1.887   3.048
 3161SOL    HW210383   1.066   1.797   3.025
 3162SOL     OW10384   0.559   5.554   6.402
 3162SOL    HW110385   0.548   5.625   6.332
 3162SOL    HW210386   0.509   5.581   6.485
 3163SOL     OW10387   2.917   3.802   6.055
 3163SOL    HW110388   2.900   3.810   5.957
 3163SOL    HW210389   2.953   3.711   6.076
 3164SOL     OW10390   5.313   5.178   6.944
 3164SOL    HW110391   5.369   5.097   6.962
 3164SOL    HW210392   5.275   5.212   0.010
 3165SOL     OW10393   0.465   1.502   1.717
 3165SOL    HW110394   0.402   1.425   1.711
 3165SOL    HW210395   0.510   1.516   1.629
 3166SOL     OW10396   5.511   3.220   6.162
 3166SOL    HW110397   5.452   3.300   6.155
 3166SOL    HW210398   5.516   3.190   6.258
 3167SOL     OW10399   1.248   5.378   1.668
 3167SOL    HW110400   1.308   5.424   1.602
 3167SOL    HW210401   1.291   5.294   1.700
 3168SOL     OW10402   5.768   3.370   1.305
 3168SOL    HW110403   5.676   3.410   1.298
 3168SOL    HW210404   5.834   3.432   1.265
 3169SOL     OW10405   1.291   2.089   5.518
 3169SOL    HW110406   1.225   2.090   5.593
 3169SOL    HW210407   1.355   2.013   5.531
 3170SOL     OW10408   4.120   1.002   6.919
 3170SOL    HW110409   4.203   1.038   6.961
 3170SOL    HW210410   4.133   0.996   6.820
 3171SOL     OW10411   5.759   6.388   3.442
 3171SOL    HW110412   5.838   6.428   3.395
 3171SOL    HW210413   5.694   6.353   3.375
 3172SOL     OW10414   6.186   0.236   4.854
 3172SOL    HW110415   6.266   0.217   4.911
 3172SOL    HW210416   6.134   0.311   4.894
 3173SOL     OW10417   1.880   0.605   1.531
 3173SOL    HW110418   1.959   0.663   1.512
 3173SOL    HW210419   1.835   0.637   1.615
 3174SOL     OW10420   2.210   2.875   5.907
 3174SOL    HW110421   2.146   2.932   5.856
 3174SOL    HW210422   2.196   2.887   6.005
 3175SOL     OW10423   0.507   6.564   0.655
 3175SOL    HW110424   0.505   6.605   0.563
 3175SOL    HW210425   0.560   6.623   0.716
 3176SOL     OW10426   0.690   4.858   6.787
 3176SOL    HW110427   0.744   4.814   6.716
 3176SOL    HW210428   0.593   4.860   6.760
 3177SOL     OW10429   5.886   6.248   6.169
 3177SOL    HW110430   5.814   6.279   6.232
 3177SOL    HW210431   5.851   6.172   6.114
 3178SOL     OW10432   1.112   2.935   1.374
 3178SOL    HW110433   1.104   3.023   1.421
 3178SOL    HW210434   1.142   2.950   1.280
 3179SOL     OW10435   1.912   1.466   2.803
 3179SOL    HW110436   1.974   1.469   2.725
 3179SOL    HW210437   1.914   1.554   2.851
 3180SOL     OW10438   5.522   0.864   6.195
 3180SOL    HW110439   5.536   0.828   6.287
 3180SOL    HW210440   5.479   0.794   6.138
 3181SOL     OW10441   0.730   1.354   3.037
 3181SOL    HW110442   0.789   1.289   2.990
 3181SOL    HW210443   0.785   1.406   3.104
 3182SOL     OW10444   1.886   4.848   5.111
 3182SOL    HW110445   1.934   4.775   5.159
 3182SOL    HW210446   1.929   4.863   5.022
 3183SOL     OW10447   3.571   3.482   1.546
 3183SOL    HW110448   3.597   3.468   1.642
 3183SOL    HW210449   3.569   3.393   1.499
 3184SOL     OW10450   2.220   1.549   2.310
 3184SOL    HW110451   2.247   1.629   2.256
 3184SOL    HW210452   2.249   1.561   2.405
 3185SOL     OW10453   6.865   6.945   5.559
 3185SOL    HW110454   6.774   6.951   5.600
 3185SOL    HW210455   6.902   6.853   5.572
 3186SOL     OW10456   2.723   0.747   1.945
 3186SOL    HW110457   2.743   0.761   2.042
 3186SOL    HW210458   2.751   0.828   1.893
 3187SOL     OW10459   3.074   4.548   0.022
 3187SOL    HW110460   3.109   4.610   6.971
 3187SOL    HW210461   3.115   4.571   0.110
 3188SOL     OW10462   4.316   6.300   3.107
 3188SOL    HW110463   4.293   6.274   3.013
 3188SOL    HW210464   4.371   6.228   3.149
 3189SOL     OW10465   0.922   6.584   2.260
 3189SOL    HW110466   0.985   6.648   2.216
 3189SOL    HW210467   0.830   6.624   2.264
 3190SOL     OW10468   0.467   6.097   1.847
 3190SOL    HW110469   0.498   6.073   1.939
 3190SOL    HW210470   0.376   6.138   1.852
 3191SOL     OW10471   3.891   0.923   0.979
 3191SOL    HW110472   3.947   0.856   0.929
 3191SOL    HW210473   3.903   1.014   0.938
 3192SOL     OW10474   0.140   3.134   3.004
 3192SOL    HW110475   0.169   3.096   3.091
 3192SOL    HW210476   0.159   3.069   2.930
 3193SOL     OW10477   5.004   3.359   6.599
 3193SOL    HW110478   4.992   3.264   6.571
 3193SOL    HW210479   4.933   3.383   6.665
 3194SOL     OW10480   0.642   3.205   6.143
 3194SOL    HW110481   0.594   3.121   6.167
 3194SOL    HW210482   0.727   3.211   6.193
 3195SOL     OW10483   0.709   3.354   3.423
 3195SOL    HW110484   0.687   3.256   3.415
 3195SOL    HW210485   0.741   3.387   3.334
 3196SOL     OW10486   6.834   0.157   5.897
 3196SOL    HW110487   6.824   0.214   5.815
 3196SOL    HW210488   6.744   0.144   5.939
 3197SOL     OW10489   1.132   4.222   4.039
 3197SOL    HW110490   1.070   4.269   3.976
 3197SOL    HW210491   1.093   4.134   4.065
 3198SOL     OW10492   6.767   1.479   6.736
 3198SOL    HW110493   6.837   1.542   6.702
 3198SOL    HW210494   6.784   1.458   6.832
 3199SOL     OW10495   3.895   1.920   2.593
 3199SOL    HW110496   3.917   1.863   2.672
 3199SOL    HW210497   3.940   1.883   2.511
 3200SOL     OW10498   6.957   2.086   1.188
 3200SOL    HW110499   6.966   2.160   1.255
 3200SOL    HW210500   6.988   2.001   1.228
 3201SOL     OW10501   4.671   4.279   2.736
 3201SOL    HW110502   4.586   4.331   2.733
 3201SOL    HW210503   4.686   4.236   2.646
 3202SOL     OW10504   1.982   5.655   1.569
 3202SOL    HW110505   1.966   5.748   1.603
 3202SOL    HW210506   1.956   5.588   1.638
 3203SOL     OW10507   6.332   6.760   1.302
 3203SOL    HW110508   6.386   6.844   1.309
 3203SOL    HW210509   6.374   6.690   1.360
 3204SOL     OW10510   6.637   5.800   1.746
 3204SOL    HW110511   6.545   5.806   1.708
 3204SOL    HW210512   6.675   5.710   1.728
 3205SOL     OW10513   0.669   3.659   3.368
 3205SOL    HW110514   0.749   3.604   3.345
 3205SOL    HW210515   0.599   3.601   3.409
 3206SOL     OW10516   1.017   0.307   6.678
 3206SOL    HW110517   1.112   0.335   6.670
 3206SOL    HW210518   0.976   0.304   6.586
 3207SOL     OW10519   0.164   1.126   4.230
 3207SOL    HW110520   0.072   1.155   4.256
 3207SOL    HW210521   0.186   1.163   4.140
 3208SOL     OW10522   5.935   6.967   5.088
 3208SOL    HW110523   5.837   6.982   5.102
 3208SOL    HW210524   5.985   0.031   5.108
 3209SOL     OW10525   2.295   0.713   3.315
 3209SOL    HW110526   2.391   0.734   3.335
 3209SOL    HW210527   2.247   0.797   3.291
 3210SOL     OW10528   0.289   4.638   3.160
 3210SOL    HW110529   0.201   4.684   3.167
 3210SOL    HW210530   0.363   4.705   3.176
 3211SOL     OW10531   1.351   4.525   1.791
 3211SOL    HW110532   1.371   4.622   1.772
 3211SOL    HW210533   1.373   4.504   1.886
 3212SOL     OW10534   4.818   2.378   5.967
 3212SOL    HW110535   4.741   2.400   5.907
 3212SOL    HW210536   4.864   2.296   5.934
 3213SOL     OW10537   6.257   6.349   1.887
 3213SOL    HW110538   6.333   6.377   1.946
 3213SOL    HW210539   6.200   6.428   1.865
 3214SOL     OW10540   4.027   5.264   6.211
 3214SOL    HW110541   4.037   5.321   6.293
 3214SOL    HW210542   3.950   5.203   6.223
 3215SOL     OW10543   6.126   0.876   6.938
 3215SOL    HW110544   6.077   0.855   0.003
 3215SOL    HW210545   6.195   0.946   6.956
 3216SOL     OW10546   5.574   6.889   4.560
 3216SOL    HW110547   5.485   6.933   4.558
 3216SOL    HW210548   5.593   6.848   4.471
 3217SOL     OW10549   0.009   3.938   1.543
 3217SOL    HW110550   6.938   3.957   1.580
 3217SOL    HW210551   0.074   4.004   1.578
 3218SOL     OW10552   2.806   0.740   2.216
 3218SOL    HW110553   2.890   0.788   2.242
 3218SOL    HW210554   2.729   0.778   2.266
 3219SOL     OW10555   6.470   0.199   4.037
 3219SOL    HW110556   6.422   0.208   4.124
 3219SOL    HW210557   6.421   0.135   3.978
 3220SOL     OW10558   6.268   2.971   5.223
 3220SOL    HW110559   6.215   3.012   5.149
 3220SOL    HW210560   6.206   2.927   5.288
 3221SOL     OW10561   3.793   0.115   2.903
 3221SOL    HW110562   3.890   0.121   2.924
 3221SOL    HW210563   3.739   0.142   2.982
 3222SOL     OW10564   5.879   2.875   3.144
 3222SOL    HW110565   5.907   2.780   3.159
 3222SOL    HW210566   5.837   2.911   3.228
 3223SOL     OW10567   2.530   5.149   5.273
 3223SOL    HW110568   2.563   5.215   5.341
 3223SOL    HW210569   2.588   5.067   5.276
 3224SOL     OW10570   4.200   5.504   0.507
 3224SOL    HW110571   4.253   5.492   0.592
 3224SOL    HW210572   4.259   5.544   0.437
 3225SOL     OW10573   2.586   3.447   0.625
 3225SOL    HW110574   2.489   3.464   0.641
 3225SOL    HW210575   2.622   3.386   0.696
 3226SOL     OW10576   0.666   0.201   3.671
 3226SOL    HW110577   0.619   0.114   3.652
 3226SOL    HW210578   0.745   0.183   3.730
 3227SOL     OW10579   2.448   1.338   5.870
 3227SOL    HW110580   2.388   1.271   5.827
 3227SOL    HW210581   2.421   1.351   5.966
 3228SOL     OW10582   4.855   2.998   4.962
 3228SOL    HW110583   4.931   2.933   4.965
 3228SOL    HW210584   4.871   3.070   5.029
 3229SOL     OW10585   4.188   2.005   4.984
 3229SOL    HW110586   4.151   1.954   5.061
 3229SOL    HW210587   4.288   1.995   4.983
 3230SOL     OW10588   0.850   0.514   3.286
 3230SOL    HW110589   0.806   0.430   3.254
 3230SOL    HW210590   0.803   0.547   3.368
 3231SOL     OW10591   6.255   5.481   1.098
 3231SOL    HW110592   6.333   5.530   1.137
 3231SOL    HW210593   6.170   5.525   1.126
 3232SOL     OW10594   2.352   4.870   3.362
 3232SOL    HW110595   2.331   4.874   3.265
 3232SOL    HW210596   2.435   4.816   3.376
 3233SOL     OW10597   0.898   4.370   1.531
 3233SOL    HW110598   0.989   4.411   1.534
 3233SOL    HW210599   0.881   4.332   1.440
 3234SOL     OW10600   6.984   1.572   5.214
 3234SOL    HW110601   6.914   1.528   5.158
 3234SOL    HW210602   0.001   1.651   5.166
 3235SOL     OW10603   5.499   0.281   2.801
 3235SOL    HW110604   5.480   0.352   2.734
 3235SOL    HW210605   5.575   0.224   2.769
 3236SOL     OW10606   0.834   2.886   1.974
 3236SOL    HW110607   0.892   2.966   1.987
 3236SOL    HW210608   0.739   2.910   1.992
 3237SOL     OW10609   3.327   6.887   4.540
 3237SOL    HW110610   3.389   6.922   4.470
 3237SOL    HW210611   3.306   6.791   4.521
 3238SOL     OW10612   6.503   6.698   6.666
 3238SOL    HW110613   6.588   6.672   6.620
 3238SOL    HW210614   6.515   6.690   6.765
 3239SOL     OW10615   0.231   6.549   5.552
 3239SOL    HW110616   0.182   6.466   5.579
 3239SOL    HW210617   0.264   6.539   5.459
 3240SOL     OW10618   0.645   1.109   4.410
 3240SOL    HW110619   0.615   1.165   4.487
 3240SOL    HW210620   0.654   1.166   4.328
 3241SOL     OW10621   5.072   0.624   4.318
 3241SOL    HW110622   5.014   0.702   4.295
 3241SOL    HW210623   5.135   0.649   4.391
 3242SOL     OW10624   3.524   6.411   0.112
 3242SOL    HW110625   3.534   6.357   0.195
 3242SOL    HW210626   3.537   6.508   0.133
 3243SOL     OW10627   3.345   5.866   0.410
 3243SOL    HW110628   3.430   5.895   0.454
 3243SOL    HW210629   3.367   5.817   0.325
 3244SOL     OW10630   2.690   6.315   5.781
 3244SOL    HW110631   2.613   6.326   5.845
 3244SOL    HW210632   2.775   6.344   5.827
 3245SOL     OW10633   3.567   2.569   6.183
 3245SOL    HW110634   3.545   2.473   6.165
 3245SOL    HW210635   3.484   2.624   6.172
 3246SOL     OW10636   5.201   6.235   3.680
 3246SOL    HW110637   5.121   6.210   3.626
 3246SOL    HW210638   5.187   6.207   3.775
 3247SOL     OW10639   0.148   1.780   4.409
 3247SOL    HW110640   0.227   1.819   4.456
 3247SOL    HW210641   0.136   1.685   4.439
 3248SOL     OW10642   6.085   4.038   2.317
 3248SOL    HW110643   6.159   4.090   2.275
 3248SOL    HW210644   6.007   4.036   2.255
 3249SOL     OW10645   2.785   4.350   5.394
 3249SOL    HW110646   2.815   4.424   5.334
 3249SOL    HW210647   2.799   4.262   5.349
 3250SOL     OW10648   3.968   6.408   1.684
 3250SOL    HW110649   3.934   6.349   1.758
 3250SOL    HW210650   4.067   6.394   1.673
 3251SOL     OW10651   2.894   1.167   3.755
 3251SOL    HW110652   2.936   1.158   3.665
 3251SOL    HW210653   2.832   1.245   3.756
 3252SOL     OW10654   3.305   2.022   3.255
 3252SOL    HW110655   3.211   2.024   3.220
 3252SOL    HW210656   3.369   2.034   3.179
 3253SOL     OW10657   4.753   3.465   0.701
 3253SOL    HW110658   4.656   3.471   0.678
 3253SOL    HW210659   4.768   3.500   0.793
 3254SOL     OW10660   5.515   5.169   2.497
 3254SOL    HW110661   5.559   5.089   2.538
 3254SOL    HW210662   5.584   5.223   2.447
 3255SOL     OW10663   3.889   4.628   0.700
 3255SOL    HW110664   3.946   4.614   0.619
 3255SOL    HW210665   3.793   4.633   0.672
 3256SOL     OW10666   6.392   6.145   5.088
 3256SOL    HW110667   6.354   6.202   5.015
 3256SOL    HW210668   6.465   6.088   5.050
 3257SOL     OW10669   2.204   1.914   1.261
 3257SOL    HW110670   2.189   1.886   1.356
 3257SOL    HW210671   2.128   1.972   1.231
 3258SOL     OW10672   5.473   6.795   1.425
 3258SOL    HW110673   5.408   6.872   1.421
 3258SOL    HW210674   5.557   6.825   1.470
 3259SOL     OW10675   5.937   6.217   2.985
 3259SOL    HW110676   5.942   6.249   2.890
 3259SOL    HW210677   5.862   6.151   2.994
 3260SOL     OW10678   1.285   2.902   6.824
 3260SOL    HW110679   1.203   2.946   6.789
 3260SOL    HW210680   1.290   2.915   6.923
 3261SOL     OW10681   4.252   0.198   3.155
 3261SOL    HW110682   4.274   0.296   3.163
 3261SOL    HW210683   4.239   0.160   3.247
 3262SOL     OW10684   3.260   1.539   3.593
 3262SOL    HW110685   3.232   1.460   3.537
 3262SOL    HW210686   3.341   1.515   3.646
 3263SOL     OW10687   3.159   5.407   2.129
 3263SOL    HW110688   3.168   5.367   2.038
 3263SOL    HW210689   3.126   5.338   2.193
 3264SOL     OW10690   5.427   5.037   6.140
 3264SOL    HW110691   5.512   5.051   6.088
 3264SOL    HW210692   5.366   5.114   6.124
 3265SOL     OW10693   4.320   0.754   6.784
 3265SOL    HW110694   4.282   0.678   6.731
 3265SOL    HW210695   4.258   0.833   6.778
 3266SOL     OW10696   0.490   1.614   6.031
 3266SOL    HW110697   0.555   1.547   5.995
 3266SOL    HW210698   0.538   1.700   6.048
 3267SOL     OW10699   4.495   2.391   1.242
 3267SOL    HW110700   4.449   2.341   1.316
 3267SOL    HW210701   4.590   2.407   1.268
 3268SOL     OW10702   1.065   4.735   6.336
 3268SOL    HW110703   1.090   4.832   6.337
 3268SOL    HW210704   1.054   4.703   6.430
 3269SOL     OW10705   4.965   3.028   0.330
 3269SOL    HW110706   4.934   3.058   0.421
 3269SOL    HW210707   4.979   2.929   0.330
 3270SOL     OW10708   0.788   5.581   4.673
 3270SOL    HW110709   0.855   5.549   4.740
 3270SOL    HW210710   0.697   5.547   4.697
 3271SOL     OW10711   6.174   1.959   1.112
 3271SOL    HW110712   6.180   2.049   1.156
 3271SOL    HW210713   6.264   1.934   1.077
 3272SOL     OW10714   4.970   6.798   0.138
 3272SOL    HW110715   5.056   6.836   0.104
 3272SOL    HW210716   4.930   6.859   0.206
 3273SOL     OW10717   6.994   6.991   2.569
 3273SOL    HW110718   6.999   7.020   2.665
 3273SOL    HW210719   6.934   6.911   2.562
 3274SOL     OW10720   3.912   1.867   6.506
 3274SOL    HW110721   3.844   1.932   6.471
 3274SOL    HW210722   3.945   1.897   6.596
 3275SOL     OW10723   3.409   0.806   6.834
 3275SOL    HW110724   3.357   0.742   6.776
 3275SOL    HW210725   3.345   0.860   6.889
 3276SOL     OW10726   3.088   6.661   0.232
 3276SOL    HW110727   3.035   6.634   0.312
 3276SOL    HW210728   3.186   6.661   0.255
 3277SOL     OW10729   0.104   6.340   5.375
 3277SOL    HW110730   0.200   6.332   5.348
 3277SOL    HW210731   0.067   6.249   5.393
 3278SOL     OW10732   1.356   1.061   0.257
 3278SOL    HW110733   1.323   1.118   0.182
 3278SOL    HW210734   1.445   1.022   0.232
 3279SOL     OW10735   2.030   0.186   1.135
 3279SOL    HW110736   2.016   0.256   1.205
 3279SOL    HW210737   1.965   0.199   1.060
 3280SOL     OW10738   1.818   5.312   5.739
 3280SOL    HW110739   1.886   5.349   5.676
 3280SOL    HW210740   1.855   5.312   5.832
 3281SOL     OW10741   2.989   5.953   0.191
 3281SOL    HW110742   3.076   5.997   0.210
 3281SOL    HW210743   2.996   5.898   0.108
 3282SOL     OW10744   1.684   5.326   2.576
 3282SOL    HW110745   1.685   5.390   2.653
 3282SOL    HW210746   1.774   5.324   2.534
 3283SOL     OW10747   2.181   6.997   3.688
 3283SOL    HW110748   2.258   6.935   3.673
 3283SOL    HW210749   2.102   6.967   3.633
 3284SOL     OW10750   0.132   4.025   6.333
 3284SOL    HW110751   0.079   4.019   6.248
 3284SOL    HW210752   0.190   4.106   6.329
 3285SOL     OW10753   6.551   2.456   4.551
 3285SOL    HW110754   6.607   2.380   4.585
 3285SOL    HW210755   6.609   2.521   4.502
 3286SOL     OW10756   3.503   4.722   5.514
 3286SOL    HW110757   3.418   4.668   5.515
 3286SOL    HW210758   3.528   4.746   5.607
 3287SOL     OW10759   0.820   5.343   1.464
 3287SOL    HW110760   0.908   5.303   1.439
 3287SOL    HW210761   0.749   5.311   1.400
 3288SOL     OW10762   1.210   6.485   6.933
 3288SOL    HW110763   1.152   6.419   6.981
 3288SOL    HW210764   1.300   6.445   6.918
 3289SOL     OW10765   1.108   5.814   4.644
 3289SOL    HW110766   1.100   5.887   4.712
 3289SOL    HW210767   1.190   5.760   4.662
 3290SOL     OW10768   7.011   5.684   1.963
 3290SOL    HW110769   6.992   5.599   1.913
 3290SOL    HW210770   6.939   5.751   1.944
 3291SOL     OW10771   1.808   7.010   1.469
 3291SOL    HW110772   1.792   0.056   1.395
 3291SOL    HW210773   1.879   0.027   1.530
 3292SOL     OW10774   0.547   5.697   5.258
 3292SOL    HW110775   0.614   5.658   5.195
 3292SOL    HW210776   0.582   5.691   5.351
 3293SOL     OW10777   6.434   0.510   3.109
 3293SOL    HW110778   6.374   0.482   3.033
 3293SOL    HW210779   6.439   0.435   3.175
 3294SOL     OW10780   0.580   0.086   6.887
 3294SOL    HW110781   0.501   0.105   6.829
 3294SOL    HW210782   0.650   0.156   6.871
 3295SOL     OW10783   1.446   2.488   6.439
 3295SOL    HW110784   1.444   2.570   6.381
 3295SOL    HW210785   1.352   2.454   6.451
 3296SOL     OW10786   0.471   6.563   1.801
 3296SOL    HW110787   0.476   6.663   1.796
 3296SOL    HW210788   0.385   6.537   1.845
 3297SOL     OW10789   3.096   2.368   5.858
 3297SOL    HW110790   3.113   2.307   5.781
 3297SOL    HW210791   3.003   2.355   5.892
 3298SOL     OW10792   5.841   3.616   3.366
 3298SOL    HW110793   5.929   3.638   3.325
 3298SOL    HW210794   5.776   3.592   3.294
 3299SOL     OW10795   1.293   0.295   4.529
 3299SOL    HW110796   1.235   0.336   4.458
 3299SOL    HW210797   1.277   0.341   4.616
 3300SOL     OW10798   6.530   0.230   4.572
 3300SOL    HW110799   6.533   0.130   4.571
 3300SOL    HW210800   6.606   0.264   4.627
 3301SOL     OW10801   0.765   4.112   2.875
 3301SOL    HW110802   0.735   4.184   2.938
 3301SOL    HW210803   0.827   4.151   2.807
 3302SOL     OW10804   0.789   5.071   3.802
 3302SOL    HW110805   0.786   5.055   3.703
 3302SOL    HW210806   0.717   5.134   3.828
 3303SOL     OW10807   3.397   4.111   3.632
 3303SOL    HW110808   3.463   4.121   3.706
 3303SOL    HW210809   3.304   4.115   3.669
 3304SOL     OW10810   1.095   6.699   3.928
 3304SOL    HW110811   1.184   6.674   3.889
 3304SOL    HW210812   1.025   6.638   3.893
 3305SOL     OW10813   1.120   0.929   1.709
 3305SOL    HW110814   1.185   1.005   1.710
 3305SOL    HW210815   1.084   0.915   1.801
 3306SOL     OW10816   1.094   3.693   2.348
 3306SOL    HW110817   1.156   3.762   2.384
 3306SOL    HW210818   1.132   3.602   2.364
 3307SOL     OW10819   0.360   6.176   0.322
 3307SOL    HW110820   0.308   6.106   0.273
 3307SOL    HW210821   0.450   6.140   0.346
 3308SOL     OW10822   4.797   6.035   0.355
 3308SOL    HW110823   4.764   5.946   0.386
 3308SOL    HW210824   4.789   6.101   0.430
 3309SOL     OW10825   1.076   5.971   2.832
 3309SOL    HW110826   1.053   6.003   2.924
 3309SOL    HW210827   1.082   5.871   2.833
 3310SOL     OW10828   1.203   6.762   1.513
 3310SOL    HW110829   1.196   6.698   1.437
 3310SOL    HW210830   1.285   6.819   1.502
 3311SOL     OW10831   3.827   6.232   0.654
 3311SOL    HW110832   3.833   6.149   0.709
 3311SOL    HW210833   3.915   6.279   0.654
 3312SOL     OW10834   2.433   3.372   0.080
 3312SOL    HW110835   2.457   3.469   0.086
 3312SOL    HW210836   2.355   3.353   0.140
 3313SOL     OW10837   6.831   5.801   4.826
 3313SOL    HW110838   6.894   5.767   4.756
 3313SOL    HW210839   6.760   5.733   4.843
 3314SOL     OW10840   0.859   3.453   6.360
 3314SOL    HW110841   0.899   3.504   6.435
 3314SOL    HW210842   0.918   3.376   6.336
 3315SOL     OW10843   6.704   3.178   2.940
 3315SOL    HW110844   6.688   3.228   3.025
 3315SOL    HW210845   6.643   3.098   2.937
 3316SOL     OW10846   4.198   0.721   0.367
 3316SOL    HW110847   4.222   0.732   0.463
 3316SOL    HW210848   4.210   0.625   0.340
 3317SOL     OW10849   4.723   2.180   1.793
 3317SOL    HW110850   4.654   2.210   1.859
 3317SOL    HW210851   4.767   2.260   1.752
 3318SOL     OW10852   2.458   5.486   5.195
 3318SOL    HW110853   2.443   5.454   5.288
 3318SOL    HW210854   2.536   5.439   5.155
 3319SOL     OW10855   0.295   5.498   6.098
 3319SOL    HW110856   0.201   5.510   6.066
 3319SOL    HW210857   0.297   5.428   6.169
 3320SOL     OW10858   0.091   2.071   5.697
 3320SOL    HW110859   0.130   2.063   5.789
 3320SOL    HW210860   0.012   2.132   5.700
 3321SOL     OW10861   3.078   3.923   3.911
 3321SOL    HW110862   3.005   3.854   3.916
 3321SOL    HW210863   3.064   3.979   3.829
 3322SOL     OW10864   4.713   1.934   1.333
 3322SOL    HW110865   4.748   1.950   1.425
 3322SOL    HW210866   4.743   2.008   1.273
 3323SOL     OW10867   2.782   5.115   0.285
 3323SOL    HW110868   2.824   5.180   0.349
 3323SOL    HW210869   2.826   5.124   0.195
 3324SOL     OW10870   0.422   2.748   0.297
 3324SOL    HW110871   0.451   2.653   0.307
 3324SOL    HW210872   0.449   2.800   0.378
 3325SOL     OW10873   1.633   3.320   0.222
 3325SOL    HW110874   1.551   3.294   0.171
 3325SOL    HW210875   1.682   3.238   0.249
 3326SOL     OW10876   6.386   0.476   1.751
 3326SOL    HW110877   6.423   0.386   1.773
 3326SOL    HW210878   6.405   0.539   1.827
 3327SOL     OW10879   2.896   6.856   1.906
 3327SOL    HW110880   2.912   6.953   1.887
 3327SOL    HW210881   2.981   6.814   1.939
 3328SOL     OW10882   4.315   1.078   2.974
 3328SOL    HW110883   4.349   1.148   2.911
 3328SOL    HW210884   4.254   1.016   2.925
 3329SOL     OW10885   5.114   1.144   5.752
 3329SOL    HW110886   5.184   1.099   5.697
 3329SOL    HW210887   5.138   1.240   5.764
 3330SOL     OW10888   6.656   5.422   3.368
 3330SOL    HW110889   6.562   5.456   3.367
 3330SOL    HW210890   6.701   5.445   3.281
 3331SOL     OW10891   2.127   3.338   3.059
 3331SOL    HW110892   2.167   3.312   3.147
 3331SOL    HW210893   2.089   3.430   3.065
 3332SOL     OW10894   3.345   4.836   0.923
 3332SOL    HW110895   3.377   4.917   0.972
 3332SOL    HW210896   3.421   4.796   0.872
 3333SOL     OW10897   2.671   3.210   1.696
 3333SOL    HW110898   2.665   3.308   1.711
 3333SOL    HW210899   2.763   3.177   1.716
 3334SOL     OW10900   2.077   2.352   1.785
 3334SOL    HW110901   2.011   2.370   1.711
 3334SOL    HW210902   2.066   2.421   1.856
 3335SOL     OW10903   3.638   4.189   5.510
 3335SOL    HW110904   3.648   4.224   5.604
 3335SOL    HW210905   3.660   4.262   5.445
 3336SOL     OW10906   5.130   5.131   4.265
 3336SOL    HW110907   5.064   5.118   4.339
 3336SOL    HW210908   5.223   5.120   4.301
 3337SOL     OW10909   3.229   2.878   2.514
 3337SOL    HW110910   3.273   2.871   2.603
 3337SOL    HW210911   3.290   2.842   2.444
 3338SOL     OW10912   2.808   2.935   1.717
 3338SOL    HW110913   2.752   2.930   1.635
 3338SOL    HW210914   2.838   2.844   1.743
 3339SOL     OW10915   2.091   0.100   6.442
 3339SOL    HW110916   2.065   0.045   6.521
 3339SOL    HW210917   2.053   0.060   6.358
 3340SOL     OW10918   3.639   0.873   4.122
 3340SOL    HW110919   3.666   0.778   4.104
 3340SOL    HW210920   3.564   0.874   4.188
 3341SOL     OW10921   1.240   4.324   2.330
 3341SOL    HW110922   1.325   4.281   2.362
 3341SOL    HW210923   1.259   4.417   2.300
 3342SOL     OW10924   6.514   0.796   2.597
 3342SOL    HW110925   6.612   0.789   2.577
 3342SOL    HW210926   6.492   0.736   2.674
 3343SOL     OW10927   4.791   5.192   0.350
 3343SOL    HW110928   4.727   5.139   0.404
 3343SOL    HW210929   4.818   5.140   0.269
 3344SOL     OW10930   0.809   3.168   2.281
 3344SOL    HW110931   0.788   3.257   2.321
 3344SOL    HW210932   0.835   3.104   2.353
 3345SOL     OW10933   5.686   5.548   6.724
 3345SOL    HW110934   5.675   5.501   6.811
 3345SOL    HW210935   5.776   5.524   6.685
 3346SOL     OW10936   1.594   0.997   0.133
 3346SOL    HW110937   1.623   1.020   0.040
 3346SOL    HW210938   1.656   1.042   0.198
 3347SOL     OW10939   0.426   3.869   5.844
 3347SOL    HW110940   0.341   3.852   5.794
 3347SOL    HW210941   0.409   3.864   5.942
 3348SOL     OW10942   3.306   4.122   5.876
 3348SOL    HW110943   3.330   4.029   5.849
 3348SOL    HW210944   3.291   4.178   5.794
 3349SOL     OW10945   1.762   5.492   3.485
 3349SOL    HW110946   1.802   5.406   3.517
 3349SOL    HW210947   1.820   5.531   3.413
 3350SOL     OW10948   2.106   4.976   4.472
 3350SOL    HW110949   2.083   4.890   4.517
 3350SOL    HW210950   2.205   4.989   4.473
 3351SOL     OW10951   5.299   1.095   1.525
 3351SOL    HW110952   5.306   1.106   1.426
 3351SOL    HW210953   5.362   1.158   1.570
 3352SOL     OW10954   5.816   1.358   0.210
 3352SOL    HW110955   5.815   1.362   0.110
 3352SOL    HW210956   5.865   1.276   0.240
 3353SOL     OW10957   3.881   0.406   0.800
 3353SOL    HW110958   3.781   0.410   0.789
 3353SOL    HW210959   3.905   0.426   0.894
 3354SOL     OW10960   3.131   4.040   6.101
 3354SOL    HW110961   3.189   4.083   6.032
 3354SOL    HW210962   3.102   3.950   6.069
 3355SOL     OW10963   1.538   0.120   5.162
 3355SOL    HW110964   1.476   0.118   5.083
 3355SOL    HW210965   1.540   0.030   5.204
 3356SOL     OW10966   1.941   0.647   6.118
 3356SOL    HW110967   1.877   0.576   6.147
 3356SOL    HW210968   2.033   0.622   6.148
 3357SOL     OW10969   3.653   2.872   2.373
 3357SOL    HW110970   3.622   2.960   2.338
 3357SOL    HW210971   3.622   2.799   2.312
 3358SOL     OW10972   6.985   1.205   1.670
 3358SOL    HW110973   6.927   1.130   1.701
 3358SOL    HW210974   6.946   1.246   1.587
 3359SOL     OW10975   0.560   6.997   4.823
 3359SOL    HW110976   0.507   6.998   4.738
 3359SOL    HW210977   0.621   6.918   4.823
 3360SOL     OW10978   1.838   4.282   4.224
 3360SOL    HW110979   1.921   4.322   4.263
 3360SOL    HW210980   1.859   4.243   4.134
 3361SOL     OW10981   6.226   6.941   5.217
 3361SOL    HW110982   6.133   6.968   5.192
 3361SOL    HW210983   6.285   6.948   5.136
 3362SOL     OW10984   3.635   0.431   3.920
 3362SOL    HW110985   3.582   0.349   3.941
 3362SOL    HW210986   3.575   0.511   3.918
 3363SOL     OW10987   5.654   3.675   0.508
 3363SOL    HW110988   5.556   3.694   0.498
 3363SOL    HW210989   5.703   3.761   0.522
 3364SOL     OW10990   1.702   3.645   3.363
 3364SOL    HW110991   1.772   3.580   3.333
 3364SOL    HW210992   1.665   3.693   3.283
 3365SOL     OW10993   1.308   3.717   3.167
 3365SOL    HW110994   1.394   3.668   3.179
 3365SOL    HW210995   1.315   3.776   3.086
 3366SOL     OW10996   5.615   3.357   4.765
 3366SOL    HW110997   5.555   3.425   4.724
 3366SOL    HW210998   5.691   3.404   4.810
 3367SOL     OW10999   3.122   4.050   3.684
 3367SOL    HW111000   3.084   4.123   3.629
 3367SOL    HW211001   3.103   3.962   3.641
 3368SOL     OW11002   1.933   0.581   2.260
 3368SOL    HW111003   1.938   0.665   2.206
 3368SOL    HW211004   1.922   0.605   2.357
 3369SOL     OW11005   5.301   2.219   1.235
 3369SOL    HW111006   5.222   2.157   1.229
 3369SOL    HW211007   5.280   2.303   1.185
 3370SOL     OW11008   0.478   5.509   2.695
 3370SOL    HW111009   0.464   5.583   2.629
 3370SOL    HW211010   0.550   5.535   2.759
 3371SOL     OW11011   2.371   2.733   1.944
 3371SOL    HW111012   2.416   2.661   1.891
 3371SOL    HW211013   2.427   2.755   2.024
 3372SOL     OW11014   6.613   3.955   2.865
 3372SOL    HW111015   6.521   3.940   2.902
 3372SOL    HW211016   6.643   4.048   2.889
 3373SOL     OW11017   0.154   3.263   1.843
 3373SOL    HW111018   0.112   3.178   1.875
 3373SOL    HW211019   0.101   3.300   1.767
 3374SOL     OW11020   0.276   6.663   3.947
 3374SOL    HW111021   0.325   6.738   3.992
 3374SOL    HW211022   0.342   6.594   3.917
 3375SOL     OW11023   0.437   5.629   5.744
 3375SOL    HW111024   0.368   5.564   5.777
 3375SOL    HW211025   0.521   5.619   5.798
 3376SOL     OW11026   3.278   2.989   4.462
 3376SOL    HW111027   3.235   2.985   4.552
 3376SOL    HW211028   3.208   2.986   4.391
 3377SOL     OW11029   6.866   5.149   3.797
 3377SOL    HW111030   6.804   5.075   3.770
 3377SOL    HW211031   6.835   5.235   3.757
 3378SOL     OW11032   1.226   6.739   0.270
 3378SOL    HW111033   1.145   6.738   0.212
 3378SOL    HW211034   1.295   6.678   0.232
 3379SOL     OW11035   6.610   4.316   3.574
 3379SOL    HW111036   6.579   4.288   3.484
 3379SOL    HW211037   6.582   4.411   3.591
 3380SOL     OW11038   2.716   4.604   0.332
 3380SOL    HW111039   2.623   4.629   0.303
 3380SOL    HW211040   2.714   4.511   0.370
 3381SOL     OW11041   2.269   3.675   6.071
 3381SOL    HW111042   2.285   3.602   6.005
 3381SOL    HW211043   2.339   3.746   6.061
 3382SOL     OW11044   6.587   3.629   0.510
 3382SOL    HW111045   6.558   3.715   0.552
 3382SOL    HW211046   6.610   3.644   0.414
 3383SOL     OW11047   4.208   4.945   0.153
 3383SOL    HW111048   4.192   5.037   0.120
 3383SOL    HW211049   4.213   4.881   0.076
 3384SOL     OW11050   2.856   3.574   6.670
 3384SOL    HW111051   2.828   3.504   6.604
 3384SOL    HW211052   2.916   3.534   6.738
 3385SOL     OW11053   6.800   2.492   4.028
 3385SOL    HW111054   6.797   2.560   3.955
 3385SOL    HW211055   6.885   2.439   4.021
 3386SOL     OW11056   0.206   5.357   4.879
 3386SOL    HW111057   0.210   5.285   4.810
 3386SOL    HW211058   0.284   5.349   4.940
 3387SOL     OW11059   6.131   1.186   3.357
 3387SOL    HW111060   6.032   1.179   3.344
 3387SOL    HW211061   6.174   1.221   3.274
 3388SOL     OW11062   6.725   3.806   0.914
 3388SOL    HW111063   6.750   3.804   1.010
 3388SOL    HW211064   6.676   3.722   0.890
 3389SOL     OW11065   5.473   5.728   6.642
 3389SOL    HW111066   5.488   5.814   6.593
 3389SOL    HW211067   5.560   5.691   6.673
 3390SOL     OW11068   2.903   5.867   6.432
 3390SOL    HW111069   2.893   5.963   6.458
 3390SOL    HW211070   2.977   5.826   6.486
 3391SOL     OW11071   5.671   4.128   4.046
 3391SOL    HW111072   5.717   4.065   4.109
 3391SOL    HW211073   5.669   4.089   3.954
 3392SOL     OW11074   4.946   0.165   6.156
 3392SOL    HW111075   5.038   0.126   6.146
 3392SOL    HW211076   4.888   0.100   6.206
 3393SOL     OW11077   4.098   6.308   0.666
 3393SOL    HW111078   4.164   6.233   0.672
 3393SOL    HW211079   4.123   6.380   0.731
 3394SOL     OW11080   2.641   5.277   1.629
 3394SOL    HW111081   2.547   5.246   1.643
 3394SOL    HW211082   2.663   5.274   1.531
 3395SOL     OW11083   2.494   6.789   3.248
 3395SOL    HW111084   2.421   6.722   3.239
 3395SOL    HW211085   2.564   6.772   3.179
 3396SOL     OW11086   4.417   0.615   4.039
 3396SOL    HW111087   4.515   0.623   4.052
 3396SOL    HW211088   4.383   0.697   3.993
 3397SOL     OW11089   2.255   5.658   6.621
 3397SOL    HW111090   2.231   5.623   6.530
 3397SOL    HW211091   2.181   5.637   6.685
 3398SOL     OW11092   6.318   2.225   4.798
 3398SOL    HW111093   6.307   2.208   4.896
 3398SOL    HW211094   6.322   2.323   4.781
 3399SOL     OW11095   6.654   6.432   2.043
 3399SOL    HW111096   6.651   6.336   2.070
 3399SOL    HW211097   6.662   6.489   2.125
 3400SOL     OW11098   4.004   2.990   5.776
 3400SOL    HW111099   4.029   3.078   5.736
 3400SOL    HW211100   4.005   2.919   5.705
 3401SOL     OW11101   6.514   3.879   5.453
 3401SOL    HW111102   6.469   3.904   5.367
 3401SOL    HW211103   6.583   3.947   5.475
 3402SOL     OW11104   6.876   3.465   0.609
 3402SOL    HW111105   6.798   3.420   0.566
 3402SOL    HW211106   6.846   3.550   0.652
 3403SOL     OW11107   5.220   0.061   6.797
 3403SOL    HW111108   5.237   0.124   6.722
 3403SOL    HW211109   5.293   7.012   6.800
 3404SOL     OW11110   5.149   3.974   4.616
 3404SOL    HW111111   5.242   3.979   4.580
 3404SOL    HW211112   5.150   3.994   4.714
 3405SOL     OW11113   4.731   6.226   0.134
 3405SOL    HW111114   4.663   6.193   0.069
 3405SOL    HW211115   4.774   6.148   0.180
 3406SOL     OW11116   2.699   5.528   1.718
 3406SOL    HW111117   2.667   5.535   1.813
 3406SOL    HW211118   2.665   5.442   1.679
 3407SOL     OW11119   1.072   4.198   6.612
 3407SOL    HW111120   1.009   4.274   6.628
 3407SOL    HW211121   1.162   4.222   6.648
 3408SOL     OW11122   5.145   0.389   3.632
 3408SOL    HW111123   5.130   0.321   3.704
 3408SOL    HW211124   5.226   0.443   3.654
 3409SOL     OW11125   4.300   0.990   0.603
 3409SOL    HW111126   4.316   0.992   0.702
 3409SOL    HW211127   4.219   1.044   0.581
 3410SOL     OW11128   5.915   0.182   3.362
 3410SOL    HW111129   5.849   0.148   3.294
 3410SOL    HW211130   5.883   0.267   3.401
 3411SOL     OW11131   6.572   3.064   5.778
 3411SOL    HW111132   6.590   3.163   5.785
 3411SOL    HW211133   6.568   3.024   5.869
 3412SOL     OW11134   5.917   3.418   2.112
 3412SOL    HW111135   5.823   3.445   2.091
 3412SOL    HW211136   5.920   3.380   2.204
 3413SOL     OW11137   0.003   1.332   0.342
 3413SOL    HW111138   0.011   1.277   0.425
 3413SOL    HW211139   6.981   1.277   0.270
 3414SOL     OW11140   3.487   3.641   1.201
 3414SOL    HW111141   3.539   3.594   1.129
 3414SOL    HW211142   3.548   3.662   1.277
 3415SOL     OW11143   2.394   1.550   5.687
 3415SOL    HW111144   2.369   1.619   5.755
 3415SOL    HW211145   2.403   1.461   5.732
 3416SOL     OW11146   6.820   6.916   6.415
 3416SOL    HW111147   6.792   7.005   6.452
 3416SOL    HW211148   6.857   6.928   6.323
 3417SOL     OW11149   5.907   6.590   3.287
 3417SOL    HW111150   5.985   6.554   3.236
 3417SOL    HW211151   5.861   6.660   3.233
 3418SOL     OW11152   3.909   4.920   0.731
 3418SOL    HW111153   3.913   4.821   0.721
 3418SOL    HW211154   3.876   4.943   0.823
 3419SOL     OW11155   2.894   5.470   5.280
 3419SOL    HW111156   2.888   5.389   5.221
 3419SOL    HW211157   2.964   5.454   5.350
 3420SOL     OW11158   4.942   1.799   2.224
 3420SOL    HW111159   4.862   1.800   2.283
 3420SOL    HW211160   4.913   1.793   2.128
 3421SOL     OW11161   0.187   2.143   4.926
 3421SOL    HW111162   0.243   2.072   4.884
 3421SOL    HW211163   0.116   2.172   4.861
 3422SOL     OW11164   2.067   6.148   1.083
 3422SOL    HW111165   2.120   6.192   1.011
 3422SOL    HW211166   2.121   6.075   1.125
 3423SOL     OW11167   1.847   4.852   5.502
 3423SOL    HW111168   1.902   4.786   5.553
 3423SOL    HW211169   1.906   4.928   5.471
 3424SOL     OW11170   5.413   1.441   1.990
 3424SOL    HW111171   5.412   1.430   1.891
 3424SOL    HW211172   5.324   1.475   2.021
 3425SOL     OW11173   6.618   3.161   6.226
 3425SOL    HW111174   6.671   3.151   6.310
 3425SOL    HW211175   6.642   3.248   6.181
 3426SOL     OW11176   6.707   3.238   6.578
 3426SOL    HW111177   6.655   3.323   6.586
 3426SOL    HW211178   6.690   3.180   6.658
 3427SOL     OW11179   1.135   2.189   0.440
 3427SOL    HW111180   1.070   2.155   0.374
 3427SOL    HW211181   1.221   2.137   0.433
 3428SOL     OW11182   4.443   6.522   4.704
 3428SOL    HW111183   4.400   6.483   4.623
 3428SOL    HW211184   4.441   6.456   4.778
 3429SOL     OW11185   4.668   6.639   1.256
 3429SOL    HW111186   4.761   6.641   1.292
 3429SOL    HW211187   4.670   6.661   1.159
 3430SOL     OW11188   2.794   4.143   5.942
 3430SOL    HW111189   2.719   4.206   5.926
 3430SOL    HW211190   2.821   4.100   5.856
 3431SOL     OW11191   0.301   4.939   2.418
 3431SOL    HW111192   0.346   4.867   2.364
 3431SOL    HW211193   0.227   4.898   2.471
 3432SOL     OW11194   0.525   4.464   0.184
 3432SOL    HW111195   0.488   4.371   0.185
 3432SOL    HW211196   0.479   4.518   0.113
 3433SOL     OW11197   2.468   1.179   6.710
 3433SOL    HW111198   2.449   1.083   6.689
 3433SOL    HW211199   2.440   1.235   6.632
 3434SOL     OW11200   3.771   2.584   1.722
 3434SOL    HW111201   3.687   2.627   1.691
 3434SOL    HW211202   3.751   2.496   1.764
 3435SOL     OW11203   1.287   1.644   1.259
 3435SOL    HW111204   1.369   1.694   1.287
 3435SOL    HW211205   1.251   1.593   1.336
 3436SOL     OW11206   3.520   6.699   6.362
 3436SOL    HW111207   3.481   6.617   6.402
 3436SOL    HW211208   3.490   6.779   6.415
 3437SOL     OW11209   1.361   0.174   6.476
 3437SOL    HW111210   1.439   0.183   6.414
 3437SOL    HW211211   1.283   0.136   6.425
 3438SOL     OW11212   2.373   4.001   0.896
 3438SOL    HW111213   2.314   3.921   0.884
 3438SOL    HW211214   2.401   4.035   0.806
 3439SOL     OW11215   2.492   5.525   1.509
 3439SOL    HW111216   2.541   5.612   1.517
 3439SOL    HW211217   2.444   5.522   1.421
 3440SOL     OW11218   3.785   3.979   5.353
 3440SOL    HW111219   3.733   3.963   5.437
 3440SOL    HW211220   3.790   4.077   5.335
 3441SOL     OW11221   5.839   4.734   5.784
 3441SOL    HW111222   5.844   4.771   5.877
 3441SOL    HW211223   5.869   4.638   5.785
 3442SOL     OW11224   2.440   3.406   1.081
 3442SOL    HW111225   2.390   3.485   1.118
 3442SOL    HW211226   2.376   3.349   1.029
 3443SOL     OW11227   0.242   5.990   2.399
 3443SOL    HW111228   0.335   6.012   2.370
 3443SOL    HW211229   0.201   5.926   2.333
 3444SOL     OW11230   6.665   4.046   5.620
 3444SOL    HW111231   6.727   3.971   5.646
 3444SOL    HW211232   6.716   4.114   5.567
 3445SOL     OW11233   6.685   4.798   4.069
 3445SOL    HW111234   6.718   4.875   4.123
 3445SOL    HW211235   6.755   4.727   4.066
 3446SOL     OW11236   4.373   1.006   1.776
 3446SOL    HW111237   4.429   0.940   1.725
 3446SOL    HW211238   4.370   0.979   1.872
 3447SOL     OW11239   5.359   0.690   6.060
 3447SOL    HW111240   5.404   0.608   6.025
 3447SOL    HW211241   5.263   0.670   6.081
 3448SOL     OW11242   1.818   4.360   5.541
 3448SOL    HW111243   1.722   4.332   5.546
 3448SOL    HW211244   1.837   4.396   5.450
 3449SOL     OW11245   0.862   4.623   5.398
 3449SOL    HW111246   0.883   4.663   5.487
 3449SOL    HW211247   0.942   4.573   5.364
 3450SOL     OW11248   2.356   6.893   1.359
 3450SOL    HW111249   2.271   6.865   1.402
 3450SOL    HW211250   2.339   6.972   1.299
 3451SOL     OW11251   1.657   1.943   1.611
 3451SOL    HW111252   1.736   1.910   1.559
 3451SOL    HW211253   1.681   1.949   1.708
 3452SOL     OW11254   4.764   1.136   4.850
 3452SOL    HW111255   4.764   1.036   4.862
 3452SOL    HW211256   4.670   1.169   4.848
 3453SOL     OW11257   4.079   6.270   7.011
 3453SOL    HW111258   4.127   6.351   0.023
 3453SOL    HW211259   4.020   6.294   6.934
 3454SOL     OW11260   0.046   2.981   1.692
 3454SOL    HW111261   0.088   2.966   1.603
 3454SOL    HW211262   7.005   3.060   1.688
 3455SOL     OW11263   0.479   3.504   6.059
 3455SOL    HW111264   0.553   3.442   6.087
 3455SOL    HW211265   0.472   3.505   5.960
 3456SOL     OW11266   4.889   5.379   3.560
 3456SOL    HW111267   4.917   5.285   3.541
 3456SOL    HW211268   4.953   5.443   3.517
 3457SOL     OW11269   3.659   4.276   6.280
 3457SOL    HW111270   3.617   4.213   6.345
 3457SOL    HW211271   3.624   4.257   6.188
 3458SOL     OW11272   4.611   1.584   2.345
 3458SOL    HW111273   4.588   1.651   2.415
 3458SOL    HW211274   4.626   1.495   2.388
 3459SOL     OW11275   5.553   5.892   2.232
 3459SOL    HW111276   5.548   5.893   2.133
 3459SOL    HW211277   5.649   5.897   2.261
 3460SOL     OW11278   3.496   1.896   4.573
 3460SOL    HW111279   3.465   1.980   4.617
 3460SOL    HW211280   3.416   1.841   4.547
 3461SOL     OW11281   5.505   5.095   5.064
 3461SOL    HW111282   5.596   5.075   5.026
 3461SOL    HW211283   5.452   5.148   4.998
 3462SOL     OW11284   1.225   3.572   6.594
 3462SOL    HW111285   1.132   3.594   6.568
 3462SOL    HW211286   1.259   3.497   6.536
 3463SOL     OW11287   5.654   4.068   0.198
 3463SOL    HW111288   5.725   4.137   0.212
 3463SOL    HW211289   5.601   4.056   0.282
 3464SOL     OW11290   0.273   4.489   4.686
 3464SOL    HW111291   0.235   4.573   4.723
 3464SOL    HW211292   0.369   4.481   4.713
 3465SOL     OW11293   0.970   1.690   2.490
 3465SOL    HW111294   0.934   1.639   2.413
 3465SOL    HW211295   0.951   1.640   2.575
 3466SOL     OW11296   0.002   3.354   4.746
 3466SOL    HW111297   0.027   3.302   4.828
 3466SOL    HW211298   0.084   3.394   4.706
 3467SOL     OW11299   1.926   2.542   6.027
 3467SOL    HW111300   1.969   2.485   6.098
 3467SOL    HW211301   1.827   2.524   6.026
 3468SOL     OW11302   4.084   6.393   2.479
 3468SOL    HW111303   4.068   6.447   2.561
 3468SOL    HW211304   4.050   6.300   2.492
 3469SOL     OW11305   5.521   3.470   1.242
 3469SOL    HW111306   5.494   3.527   1.164
 3469SOL    HW211307   5.441   3.426   1.281
 3470SOL     OW11308   0.088   5.390   0.594
 3470SOL    HW111309   0.021   5.460   0.617
 3470SOL    HW211310   0.161   5.431   0.539
 3471SOL     OW11311   4.264   0.380   4.651
 3471SOL    HW111312   4.333   0.309   4.670
 3471SOL    HW211313   4.176   0.336   4.632
 3472SOL     OW11314   4.351   1.243   5.091
 3472SOL    HW111315   4.419   1.185   5.046
 3472SOL    HW211316   4.397   1.303   5.157
 3473SOL     OW11317   4.558   6.477   4.158
 3473SOL    HW111318   4.498   6.537   4.212
 3473SOL    HW211319   4.589   6.401   4.215
 3474SOL     OW11320   5.492   4.248   1.010
 3474SOL    HW111321   5.442   4.331   0.984
 3474SOL    HW211322   5.504   4.247   1.110
 3475SOL     OW11323   1.782   6.321   4.914
 3475SOL    HW111324   1.797   6.395   4.980
 3475SOL    HW211325   1.870   6.285   4.884
 3476SOL     OW11326   5.039   1.330   4.878
 3476SOL    HW111327   4.986   1.387   4.942
 3476SOL    HW211328   4.980   1.259   4.841
 3477SOL     OW11329   4.394   5.728   1.801
 3477SOL    HW111330   4.488   5.762   1.793
 3477SOL    HW211331   4.335   5.802   1.836
 3478SOL     OW11332   4.070   4.945   6.716
 3478SOL    HW111333   4.166   4.920   6.732
 3478SOL    HW211334   4.066   5.012   6.642
 3479SOL     OW11335   1.377   0.259   1.828
 3479SOL    HW111336   1.289   0.282   1.788
 3479SOL    HW211337   1.392   0.316   1.909
 3480SOL     OW11338   1.117   0.570   4.126
 3480SOL    HW111339   1.048   0.615   4.183
 3480SOL    HW211340   1.185   0.638   4.098
 3481SOL     OW11341   2.314   6.881   6.575
 3481SOL    HW111342   2.345   6.962   6.624
 3481SOL    HW211343   2.364   6.801   6.608
 3482SOL     OW11344   0.699   1.859   1.456
 3482SOL    HW111345   0.629   1.911   1.506
 3482SOL    HW211346   0.693   1.880   1.359
 3483SOL     OW11347   4.443   1.650   0.790
 3483SOL    HW111348   4.538   1.616   0.785
 3483SOL    HW211349   4.443   1.741   0.831
 3484SOL     OW11350   3.102   3.058   4.213
 3484SOL    HW111351   3.062   3.139   4.171
 3484SOL    HW211352   3.129   2.993   4.142
 3485SOL     OW11353   6.955   1.809   4.707
 3485SOL    HW111354   6.917   1.858   4.629
 3485SOL    HW211355   6.944   1.710   4.693
 3486SOL     OW11356   5.012   1.113   3.378
 3486SOL    HW111357   5.036   1.017   3.365
 3486SOL    HW211358   5.056   1.169   3.307
 3487SOL     OW11359   0.539   0.607   0.430
 3487SOL    HW111360   0.566   0.569   0.342
 3487SOL    HW211361   0.616   0.602   0.494
 3488SOL     OW11362   5.922   3.705   3.895
 3488SOL    HW111363   5.994   3.650   3.853
 3488SOL    HW211364   5.856   3.732   3.824
 3489SOL     OW11365   2.282   6.605   0.209
 3489SOL    HW111366   2.260   6.512   0.238
 3489SOL    HW211367   2.206   6.643   0.157
 3490SOL     OW11368   4.445   2.666   1.355
 3490SOL    HW111369   4.470   2.578   1.314
 3490SOL    HW211370   4.368   2.705   1.306
 3491SOL     OW11371   0.228   2.816   5.219
 3491SOL    HW111372   0.232   2.728   5.171
 3491SOL    HW211373   0.288   2.814   5.299
 3492SOL     OW11374   5.048   5.146   6.382
 3492SOL    HW111375   4.986   5.174   6.309
 3492SOL    HW211376   5.041   5.047   6.396
 3493SOL     OW11377   0.495   4.811   1.023
 3493SOL    HW111378   0.422   4.840   1.084
 3493SOL    HW211379   0.522   4.717   1.047
 3494SOL     OW11380   3.096   6.209   0.992
 3494SOL    HW111381   3.186   6.184   1.027
 3494SOL    HW211382   3.097   6.208   0.892
 3495SOL     OW11383   5.376   4.227   0.561
 3495SOL    HW111384   5.369   4.192   0.655
 3495SOL    HW211385   5.285   4.253   0.529
 3496SOL     OW11386   0.640   4.688   0.433
 3496SOL    HW111387   0.554   4.656   0.394
 3496SOL    HW211388   0.716   4.659   0.375
 3497SOL     OW11389   4.368   6.481   3.987
 3497SOL    HW111390   4.435   6.500   4.059
 3497SOL    HW211391   4.388   6.392   3.946
 3498SOL     OW11392   1.498   1.892   1.071
 3498SOL    HW111393   1.587   1.857   1.101
 3498SOL    HW211394   1.467   1.965   1.133
 3499SOL     OW11395   6.602   3.756   4.046
 3499SOL    HW111396   6.555   3.678   4.087
 3499SOL    HW211397   6.547   3.793   3.971
 3500SOL     OW11398   6.784   3.144   0.777
 3500SOL    HW111399   6.724   3.214   0.816
 3500SOL    HW211400   6.759   3.054   0.813
 3501SOL     OW11401   0.841   4.640   3.716
 3501SOL    HW111402   0.766   4.597   3.666
 3501SOL    HW211403   0.828   4.739   3.718
 3502SOL     OW11404   1.024   4.068   1.651
 3502SOL    HW111405   1.004   3.979   1.611
 3502SOL    HW211406   0.941   4.124   1.650
 3503SOL     OW11407   3.735   6.445   3.945
 3503SOL    HW111408   3.722   6.544   3.938
 3503SOL    HW211409   3.832   6.424   3.945
 3504SOL     OW11410   2.164   3.150   2.450
 3504SOL    HW111411   2.095   3.129   2.380
 3504SOL    HW211412   2.236   3.081   2.448
 3505SOL     OW11413   4.361   6.232   4.995
 3505SOL    HW111414   4.261   6.238   4.996
 3505SOL    HW211415   4.394   6.205   5.085
 3506SOL     OW11416   5.677   4.699   2.264
 3506SOL    HW111417   5.636   4.668   2.350
 3506SOL    HW211418   5.763   4.745   2.284
 3507SOL     OW11419   0.308   0.426   6.451
 3507SOL    HW111420   0.223   0.383   6.421
 3507SOL    HW211421   0.313   0.519   6.416
 3508SOL     OW11422   5.926   3.580   0.284
 3508SOL    HW111423   5.866   3.631   0.222
 3508SOL    HW211424   5.910   3.609   0.378
 3509SOL     OW11425   6.535   0.487   0.841
 3509SOL    HW111426   6.598   0.415   0.871
 3509SOL    HW211427   6.568   0.575   0.875
 3510SOL     OW11428   2.100   2.492   2.485
 3510SOL    HW111429   2.054   2.438   2.415
 3510SOL    HW211430   2.114   2.585   2.451
 3511SOL     OW11431   0.957   0.614   5.079
 3511SOL    HW111432   0.885   0.549   5.102
 3511SOL    HW211433   1.006   0.640   5.162
 3512SOL     OW11434   2.678   2.941   0.770
 3512SOL    HW111435   2.634   2.945   0.680
 3512SOL    HW211436   2.750   2.871   0.769
 3513SOL     OW11437   5.898   4.280   1.300
 3513SOL    HW111438   5.906   4.368   1.255
 3513SOL    HW211439   5.818   4.280   1.360
 3514SOL     OW11440   1.571   6.471   2.073
 3514SOL    HW111441   1.668   6.469   2.049
 3514SOL    HW211442   1.553   6.404   2.145
 3515SOL     OW11443   3.836   5.885   3.118
 3515SOL    HW111444   3.896   5.955   3.080
 3515SOL    HW211445   3.788   5.921   3.198
 3516SOL     OW11446   2.756   1.051   0.805
 3516SOL    HW111447   2.815   1.126   0.776
 3516SOL    HW211448   2.803   0.964   0.791
 3517SOL     OW11449   0.809   0.508   6.416
 3517SOL    HW111450   0.792   0.428   6.359
 3517SOL    HW211451   0.891   0.555   6.384
 3518SOL     OW11452   4.942   3.190   5.660
 3518SOL    HW111453   4.934   3.125   5.585
 3518SOL    HW211454   5.009   3.157   5.726
 3519SOL     OW11455   3.090   6.337   0.279
 3519SOL    HW111456   2.998   6.361   0.311
 3519SOL    HW211457   3.122   6.406   0.214
 3520SOL     OW11458   3.965   5.192   1.226
 3520SOL    HW111459   3.894   5.176   1.294
 3520SOL    HW211460   3.970   5.290   1.206
 3521SOL     OW11461   5.678   1.952   6.364
 3521SOL    HW111462   5.591   1.922   6.402
 3521SOL    HW211463   5.731   1.999   6.435
 3522SOL     OW11464   2.871   5.916   1.566
 3522SOL    HW111465   2.903   5.910   1.661
 3522SOL    HW211466   2.886   6.009   1.532
 3523SOL     OW11467   2.118   5.071   5.158
 3523SOL    HW111468   2.132   4.975   5.183
 3523SOL    HW211469   2.188   5.099   5.094
 3524SOL     OW11470   2.307   0.215   1.584
 3524SOL    HW111471   2.352   0.282   1.525
 3524SOL    HW211472   2.231   0.173   1.535
 3525SOL     OW11473   1.859   3.582   2.596
 3525SOL    HW111474   1.863   3.523   2.515
 3525SOL    HW211475   1.947   3.627   2.609
 3526SOL     OW11476   3.430   0.406   3.141
 3526SOL    HW111477   3.459   0.501   3.148
 3526SOL    HW211478   3.503   0.346   3.175
 3527SOL     OW11479   5.690   3.032   5.509
 3527SOL    HW111480   5.593   3.036   5.485
 3527SOL    HW211481   5.699   3.037   5.609
 3528SOL     OW11482   1.192   0.075   4.089
 3528SOL    HW111483   1.208   0.035   4.179
 3528SOL    HW211484   1.152   0.166   4.100
 3529SOL     OW11485   3.527   6.205   6.773
 3529SOL    HW111486   3.588   6.283   6.788
 3529SOL    HW211487   3.437   6.239   6.745
 3530SOL     OW11488   1.449   5.905   3.197
 3530SOL    HW111489   1.354   5.936   3.202
 3530SOL    HW211490   1.454   5.821   3.142
 3531SOL     OW11491   5.059   4.200   6.410
 3531SOL    HW111492   5.138   4.258   6.432
 3531SOL    HW211493   4.979   4.258   6.394
 3532SOL     OW11494   1.910   6.599   0.055
 3532SOL    HW111495   1.948   6.687   0.085
 3532SOL    HW211496   1.856   6.613   6.992
 3533SOL     OW11497   1.086   1.143   4.159
 3533SOL    HW111498   1.025   1.200   4.214
 3533SOL    HW211499   1.038   1.113   4.076
 3534SOL     OW11500   4.887   0.615   5.163
 3534SOL    HW111501   4.939   0.535   5.131
 3534SOL    HW211502   4.828   0.587   5.238
 3535SOL     OW11503   4.300   6.264   6.752
 3535SOL    HW111504   4.323   6.168   6.734
 3535SOL    HW211505   4.293   6.278   6.851
 3536SOL     OW11506   1.199   4.112   2.798
 3536SOL    HW111507   1.241   4.144   2.713
 3536SOL    HW211508   1.150   4.187   2.841
 3537SOL     OW11509   2.628   4.458   0.899
 3537SOL    HW111510   2.559   4.475   0.969
 3537SOL    HW211511   2.700   4.400   0.938
 3538SOL     OW11512   3.243   1.261   3.971
 3538SOL    HW111513   3.320   1.210   3.933
 3538SOL    HW211514   3.277   1.341   4.020
 3539SOL     OW11515   5.164   6.243   6.667
 3539SOL    HW111516   5.138   6.228   6.572
 3539SOL    HW211517   5.177   6.156   6.713
 3540SOL     OW11518   2.878   4.155   6.205
 3540SOL    HW111519   2.862   4.144   6.106
 3540SOL    HW211520   2.970   4.124   6.228
 3541SOL     OW11521   1.696   3.195   1.450
 3541SOL    HW111522   1.688   3.191   1.549
 3541SOL    HW211523   1.606   3.179   1.409
 3542SOL     OW11524   5.805   1.343   6.948
 3542SOL    HW111525   5.730   1.388   6.899
 3542SOL    HW211526   5.832   1.260   6.899
 3543SOL     OW11527   0.847   2.445   3.892
 3543SOL    HW111528   0.867   2.479   3.984
 3543SOL    HW211529   0.819   2.349   3.897
 3544SOL     OW11530   3.384   3.857   6.863
 3544SOL    HW111531   3.387   3.776   6.805
 3544SOL    HW211532   3.377   3.939   6.805
 3545SOL     OW11533   3.740   6.928   1.048
 3545SOL    HW111534   3.665   6.989   1.023
 3545SOL    HW211535   3.794   6.970   1.120
 3546SOL     OW11536   6.265   4.165   2.161
 3546SOL    HW111537   6.309   4.172   2.072
 3546SOL    HW211538   6.330   4.189   2.233
 3547SOL     OW11539   1.466   3.775   4.741
 3547SOL    HW111540   1.541   3.760   4.676
 3547SOL    HW211541   1.501   3.774   4.834
 3548SOL     OW11542   5.600   0.592   5.911
 3548SOL    HW111543   5.668   0.543   5.965
 3548SOL    HW211544   5.524   0.530   5.890
 3549SOL     OW11545   2.909   6.654   6.747
 3549SOL    HW111546   2.977   6.679   6.816
 3549SOL    HW211547   2.857   6.735   6.722
 3550SOL     OW11548   5.090   1.030   5.425
 3550SOL    HW111549   5.031   1.111   5.423
 3550SOL    HW211550   5.176   1.053   5.471
 3551SOL     OW11551   4.757   2.088   4.365
 3551SOL    HW111552   4.835   2.051   4.314
 3551SOL    HW211553   4.721   2.168   4.317
 3552SOL     OW11554   5.912   6.654   3.563
 3552SOL    HW111555   5.926   6.572   3.618
 3552SOL    HW211556   5.938   6.636   3.468
 3553SOL     OW11557   5.820   5.835   6.683
 3553SOL    HW111558   5.918   5.856   6.680
 3553SOL    HW211559   5.782   5.869   6.769
 3554SOL     OW11560   5.549   4.380   6.670
 3554SOL    HW111561   5.631   4.345   6.717
 3554SOL    HW211562   5.487   4.420   6.737
 3555SOL     OW11563   3.180   1.649   5.118
 3555SOL    HW111564   3.159   1.722   5.054
 3555SOL    HW211565   3.259   1.675   5.174
 3556SOL     OW11566   5.684   0.802   0.670
 3556SOL    HW111567   5.741   0.722   0.654
 3556SOL    HW211568   5.666   0.849   0.584
 3557SOL     OW11569   5.736   0.379   1.443
 3557SOL    HW111570   5.720   0.292   1.396
 3557SOL    HW211571   5.806   0.431   1.396
 3558SOL     OW11572   4.003   5.300   2.512
 3558SOL    HW111573   4.008   5.203   2.490
 3558SOL    HW211574   3.943   5.346   2.446
 3559SOL     OW11575   4.595   0.084   6.480
 3559SOL    HW111576   4.624   0.040   6.566
 3559SOL    HW211577   4.496   0.079   6.472
 3560SOL     OW11578   1.459   5.598   4.026
 3560SOL    HW111579   1.474   5.604   4.124
 3560SOL    HW211580   1.362   5.617   4.006
 3561SOL     OW11581   4.360   3.568   5.314
 3561SOL    HW111582   4.427   3.612   5.373
 3561SOL    HW211583   4.405   3.535   5.231
 3562SOL     OW11584   2.780   2.102   0.060
 3562SOL    HW111585   2.720   2.090   0.140
 3562SOL    HW211586   2.792   2.014   0.014
 3563SOL     OW11587   6.133   2.417   5.822
 3563SOL    HW111588   6.035   2.402   5.809
 3563SOL    HW211589   6.175   2.333   5.857
 3564SOL     OW11590   6.295   3.348   2.185
 3564SOL    HW111591   6.237   3.381   2.110
 3564SOL    HW211592   6.259   3.262   2.220
 3565SOL     OW11593   4.293   5.925   5.308
 3565SOL    HW111594   4.296   5.838   5.357
 3565SOL    HW211595   4.313   5.910   5.211
 3566SOL     OW11596   0.957   0.064   4.843
 3566SOL    HW111597   0.934   6.986   4.849
 3566SOL    HW211598   1.010   0.091   4.923
 3567SOL     OW11599   0.233   3.012   6.447
 3567SOL    HW111600   0.214   3.008   6.349
 3567SOL    HW211601   0.176   2.945   6.495
 3568SOL     OW11602   5.757   3.738   6.028
 3568SOL    HW111603   5.765   3.675   5.951
 3568SOL    HW211604   5.675   3.717   6.080
 3569SOL     OW11605   1.063   0.383   3.773
 3569SOL    HW111606   0.987   0.420   3.827
 3569SOL    HW211607   1.092   0.450   3.705
 3570SOL     OW11608   5.530   1.463   3.716
 3570SOL    HW111609   5.441   1.485   3.757
 3570SOL    HW211610   5.561   1.539   3.660
 3571SOL     OW11611   6.414   0.009   5.421
 3571SOL    HW111612   6.346   6.980   5.368
 3571SOL    HW211613   6.498   6.974   5.427
 3572SOL     OW11614   6.141   6.214   4.809
 3572SOL    HW111615   6.071   6.241   4.742
 3572SOL    HW211616   6.216   6.280   4.806
 3573SOL     OW11617   1.021   2.156   2.261
 3573SOL    HW111618   0.981   2.192   2.177
 3573SOL    HW211619   0.968   2.077   2.292
 3574SOL     OW11620   5.974   3.623   6.953
 3574SOL    HW111621   5.997   3.554   0.001
 3574SOL    HW211622   5.913   3.691   6.994
 3575SOL     OW11623   6.078   5.880   1.756
 3575SOL    HW111624   6.098   5.976   1.776
 3575SOL    HW211625   6.034   5.873   1.667
 3576SOL     OW11626   0.578   1.554   6.452
 3576SOL    HW111627   0.648   1.538   6.382
 3576SOL    HW211628   0.525   1.470   6.465
 3577SOL     OW11629   1.695   2.739   0.140
 3577SOL    HW111630   1.733   2.823   0.179
 3577SOL    HW211631   1.653   2.685   0.214
 3578SOL     OW11632   3.550   4.620   1.418
 3578SOL    HW111633   3.489   4.698   1.431
 3578SOL    HW211634   3.527   4.549   1.485
 3579SOL     OW11635   0.843   4.112   5.278
 3579SOL    HW111636   0.848   4.012   5.279
 3579SOL    HW211637   0.917   4.149   5.222
 3580SOL     OW11638   6.928   1.973   1.631
 3580SOL    HW111639   6.979   2.002   1.712
 3580SOL    HW211640   6.911   2.053   1.572
 3581SOL     OW11641   5.970   0.445   3.612
 3581SOL    HW111642   5.909   0.490   3.677
 3581SOL    HW211643   5.943   0.470   3.519
 3582SOL     OW11644   6.902   0.608   5.836
 3582SOL    HW111645   6.905   0.707   5.846
 3582SOL    HW211646   6.972   0.566   5.893
 3583SOL     OW11647   2.549   5.550   0.720
 3583SOL    HW111648   2.619   5.521   0.655
 3583SOL    HW211649   2.480   5.605   0.673
 3584SOL     OW11650   5.367   6.815   5.913
 3584SOL    HW111651   5.271   6.836   5.931
 3584SOL    HW211652   5.374   6.720   5.883
 3585SOL     OW11653   2.917   5.101   3.981
 3585SOL    HW111654   2.965   5.057   4.056
 3585SOL    HW211655   2.951   5.194   3.969
 3586SOL     OW11656   6.927   1.864   6.009
 3586SOL    HW111657   6.938   1.799   6.084
 3586SOL    HW211658   6.832   1.862   5.976
 3587SOL     OW11659   3.635   0.256   6.685
 3587SOL    HW111660   3.593   0.172   6.720
 3587SOL    HW211661   3.726   0.266   6.724
 3588SOL     OW11662   1.796   1.187   5.315
 3588SOL    HW111663   1.773   1.249   5.241
 3588SOL    HW211664   1.894   1.194   5.335
 3589SOL     OW11665   3.032   0.519   5.288
 3589SOL    HW111666   2.977   0.472   5.220
 3589SOL    HW211667   3.111   0.463   5.313
 3590SOL     OW11668   1.470   4.857   0.010
 3590SOL    HW111669   1.458   4.956   0.003
 3590SOL    HW211670   1.396   4.818   0.065
 3591SOL     OW11671   4.961   2.179   5.859
 3591SOL    HW111672   4.973   2.081   5.873
 3591SOL    HW211673   4.970   2.200   5.762
 3592SOL     OW11674   5.046   2.771   1.999
 3592SOL    HW111675   4.951   2.782   1.971
 3592SOL    HW211676   5.066   2.831   2.076
 3593SOL     OW11677   1.056   4.879   3.626
 3593SOL    HW111678   1.019   4.857   3.716
 3593SOL    HW211679   0.985   4.917   3.568
 3594SOL     OW11680   3.133   0.694   4.183
 3594SOL    HW111681   3.127   0.768   4.250
 3594SOL    HW211682   3.188   0.723   4.105
 3595SOL     OW11683   2.411   6.274   5.584
 3595SOL    HW111684   2.317   6.281   5.552
 3595SOL    HW211685   2.413   6.268   5.684
 3596SOL     OW11686   7.008   3.064   3.576
 3596SOL    HW111687   0.041   3.149   3.569
 3596SOL    HW211688   6.927   3.080   3.631
 3597SOL     OW11689   3.618   6.117   3.037
 3597SOL    HW111690   3.586   6.064   3.115
 3597SOL    HW211691   3.621   6.214   3.061
 3598SOL     OW11692   1.095   0.257   0.354
 3598SOL    HW111693   1.092   0.166   0.313
 3598SOL    HW211694   1.187   0.275   0.388
 3599SOL     OW11695   0.232   1.941   4.178
 3599SOL    HW111696   0.198   1.870   4.239
 3599SOL    HW211697   0.225   1.911   4.083
 3600SOL     OW11698   6.237   0.851   1.157
 3600SOL    HW111699   6.167   0.914   1.123
 3600SOL    HW211700   6.311   0.845   1.090
 3601SOL     OW11701   6.123   3.671   5.161
 3601SOL    HW111702   6.119   3.584   5.210
 3601SOL    HW211703   6.127   3.746   5.226
 3602SOL     OW11704   2.019   1.915   0.674
 3602SOL    HW111705   1.992   1.882   0.584
 3602SOL    HW211706   2.047   2.010   0.668
 3603SOL     OW11707   4.208   4.746   4.730
 3603SOL    HW111708   4.216   4.843   4.752
 3603SOL    HW211709   4.138   4.704   4.787
 3604SOL     OW11710   0.321   3.264   3.343
 3604SOL    HW111711   0.250   3.273   3.412
 3604SOL    HW211712   0.291   3.307   3.258
 3605SOL     OW11713   6.415   3.150   6.633
 3605SOL    HW111714   6.450   3.140   6.726
 3605SOL    HW211715   6.323   3.113   6.627
 3606SOL     OW11716   1.380   4.112   4.871
 3606SOL    HW111717   1.417   4.202   4.892
 3606SOL    HW211718   1.453   4.044   4.871
 3607SOL     OW11719   4.472   6.857   0.025
 3607SOL    HW111720   4.545   6.918   0.056
 3607SOL    HW211721   4.505   6.763   0.027
 3608SOL     OW11722   0.742   2.553   2.448
 3608SOL    HW111723   0.651   2.567   2.489
 3608SOL    HW211724   0.745   2.464   2.405
 3609SOL     OW11725   6.742   0.012   4.871
 3609SOL    HW111726   6.794   0.092   4.840
 3609SOL    HW211727   6.712   6.979   4.791
 3610SOL     OW11728   1.549   5.792   4.745
 3610SOL    HW111729   1.619   5.849   4.704
 3610SOL    HW211730   1.591   5.711   4.786
 3611SOL     OW11731   3.876   5.259   4.836
 3611SOL    HW111732   3.918   5.185   4.783
 3611SOL    HW211733   3.807   5.305   4.781
 3612SOL     OW11734   1.440   6.859   1.412
 3612SOL    HW111735   1.508   6.797   1.451
 3612SOL    HW211736   1.434   6.941   1.469
 3613SOL     OW11737   5.187   5.830   0.041
 3613SOL    HW111738   5.116   5.891   0.077
 3613SOL    HW211739   5.146   5.762   7.000
 3614SOL     OW11740   3.777   3.121   3.695
 3614SOL    HW111741   3.733   3.050   3.750
 3614SOL    HW211742   3.826   3.079   3.618
 3615SOL     OW11743   6.582   6.480   6.331
 3615SOL    HW111744   6.608   6.537   6.409
 3615SOL    HW211745   6.600   6.530   6.246
 3616SOL     OW11746   6.751   1.067   4.690
 3616SOL    HW111747   6.672   1.125   4.709
 3616SOL    HW211748   6.831   1.102   4.739
 3617SOL     OW11749   6.684   0.516   6.647
 3617SOL    HW111750   6.754   0.584   6.669
 3617SOL    HW211751   6.639   0.541   6.561
 3618SOL     OW11752   2.649   1.072   5.958
 3618SOL    HW111753   2.745   1.095   5.974
 3618SOL    HW211754   2.635   0.974   5.972
 3619SOL     OW11755   5.541   2.802   3.828
 3619SOL    HW111756   5.494   2.830   3.744
 3619SOL    HW211757   5.619   2.862   3.844
 3620SOL     OW11758   6.235   1.304   4.631
 3620SOL    HW111759   6.292   1.358   4.693
 3620SOL    HW211760   6.219   1.356   4.546
 3621SOL     OW11761   1.852   3.455   5.914
 3621SOL    HW111762   1.816   3.393   5.845
 3621SOL    HW211763   1.911   3.523   5.870
 3622SOL     OW11764   0.585   2.596   1.043
 3622SOL    HW111765   0.599   2.616   1.140
 3622SOL    HW211766   0.573   2.497   1.031
 3623SOL     OW11767   6.839   5.429   4.332
 3623SOL    HW111768   6.907   5.428   4.405
 3623SOL    HW211769   6.770   5.498   4.351
 3624SOL     OW11770   2.261   0.494   1.745
 3624SOL    HW111771   2.293   0.527   1.657
 3624SOL    HW211772   2.275   0.564   1.815
 3625SOL     OW11773   0.772   3.239   4.359
 3625SOL    HW111774   0.854   3.192   4.393
 3625SOL    HW211775   0.726   3.284   4.435
 3626SOL     OW11776   2.649   3.733   5.303
 3626SOL    HW111777   2.577   3.799   5.280
 3626SOL    HW211778   2.610   3.642   5.310
 3627SOL     OW11779   3.061   3.624   4.005
 3627SOL    HW111780   3.013   3.650   4.088
 3627SOL    HW211781   3.155   3.599   4.027
 3628SOL     OW11782   3.037   5.048   2.544
 3628SOL    HW111783   3.018   5.031   2.641
 3628SOL    HW211784   3.041   4.961   2.495
 3629SOL     OW11785   6.457   2.397   5.272
 3629SOL    HW111786   6.445   2.425   5.367
 3629SOL    HW211787   6.462   2.478   5.214
 3630SOL     OW11788   6.121   1.975   4.263
 3630SOL    HW111789   6.100   2.044   4.333
 3630SOL    HW211790   6.055   1.900   4.269
 3631SOL     OW11791   2.070   1.132   4.408
 3631SOL    HW111792   2.117   1.076   4.476
 3631SOL    HW211793   1.975   1.147   4.437
 3632SOL     OW11794   4.420   0.427   6.503
 3632SOL    HW111795   4.497   0.487   6.521
 3632SOL    HW211796   4.405   0.420   6.404
 3633SOL     OW11797   2.352   2.906   6.187
 3633SOL    HW111798   2.332   2.995   6.145
 3633SOL    HW211799   2.429   2.863   6.140
 3634SOL     OW11800   2.053   5.797   5.243
 3634SOL    HW111801   2.070   5.699   5.241
 3634SOL    HW211802   2.014   5.825   5.155
 3635SOL     OW11803   2.369   1.454   5.077
 3635SOL    HW111804   2.295   1.518   5.056
 3635SOL    HW211805   2.423   1.438   4.994
 3636SOL     OW11806   1.054   5.722   5.822
 3636SOL    HW111807   0.961   5.688   5.825
 3636SOL    HW211808   1.118   5.649   5.847
 3637SOL     OW11809   5.621   1.581   2.126
 3637SOL    HW111810   5.540   1.554   2.075
 3637SOL    HW211811   5.693   1.512   2.113
 3638SOL     OW11812   6.780   5.028   4.189
 3638SOL    HW111813   6.785   5.107   4.129
 3638SOL    HW211814   6.794   5.057   4.284
 3639SOL     OW11815   2.178   5.114   0.050
 3639SOL    HW111816   2.085   5.102   0.082
 3639SOL    HW211817   2.180   5.181   6.996
 3640SOL     OW11818   3.546   6.131   0.751
 3640SOL    HW111819   3.635   6.102   0.784
 3640SOL    HW211820   3.474   6.090   0.808
 3641SOL     OW11821   2.315   0.675   5.224
 3641SOL    HW111822   2.222   0.696   5.255
 3641SOL    HW211823   2.316   0.667   5.125
 3642SOL     OW11824   5.539   6.992   3.867
 3642SOL    HW111825   5.539   6.971   3.965
 3642SOL    HW211826   5.568   6.912   3.815
 3643SOL     OW11827   2.591   4.669   5.050
 3643SOL    HW111828   2.690   4.667   5.041
 3643SOL    HW211829   2.566   4.676   5.147
 3644SOL     OW11830   0.245   1.355   0.770
 3644SOL    HW111831   0.249   1.399   0.680
 3644SOL    HW211832   0.264   1.257   0.760
 3645SOL     OW11833   3.538   0.646   3.283
 3645SOL    HW111834   3.466   0.649   3.353
 3645SOL    HW211835   3.627   0.643   3.328
 3646SOL     OW11836   0.300   4.702   5.339
 3646SOL    HW111837   0.340   4.786   5.303
 3646SOL    HW211838   0.242   4.660   5.270
 3647SOL     OW11839   2.529   3.106   0.947
 3647SOL    HW111840   2.588   3.037   0.904
 3647SOL    HW211841   2.504   3.075   1.039
 3648SOL     OW11842   3.032   6.400   2.785
 3648SOL    HW111843   3.082   6.400   2.698
 3648SOL    HW211844   3.088   6.445   2.855
 3649SOL     OW11845   3.254   3.727   1.054
 3649SOL    HW111846   3.292   3.694   1.140
 3649SOL    HW211847   3.154   3.733   1.062
 3650SOL     OW11848   0.182   6.976   1.293
 3650SOL    HW111849   0.146   0.009   1.370
 3650SOL    HW211850   0.110   6.919   1.255
 3651SOL     OW11851   1.739   5.778   2.658
 3651SOL    HW111852   1.809   5.713   2.631
 3651SOL    HW211853   1.782   5.865   2.682
 3652SOL     OW11854   4.695   5.422   3.108
 3652SOL    HW111855   4.663   5.433   3.202
 3652SOL    HW211856   4.618   5.393   3.050
 3653SOL     OW11857   6.822   2.828   3.618
 3653SOL    HW111858   6.893   2.860   3.556
 3653SOL    HW211859   6.862   2.805   3.706
 3654SOL     OW11860   1.748   6.760   1.538
 3654SOL    HW111861   1.772   6.843   1.488
 3654SOL    HW211862   1.721   6.689   1.474
 3655SOL     OW11863   1.585   0.285   4.466
 3655SOL    HW111864   1.486   0.277   4.476
 3655SOL    HW211865   1.614   0.377   4.492
 3656SOL     OW11866   2.156   2.799   1.761
 3656SOL    HW111867   2.157   2.899   1.761
 3656SOL    HW211868   2.218   2.765   1.832
 3657SOL     OW11869   4.077   6.227   1.370
 3657SOL    HW111870   4.121   6.301   1.421
 3657SOL    HW211871   4.068   6.147   1.429
 3658SOL     OW11872   1.641   6.014   6.165
 3658SOL    HW111873   1.687   5.965   6.239
 3658SOL    HW211874   1.582   5.952   6.115
 3659SOL     OW11875   2.583   4.484   6.951
 3659SOL    HW111876   2.670   4.522   6.984
 3659SOL    HW211877   2.589   4.469   6.853
 3660SOL     OW11878   4.796   5.563   1.970
 3660SOL    HW111879   4.730   5.518   1.910
 3660SOL    HW211880   4.851   5.627   1.916
 3661SOL     OW11881   4.349   0.938   0.300
 3661SOL    HW111882   4.323   0.958   0.395
 3661SOL    HW211883   4.294   0.861   0.266
 3662SOL     OW11884   3.040   0.265   5.556
 3662SOL    HW111885   2.943   0.263   5.580
 3662SOL    HW211886   3.091   0.205   5.617
 3663SOL     OW11887   1.275   2.640   6.710
 3663SOL    HW111888   1.375   2.646   6.713
 3663SOL    HW211889   1.236   2.718   6.759
 3664SOL     OW11890   4.725   1.299   0.735
 3664SOL    HW111891   4.695   1.319   0.642
 3664SOL    HW211892   4.805   1.239   0.732
 3665SOL     OW11893   0.882   6.830   5.823
 3665SOL    HW111894   0.806   6.881   5.783
 3665SOL    HW211895   0.907   6.872   5.911
 3666SOL     OW11896   1.426   5.145   3.782
 3666SOL    HW111897   1.409   5.242   3.795
 3666SOL    HW211898   1.340   5.098   3.761
 3667SOL     OW11899   6.613   1.539   6.497
 3667SOL    HW111900   6.668   1.513   6.576
 3667SOL    HW211901   6.671   1.543   6.416
 3668SOL     OW11902   0.871   6.291   2.369
 3668SOL    HW111903   0.840   6.353   2.297
 3668SOL    HW211904   0.959   6.250   2.342
 3669SOL     OW11905   6.857   2.749   3.011
 3669SOL    HW111906   6.808   2.811   2.949
 3669SOL    HW211907   6.817   2.657   3.005
 3670SOL     OW11908   1.681   5.975   5.828
 3670SOL    HW111909   1.729   6.044   5.881
 3670SOL    HW211910   1.724   5.886   5.841
 3671SOL     OW11911   0.947   0.307   2.801
 3671SOL    HW111912   0.926   0.375   2.871
 3671SOL    HW211913   1.007   0.348   2.732
 3672SOL     OW11914   6.826   1.093   0.927
 3672SOL    HW111915   6.868   1.109   1.016
 3672SOL    HW211916   6.836   1.175   0.870
 3673SOL     OW11917   5.236   0.194   0.017
 3673SOL    HW111918   5.336   0.198   0.027
 3673SOL    HW211919   5.213   0.152   6.949
 3674SOL     OW11920   1.477   6.180   1.166
 3674SOL    HW111921   1.408   6.108   1.169
 3674SOL    HW211922   1.434   6.267   1.143
 3675SOL     OW11923   1.663   2.432   5.057
 3675SOL    HW111924   1.644   2.482   5.142
 3675SOL    HW211925   1.757   2.451   5.028
 3676SOL     OW11926   2.395   5.706   3.649
 3676SOL    HW111927   2.487   5.672   3.666
 3676SOL    HW211928   2.370   5.688   3.554
 3677SOL     OW11929   6.620   6.901   4.675
 3677SOL    HW111930   6.687   6.911   4.601
 3677SOL    HW211931   6.549   6.836   4.648
 3678SOL     OW11932   0.997   1.719   3.692
 3678SOL    HW111933   1.065   1.705   3.620
 3678SOL    HW211934   1.013   1.806   3.737
 3679SOL     OW11935   0.171   0.891   1.898
 3679SOL    HW111936   0.152   0.984   1.929
 3679SOL    HW211937   0.161   0.828   1.975
 3680SOL     OW11938   6.675   3.277   4.201
 3680SOL    HW111939   6.586   3.313   4.173
 3680SOL    HW211940   6.729   3.255   4.119
 3681SOL     OW11941   6.575   6.183   5.452
 3681SOL    HW111942   6.541   6.250   5.518
 3681SOL    HW211943   6.641   6.122   5.497
 3682SOL     OW11944   0.092   1.978   6.291
 3682SOL    HW111945   0.126   1.887   6.270
 3682SOL    HW211946   7.014   1.974   6.310
 3683SOL     OW11947   5.357   6.333   4.544
 3683SOL    HW111948   5.346   6.428   4.575
 3683SOL    HW211949   5.267   6.290   4.539
 3684SOL     OW11950   1.196   3.525   0.714
 3684SOL    HW111951   1.140   3.515   0.796
 3684SOL    HW211952   1.255   3.606   0.723
 3685SOL     OW11953   6.500   6.228   6.212
 3685SOL    HW111954   6.496   6.323   6.241
 3685SOL    HW211955   6.419   6.207   6.156
 3686SOL     OW11956   6.138   4.240   1.445
 3686SOL    HW111957   6.045   4.250   1.411
 3686SOL    HW211958   6.149   4.152   1.490
 3687SOL     OW11959   3.220   0.798   0.283
 3687SOL    HW111960   3.194   0.885   0.241
 3687SOL    HW211961   3.150   0.729   0.263
 3688SOL     OW11962   1.506   3.651   0.514
 3688SOL    HW111963   1.601   3.669   0.539
 3688SOL    HW211964   1.450   3.730   0.537
 3689SOL     OW11965   2.204   0.493   3.814
 3689SOL    HW111966   2.147   0.563   3.856
 3689SOL    HW211967   2.153   0.450   3.739
 3690SOL     OW11968   6.272   0.039   5.827
 3690SOL    HW111969   6.358   0.053   5.777
 3690SOL    HW211970   6.202   0.101   5.791
 3691SOL     OW11971   3.530   2.913   6.950
 3691SOL    HW111972   3.559   2.948   6.861
 3691SOL    HW211973   3.545   2.814   6.953
 3692SOL     OW11974   1.782   0.035   5.726
 3692SOL    HW111975   1.839   7.013   5.797
 3692SOL    HW211976   1.841   0.086   5.663
 3693SOL     OW11977   3.050   2.040   3.173
 3693SOL    HW111978   3.051   2.094   3.089
 3693SOL    HW211979   2.976   2.071   3.232
 3694SOL     OW11980   1.840   6.148   3.317
 3694SOL    HW111981   1.757   6.204   3.311
 3694SOL    HW211982   1.845   6.105   3.407
 3695SOL     OW11983   1.821   2.468   2.123
 3695SOL    HW111984   1.810   2.369   2.130
 3695SOL    HW211985   1.859   2.504   2.208
 3696SOL     OW11986   3.990   6.824   6.489
 3696SOL    HW111987   3.961   6.917   6.510
 3696SOL    HW211988   4.057   6.825   6.415
 3697SOL     OW11989   6.373   0.657   4.114
 3697SOL    HW111990   6.416   0.599   4.044
 3697SOL    HW211991   6.279   0.629   4.128
 3698SOL     OW11992   3.026   0.604   5.695
 3698SOL    HW111993   3.088   0.568   5.764
 3698SOL    HW211994   3.078   0.637   5.617
 3699SOL     OW11995   0.620   4.283   2.603
 3699SOL    HW111996   0.571   4.204   2.567
 3699SOL    HW211997   0.572   4.318   2.684
 3700SOL     OW11998   0.070   0.245   4.023
 3700SOL    HW111999   0.162   0.283   4.035
 3700SOL    HW212000   0.076   0.157   3.975
 3701SOL     OW12001   6.278   0.669   4.524
 3701SOL    HW112002   6.309   0.729   4.450
 3701SOL    HW212003   6.357   0.620   4.562
 3702SOL     OW12004   3.197   1.090   0.233
 3702SOL    HW112005   3.260   1.161   0.265
 3702SOL    HW212006   3.110   1.099   0.282
 3703SOL     OW12007   4.203   4.321   6.461
 3703SOL    HW112008   4.194   4.420   6.468
 3703SOL    HW212009   4.113   4.279   6.453
 3704SOL     OW12010   2.212   0.066   2.714
 3704SOL    HW112011   2.129   0.107   2.751
 3704SOL    HW212012   2.270   0.034   2.789
 3705SOL     OW12013   5.750   0.553   3.731
 3705SOL    HW112014   5.729   0.493   3.808
 3705SOL    HW212015   5.706   0.517   3.649
 3706SOL     OW12016   1.706   2.472   3.886
 3706SOL    HW112017   1.745   2.434   3.970
 3706SOL    HW212018   1.612   2.501   3.902
 3707SOL     OW12019   4.319   2.641   5.337
 3707SOL    HW112020   4.390   2.654   5.268
 3707SOL    HW212021   4.246   2.583   5.300
 3708SOL     OW12022   5.478   0.485   6.384
 3708SOL    HW112023   5.545   0.464   6.313
 3708SOL    HW212024   5.394   0.433   6.367
 3709SOL     OW12025   3.784   0.619   6.793
 3709SOL    HW112026   3.866   0.583   6.838
 3709SOL    HW212027   3.788   0.599   6.695
 3710SOL     OW12028   0.238   4.634   0.743
 3710SOL    HW112029   0.300   4.572   0.694
 3710SOL    HW212030   0.239   4.724   0.699
 3711SOL     OW12031   6.009   5.013   2.293
 3711SOL    HW112032   6.072   5.066   2.236
 3711SOL    HW212033   5.915   5.030   2.264
 3712SOL     OW12034   2.093   6.990   0.342
 3712SOL    HW112035   2.011   6.933   0.349
 3712SOL    HW212036   2.102   0.028   0.423
 3713SOL     OW12037   3.598   5.837   5.377
 3713SOL    HW112038   3.595   5.881   5.466
 3713SOL    HW212039   3.623   5.904   5.307
 3714SOL     OW12040   3.612   0.177   4.397
 3714SOL    HW112041   3.578   0.158   4.489
 3714SOL    HW212042   3.707   0.208   4.403
 3715SOL     OW12043   5.153   3.891   4.914
 3715SOL    HW112044   5.102   3.888   5.000
 3715SOL    HW212045   5.242   3.935   4.929
 3716SOL     OW12046   0.124   0.638   4.211
 3716SOL    HW112047   0.081   0.567   4.267
 3716SOL    HW212048   0.120   0.612   4.115
 3717SOL     OW12049   5.716   6.731   0.830
 3717SOL    HW112050   5.702   6.670   0.908
 3717SOL    HW212051   5.736   6.823   0.863
 3718SOL     OW12052   1.073   5.317   7.005
 3718SOL    HW112053   1.165   5.280   0.002
 3718SOL    HW212054   1.076   5.378   6.926
 3719SOL     OW12055   3.134   4.868   5.833
 3719SOL    HW112056   3.058   4.890   5.895
 3719SOL    HW212057   3.101   4.871   5.739
 3720SOL     OW12058   6.281   1.549   6.138
 3720SOL    HW112059   6.291   1.592   6.048
 3720SOL    HW212060   6.241   1.458   6.128
 3721SOL     OW12061   4.908   3.806   0.532
 3721SOL    HW112062   4.897   3.713   0.497
 3721SOL    HW212063   4.859   3.870   0.472
 3722SOL     OW12064   6.646   6.209   2.204
 3722SOL    HW112065   6.744   6.191   2.204
 3722SOL    HW212066   6.605   6.174   2.288
 3723SOL     OW12067   4.741   0.661   0.916
 3723SOL    HW112068   4.696   0.750   0.909
 3723SOL    HW212069   4.840   0.672   0.908
 3724SOL     OW12070   1.468   5.860   6.032
 3724SOL    HW112071   1.371   5.881   6.041
 3724SOL    HW212072   1.486   5.826   5.940
 3725SOL     OW12073   0.343   5.786   0.087
 3725SOL    HW112074   0.389   5.721   0.147
 3725SOL    HW212075   0.289   5.736   0.020
 3726SOL     OW12076   5.324   3.889   1.447
 3726SOL    HW112077   5.335   3.932   1.357
 3726SOL    HW212078   5.265   3.946   1.505
 3727SOL     OW12079   2.252   3.507   5.839
 3727SOL    HW112080   2.238   3.419   5.883
 3727SOL    HW212081   2.313   3.496   5.761
 3728SOL     OW12082   1.626   3.132   6.486
 3728SOL    HW112083   1.549   3.124   6.549
 3728SOL    HW212084   1.623   3.220   6.440
 3729SOL     OW12085   0.639   2.087   3.319
 3729SOL    HW112086   0.568   2.030   3.277
 3729SOL    HW212087   0.726   2.072   3.272
 3730SOL     OW12088   2.944   1.074   0.368
 3730SOL    HW112089   2.905   0.991   0.408
 3730SOL    HW212090   2.922   1.152   0.426
 3731SOL     OW12091   4.077   6.819   0.111
 3731SOL    HW112092   4.100   6.726   0.142
 3731SOL    HW212093   3.983   6.840   0.137
 3732SOL     OW12094   2.289   3.775   5.288
 3732SOL    HW112095   2.254   3.742   5.200
 3732SOL    HW212096   2.357   3.847   5.272
 3733SOL     OW12097   2.785   3.679   1.393
 3733SOL    HW112098   2.726   3.758   1.407
 3733SOL    HW212099   2.740   3.597   1.429
 3734SOL     OW12100   5.307   1.005   2.336
 3734SOL    HW112101   5.346   1.090   2.302
 3734SOL    HW212102   5.304   0.938   2.262
 3735SOL     OW12103   3.264   1.617   2.599
 3735SOL    HW112104   3.241   1.713   2.579
 3735SOL    HW212105   3.353   1.613   2.645
 3736SOL     OW12106   5.778   2.375   6.975
 3736SOL    HW112107   5.816   2.443   6.912
 3736SOL    HW212108   5.853   2.327   0.001
 3737SOL     OW12109   4.717   6.534   3.541
 3737SOL    HW112110   4.798   6.480   3.561
 3737SOL    HW212111   4.744   6.626   3.511
 3738SOL     OW12112   6.784   0.195   3.512
 3738SOL    HW112113   6.879   0.214   3.538
 3738SOL    HW212114   6.726   0.200   3.594
 3739SOL     OW12115   0.629   4.559   2.482
 3739SOL    HW112116   0.725   4.558   2.453
 3739SOL    HW212117   0.600   4.467   2.505
 3740SOL     OW12118   5.681   1.134   0.497
 3740SOL    HW112119   5.751   1.149   0.427
 3740SOL    HW212120   5.592   1.163   0.461
 3741SOL     OW12121   4.174   2.690   6.703
 3741SOL    HW112122   4.078   2.668   6.685
 3741SOL    HW212123   4.181   2.783   6.739
 3742SOL     OW12124   3.493   3.244   5.564
 3742SOL    HW112125   3.407   3.196   5.579
 3742SOL    HW212126   3.481   3.312   5.491
 3743SOL     OW12127   0.161   5.299   6.741
 3743SOL    HW112128   0.138   5.395   6.724
 3743SOL    HW212129   0.094   5.240   6.696
 3744SOL     OW12130   6.904   5.752   3.411
 3744SOL    HW112131   7.002   5.771   3.405
 3744SOL    HW212132   6.866   5.798   3.491
 3745SOL     OW12133   4.427   5.875   2.606
 3745SOL    HW112134   4.472   5.934   2.539
 3745SOL    HW212135   4.424   5.782   2.571
 3746SOL     OW12136   4.576   1.677   2.088
 3746SOL    HW112137   4.592   1.644   2.181
 3746SOL    HW212138   4.613   1.613   2.022
 3747SOL     OW12139   3.106   0.203   0.192
 3747SOL    HW112140   3.105   0.284   0.133
 3747SOL    HW212141   3.085   0.122   0.137
 3748SOL     OW12142   5.731   1.088   2.542
 3748SOL    HW112143   5.742   1.096   2.443
 3748SOL    HW212144   5.820   1.101   2.586
 3749SOL     OW12145   1.207   0.332   5.039
 3749SOL    HW112146   1.127   0.355   4.984
 3749SOL    HW212147   1.249   0.248   5.004
 3750SOL     OW12148   0.034   4.380   0.200
 3750SOL    HW112149   6.955   4.377   0.217
 3750SOL    HW212150   0.057   4.317   0.127
 3751SOL     OW12151   1.010   4.203   2.406
 3751SOL    HW112152   1.099   4.223   2.366
 3751SOL    HW212153   0.997   4.103   2.410
 3752SOL     OW12154   5.964   0.264   6.573
 3752SOL    HW112155   5.920   0.176   6.556
 3752SOL    HW212156   6.009   0.296   6.489
 3753SOL     OW12157   6.408   0.259   4.310
 3753SOL    HW112158   6.487   0.314   4.339
 3753SOL    HW212159   6.406   0.174   4.361
 3754SOL     OW12160   2.179   1.754   1.044
 3754SOL    HW112161   2.151   1.660   1.064
 3754SOL    HW212162   2.185   1.805   1.130
 3755SOL     OW12163   3.073   4.845   3.856
 3755SOL    HW112164   2.986   4.869   3.815
 3755SOL    HW212165   3.148   4.877   3.797
 3756SOL     OW12166   2.818   6.364   6.723
 3756SOL    HW112167   2.728   6.369   6.767
 3756SOL    HW212168   2.844   6.455   6.691
 3757SOL     OW12169   0.212   4.607   1.371
 3757SOL    HW112170   0.241   4.518   1.405
 3757SOL    HW212171   0.128   4.634   1.418
 3758SOL     OW12172   2.138   6.889   4.240
 3758SOL    HW112173   2.112   6.976   4.283
 3758SOL    HW212174   2.057   6.832   4.228
 3759SOL     OW12175   5.307   7.011   4.585
 3759SOL    HW112176   5.233   6.945   4.596
 3759SOL    HW212177   5.302   0.059   4.658
 3760SOL     OW12178   0.103   1.182   3.065
 3760SOL    HW112179   0.028   1.248   3.061
 3760SOL    HW212180   0.173   1.208   2.998
 3761SOL     OW12181   5.509   0.790   4.172
 3761SOL    HW112182   5.539   0.735   4.250
 3761SOL    HW212183   5.546   0.752   4.088
 3762SOL     OW12184   6.776   2.341   3.185
 3762SOL    HW112185   6.854   2.286   3.216
 3762SOL    HW212186   6.759   2.415   3.249
 3763SOL     OW12187   0.989   4.508   0.961
 3763SOL    HW112188   0.948   4.496   0.870
 3763SOL    HW212189   0.934   4.458   1.028
 3764SOL     OW12190   2.444   0.569   3.094
 3764SOL    HW112191   2.478   0.625   3.019
 3764SOL    HW212192   2.516   0.506   3.124
 3765SOL     OW12193   5.592   2.911   2.618
 3765SOL    HW112194   5.580   2.824   2.665
 3765SOL    HW212195   5.676   2.955   2.649
 3766SOL     OW12196   1.086   3.583   3.285
 3766SOL    HW112197   1.016   3.651   3.308
 3766SOL    HW212198   1.163   3.628   3.239
 3767SOL     OW12199   1.104   5.157   6.094
 3767SOL    HW112200   1.026   5.108   6.133
 3767SOL    HW212201   1.073   5.244   6.056
 3768SOL     OW12202   0.655   6.546   3.480
 3768SOL    HW112203   0.654   6.618   3.411
 3768SOL    HW212204   0.623   6.583   3.567
 3769SOL     OW12205   6.098   4.878   5.131
 3769SOL    HW112206   6.178   4.924   5.171
 3769SOL    HW212207   6.016   4.903   5.182
 3770SOL     OW12208   1.934   0.922   0.933
 3770SOL    HW112209   2.017   0.894   0.884
 3770SOL    HW212210   1.921   1.021   0.922
 3771SOL     OW12211   6.326   5.210   6.355
 3771SOL    HW112212   6.297   5.204   6.450
 3771SOL    HW212213   6.252   5.250   6.300
 3772SOL     OW12214   1.320   6.283   0.786
 3772SOL    HW112215   1.246   6.322   0.840
 3772SOL    HW212216   1.297   6.190   0.760
 3773SOL     OW12217   5.571   4.792   6.247
 3773SOL    HW112218   5.564   4.708   6.194
 3773SOL    HW212219   5.512   4.862   6.207
 3774SOL     OW12220   6.893   5.156   1.943
 3774SOL    HW112221   6.903   5.160   1.843
 3774SOL    HW212222   6.798   5.176   1.967
 3775SOL     OW12223   4.771   5.052   4.665
 3775SOL    HW112224   4.818   5.087   4.584
 3775SOL    HW212225   4.802   4.959   4.684
 3776SOL     OW12226   3.399   2.858   5.898
 3776SOL    HW112227   3.352   2.772   5.912
 3776SOL    HW212228   3.457   2.852   5.816
 3777SOL     OW12229   2.453   6.058   4.445
 3777SOL    HW112230   2.546   6.033   4.418
 3777SOL    HW212231   2.443   6.158   4.443
 3778SOL     OW12232   3.464   5.787   5.722
 3778SOL    HW112233   3.368   5.812   5.706
 3778SOL    HW212234   3.523   5.848   5.670
 3779SOL     OW12235   6.752   4.914   6.966
 3779SOL    HW112236   6.829   4.889   0.005
 3779SOL    HW212237   6.728   4.837   6.908
 3780SOL     OW12238   5.616   3.949   1.485
 3780SOL    HW112239   5.681   3.874   1.497
 3780SOL    HW212240   5.523   3.912   1.480
 3781SOL     OW12241   2.699   6.315   4.812
 3781SOL    HW112242   2.659   6.261   4.886
 3781SOL    HW212243   2.783   6.359   4.844
 3782SOL     OW12244   4.699   5.881   1.527
 3782SOL    HW112245   4.661   5.972   1.508
 3782SOL    HW212246   4.671   5.817   1.456
 3783SOL     OW12247   5.300   5.664   4.378
 3783SOL    HW112248   5.266   5.611   4.300
 3783SOL    HW212249   5.325   5.601   4.451
 3784SOL     OW12250   6.211   2.121   4.033
 3784SOL    HW112251   6.200   2.104   4.131
 3784SOL    HW212252   6.281   2.060   3.996
 3785SOL     OW12253   1.864   3.455   3.836
 3785SOL    HW112254   1.899   3.402   3.913
 3785SOL    HW212255   1.774   3.492   3.859
 3786SOL     OW12256   2.513   2.585   4.699
 3786SOL    HW112257   2.613   2.578   4.704
 3786SOL    HW212258   2.476   2.601   4.790
 3787SOL     OW12259   4.458   6.800   3.573
 3787SOL    HW112260   4.444   6.899   3.578
 3787SOL    HW212261   4.428   6.758   3.659
 3788SOL     OW12262   6.098   3.082   5.024
 3788SOL    HW112263   6.078   3.180   5.028
 3788SOL    HW212264   6.114   3.055   4.929
 3789SOL     OW12265   1.392   2.931   2.507
 3789SOL    HW112266   1.488   2.957   2.495
 3789SOL    HW212267   1.344   3.005   2.555
 3790SOL     OW12268   0.468   6.881   1.260
 3790SOL    HW112269   0.378   6.919   1.283
 3790SOL    HW212270   0.467   6.782   1.275
 3791SOL     OW12271   4.880   1.426   5.571
 3791SOL    HW112272   4.808   1.456   5.633
 3791SOL    HW212273   4.849   1.346   5.520
 3792SOL     OW12274   6.815   0.924   4.460
 3792SOL    HW112275   6.912   0.904   4.458
 3792SOL    HW212276   6.790   0.961   4.549
 3793SOL     OW12277   4.971   5.045   0.688
 3793SOL    HW112278   5.039   4.991   0.737
 3793SOL    HW212279   5.017   5.113   0.630
 3794SOL     OW12280   0.861   4.380   6.651
 3794SOL    HW112281   0.896   4.433   6.728
 3794SOL    HW212282   0.796   4.436   6.599
 3795SOL     OW12283   2.332   6.279   1.598
 3795SOL    HW112284   2.337   6.291   1.499
 3795SOL    HW212285   2.380   6.354   1.643
 3796SOL     OW12286   5.071   1.328   6.769
 3796SOL    HW112287   5.006   1.397   6.803
 3796SOL    HW212288   5.153   1.329   6.826
 3797SOL     OW12289   1.321   4.605   2.174
 3797SOL    HW112290   1.262   4.685   2.177
 3797SOL    HW212291   1.272   4.529   2.131
 3798SOL     OW12292   1.602   6.190   3.623
 3798SOL    HW112293   1.625   6.242   3.705
 3798SOL    HW212294   1.587   6.094   3.648
 3799SOL     OW12295   6.812   1.194   3.327
 3799SOL    HW112296   6.767   1.250   3.396
 3799SOL    HW212297   6.788   1.098   3.342
 3800SOL     OW12298   4.938   2.672   3.086
 3800SOL    HW112299   5.012   2.635   3.030
 3800SOL    HW212300   4.897   2.598   3.139
 3801SOL     OW12301   5.577   1.220   1.599
 3801SOL    HW112302   5.620   1.268   1.675
 3801SOL    HW212303   5.647   1.193   1.533
 3802SOL     OW12304   6.457   2.904   1.902
 3802SOL    HW112305   6.365   2.937   1.923
 3802SOL    HW212306   6.454   2.806   1.883
 3803SOL     OW12307   3.343   3.245   4.322
 3803SOL    HW112308   3.441   3.229   4.334
 3803SOL    HW212309   3.293   3.165   4.356
 3804SOL     OW12310   4.396   5.851   3.335
 3804SOL    HW112311   4.420   5.882   3.243
 3804SOL    HW212312   4.458   5.777   3.362
 3805SOL     OW12313   2.573   2.694   6.919
 3805SOL    HW112314   2.580   2.665   6.824
 3805SOL    HW212315   2.664   2.713   6.955
 3806SOL     OW12316   3.200   4.465   1.378
 3806SOL    HW112317   3.141   4.396   1.335
 3806SOL    HW212318   3.175   4.475   1.475
 3807SOL     OW12319   1.802   4.645   4.447
 3807SOL    HW112320   1.786   4.579   4.521
 3807SOL    HW212321   1.787   4.600   4.359
 3808SOL     OW12322   3.295   6.927   6.308
 3808SOL    HW112323   3.337   6.937   6.398
 3808SOL    HW212324   3.334   6.996   6.246
 3809SOL     OW12325   5.273   2.470   1.622
 3809SOL    HW112326   5.322   2.420   1.552
 3809SOL    HW212327   5.280   2.423   1.710
 3810SOL     OW12328   6.140   2.290   2.113
 3810SOL    HW112329   6.201   2.246   2.047
 3810SOL    HW212330   6.185   2.295   2.202
 3811SOL     OW12331   0.075   5.491   5.482
 3811SOL    HW112332   0.137   5.559   5.444
 3811SOL    HW212333   0.111   5.458   5.569
 3812SOL     OW12334   4.818   6.017   1.029
 3812SOL    HW112335   4.901   6.072   1.024
 3812SOL    HW212336   4.830   5.944   1.095
 3813SOL     OW12337   6.092   4.268   6.824
 3813SOL    HW112338   6.152   4.275   6.745
 3813SOL    HW212339   6.039   4.183   6.819
 3814SOL     OW12340   6.579   0.483   4.892
 3814SOL    HW112341   6.663   0.436   4.918
 3814SOL    HW212342   6.593   0.582   4.896
 3815SOL     OW12343   6.559   3.763   5.809
 3815SOL    HW112344   6.624   3.815   5.753
 3815SOL    HW212345   6.594   3.757   5.903
 3816SOL     OW12346   0.194   5.988   0.194
 3816SOL    HW112347   0.258   5.914   0.174
 3816SOL    HW212348   0.184   6.047   0.114
 3817SOL     OW12349   4.957   3.881   2.062
 3817SOL    HW112350   5.026   3.841   2.001
 3817SOL    HW212351   4.893   3.936   2.009
 3818SOL     OW12352   5.991   6.582   2.660
 3818SOL    HW112353   6.038   6.634   2.731
 3818SOL    HW212354   5.913   6.635   2.626
 3819SOL     OW12355   6.674   4.612   3.728
 3819SOL    HW112356   6.753   4.594   3.670
 3819SOL    HW212357   6.590   4.605   3.674
 3820SOL     OW12358   4.306   0.058   4.657
 3820SOL    HW112359   4.405   0.058   4.667
 3820SOL    HW212360   4.263   0.099   4.737
 3821SOL     OW12361   1.804   0.259   0.224
 3821SOL    HW112362   1.771   0.254   0.319
 3821SOL    HW212363   1.738   0.310   0.169
 3822SOL     OW12364   4.711   0.699   1.947
 3822SOL    HW112365   4.717   0.692   1.848
 3822SOL    HW212366   4.627   0.746   1.973
 3823SOL     OW12367   4.724   5.935   0.019
 3823SOL    HW112368   4.726   5.913   6.942
 3823SOL    HW212369   4.637   5.905   0.059
 3824SOL     OW12370   2.437   2.871   0.224
 3824SOL    HW112371   2.478   2.907   0.140
 3824SOL    HW212372   2.466   2.927   0.301
 3825SOL     OW12373   1.226   3.659   5.853
 3825SOL    HW112374   1.267   3.714   5.926
 3825SOL    HW212375   1.234   3.708   5.766
 3826SOL     OW12376   5.846   4.086   3.793
 3826SOL    HW112377   5.865   4.170   3.742
 3826SOL    HW212378   5.932   4.041   3.817
 3827SOL     OW12379   0.900   1.207   1.606
 3827SOL    HW112380   0.916   1.125   1.552
 3827SOL    HW212381   0.863   1.181   1.695
 3828SOL     OW12382   3.410   3.940   4.069
 3828SOL    HW112383   3.345   3.877   4.027
 3828SOL    HW212384   3.432   4.014   4.006
 3829SOL     OW12385   0.901   3.909   2.320
 3829SOL    HW112386   0.956   3.840   2.366
 3829SOL    HW212387   0.813   3.917   2.366
 3830SOL     OW12388   6.529   1.276   4.416
 3830SOL    HW112389   6.464   1.307   4.345
 3830SOL    HW212390   6.622   1.297   4.387
 3831SOL     OW12391   4.739   1.750   3.481
 3831SOL    HW112392   4.674   1.825   3.489
 3831SOL    HW212393   4.746   1.722   3.386
 3832SOL     OW12394   6.477   0.825   3.679
 3832SOL    HW112395   6.575   0.843   3.684
 3832SOL    HW212396   6.435   0.846   3.767
 3833SOL     OW12397   0.842   2.023   5.820
 3833SOL    HW112398   0.863   1.956   5.892
 3833SOL    HW212399   0.814   2.109   5.862
 3834SOL     OW12400   4.780   4.206   0.491
 3834SOL    HW112401   4.788   4.152   0.575
 3834SOL    HW212402   4.779   4.144   0.412
 3835SOL     OW12403   4.115   5.375   4.673
 3835SOL    HW112404   4.099   5.474   4.673
 3835SOL    HW212405   4.033   5.327   4.705
 3836SOL     OW12406   0.054   6.365   5.669
 3836SOL    HW112407   0.086   6.273   5.692
 3836SOL    HW212408   7.016   6.400   5.743
 3837SOL     OW12409   4.465   4.907   5.212
 3837SOL    HW112410   4.493   4.974   5.143
 3837SOL    HW212411   4.397   4.948   5.273
 3838SOL     OW12412   0.819   1.041   3.695
 3838SOL    HW112413   0.735   1.093   3.676
 3838SOL    HW212414   0.874   1.035   3.612
 3839SOL     OW12415   4.039   0.812   3.677
 3839SOL    HW112416   4.119   0.870   3.691
 3839SOL    HW212417   4.061   0.717   3.702
 3840SOL     OW12418   2.372   1.308   6.925
 3840SOL    HW112419   2.276   1.330   6.905
 3840SOL    HW212420   2.406   1.245   6.855
 3841SOL     OW12421   6.052   4.605   4.226
 3841SOL    HW112422   6.125   4.538   4.240
 3841SOL    HW212423   6.061   4.678   4.294
 3842SOL     OW12424   2.067   3.207   5.112
 3842SOL    HW112425   1.973   3.208   5.076
 3842SOL    HW212426   2.090   3.115   5.143
 3843SOL     OW12427   5.480   2.774   6.740
 3843SOL    HW112428   5.535   2.758   6.659
 3843SOL    HW212429   5.389   2.805   6.713
 3844SOL     OW12430   1.002   6.299   0.688
 3844SOL    HW112431   0.903   6.289   0.698
 3844SOL    HW212432   1.040   6.218   0.644
 3845SOL     OW12433   1.901   5.868   0.677
 3845SOL    HW112434   1.895   5.914   0.766
 3845SOL    HW212435   1.980   5.808   0.676
 3846SOL     OW12436   1.295   2.623   3.482
 3846SOL    HW112437   1.235   2.550   3.449
 3846SOL    HW212438   1.381   2.585   3.514
 3847SOL     OW12439   0.045   1.358   6.622
 3847SOL    HW112440   0.023   1.455   6.632
 3847SOL    HW212441   0.110   1.331   6.693
 3848SOL     OW12442   5.529   3.478   2.342
 3848SOL    HW112443   5.573   3.509   2.258
 3848SOL    HW212444   5.569   3.525   2.420
 3849SOL     OW12445   6.443   5.423   6.771
 3849SOL    HW112446   6.496   5.403   6.854
 3849SOL    HW212447   6.464   5.356   6.701
 3850SOL     OW12448   2.183   2.126   1.617
 3850SOL    HW112449   2.115   2.169   1.676
 3850SOL    HW212450   2.256   2.088   1.673
 3851SOL     OW12451   0.278   5.976   2.905
 3851SOL    HW112452   0.306   6.072   2.905
 3851SOL    HW212453   0.342   5.923   2.850
 3852SOL     OW12454   2.817   6.065   5.759
 3852SOL    HW112455   2.858   6.047   5.669
 3852SOL    HW212456   2.744   6.133   5.749
 3853SOL     OW12457   2.383   0.697   3.830
 3853SOL    HW112458   2.480   0.673   3.838
 3853SOL    HW212459   2.331   0.616   3.802
 3854SOL     OW12460   1.779   2.582   2.504
 3854SOL    HW112461   1.866   2.580   2.554
 3854SOL    HW212462   1.705   2.604   2.568
 3855SOL     OW12463   4.248   0.452   0.318
 3855SOL    HW112464   4.212   0.376   0.371
 3855SOL    HW212465   4.316   0.419   0.253
 3856SOL     OW12466   0.485   1.405   6.772
 3856SOL    HW112467   0.502   1.328   6.711
 3856SOL    HW212468   0.570   1.458   6.783
 3857SOL     OW12469   1.844   0.961   5.517
 3857SOL    HW112470   1.808   0.872   5.490
 3857SOL    HW212471   1.806   1.032   5.458
 3858SOL     OW12472   4.262   0.891   4.907
 3858SOL    HW112473   4.291   0.815   4.849
 3858SOL    HW212474   4.339   0.953   4.923
 3859SOL     OW12475   5.471   0.258   1.570
 3859SOL    HW112476   5.422   0.319   1.508
 3859SOL    HW212477   5.565   0.291   1.582
 3860SOL     OW12478   1.633   6.969   4.492
 3860SOL    HW112479   1.681   0.015   4.434
 3860SOL    HW212480   1.547   7.009   4.524
 3861SOL     OW12481   4.284   5.960   1.942
 3861SOL    HW112482   4.359   5.940   2.004
 3861SOL    HW212483   4.198   5.964   1.993
 3862SOL     OW12484   1.188   0.092   3.658
 3862SOL    HW112485   1.158   0.023   3.723
 3862SOL    HW212486   1.254   0.154   3.702
 3863SOL     OW12487   4.250   0.770   0.919
 3863SOL    HW112488   4.283   0.864   0.916
 3863SOL    HW212489   4.167   0.762   0.864
 3864SOL     OW12490   2.551   0.252   4.401
 3864SOL    HW112491   2.467   0.252   4.347
 3864SOL    HW212492   2.532   0.221   4.494
 3865SOL     OW12493   3.450   0.783   0.114
 3865SOL    HW112494   3.411   0.770   0.205
 3865SOL    HW212495   3.377   0.781   0.046
 3866SOL     OW12496   2.588   2.556   6.611
 3866SOL    HW112497   2.493   2.528   6.597
 3866SOL    HW212498   2.629   2.579   6.523
 3867SOL     OW12499   0.433   3.691   2.393
 3867SOL    HW112500   0.345   3.680   2.438
 3867SOL    HW212501   0.476   3.601   2.381
 3868SOL     OW12502   4.007   1.209   6.665
 3868SOL    HW112503   3.986   1.202   6.763
 3868SOL    HW212504   4.080   1.143   6.643
 3869SOL     OW12505   6.476   3.233   3.491
 3869SOL    HW112506   6.413   3.229   3.413
 3869SOL    HW212507   6.486   3.142   3.530
 3870SOL     OW12508   6.515   0.638   3.477
 3870SOL    HW112509   6.441   0.572   3.487
 3870SOL    HW212510   6.491   0.723   3.523
 3871SOL     OW12511   3.674   5.681   4.206
 3871SOL    HW112512   3.608   5.609   4.230
 3871SOL    HW212513   3.654   5.763   4.260
 3872SOL     OW12514   3.678   3.640   4.379
 3872SOL    HW112515   3.630   3.724   4.354
 3872SOL    HW212516   3.710   3.647   4.474
 3873SOL     OW12517   4.195   2.317   0.971
 3873SOL    HW112518   4.161   2.327   1.065
 3873SOL    HW212519   4.293   2.338   0.969
 3874SOL     OW12520   2.995   0.562   0.328
 3874SOL    HW112521   2.925   0.535   0.263
 3874SOL    HW212522   2.958   0.559   0.421
 3875SOL     OW12523   1.284   1.971   5.267
 3875SOL    HW112524   1.307   2.013   5.355
 3875SOL    HW212525   1.299   2.038   5.194
 3876SOL     OW12526   4.357   5.801   1.274
 3876SOL    HW112527   4.257   5.810   1.272
 3876SOL    HW212528   4.399   5.883   1.235
 3877SOL     OW12529   6.932   2.396   0.383
 3877SOL    HW112530   6.990   2.414   0.462
 3877SOL    HW212531   6.858   2.334   0.409
 3878SOL     OW12532   3.926   6.407   4.250
 3878SOL    HW112533   3.845   6.457   4.218
 3878SOL    HW212534   4.008   6.448   4.211
 3879SOL     OW12535   4.798   4.944   6.912
 3879SOL    HW112536   4.836   4.852   6.914
 3879SOL    HW212537   4.816   4.986   6.823
 3880SOL     OW12538   4.755   4.328   4.243
 3880SOL    HW112539   4.772   4.235   4.209
 3880SOL    HW212540   4.784   4.334   4.339
 3881SOL     OW12541   1.308   4.084   0.008
 3881SOL    HW112542   1.325   4.034   6.943
 3881SOL    HW212543   1.385   4.070   0.071
 3882SOL     OW12544   0.840   1.295   0.614
 3882SOL    HW112545   0.935   1.266   0.598
 3882SOL    HW212546   0.826   1.386   0.575
 3883SOL     OW12547   4.592   5.940   3.599
 3883SOL    HW112548   4.530   6.017   3.587
 3883SOL    HW212549   4.553   5.876   3.666
 3884SOL     OW12550   1.078   5.774   3.342
 3884SOL    HW112551   1.078   5.867   3.305
 3884SOL    HW212552   1.149   5.719   3.296
 3885SOL     OW12553   5.637   6.895   2.716
 3885SOL    HW112554   5.551   6.927   2.677
 3885SOL    HW212555   5.620   6.856   2.807
 3886SOL     OW12556   4.043   6.704   6.130
 3886SOL    HW112557   3.980   6.759   6.075
 3886SOL    HW212558   4.134   6.746   6.128
 3887SOL     OW12559   0.166   6.718   1.501
 3887SOL    HW112560   0.200   6.667   1.422
 3887SOL    HW212561   0.077   6.680   1.529
 3888SOL     OW12562   5.921   6.424   4.717
 3888SOL    HW112563   5.954   6.443   4.810
 3888SOL    HW212564   5.830   6.463   4.705
 3889SOL     OW12565   6.084   3.592   6.681
 3889SOL    HW112566   6.071   3.626   6.774
 3889SOL    HW212567   6.137   3.507   6.682
 3890SOL     OW12568   5.445   3.999   4.865
 3890SOL    HW112569   5.462   3.989   4.767
 3890SOL    HW212570   5.497   3.930   4.914
 3891SOL     OW12571   5.742   4.852   4.007
 3891SOL    HW112572   5.775   4.841   4.100
 3891SOL    HW212573   5.643   4.834   4.004
 3892SOL     OW12574   6.916   2.211   1.511
 3892SOL    HW112575   6.840   2.198   1.447
 3892SOL    HW212576   6.987   2.266   1.467
 3893SOL     OW12577   4.594   3.208   1.076
 3893SOL    HW112578   4.516   3.268   1.093
 3893SOL    HW212579   4.600   3.139   1.149
 3894SOL     OW12580   4.924   0.329   6.781
 3894SOL    HW112581   4.880   0.383   6.709
 3894SOL    HW212582   4.948   0.239   6.745
 3895SOL     OW12583   1.365   6.669   4.943
 3895SOL    HW112584   1.386   6.742   5.008
 3895SOL    HW212585   1.353   6.583   4.992
 3896SOL     OW12586   1.021   0.947   0.028
 3896SOL    HW112587   1.121   0.944   0.022
 3896SOL    HW212588   0.987   0.858   0.058
 3897SOL     OW12589   4.772   5.750   2.158
 3897SOL    HW112590   4.758   5.680   2.087
 3897SOL    HW212591   4.694   5.750   2.220
 3898SOL     OW12592   3.844   2.690   6.202
 3898SOL    HW112593   3.746   2.675   6.190
 3898SOL    HW212594   3.861   2.786   6.224
 3899SOL     OW12595   4.396   7.005   6.177
 3899SOL    HW112596   4.365   6.920   6.135
 3899SOL    HW212597   4.480   0.016   6.132
 3900SOL     OW12598   5.401   3.658   3.641
 3900SOL    HW112599   5.357   3.736   3.685
 3900SOL    HW212600   5.451   3.689   3.560
 3901SOL     OW12601   2.909   0.812   6.612
 3901SOL    HW112602   2.977   0.885   6.601
 3901SOL    HW212603   2.870   0.789   6.522
 3902SOL     OW12604   5.969   3.370   2.566
 3902SOL    HW112605   5.877   3.358   2.529
 3902SOL    HW212606   6.024   3.423   2.501
 3903SOL     OW12607   3.554   5.927   6.715
 3903SOL    HW112608   3.531   6.024   6.724
 3903SOL    HW212609   3.642   5.909   6.759
 3904SOL     OW12610   0.883   0.057   6.393
 3904SOL    HW112611   0.862   0.002   6.474
 3904SOL    HW212612   0.802   0.111   6.368
 3905SOL     OW12613   0.126   6.091   6.216
 3905SOL    HW112614   0.121   6.116   6.313
 3905SOL    HW212615   0.204   6.136   6.173
 3906SOL     OW12616   5.604   6.107   5.406
 3906SOL    HW112617   5.560   6.032   5.356
 3906SOL    HW212618   5.664   6.158   5.345
 3907SOL     OW12619   5.800   2.277   3.820
 3907SOL    HW112620   5.706   2.308   3.832
 3907SOL    HW212621   5.801   2.177   3.811
 3908SOL     OW12622   0.327   2.232   6.961
 3908SOL    HW112623   0.402   2.289   6.993
 3908SOL    HW212624   0.264   2.287   6.906
 3909SOL     OW12625   5.364   5.454   4.560
 3909SOL    HW112626   5.270   5.447   4.594
 3909SOL    HW212627   5.420   5.503   4.626
 3910SOL     OW12628   3.143   3.541   2.771
 3910SOL    HW112629   3.174   3.625   2.726
 3910SOL    HW212630   3.045   3.530   2.758
 3911SOL     OW12631   5.706   1.529   4.571
 3911SOL    HW112632   5.618   1.558   4.536
 3911SOL    HW212633   5.775   1.537   4.499
 3912SOL     OW12634   5.518   1.757   5.474
 3912SOL    HW112635   5.554   1.819   5.405
 3912SOL    HW212636   5.592   1.701   5.512
 3913SOL     OW12637   1.155   6.926   6.636
 3913SOL    HW112638   1.121   6.998   6.697
 3913SOL    HW212639   1.180   6.846   6.690
 3914SOL     OW12640   3.265   0.206   6.622
 3914SOL    HW112641   3.182   0.216   6.567
 3914SOL    HW212642   3.344   0.195   6.561
 3915SOL     OW12643   4.929   5.450   1.256
 3915SOL    HW112644   4.941   5.497   1.343
 3915SOL    HW212645   4.977   5.362   1.258
 3916SOL     OW12646   0.883   0.056   2.667
 3916SOL    HW112647   0.916   0.130   2.726
 3916SOL    HW212648   0.932   6.991   2.688
 3917SOL     OW12649   1.793   0.008   0.094
 3917SOL    HW112650   1.748   0.047   0.014
 3917SOL    HW212651   1.816   0.082   0.158
 3918SOL     OW12652   5.368   4.148   1.825
 3918SOL    HW112653   5.406   4.239   1.810
 3918SOL    HW212654   5.302   4.127   1.752
 3919SOL     OW12655   3.887   6.846   0.815
 3919SOL    HW112656   3.937   6.926   0.782
 3919SOL    HW212657   3.856   6.862   0.908
 3920SOL     OW12658   2.160   2.784   0.247
 3920SOL    HW112659   2.120   2.868   0.210
 3920SOL    HW212660   2.259   2.787   0.235
 3921SOL     OW12661   0.752   4.035   1.526
 3921SOL    HW112662   0.768   3.997   1.435
 3921SOL    HW212663   0.717   3.963   1.587
 3922SOL     OW12664   0.200   3.769   1.799
 3922SOL    HW112665   0.108   3.766   1.839
 3922SOL    HW212666   0.255   3.839   1.845
 3923SOL     OW12667   0.811   0.565   0.544
 3923SOL    HW112668   0.765   0.520   0.620
 3923SOL    HW212669   0.910   0.547   0.550
 3924SOL     OW12670   6.514   5.100   4.721
 3924SOL    HW112671   6.594   5.040   4.720
 3924SOL    HW212672   6.459   5.083   4.640
 3925SOL     OW12673   1.573   4.973   2.066
 3925SOL    HW112674   1.635   5.045   2.033
 3925SOL    HW212675   1.525   5.006   2.147
 3926SOL     OW12676   4.569   4.405   2.358
 3926SOL    HW112677   4.473   4.426   2.340
 3926SOL    HW212678   4.611   4.480   2.410
 3927SOL     OW12679   0.501   3.026   6.446
 3927SOL    HW112680   0.551   3.104   6.407
 3927SOL    HW212681   0.405   3.032   6.420
 3928SOL     OW12682   4.532   6.145   6.987
 3928SOL    HW112683   4.473   6.104   0.036
 3928SOL    HW212684   4.601   6.078   6.958
 3929SOL     OW12685   0.668   0.670   5.158
 3929SOL    HW112686   0.749   0.728   5.157
 3929SOL    HW212687   0.640   0.650   5.065
 3930SOL     OW12688   2.609   2.131   3.753
 3930SOL    HW112689   2.683   2.180   3.708
 3930SOL    HW212690   2.599   2.040   3.712
 3931SOL     OW12691   0.130   1.554   1.902
 3931SOL    HW112692   0.115   1.650   1.881
 3931SOL    HW212693   0.198   1.545   1.975
 3932SOL     OW12694   0.336   2.818   4.302
 3932SOL    HW112695   0.389   2.889   4.349
 3932SOL    HW212696   0.252   2.858   4.265
 3933SOL     OW12697   1.445   0.196   6.088
 3933SOL    HW112698   1.467   0.122   6.024
 3933SOL    HW212699   1.399   0.270   6.039
 3934SOL     OW12700   5.984   0.019   6.017
 3934SOL    HW112701   6.076   7.009   6.041
 3934SOL    HW212702   5.983   0.049   5.921
 3935SOL     OW12703   3.614   0.414   0.759
 3935SOL    HW112704   3.622   0.485   0.689
 3935SOL    HW212705   3.563   0.336   0.722
 3936SOL     OW12706   6.528   6.021   4.126
 3936SOL    HW112707   6.434   6.048   4.142
 3936SOL    HW212708   6.589   6.080   4.178
 3937SOL     OW12709   0.160   1.853   2.628
 3937SOL    HW112710   0.183   1.826   2.535
 3937SOL    HW212711   0.093   1.789   2.665
 3938SOL     OW12712   6.874   1.328   3.082
 3938SOL    HW112713   6.871   1.272   3.165
 3938SOL    HW212714   6.782   1.349   3.052
 3939SOL     OW12715   2.988   1.941   1.882
 3939SOL    HW112716   2.907   1.940   1.941
 3939SOL    HW212717   3.021   1.848   1.869
 3940SOL     OW12718   4.043   3.142   1.005
 3940SOL    HW112719   4.107   3.218   1.009
 3940SOL    HW212720   3.960   3.170   0.958
 3941SOL     OW12721   4.662   4.630   5.864
 3941SOL    HW112722   4.729   4.688   5.909
 3941SOL    HW212723   4.687   4.534   5.875
 3942SOL     OW12724   6.485   6.623   6.930
 3942SOL    HW112725   6.502   6.526   6.915
 3942SOL    HW212726   6.564   6.665   6.973
 3943SOL     OW12727   0.660   3.321   4.116
 3943SOL    HW112728   0.609   3.405   4.135
 3943SOL    HW212729   0.686   3.278   4.203
 3944SOL     OW12730   4.585   2.393   4.748
 3944SOL    HW112731   4.658   2.443   4.701
 3944SOL    HW212732   4.545   2.326   4.686
 3945SOL     OW12733   0.452   1.779   0.870
 3945SOL    HW112734   0.469   1.714   0.797
 3945SOL    HW212735   0.475   1.737   0.958
 3946SOL     OW12736   4.713   4.549   3.490
 3946SOL    HW112737   4.731   4.510   3.399
 3946SOL    HW212738   4.618   4.529   3.516
 3947SOL     OW12739   4.266   6.095   0.676
 3947SOL    HW112740   4.279   6.043   0.761
 3947SOL    HW212741   4.235   6.034   0.604
 3948SOL     OW12742   6.728   4.712   1.355
 3948SOL    HW112743   6.672   4.739   1.432
 3948SOL    HW212744   6.700   4.621   1.323
 3949SOL     OW12745   4.598   5.739   2.947
 3949SOL    HW112746   4.600   5.820   3.006
 3949SOL    HW212747   4.506   5.725   2.912
 3950SOL     OW12748   1.629   5.626   1.460
 3950SOL    HW112749   1.624   5.560   1.535
 3950SOL    HW212750   1.704   5.601   1.399
 3951SOL     OW12751   4.502   0.854   1.574
 3951SOL    HW112752   4.462   0.903   1.496
 3951SOL    HW212753   4.470   0.759   1.574
 3952SOL     OW12754   0.113   2.719   1.259
 3952SOL    HW112755   0.151   2.660   1.188
 3952SOL    HW212756   0.049   2.784   1.218
 3953SOL     OW12757   4.074   3.392   2.011
 3953SOL    HW112758   4.115   3.450   1.941
 3953SOL    HW212759   3.998   3.341   1.971
 3954SOL     OW12760   4.044   5.024   5.544
 3954SOL    HW112761   3.978   5.028   5.469
 3954SOL    HW212762   4.017   5.087   5.617
 3955SOL     OW12763   3.500   1.821   5.653
 3955SOL    HW112764   3.576   1.757   5.638
 3955SOL    HW212765   3.487   1.877   5.571
 3956SOL     OW12766   1.485   1.196   2.374
 3956SOL    HW112767   1.508   1.140   2.453
 3956SOL    HW212768   1.396   1.168   2.338
 3957SOL     OW12769   3.896   6.996   4.560
 3957SOL    HW112770   3.983   6.988   4.511
 3957SOL    HW212771   3.825   6.945   4.510
 3958SOL     OW12772   6.121   2.532   4.088
 3958SOL    HW112773   6.157   2.517   4.180
 3958SOL    HW212774   6.088   2.446   4.050
 3959SOL     OW12775   5.039   4.978   0.094
 3959SOL    HW112776   4.949   4.964   0.053
 3959SOL    HW212777   5.053   4.911   0.167
 3960SOL     OW12778   5.133   2.117   5.269
 3960SOL    HW112779   5.073   2.174   5.325
 3960SOL    HW212780   5.221   2.163   5.257
 3961SOL     OW12781   5.019   0.195   2.992
 3961SOL    HW112782   5.030   0.293   3.010
 3961SOL    HW212783   5.102   0.159   2.950
 3962SOL     OW12784   0.635   5.343   6.250
 3962SOL    HW112785   0.594   5.388   6.329
 3962SOL    HW212786   0.734   5.362   6.248
 3963SOL     OW12787   4.820   6.242   1.968
 3963SOL    HW112788   4.901   6.219   1.914
 3963SOL    HW212789   4.845   6.308   2.039
 3964SOL     OW12790   4.815   4.058   3.345
 3964SOL    HW112791   4.792   3.970   3.386
 3964SOL    HW212792   4.874   4.043   3.266
 3965SOL     OW12793   5.351   3.393   4.403
 3965SOL    HW112794   5.311   3.471   4.451
 3965SOL    HW212795   5.339   3.310   4.458
 3966SOL     OW12796   3.559   5.809   6.468
 3966SOL    HW112797   3.475   5.764   6.438
 3966SOL    HW212798   3.545   5.847   6.560
 3967SOL     OW12799   2.147   4.266   1.615
 3967SOL    HW112800   2.067   4.235   1.563
 3967SOL    HW212801   2.132   4.248   1.713
 3968SOL     OW12802   4.318   0.579   0.658
 3968SOL    HW112803   4.384   0.505   0.648
 3968SOL    HW212804   4.339   0.633   0.739
 3969SOL     OW12805   1.576   5.463   2.106
 3969SOL    HW112806   1.537   5.401   2.173
 3969SOL    HW212807   1.513   5.538   2.087
 3970SOL     OW12808   5.902   5.726   1.991
 3970SOL    HW112809   5.991   5.688   1.967
 3970SOL    HW212810   5.909   5.825   2.002
 3971SOL     OW12811   2.710   5.852   4.146
 3971SOL    HW112812   2.664   5.882   4.062
 3971SOL    HW212813   2.751   5.931   4.191
 3972SOL     OW12814   1.273   4.026   6.441
 3972SOL    HW112815   1.298   4.071   6.527
 3972SOL    HW212816   1.305   4.081   6.364
 3973SOL     OW12817   1.003   5.966   1.279
 3973SOL    HW112818   0.958   5.917   1.353
 3973SOL    HW212819   0.963   6.058   1.271
 3974SOL     OW12820   1.923   0.746   5.871
 3974SOL    HW112821   1.912   0.716   5.965
 3974SOL    HW212822   2.020   0.749   5.848
 3975SOL     OW12823   5.151   1.951   5.917
 3975SOL    HW112824   5.193   2.027   5.968
 3975SOL    HW212825   5.152   1.869   5.974
 3976SOL     OW12826   1.831   6.307   2.795
 3976SOL    HW112827   1.908   6.255   2.758
 3976SOL    HW212828   1.809   6.382   2.733
 3977SOL     OW12829   1.308   3.972   6.764
 3977SOL    HW112830   1.365   3.906   6.716
 3977SOL    HW212831   1.212   3.956   6.742
 3978SOL     OW12832   6.577   5.152   3.345
 3978SOL    HW112833   6.504   5.135   3.411
 3978SOL    HW212834   6.614   5.244   3.358
 3979SOL     OW12835   3.580   1.179   6.210
 3979SOL    HW112836   3.484   1.190   6.187
 3979SOL    HW212837   3.617   1.100   6.161
 3980SOL     OW12838   6.075   6.461   6.430
 3980SOL    HW112839   6.106   6.384   6.375
 3980SOL    HW212840   6.148   6.490   6.492
 3981SOL     OW12841   5.203   6.022   0.503
 3981SOL    HW112842   5.123   6.079   0.486
 3981SOL    HW212843   5.285   6.079   0.500
 3982SOL     OW12844   2.152   0.234   1.990
 3982SOL    HW112845   2.151   0.265   2.085
 3982SOL    HW212846   2.115   0.306   1.931
 3983SOL     OW12847   4.522   5.283   3.956
 3983SOL    HW112848   4.446   5.254   3.897
 3983SOL    HW212849   4.537   5.213   4.027
 3984SOL     OW12850   6.118   1.740   2.433
 3984SOL    HW112851   6.205   1.788   2.447
 3984SOL    HW212852   6.050   1.804   2.396
 3985SOL     OW12853   3.484   5.169   6.601
 3985SOL    HW112854   3.386   5.168   6.625
 3985SOL    HW212855   3.522   5.078   6.617
 3986SOL     OW12856   5.263   1.781   2.543
 3986SOL    HW112857   5.230   1.873   2.565
 3986SOL    HW212858   5.347   1.788   2.490
 3987SOL     OW12859   3.008   5.027   4.829
 3987SOL    HW112860   2.914   5.045   4.802
 3987SOL    HW212861   3.061   4.999   4.749
 3988SOL     OW12862   4.573   5.641   0.552
 3988SOL    HW112863   4.498   5.642   0.485
 3988SOL    HW212864   4.627   5.559   0.541
 3989SOL     OW12865   6.308   2.148   0.212
 3989SOL    HW112866   6.254   2.116   0.290
 3989SOL    HW212867   6.316   2.248   0.215
 3990SOL     OW12868   5.033   2.571   1.755
 3990SOL    HW112869   5.052   2.604   1.847
 3990SOL    HW212870   5.114   2.526   1.718
 3991SOL     OW12871   0.765   1.388   2.576
 3991SOL    HW112872   0.827   1.449   2.624
 3991SOL    HW212873   0.807   1.297   2.569
 3992SOL     OW12874   3.371   1.974   0.621
 3992SOL    HW112875   3.385   1.898   0.685
 3992SOL    HW212876   3.309   2.041   0.662
 3993SOL     OW12877   1.197   3.237   2.203
 3993SOL    HW112878   1.189   3.179   2.284
 3993SOL    HW212879   1.118   3.222   2.144
 3994SOL     OW12880   2.301   6.863   5.130
 3994SOL    HW112881   2.395   6.850   5.098
 3994SOL    HW212882   2.296   6.946   5.185
 3995SOL     OW12883   1.815   2.958   5.433
 3995SOL    HW112884   1.872   2.994   5.506
 3995SOL    HW212885   1.837   2.861   5.418
 3996SOL     OW12886   0.033   6.521   5.185
 3996SOL    HW112887   6.957   6.519   5.155
 3996SOL    HW212888   0.049   6.448   5.252
 3997SOL     OW12889   5.544   1.232   4.014
 3997SOL    HW112890   5.459   1.188   4.042
 3997SOL    HW212891   5.525   1.324   3.980
 3998SOL     OW12892   3.602   2.057   3.828
 3998SOL    HW112893   3.647   2.128   3.882
 3998SOL    HW212894   3.579   1.980   3.887
 3999SOL     OW12895   6.205   2.531   4.783
 3999SOL    HW112896   6.113   2.548   4.748
 3999SOL    HW212897   6.264   2.609   4.760
 4000SOL     OW12898   3.939   6.701   3.692
 4000SOL    HW112899   3.879   6.779   3.711
 4000SOL    HW212900   3.903   6.651   3.613
 4001SOL     OW12901   2.043   2.345   3.847
 4001SOL    HW112902   1.986   2.375   3.770
 4001SOL    HW212903   2.132   2.390   3.842
 4002SOL     OW12904   2.085   3.678   1.819
 4002SOL    HW112905   2.091   3.771   1.855
 4002SOL    HW212906   2.123   3.614   1.885
 4003SOL     OW12907   3.050   0.289   4.521
 4003SOL    HW112908   3.086   0.198   4.501
 4003SOL    HW212909   3.125   0.355   4.526
 4004SOL     OW12910   6.364   1.973   4.729
 4004SOL    HW112911   6.280   1.956   4.679
 4004SOL    HW212912   6.369   2.070   4.754
 4005SOL     OW12913   5.075   5.552   6.378
 4005SOL    HW112914   5.040   5.586   6.291
 4005SOL    HW212915   5.146   5.484   6.361
 4006SOL     OW12916   3.812   5.393   2.297
 4006SOL    HW112917   3.726   5.437   2.321
 4006SOL    HW212918   3.831   5.408   2.200
 4007SOL     OW12919   6.713   2.450   6.676
 4007SOL    HW112920   6.805   2.412   6.683
 4007SOL    HW212921   6.646   2.378   6.692
 4008SOL     OW12922   2.599   2.504   4.460
 4008SOL    HW112923   2.550   2.522   4.544
 4008SOL    HW212924   2.592   2.583   4.399
 4009SOL     OW12925   4.119   3.709   2.239
 4009SOL    HW112926   4.211   3.715   2.203
 4009SOL    HW212927   4.063   3.784   2.202
 4010SOL     OW12928   2.210   3.469   0.488
 4010SOL    HW112929   2.195   3.455   0.586
 4010SOL    HW212930   2.213   3.380   0.442
 4011SOL     OW12931   1.142   2.412   1.727
 4011SOL    HW112932   1.055   2.376   1.693
 4011SOL    HW212933   1.218   2.369   1.678
 4012SOL     OW12934   0.015   3.988   2.938
 4012SOL    HW112935   0.108   3.995   2.975
 4012SOL    HW212936   7.009   3.891   2.931
 4013SOL     OW12937   4.598   2.388   3.667
 4013SOL    HW112938   4.683   2.409   3.714
 4013SOL    HW212939   4.527   2.365   3.734
 4014SOL     OW12940   5.485   6.054   3.226
 4014SOL    HW112941   5.441   5.979   3.176
 4014SOL    HW212942   5.449   6.058   3.319
 4015SOL     OW12943   5.126   4.045   5.749
 4015SOL    HW112944   5.222   4.042   5.723
 4015SOL    HW212945   5.093   4.139   5.747
 4016SOL     OW12946   3.117   6.091   5.963
 4016SOL    HW112947   3.202   6.054   6.002
 4016SOL    HW212948   3.043   6.080   6.028
 4017SOL     OW12949   6.660   5.386   6.979
 4017SOL    HW112950   6.756   5.388   6.953
 4017SOL    HW212951   6.641   5.460   0.024
 4018SOL     OW12952   4.070   5.852   1.260
 4018SOL    HW112953   3.971   5.841   1.264
 4018SOL    HW212954   4.093   5.947   1.238
 4019SOL     OW12955   5.000   5.099   3.249
 4019SOL    HW112956   5.084   5.149   3.229
 4019SOL    HW212957   5.009   5.005   3.216
 4020SOL     OW12958   5.274   2.332   5.385
 4020SOL    HW112959   5.344   2.365   5.321
 4020SOL    HW212960   5.272   2.391   5.465
 4021SOL     OW12961   3.227   4.440   5.820
 4021SOL    HW112962   3.176   4.414   5.902
 4021SOL    HW212963   3.230   4.364   5.756
 4022SOL     OW12964   5.172   0.421   0.682
 4022SOL    HW112965   5.182   0.349   0.613
 4022SOL    HW212966   5.251   0.419   0.743
 4023SOL     OW12967   6.028   1.013   5.706
 4023SOL    HW112968   5.972   1.051   5.779
 4023SOL    HW212969   6.059   1.087   5.646
 4024SOL     OW12970   4.261   4.867   3.999
 4024SOL    HW112971   4.215   4.879   3.911
 4024SOL    HW212972   4.200   4.894   4.073
 4025SOL     OW12973   0.611   4.490   3.792
 4025SOL    HW112974   0.612   4.439   3.706
 4025SOL    HW212975   0.629   4.427   3.868
 4026SOL     OW12976   5.332   6.124   4.229
 4026SOL    HW112977   5.276   6.129   4.312
 4026SOL    HW212978   5.357   6.028   4.213
 4027SOL     OW12979   4.299   5.081   1.638
 4027SOL    HW112980   4.305   5.022   1.719
 4027SOL    HW212981   4.391   5.103   1.606
 4028SOL     OW12982   2.212   0.819   4.062
 4028SOL    HW112983   2.260   0.732   4.050
 4028SOL    HW212984   2.266   0.892   4.021
 4029SOL     OW12985   1.717   4.460   4.641
 4029SOL    HW112986   1.640   4.396   4.638
 4029SOL    HW212987   1.720   4.504   4.730
 4030SOL     OW12988   0.052   2.288   5.413
 4030SOL    HW112989   7.006   2.228   5.459
 4030SOL    HW212990   0.002   2.351   5.353
 4031SOL     OW12991   3.774   5.523   3.971
 4031SOL    HW112992   3.754   5.574   4.055
 4031SOL    HW212993   3.863   5.478   3.980
 4032SOL     OW12994   4.795   0.080   4.877
 4032SOL    HW112995   4.852   0.086   4.795
 4032SOL    HW212996   4.721   0.015   4.861
 4033SOL     OW12997   2.887   3.801   5.132
 4033SOL    HW112998   2.951   3.725   5.134
 4033SOL    HW212999   2.797   3.770   5.161
 4034SOL     OW13000   6.951   2.816   3.853
 4034SOL    HW113001   6.919   2.852   3.940
 4034SOL    HW213002   7.011   2.738   3.869
 4035SOL     OW13003   0.075   4.854   0.302
 4035SOL    HW113004   0.169   4.889   0.303
 4035SOL    HW213005   0.020   4.907   0.367
 4036SOL     OW13006   6.700   6.845   3.118
 4036SOL    HW113007   6.698   6.931   3.170
 4036SOL    HW213008   6.694   6.768   3.180
 4037SOL     OW13009   6.927   4.025   6.911
 4037SOL    HW113010   6.844   4.034   6.855
 4037SOL    HW213011   6.964   3.933   6.903
 4038SOL     OW13012   5.519   4.716   4.073
 4038SOL    HW113013   5.487   4.625   4.048
 4038SOL    HW213014   5.507   4.730   4.172
 4039SOL     OW13015   4.707   6.343   0.858
 4039SOL    HW113016   4.655   6.396   0.791
 4039SOL    HW213017   4.655   6.262   0.884
 4040SOL     OW13018   3.946   6.048   1.589
 4040SOL    HW113019   3.856   6.086   1.609
 4040SOL    HW213020   3.936   5.962   1.539
 4041SOL     OW13021   1.605   6.645   4.355
 4041SOL    HW113022   1.671   6.572   4.372
 4041SOL    HW213023   1.613   6.714   4.427
 4042SOL     OW13024   6.058   5.110   1.798
 4042SOL    HW113025   5.974   5.148   1.837
 4042SOL    HW213026   6.054   5.010   1.799
 4043SOL     OW13027   6.660   2.653   1.206
 4043SOL    HW113028   6.708   2.727   1.252
 4043SOL    HW213029   6.607   2.690   1.129
 4044SOL     OW13030   6.487   5.766   3.511
 4044SOL    HW113031   6.579   5.770   3.548
 4044SOL    HW213032   6.435   5.846   3.543
 4045SOL     OW13033   2.459   6.231   5.920
 4045SOL    HW113034   2.497   6.139   5.916
 4045SOL    HW213035   2.456   6.262   6.015
 4046SOL     OW13036   1.706   3.091   1.008
 4046SOL    HW113037   1.732   3.183   1.035
 4046SOL    HW213038   1.758   3.024   1.062
 4047SOL     OW13039   3.248   3.961   1.240
 4047SOL    HW113040   3.201   3.930   1.323
 4047SOL    HW213041   3.250   3.887   1.173
 4048SOL     OW13042   5.618   1.272   1.011
 4048SOL    HW113043   5.625   1.173   0.999
 4048SOL    HW213044   5.521   1.299   1.013
 4049SOL     OW13045   5.858   0.856   5.260
 4049SOL    HW113046   5.897   0.837   5.169
 4049SOL    HW213047   5.775   0.911   5.249
 4050SOL     OW13048   2.617   0.397   1.083
 4050SOL    HW113049   2.674   0.394   1.165
 4050SOL    HW213050   2.539   0.458   1.099
 4051SOL     OW13051   3.149   3.479   0.834
 4051SOL    HW113052   3.195   3.567   0.829
 4051SOL    HW213053   3.166   3.428   0.750
 4052SOL     OW13054   1.919   6.369   1.379
 4052SOL    HW113055   1.873   6.321   1.305
 4052SOL    HW213056   1.989   6.309   1.419
 4053SOL     OW13057   3.570   4.919   3.557
 4053SOL    HW113058   3.649   4.880   3.510
 4053SOL    HW213059   3.590   5.013   3.585
 4054SOL     OW13060   5.500   2.256   0.293
 4054SOL    HW113061   5.504   2.308   0.207
 4054SOL    HW213062   5.482   2.160   0.273
 4055SOL     OW13063   3.611   2.227   0.065
 4055SOL    HW113064   3.624   2.166   7.007
 4055SOL    HW213065   3.701   2.251   0.104
 4056SOL     OW13066   4.139   3.594   0.533
 4056SOL    HW113067   4.096   3.676   0.572
 4056SOL    HW213068   4.110   3.513   0.585
 4057SOL     OW13069   5.609   2.462   6.057
 4057SOL    HW113070   5.650   2.426   6.141
 4057SOL    HW213071   5.590   2.559   6.068
 4058SOL     OW13072   0.549   0.608   4.915
 4058SOL    HW113073   0.473   0.556   4.953
 4058SOL    HW213074   0.584   0.562   4.833
 4059SOL     OW13075   0.129   1.806   4.895
 4059SOL    HW113076   0.061   1.841   4.830
 4059SOL    HW213077   0.179   1.731   4.853
 4060SOL     OW13078   4.652   5.444   3.735
 4060SOL    HW113079   4.660   5.390   3.818
 4060SOL    HW213080   4.739   5.442   3.686
 4061SOL     OW13081   2.984   3.082   1.563
 4061SOL    HW113082   3.065   3.046   1.516
 4061SOL    HW213083   2.939   3.009   1.614
 4062SOL     OW13084   2.823   0.136   3.058
 4062SOL    HW113085   2.886   0.075   3.009
 4062SOL    HW213086   2.871   0.218   3.086
 4063SOL     OW13087   2.924   5.384   6.066
 4063SOL    HW113088   3.012   5.414   6.028
 4063SOL    HW213089   2.906   5.289   6.037
 4064SOL     OW13090   6.254   7.008   3.968
 4064SOL    HW113091   6.318   6.931   3.963
 4064SOL    HW213092   6.214   7.013   4.059
 4065SOL     OW13093   6.160   4.749   6.562
 4065SOL    HW113094   6.195   4.804   6.487
 4065SOL    HW213095   6.100   4.806   6.620
 4066SOL     OW13096   6.081   4.834   1.848
 4066SOL    HW113097   5.989   4.806   1.823
 4066SOL    HW213098   6.105   4.793   1.937
 4067SOL     OW13099   6.182   1.143   1.806
 4067SOL    HW113100   6.183   1.214   1.877
 4067SOL    HW213101   6.102   1.156   1.747
 4068SOL     OW13102   5.804   0.420   3.959
 4068SOL    HW113103   5.799   0.479   4.040
 4068SOL    HW213104   5.870   0.347   3.976
 4069SOL     OW13105   0.312   5.477   1.391
 4069SOL    HW113106   0.367   5.421   1.453
 4069SOL    HW213107   0.240   5.524   1.443
 4070SOL     OW13108   0.797   3.793   2.589
 4070SOL    HW113109   0.749   3.728   2.649
 4070SOL    HW213110   0.730   3.840   2.531
 4071SOL     OW13111   2.148   0.042   3.948
 4071SOL    HW113112   2.150   0.028   3.849
 4071SOL    HW213113   2.176   6.977   3.993
 4072SOL     OW13114   0.688   0.251   4.036
 4072SOL    HW113115   0.766   0.293   4.082
 4072SOL    HW213116   0.710   0.237   3.939
 4073SOL     OW13117   2.774   5.140   0.652
 4073SOL    HW113118   2.851   5.097   0.605
 4073SOL    HW213119   2.709   5.176   0.585
 4074SOL     OW13120   1.599   2.967   0.470
 4074SOL    HW113121   1.599   3.055   0.517
 4074SOL    HW213122   1.507   2.948   0.434
 4075SOL     OW13123   5.170   0.599   3.937
 4075SOL    HW113124   5.187   0.698   3.939
 4075SOL    HW213125   5.235   0.556   3.875
 4076SOL     OW13126   1.578   2.657   3.451
 4076SOL    HW113127   1.574   2.565   3.412
 4076SOL    HW213128   1.545   2.723   3.384
 4077SOL     OW13129   2.478   1.480   0.855
 4077SOL    HW113130   2.487   1.428   0.940
 4077SOL    HW213131   2.469   1.577   0.877
 4078SOL     OW13132   5.501   3.859   2.116
 4078SOL    HW113133   5.553   3.889   2.035
 4078SOL    HW213134   5.528   3.914   2.195
 4079SOL     OW13135   6.815   1.086   3.675
 4079SOL    HW113136   6.895   1.098   3.734
 4079SOL    HW213137   6.790   0.990   3.671
 4080SOL     OW13138   3.999   3.048   2.691
 4080SOL    HW113139   3.985   3.033   2.593
 4080SOL    HW213140   4.080   2.999   2.722
 4081SOL     OW13141   2.462   2.356   6.348
 4081SOL    HW113142   2.376   2.309   6.331
 4081SOL    HW213143   2.452   2.453   6.331
 4082SOL     OW13144   1.410   2.754   5.499
 4082SOL    HW113145   1.374   2.703   5.577
 4082SOL    HW213146   1.360   2.728   5.416
 4083SOL     OW13147   5.816   5.018   2.711
 4083SOL    HW113148   5.752   4.960   2.660
 4083SOL    HW213149   5.767   5.064   2.785
 4084SOL     OW13150   4.441   0.691   3.083
 4084SOL    HW113151   4.457   0.785   3.113
 4084SOL    HW213152   4.500   0.671   3.004
 4085SOL     OW13153   4.070   4.770   1.739
 4085SOL    HW113154   4.042   4.856   1.782
 4085SOL    HW213155   4.125   4.717   1.803
 4086SOL     OW13156   6.352   5.260   5.582
 4086SOL    HW113157   6.436   5.310   5.562
 4086SOL    HW213158   6.283   5.323   5.617
 4087SOL     OW13159   1.848   0.345   2.479
 4087SOL    HW113160   1.810   0.301   2.397
 4087SOL    HW213161   1.846   0.444   2.466
 4088SOL     OW13162   0.425   1.886   4.998
 4088SOL    HW113163   0.371   1.861   5.079
 4088SOL    HW213164   0.370   1.874   4.916
 4089SOL     OW13165   1.113   0.691   2.792
 4089SOL    HW113166   1.042   0.679   2.862
 4089SOL    HW213167   1.193   0.734   2.832
 4090SOL     OW13168   2.704   1.744   6.117
 4090SOL    HW113169   2.648   1.792   6.050
 4090SOL    HW213170   2.653   1.666   6.154
 4091SOL     OW13171   3.545   5.936   1.378
 4091SOL    HW113172   3.540   6.028   1.341
 4091SOL    HW213173   3.457   5.912   1.419
 4092SOL     OW13174   5.608   2.719   4.437
 4092SOL    HW113175   5.673   2.752   4.505
 4092SOL    HW213176   5.601   2.786   4.362
 4093SOL     OW13177   5.517   4.442   3.974
 4093SOL    HW113178   5.456   4.465   3.898
 4093SOL    HW213179   5.600   4.400   3.938
 4094SOL     OW13180   6.689   5.861   0.033
 4094SOL    HW113181   6.773   5.907   0.063
 4094SOL    HW213182   6.647   5.815   0.110
 4095SOL     OW13183   1.260   4.796   0.201
 4095SOL    HW113184   1.306   4.746   0.274
 4095SOL    HW213185   1.195   4.861   0.240
 4096SOL     OW13186   0.197   0.436   6.726
 4096SOL    HW113187   0.199   0.521   6.778
 4096SOL    HW213188   0.247   0.447   6.640
 4097SOL     OW13189   6.607   4.312   4.938
 4097SOL    HW113190   6.651   4.249   4.874
 4097SOL    HW213191   6.666   4.326   5.018
 4098SOL     OW13192   1.667   4.520   2.495
 4098SOL    HW113193   1.747   4.467   2.524
 4098SOL    HW213194   1.619   4.472   2.422
 4099SOL     OW13195   5.272   3.841   6.155
 4099SOL    HW113196   5.287   3.769   6.087
 4099SOL    HW213197   5.208   3.908   6.119
 4100SOL     OW13198   1.797   1.016   3.787
 4100SOL    HW113199   1.714   1.065   3.814
 4100SOL    HW213200   1.874   1.049   3.841
 4101SOL     OW13201   6.577   5.376   0.223
 4101SOL    HW113202   6.657   5.331   0.263
 4101SOL    HW213203   6.537   5.317   0.153
 4102SOL     OW13204   1.783   6.569   0.304
 4102SOL    HW113205   1.803   6.564   0.206
 4102SOL    HW213206   1.821   6.490   0.350
 4103SOL     OW13207   1.819   6.461   4.360
 4103SOL    HW113208   1.776   6.383   4.315
 4103SOL    HW213209   1.799   6.458   4.458
 4104SOL     OW13210   2.323   5.501   4.868
 4104SOL    HW113211   2.279   5.590   4.871
 4104SOL    HW213212   2.277   5.444   4.800
 4105SOL     OW13213   4.511   0.216   1.964
 4105SOL    HW113214   4.488   0.313   1.971
 4105SOL    HW213215   4.597   0.205   1.915
 4106SOL     OW13216   1.129   1.105   2.850
 4106SOL    HW113217   1.154   1.191   2.806
 4106SOL    HW213218   1.145   1.029   2.787
 4107SOL     OW13219   1.081   0.539   0.555
 4107SOL    HW113220   1.125   0.595   0.625
 4107SOL    HW213221   1.132   0.454   0.543
 4108SOL     OW13222   6.387   5.844   5.516
 4108SOL    HW113223   6.330   5.798   5.447
 4108SOL    HW213224   6.381   5.943   5.503
 4109SOL     OW13225   5.654   5.750   3.283
 4109SOL    HW113226   5.631   5.846   3.270
 4109SOL    HW213227   5.573   5.701   3.315
 4110SOL     OW13228   5.345   3.202   0.209
 4110SOL    HW113229   5.352   3.124   0.146
 4110SOL    HW213230   5.310   3.281   0.159
 4111SOL     OW13231   6.473   3.889   3.854
 4111SOL    HW113232   6.412   3.852   3.783
 4111SOL    HW213233   6.480   3.988   3.844
 4112SOL     OW13234   4.471   6.208   4.740
 4112SOL    HW113235   4.392   6.164   4.697
 4112SOL    HW213236   4.459   6.211   4.839
 4113SOL     OW13237   4.362   5.325   4.548
 4113SOL    HW113238   4.357   5.312   4.449
 4113SOL    HW213239   4.272   5.349   4.583
 4114SOL     OW13240   0.196   1.170   1.341
 4114SOL    HW113241   0.189   1.170   1.441
 4114SOL    HW213242   0.115   1.215   1.303
 4115SOL     OW13243   4.052   5.750   3.804
 4115SOL    HW113244   4.128   5.790   3.856
 4115SOL    HW213245   3.966   5.769   3.852
 4116SOL     OW13246   4.915   3.727   2.509
 4116SOL    HW113247   4.861   3.687   2.583
 4116SOL    HW213248   4.923   3.826   2.523
 4117SOL     OW13249   1.112   1.374   4.018
 4117SOL    HW113250   1.127   1.292   4.073
 4117SOL    HW213251   1.153   1.361   3.928
 4118SOL     OW13252   0.307   6.740   0.201
 4118SOL    HW113253   0.360   6.813   0.157
 4118SOL    HW213254   0.279   6.673   0.132
 4119SOL     OW13255   0.259   0.308   4.425
 4119SOL    HW113256   0.353   0.327   4.397
 4119SOL    HW213257   0.206   0.393   4.429
 4120SOL     OW13258   2.027   0.905   6.584
 4120SOL    HW113259   2.047   0.889   6.680
 4120SOL    HW213260   1.930   0.889   6.567
 4121SOL     OW13261   6.668   6.960   2.465
 4121SOL    HW113262   6.719   6.895   2.521
 4121SOL    HW213263   6.711   0.030   2.472
 4122SOL     OW13264   0.727   4.617   3.083
 4122SOL    HW113265   0.699   4.669   3.002
 4122SOL    HW213266   0.693   4.662   3.165
 4123SOL     OW13267   5.069   4.887   1.329
 4123SOL    HW113268   5.112   4.821   1.392
 4123SOL    HW213269   5.008   4.946   1.380
 4124SOL     OW13270   6.221   5.274   0.417
 4124SOL    HW113271   6.150   5.272   0.347
 4124SOL    HW213272   6.290   5.205   0.397
 4125SOL     OW13273   6.375   2.332   0.619
 4125SOL    HW113274   6.440   2.332   0.695
 4125SOL    HW213275   6.323   2.417   0.619
 4126SOL     OW13276   1.395   3.469   2.853
 4126SOL    HW113277   1.306   3.513   2.864
 4126SOL    HW213278   1.408   3.402   2.927
 4127SOL     OW13279   4.151   1.784   4.555
 4127SOL    HW113280   4.211   1.734   4.493
 4127SOL    HW213281   4.126   1.871   4.514
 4128SOL     OW13282   0.803   2.871   6.808
 4128SOL    HW113283   0.896   2.909   6.814
 4128SOL    HW213284   0.742   2.937   6.765
 4129SOL     OW13285   2.907   2.214   0.755
 4129SOL    HW113286   2.995   2.167   0.760
 4129SOL    HW213287   2.921   2.309   0.727
 4130SOL     OW13288   6.005   3.095   0.588
 4130SOL    HW113289   6.097   3.091   0.548
 4130SOL    HW213290   5.940   3.125   0.518
 4131SOL     OW13291   5.107   6.551   3.008
 4131SOL    HW113292   5.037   6.493   3.050
 4131SOL    HW213293   5.108   6.640   3.052
 4132SOL     OW13294   0.060   5.483   3.614
 4132SOL    HW113295   7.008   5.497   3.683
 4132SOL    HW213296   0.017   5.460   3.526
 4133SOL     OW13297   5.508   0.509   2.648
 4133SOL    HW113298   5.558   0.579   2.699
 4133SOL    HW213299   5.513   0.529   2.550
 4134SOL     OW13300   1.248   3.550   1.375
 4134SOL    HW113301   1.272   3.630   1.320
 4134SOL    HW213302   1.165   3.509   1.338
 4135SOL     OW13303   6.507   0.883   1.947
 4135SOL    HW113304   6.558   0.885   2.033
 4135SOL    HW213305   6.443   0.806   1.947
 4136SOL     OW13306   1.024   5.012   0.646
 4136SOL    HW113307   0.934   4.997   0.604
 4136SOL    HW213308   1.022   4.982   0.741
 4137SOL     OW13309   1.245   2.606   0.128
 4137SOL    HW113310   1.225   2.576   0.221
 4137SOL    HW213311   1.163   2.597   0.071
 4138SOL     OW13312   4.980   0.134   0.102
 4138SOL    HW113313   5.077   0.155   0.095
 4138SOL    HW213314   4.943   0.117   0.011
 4139SOL     OW13315   2.221   4.302   2.920
 4139SOL    HW113316   2.280   4.325   2.843
 4139SOL    HW213317   2.125   4.316   2.894
 4140SOL     OW13318   1.730   0.322   5.932
 4140SOL    HW113319   1.671   0.310   5.852
 4140SOL    HW213320   1.704   0.405   5.981
 4141SOL     OW13321   4.825   0.713   6.157
 4141SOL    HW113322   4.816   0.721   6.057
 4141SOL    HW213323   4.737   0.731   6.200
 4142SOL     OW13324   0.555   5.383   2.213
 4142SOL    HW113325   0.542   5.367   2.115
 4142SOL    HW213326   0.579   5.479   2.229
 4143SOL     OW13327   5.988   2.875   6.228
 4143SOL    HW113328   6.023   2.823   6.306
 4143SOL    HW213329   5.889   2.862   6.221
 4144SOL     OW13330   6.250   0.991   0.812
 4144SOL    HW113331   6.213   0.951   0.728
 4144SOL    HW213332   6.182   0.986   0.885
 4145SOL     OW13333   6.789   0.623   1.671
 4145SOL    HW113334   6.884   0.652   1.674
 4145SOL    HW213335   6.730   0.701   1.693
 4146SOL     OW13336   5.063   6.054   2.127
 4146SOL    HW113337   5.137   6.067   2.061
 4146SOL    HW213338   5.093   6.086   2.217
 4147SOL     OW13339   4.419   4.859   6.206
 4147SOL    HW113340   4.371   4.879   6.120
 4147SOL    HW213341   4.464   4.942   6.239
 4148SOL     OW13342   2.045   1.235   5.545
 4148SOL    HW113343   1.948   1.253   5.561
 4148SOL    HW213344   2.098   1.318   5.563
 4149SOL     OW13345   1.634   3.846   6.690
 4149SOL    HW113346   1.697   3.770   6.704
 4149SOL    HW213347   1.551   3.814   6.644
 4150SOL     OW13348   5.324   2.143   6.740
 4150SOL    HW113349   5.358   2.197   6.663
 4150SOL    HW213350   5.370   2.054   6.741
 4151SOL     OW13351   3.034   5.887   4.778
 4151SOL    HW113352   2.993   5.873   4.689
 4151SOL    HW213353   2.966   5.870   4.850
 4152SOL     OW13354   2.909   4.275   1.355
 4152SOL    HW113355   2.999   4.237   1.376
 4152SOL    HW213356   2.867   4.309   1.440
 4153SOL     OW13357   6.848   5.899   1.517
 4153SOL    HW113358   6.820   5.926   1.609
 4153SOL    HW213359   6.947   5.884   1.515
 4154SOL     OW13360   1.400   6.267   3.980
 4154SOL    HW113361   1.355   6.196   3.925
 4154SOL    HW213362   1.499   6.264   3.964
 4155SOL     OW13363   0.334   0.860   1.690
 4155SOL    HW113364   0.412   0.801   1.708
 4155SOL    HW213365   0.277   0.867   1.772
 4156SOL     OW13366   0.402   5.210   6.198
 4156SOL    HW113367   0.489   5.224   6.246
 4156SOL    HW213368   0.421   5.184   6.103
 4157SOL     OW13369   6.155   6.300   1.505
 4157SOL    HW113370   6.065   6.289   1.546
 4157SOL    HW213371   6.149   6.283   1.407
 4158SOL     OW13372   0.934   2.773   1.503
 4158SOL    HW113373   0.969   2.846   1.445
 4158SOL    HW213374   0.969   2.785   1.596
 4159SOL     OW13375   3.142   0.134   3.697
 4159SOL    HW113376   3.131   0.061   3.763
 4159SOL    HW213377   3.195   0.208   3.738
 4160SOL     OW13378   0.134   0.000   6.818
 4160SOL    HW113379   0.203   0.056   6.772
 4160SOL    HW213380   0.098   6.951   6.755
 4161SOL     OW13381   3.764   3.302   2.353
 4161SOL    HW113382   3.836   3.238   2.327
 4161SOL    HW213383   3.707   3.322   2.273
 4162SOL     OW13384   5.311   5.558   1.688
 4162SOL    HW113385   5.270   5.509   1.612
 4162SOL    HW213386   5.351   5.493   1.752
 4163SOL     OW13387   3.787   5.709   2.109
 4163SOL    HW113388   3.821   5.803   2.112
 4163SOL    HW213389   3.747   5.687   2.198
 4164SOL     OW13390   6.645   1.007   6.230
 4164SOL    HW113391   6.679   1.040   6.142
 4164SOL    HW213392   6.722   0.977   6.286
 4165SOL     OW13393   4.900   0.674   4.720
 4165SOL    HW113394   4.909   0.578   4.692
 4165SOL    HW213395   4.806   0.704   4.706
 4166SOL     OW13396   5.994   1.583   1.127
 4166SOL    HW113397   5.913   1.543   1.171
 4166SOL    HW213398   5.989   1.568   1.028
 4167SOL     OW13399   3.290   5.818   4.299
 4167SOL    HW113400   3.323   5.784   4.210
 4167SOL    HW213401   3.256   5.741   4.353
 4168SOL     OW13402   5.278   3.695   6.804
 4168SOL    HW113403   5.254   3.619   6.744
 4168SOL    HW213404   5.365   3.676   6.849
 4169SOL     OW13405   5.260   2.729   5.888
 4169SOL    HW113406   5.300   2.681   5.810
 4169SOL    HW213407   5.186   2.789   5.856
 4170SOL     OW13408   0.096   2.356   4.698
 4170SOL    HW113409   0.071   2.264   4.666
 4170SOL    HW213410   0.104   2.417   4.619
 4171SOL     OW13411   0.861   1.723   0.105
 4171SOL    HW113412   0.953   1.760   0.116
 4171SOL    HW213413   0.838   1.665   0.183
 4172SOL     OW13414   2.999   3.727   0.546
 4172SOL    HW113415   3.069   3.687   0.486
 4172SOL    HW213416   3.011   3.826   0.549
 4173SOL     OW13417   5.105   2.626   6.548
 4173SOL    HW113418   5.052   2.541   6.540
 4173SOL    HW213419   5.065   2.695   6.488
 4174SOL     OW13420   3.369   0.546   4.929
 4174SOL    HW113421   3.346   0.466   4.873
 4174SOL    HW213422   3.328   0.536   5.020
 4175SOL     OW13423   0.567   4.491   6.479
 4175SOL    HW113424   0.530   4.501   6.572
 4175SOL    HW213425   0.496   4.454   6.419
 4176SOL     OW13426   5.441   0.050   5.998
 4176SOL    HW113427   5.432   6.984   5.947
 4176SOL    HW213428   5.531   0.090   5.978
 4177SOL     OW13429   3.895   4.871   2.870
 4177SOL    HW113430   3.812   4.858   2.923
 4177SOL    HW213431   3.875   4.928   2.790
 4178SOL     OW13432   3.972   5.789   1.494
 4178SOL    HW113433   3.969   5.719   1.566
 4178SOL    HW213434   4.047   5.769   1.431
 4179SOL     OW13435   5.448   3.015   5.359
 4179SOL    HW113436   5.429   2.921   5.385
 4179SOL    HW213437   5.368   3.072   5.377
 4180SOL     OW13438   4.583   3.849   0.865
 4180SOL    HW113439   4.562   3.889   0.954
 4180SOL    HW213440   4.503   3.800   0.830
 4181SOL     OW13441   4.569   6.930   4.906
 4181SOL    HW113442   4.561   6.935   4.807
 4181SOL    HW213443   4.532   7.013   4.947
 4182SOL     OW13444   0.068   6.357   4.868
 4182SOL    HW113445   0.015   6.442   4.861
 4182SOL    HW213446   0.151   6.375   4.921
 4183SOL     OW13447   4.411   1.946   0.821
 4183SOL    HW113448   4.346   1.958   0.896
 4183SOL    HW213449   4.378   1.994   0.740
 4184SOL     OW13450   3.388   5.622   4.086
 4184SOL    HW113451   3.288   5.624   4.091
 4184SOL    HW213452   3.419   5.685   4.015
 4185SOL     OW13453   5.555   2.775   3.254
 4185SOL    HW113454   5.455   2.769   3.255
 4185SOL    HW213455   5.584   2.870   3.263
 4186SOL     OW13456   1.940   6.322   0.344
 4186SOL    HW113457   2.038   6.341   0.345
 4186SOL    HW213458   1.911   6.303   0.250
 4187SOL     OW13459   1.666   3.377   6.731
 4187SOL    HW113460   1.667   3.409   6.825
 4187SOL    HW213461   1.746   3.320   6.714
 4188SOL     OW13462   4.476   0.006   0.319
 4188SOL    HW113463   4.377   0.002   0.307
 4188SOL    HW213464   4.511   0.091   0.279
 4189SOL     OW13465   5.054   5.136   3.653
 4189SOL    HW113466   5.072   5.055   3.709
 4189SOL    HW213467   5.141   5.171   3.616
 4190SOL     OW13468   6.726   5.669   1.434
 4190SOL    HW113469   6.741   5.673   1.335
 4190SOL    HW213470   6.766   5.750   1.477
 4191SOL     OW13471   4.382   4.623   6.643
 4191SOL    HW113472   4.300   4.574   6.615
 4191SOL    HW213473   4.430   4.570   6.713
 4192SOL     OW13474   1.686   3.485   0.966
 4192SOL    HW113475   1.632   3.443   0.893
 4192SOL    HW213476   1.692   3.584   0.950
 4193SOL     OW13477   0.578   0.552   0.713
 4193SOL    HW113478   0.545   0.583   0.624
 4193SOL    HW213479   0.548   0.615   0.784
 4194SOL     OW13480   4.268   1.517   5.452
 4194SOL    HW113481   4.270   1.418   5.438
 4194SOL    HW213482   4.196   1.557   5.396
 4195SOL     OW13483   3.562   6.393   0.659
 4195SOL    HW113484   3.567   6.300   0.695
 4195SOL    HW213485   3.635   6.448   0.698
 4196SOL     OW13486   6.509   3.200   1.874
 4196SOL    HW113487   6.509   3.224   1.971
 4196SOL    HW213488   6.544   3.107   1.862
 4197SOL     OW13489   3.478   1.181   6.907
 4197SOL    HW113490   3.424   1.264   6.920
 4197SOL    HW213491   3.481   1.158   6.809
 4198SOL     OW13492   6.902   2.216   2.415
 4198SOL    HW113493   6.941   2.204   2.506
 4198SOL    HW213494   6.802   2.217   2.421
 4199SOL     OW13495   0.799   4.009   6.109
 4199SOL    HW113496   0.789   3.921   6.063
 4199SOL    HW213497   0.718   4.027   6.164
 4200SOL     OW13498   4.790   0.790   3.820
 4200SOL    HW113499   4.691   0.806   3.821
 4200SOL    HW213500   4.808   0.699   3.781
 4201SOL     OW13501   5.257   6.688   3.780
 4201SOL    HW113502   5.309   6.609   3.812
 4201SOL    HW213503   5.189   6.659   3.713
 4202SOL     OW13504   5.350   4.056   1.206
 4202SOL    HW113505   5.395   4.140   1.237
 4202SOL    HW213506   5.413   4.004   1.147
 4203SOL     OW13507   6.125   5.473   5.846
 4203SOL    HW113508   6.199   5.417   5.884
 4203SOL    HW213509   6.100   5.544   5.912
 4204SOL     OW13510   2.226   3.073   6.664
 4204SOL    HW113511   2.163   3.085   6.587
 4204SOL    HW213512   2.263   2.980   6.663
 4205SOL     OW13513   3.478   6.221   5.591
 4205SOL    HW113514   3.550   6.279   5.629
 4205SOL    HW213515   3.401   6.217   5.655
 4206SOL     OW13516   1.640   2.150   5.042
 4206SOL    HW113517   1.694   2.132   4.960
 4206SOL    HW213518   1.648   2.247   5.066
 4207SOL     OW13519   1.433   2.262   2.296
 4207SOL    HW113520   1.393   2.348   2.329
 4207SOL    HW213521   1.374   2.186   2.323
 4208SOL     OW13522   2.108   3.579   4.372
 4208SOL    HW113523   2.031   3.624   4.416
 4208SOL    HW213524   2.136   3.499   4.426
 4209SOL     OW13525   6.799   6.617   2.239
 4209SOL    HW113526   6.741   6.684   2.285
 4209SOL    HW213527   6.893   6.651   2.234
 4210SOL     OW13528   3.857   4.003   4.661
 4210SOL    HW113529   3.865   4.029   4.565
 4210SOL    HW213530   3.809   4.074   4.712
 4211SOL     OW13531   4.214   2.329   5.448
 4211SOL    HW113532   4.304   2.320   5.406
 4211SOL    HW213533   4.224   2.357   5.544
 4212SOL     OW13534   6.498   2.431   3.254
 4212SOL    HW113535   6.561   2.469   3.186
 4212SOL    HW213536   6.409   2.416   3.212
 4213SOL     OW13537   3.245   0.908   3.768
 4213SOL    HW113538   3.161   0.922   3.821
 4213SOL    HW213539   3.256   0.982   3.703
 4214SOL     OW13540   6.743   6.096   3.431
 4214SOL    HW113541   6.739   6.195   3.438
 4214SOL    HW213542   6.827   6.068   3.385
 4215SOL     OW13543   4.478   6.685   5.525
 4215SOL    HW113544   4.442   6.614   5.584
 4215SOL    HW213545   4.578   6.677   5.520
 4216SOL     OW13546   2.759   5.778   2.179
 4216SOL    HW113547   2.824   5.739   2.244
 4216SOL    HW213548   2.701   5.845   2.226
 4217SOL     OW13549   0.923   0.691   2.558
 4217SOL    HW113550   0.976   0.702   2.642
 4217SOL    HW213551   0.844   0.632   2.575
 4218SOL     OW13552   3.088   1.443   1.254
 4218SOL    HW113553   3.102   1.519   1.191
 4218SOL    HW213554   3.096   1.475   1.348
 4219SOL     OW13555   4.428   5.302   3.056
 4219SOL    HW113556   4.430   5.286   3.154
 4219SOL    HW213557   4.350   5.361   3.033
 4220SOL     OW13558   5.490   2.044   1.618
 4220SOL    HW113559   5.558   1.981   1.580
 4220SOL    HW213560   5.428   1.993   1.678
 4221SOL     OW13561   0.478   6.189   0.042
 4221SOL    HW113562   0.492   6.092   0.061
 4221SOL    HW213563   0.402   6.223   0.097
 4222SOL     OW13564   4.802   3.054   4.239
 4222SOL    HW113565   4.830   3.144   4.203
 4222SOL    HW213566   4.737   3.067   4.314
 4223SOL     OW13567   4.182   3.583   1.818
 4223SOL    HW113568   4.136   3.651   1.761
 4223SOL    HW213569   4.257   3.542   1.766
 4224SOL     OW13570   4.864   3.699   4.588
 4224SOL    HW113571   4.850   3.620   4.528
 4224SOL    HW213572   4.875   3.668   4.682
 4225SOL     OW13573   0.315   2.299   5.364
 4225SOL    HW113574   0.218   2.301   5.386
 4225SOL    HW213575   0.368   2.277   5.446
 4226SOL     OW13576   1.301   5.714   4.875
 4226SOL    HW113577   1.395   5.722   4.841
 4226SOL    HW213578   1.298   5.648   4.950
 4227SOL     OW13579   5.095   5.398   2.365
 4227SOL    HW113580   4.998   5.388   2.387
 4227SOL    HW213581   5.150   5.366   2.442
 4228SOL     OW13582   1.821   5.469   3.829
 4228SOL    HW113583   1.779   5.441   3.916
 4228SOL    HW213584   1.808   5.397   3.762
 4229SOL     OW13585   6.704   4.520   5.390
 4229SOL    HW113586   6.680   4.583   5.316
 4229SOL    HW213587   6.639   4.532   5.465
 4230SOL     OW13588   0.467   0.764   2.108
 4230SOL    HW113589   0.454   0.804   2.199
 4230SOL    HW213590   0.457   0.835   2.038
 4231SOL     OW13591   5.942   1.427   5.606
 4231SOL    HW113592   5.979   1.364   5.538
 4231SOL    HW213593   6.013   1.452   5.671
 4232SOL     OW13594   1.700   5.999   3.832
 4232SOL    HW113595   1.643   5.916   3.834
 4232SOL    HW213596   1.796   5.973   3.841
 4233SOL     OW13597   4.435   5.240   3.347
 4233SOL    HW113598   4.427   5.140   3.348
 4233SOL    HW213599   4.352   5.280   3.386
 4234SOL     OW13600   2.989   5.524   6.315
 4234SOL    HW113601   3.004   5.483   6.225
 4234SOL    HW213602   3.000   5.454   6.386
 4235SOL     OW13603   0.233   5.846   5.644
 4235SOL    HW113604   0.280   5.758   5.648
 4235SOL    HW213605   0.163   5.850   5.716
 4236SOL     OW13606   0.280   5.335   2.740
 4236SOL    HW113607   0.358   5.397   2.737
 4236SOL    HW213608   0.283   5.273   2.662
 4237SOL     OW13609   7.013   4.895   3.714
 4237SOL    HW113610   0.012   4.983   3.757
 4237SOL    HW213611   0.077   4.840   3.713
 4238SOL     OW13612   2.994   0.001   2.911
 4238SOL    HW113613   3.049   6.942   2.941
 4238SOL    HW213614   2.988   0.001   2.811
 4239SOL     OW13615   4.253   1.000   3.731
 4239SOL    HW113616   4.236   1.024   3.636
 4239SOL    HW213617   4.280   1.082   3.782
 4240SOL     OW13618   6.750   6.767   1.480
 4240SOL    HW113619   6.812   6.710   1.533
 4240SOL    HW213620   6.742   6.857   1.523
 4241SOL     OW13621   6.456   3.335   0.253
 4241SOL    HW113622   6.536   3.275   0.245
 4241SOL    HW213623   6.442   3.359   0.349
 4242SOL     OW13624   2.334   1.916   3.573
 4242SOL    HW113625   2.290   1.829   3.598
 4242SOL    HW213626   2.431   1.901   3.555
 4243SOL     OW13627   4.646   0.228   3.010
 4243SOL    HW113628   4.593   0.167   3.070
 4243SOL    HW213629   4.586   0.269   2.942
 4244SOL     OW13630   3.716   3.262   2.906
 4244SOL    HW113631   3.709   3.204   2.825
 4244SOL    HW213632   3.809   3.258   2.943
 4245SOL     OW13633   6.392   2.035   6.552
 4245SOL    HW113634   6.486   2.004   6.539
 4245SOL    HW213635   6.349   2.049   6.463
 4246SOL     OW13636   1.001   3.425   1.277
 4246SOL    HW113637   0.914   3.432   1.228
 4246SOL    HW213638   0.989   3.369   1.359
 4247SOL     OW13639   0.283   5.599   4.746
 4247SOL    HW113640   0.252   5.514   4.788
 4247SOL    HW213641   0.211   5.635   4.686
 4248SOL     OW13642   1.505   2.894   5.212
 4248SOL    HW113643   1.457   2.945   5.141
 4248SOL    HW213644   1.483   2.931   5.302
 4249SOL     OW13645   5.763   3.693   5.737
 4249SOL    HW113646   5.771   3.594   5.728
 4249SOL    HW213647   5.698   3.727   5.669
 4250SOL     OW13648   0.439   4.643   2.914
 4250SOL    HW113649   0.413   4.619   3.008
 4250SOL    HW213650   0.483   4.733   2.914
 4251SOL     OW13651   5.926   4.202   0.333
 4251SOL    HW113652   5.990   4.278   0.324
 4251SOL    HW213653   5.888   4.201   0.425
 4252SOL     OW13654   0.638   5.701   5.531
 4252SOL    HW113655   0.724   5.729   5.572
 4252SOL    HW213656   0.570   5.684   5.602
 4253SOL     OW13657   4.234   6.441   2.250
 4253SOL    HW113658   4.193   6.422   2.339
 4253SOL    HW213659   4.201   6.529   2.216
 4254SOL     OW13660   2.725   4.375   1.193
 4254SOL    HW113661   2.795   4.313   1.228
 4254SOL    HW213662   2.652   4.385   1.260
 4255SOL     OW13663   0.356   2.209   4.503
 4255SOL    HW113664   0.428   2.239   4.566
 4255SOL    HW213665   0.301   2.288   4.476
 4256SOL     OW13666   1.856   0.360   1.655
 4256SOL    HW113667   1.853   0.451   1.614
 4256SOL    HW213668   1.764   0.322   1.657
 4257SOL     OW13669   3.737   1.779   4.446
 4257SOL    HW113670   3.752   1.687   4.482
 4257SOL    HW213671   3.648   1.813   4.476
 4258SOL     OW13672   5.108   6.430   2.418
 4258SOL    HW113673   5.147   6.511   2.373
 4258SOL    HW213674   5.121   6.437   2.517
 4259SOL     OW13675   2.222   2.716   0.543
 4259SOL    HW113676   2.233   2.799   0.488
 4259SOL    HW213677   2.124   2.699   0.558
 4260SOL     OW13678   5.031   5.272   3.881
 4260SOL    HW113679   4.951   5.240   3.932
 4260SOL    HW213680   5.021   5.248   3.784
 4261SOL     OW13681   1.415   6.963   1.909
 4261SOL    HW113682   1.405   6.868   1.936
 4261SOL    HW213683   1.497   6.974   1.852
 4262SOL     OW13684   0.632   5.179   6.722
 4262SOL    HW113685   0.540   5.143   6.703
 4262SOL    HW213686   0.649   5.175   6.820
 4263SOL     OW13687   3.085   4.889   5.530
 4263SOL    HW113688   3.106   4.825   5.457
 4263SOL    HW213689   3.154   4.961   5.532
 4264SOL     OW13690   6.939   0.890   0.644
 4264SOL    HW113691   6.841   0.873   0.641
 4264SOL    HW213692   6.988   0.803   0.630
 4265SOL     OW13693   6.958   1.773   1.105
 4265SOL    HW113694   6.952   1.804   1.200
 4265SOL    HW213695   6.886   1.706   1.087
 4266SOL     OW13696   2.576   4.946   0.796
 4266SOL    HW113697   2.584   4.847   0.791
 4266SOL    HW213698   2.645   4.989   0.737
 4267SOL     OW13699   1.887   4.004   5.154
 4267SOL    HW113700   1.831   3.940   5.206
 4267SOL    HW213701   1.974   4.019   5.200
 4268SOL     OW13702   1.718   0.698   0.690
 4268SOL    HW113703   1.767   0.647   0.620
 4268SOL    HW213704   1.731   0.796   0.675
 4269SOL     OW13705   3.580   3.073   0.134
 4269SOL    HW113706   3.650   3.139   0.106
 4269SOL    HW213707   3.561   3.010   0.059
 4270SOL     OW13708   3.405   2.865   5.145
 4270SOL    HW113709   3.427   2.865   5.048
 4270SOL    HW213710   3.408   2.959   5.180
 4271SOL     OW13711   0.805   6.923   6.594
 4271SOL    HW113712   0.782   6.832   6.560
 4271SOL    HW213713   0.846   6.915   6.685
 4272SOL     OW13714   0.072   4.945   4.569
 4272SOL    HW113715   6.998   4.914   4.585
 4272SOL    HW213716   0.136   4.872   4.596
 4273SOL     OW13717   5.926   6.538   5.471
 4273SOL    HW113718   5.939   6.475   5.548
 4273SOL    HW213719   5.830   6.537   5.443
 4274SOL     OW13720   1.664   6.900   3.983
 4274SOL    HW113721   1.578   6.947   3.964
 4274SOL    HW213722   1.740   6.954   3.947
 4275SOL     OW13723   0.754   6.989   6.085
 4275SOL    HW113724   0.673   0.020   6.054
 4275SOL    HW213725   0.727   6.918   6.150
 4276SOL     OW13726   2.095   3.909   2.386
 4276SOL    HW113727   2.013   3.963   2.364
 4276SOL    HW213728   2.177   3.966   2.372
 4277SOL     OW13729   6.714   5.864   3.617
 4277SOL    HW113730   6.711   5.950   3.565
 4277SOL    HW213731   6.765   5.878   3.702
 4278SOL     OW13732   6.768   0.319   5.355
 4278SOL    HW113733   6.787   0.407   5.399
 4278SOL    HW213734   6.848   0.290   5.302
 4279SOL     OW13735   3.229   6.431   5.258
 4279SOL    HW113736   3.138   6.412   5.222
 4279SOL    HW213737   3.288   6.351   5.243
 4280SOL     OW13738   5.130   2.833   3.863
 4280SOL    HW113739   5.189   2.773   3.917
 4280SOL    HW213740   5.050   2.858   3.917
 4281SOL     OW13741   2.327   4.314   5.065
 4281SOL    HW113742   2.255   4.254   5.031
 4281SOL    HW213743   2.387   4.263   5.127
 4282SOL     OW13744   1.499   2.424   1.289
 4282SOL    HW113745   1.587   2.389   1.256
 4282SOL    HW213746   1.513   2.514   1.330
 4283SOL     OW13747   1.704   0.333   4.211
 4283SOL    HW113748   1.792   0.287   4.196
 4283SOL    HW213749   1.667   0.306   4.300
 4284SOL     OW13750   5.985   2.284   2.515
 4284SOL    HW113751   6.006   2.235   2.431
 4284SOL    HW213752   5.999   2.382   2.501
 4285SOL     OW13753   1.233   6.663   5.988
 4285SOL    HW113754   1.280   6.633   5.905
 4285SOL    HW213755   1.198   6.583   6.037
 4286SOL     OW13756   5.009   5.615   0.279
 4286SOL    HW113757   5.022   5.550   0.355
 4286SOL    HW213758   5.083   5.681   0.279
 4287SOL     OW13759   5.138   6.344   4.858
 4287SOL    HW113760   5.083   6.375   4.780
 4287SOL    HW213761   5.158   6.247   4.848
 4288SOL     OW13762   1.298   6.664   3.075
 4288SOL    HW113763   1.292   6.587   3.138
 4288SOL    HW213764   1.284   6.749   3.125
 4289SOL     OW13765   5.528   2.934   1.269
 4289SOL    HW113766   5.565   2.874   1.198
 4289SOL    HW213767   5.599   2.995   1.303
 4290SOL     OW13768   2.315   0.969   1.860
 4290SOL    HW113769   2.221   0.946   1.837
 4290SOL    HW213770   2.377   0.905   1.815
 4291SOL     OW13771   6.592   4.055   0.855
 4291SOL    HW113772   6.657   4.082   0.926
 4291SOL    HW213773   6.610   3.961   0.827
 4292SOL     OW13774   5.816   5.197   6.521
 4292SOL    HW113775   5.846   5.271   6.581
 4292SOL    HW213776   5.802   5.233   6.428
 4293SOL     OW13777   0.002   2.648   6.786
 4293SOL    HW113778   7.013   2.698   6.872
 4293SOL    HW213779   0.052   2.704   6.720
 4294SOL     OW13780   4.209   1.859   5.773
 4294SOL    HW113781   4.141   1.864   5.700
 4294SOL    HW213782   4.287   1.805   5.743
 4295SOL     OW13783   3.352   0.255   4.179
 4295SOL    HW113784   3.433   0.268   4.236
 4295SOL    HW213785   3.316   0.344   4.151
 4296SOL     OW13786   2.245   1.320   1.265
 4296SOL    HW113787   2.228   1.373   1.348
 4296SOL    HW213788   2.271   1.227   1.290
 4297SOL     OW13789   5.685   0.815   5.774
 4297SOL    HW113790   5.648   0.738   5.824
 4297SOL    HW213791   5.697   0.790   5.678
 4298SOL     OW13792   2.969   5.835   1.182
 4298SOL    HW113793   2.888   5.801   1.229
 4298SOL    HW213794   3.027   5.757   1.155
 4299SOL     OW13795   0.977   3.643   6.548
 4299SOL    HW113796   0.920   3.611   6.623
 4299SOL    HW213797   0.934   3.723   6.505
 4300SOL     OW13798   4.892   0.855   6.531
 4300SOL    HW113799   4.901   0.880   6.435
 4300SOL    HW213800   4.946   0.917   6.588
 4301SOL     OW13801   2.793   1.582   0.847
 4301SOL    HW113802   2.783   1.496   0.797
 4301SOL    HW213803   2.732   1.651   0.806
 4302SOL     OW13804   1.025   6.706   0.084
 4302SOL    HW113805   1.016   6.607   0.070
 4302SOL    HW213806   0.999   6.753   7.020
 4303SOL     OW13807   0.306   3.421   2.133
 4303SOL    HW113808   0.258   3.391   2.051
 4303SOL    HW213809   0.249   3.402   2.214
 4304SOL     OW13810   2.898   3.748   4.199
 4304SOL    HW113811   2.972   3.812   4.181
 4304SOL    HW213812   2.839   3.783   4.271
 4305SOL     OW13813   6.125   1.767   3.500
 4305SOL    HW113814   6.210   1.717   3.482
 4305SOL    HW213815   6.102   1.760   3.598
 4306SOL     OW13816   6.715   5.085   5.549
 4306SOL    HW113817   6.803   5.131   5.561
 4306SOL    HW213818   6.687   5.044   5.636
 4307SOL     OW13819   5.324   3.798   6.403
 4307SOL    HW113820   5.331   3.800   6.303
 4307SOL    HW213821   5.396   3.855   6.443
 4308SOL     OW13822   5.121   6.091   4.452
 4308SOL    HW113823   5.200   6.030   4.460
 4308SOL    HW213824   5.058   6.072   4.527
 4309SOL     OW13825   1.383   1.534   0.673
 4309SOL    HW113826   1.420   1.567   0.760
 4309SOL    HW213827   1.293   1.575   0.658
 4310SOL     OW13828   1.864   1.700   2.946
 4310SOL    HW113829   1.780   1.751   2.929
 4310SOL    HW213830   1.860   1.656   3.036
 4311SOL     OW13831   2.121   6.461   3.545
 4311SOL    HW113832   2.216   6.490   3.545
 4311SOL    HW213833   2.112   6.376   3.494
 4312SOL     OW13834   1.960   5.098   2.061
 4312SOL    HW113835   2.036   5.098   1.996
 4312SOL    HW213836   1.874   5.105   2.012
 4313SOL     OW13837   5.126   0.461   2.374
 4313SOL    HW113838   5.171   0.520   2.441
 4313SOL    HW213839   5.030   0.486   2.367
 4314SOL     OW13840   4.863   3.132   2.515
 4314SOL    HW113841   4.849   3.229   2.536
 4314SOL    HW213842   4.855   3.078   2.598
 4315SOL     OW13843   2.307   0.890   2.213
 4315SOL    HW113844   2.340   0.901   2.306
 4315SOL    HW213845   2.345   0.963   2.156
 4316SOL     OW13846   6.085   0.411   2.152
 4316SOL    HW113847   6.095   0.358   2.067
 4316SOL    HW213848   6.085   0.508   2.130
 4317SOL     OW13849   3.698   1.069   3.933
 4317SOL    HW113850   3.796   1.079   3.921
 4317SOL    HW213851   3.678   0.989   3.989
 4318SOL     OW13852   0.488   3.107   3.744
 4318SOL    HW113853   0.495   3.198   3.785
 4318SOL    HW213854   0.456   3.115   3.650
 4319SOL     OW13855   2.225   3.202   6.920
 4319SOL    HW113856   2.314   3.228   6.955
 4319SOL    HW213857   2.235   3.157   6.831
 4320SOL     OW13858   0.247   6.238   2.576
 4320SOL    HW113859   0.217   6.145   2.552
 4320SOL    HW213860   0.170   6.288   2.616
 4321SOL     OW13861   6.974   0.232   5.174
 4321SOL    HW113862   7.010   0.145   5.141
 4321SOL    HW213863   0.019   0.274   5.237
 4322SOL     OW13864   5.941   1.175   0.341
 4322SOL    HW113865   5.966   1.238   0.415
 4322SOL    HW213866   6.014   1.109   0.327
 4323SOL     OW13867   6.612   3.256   3.190
 4323SOL    HW113868   6.520   3.239   3.227
 4323SOL    HW213869   6.680   3.224   3.256
 4324SOL     OW13870   5.674   3.900   6.245
 4324SOL    HW113871   5.741   3.846   6.194
 4324SOL    HW213872   5.646   3.979   6.189
 4325SOL     OW13873   2.059   1.418   6.870
 4325SOL    HW113874   1.981   1.481   6.867
 4325SOL    HW213875   2.033   1.332   6.827
 4326SOL     OW13876   6.008   2.593   5.248
 4326SOL    HW113877   6.034   2.670   5.190
 4326SOL    HW213878   6.076   2.520   5.240
 4327SOL     OW13879   6.168   6.475   2.493
 4327SOL    HW113880   6.096   6.511   2.552
 4327SOL    HW213881   6.128   6.411   2.428
 4328SOL     OW13882   5.559   5.013   0.269
 4328SOL    HW113883   5.514   5.100   0.250
 4328SOL    HW213884   5.603   4.979   0.186
 4329SOL     OW13885   3.863   1.850   5.727
 4329SOL    HW113886   3.819   1.877   5.813
 4329SOL    HW213887   3.865   1.750   5.721
 4330SOL     OW13888   0.916   0.245   5.882
 4330SOL    HW113889   0.837   0.277   5.934
 4330SOL    HW213890   0.952   0.162   5.924
 4331SOL     OW13891   6.171   2.742   6.435
 4331SOL    HW113892   6.210   2.726   6.345
 4331SOL    HW213893   6.227   2.809   6.484
 4332SOL     OW13894   5.109   2.921   1.745
 4332SOL    HW113895   5.037   2.878   1.690
 4332SOL    HW213896   5.091   2.905   1.842
 4333SOL     OW13897   5.338   0.603   4.930
 4333SOL    HW113898   5.252   0.650   4.911
 4333SOL    HW213899   5.404   0.624   4.859
 4334SOL     OW13900   4.289   1.557   2.007
 4334SOL    HW113901   4.363   1.624   2.012
 4334SOL    HW213902   4.204   1.599   2.036
 4335SOL     OW13903   3.388   4.142   5.018
 4335SOL    HW113904   3.336   4.155   4.934
 4335SOL    HW213905   3.415   4.045   5.026
 4336SOL     OW13906   1.103   6.367   4.417
 4336SOL    HW113907   1.194   6.372   4.457
 4336SOL    HW213908   1.077   6.271   4.405
 4337SOL     OW13909   6.898   5.560   0.624
 4337SOL    HW113910   6.883   5.638   0.564
 4337SOL    HW213911   6.851   5.575   0.711
 4338SOL     OW13912   6.697   6.345   4.064
 4338SOL    HW113913   6.599   6.352   4.082
 4338SOL    HW213914   6.720   6.402   3.985
 4339SOL     OW13915   6.129   1.212   5.551
 4339SOL    HW113916   6.109   1.183   5.458
 4339SOL    HW213917   6.228   1.221   5.562
 4340SOL     OW13918   5.361   3.670   1.608
 4340SOL    HW113919   5.343   3.757   1.563
 4340SOL    HW213920   5.282   3.644   1.664
 4341SOL     OW13921   1.429   4.363   1.186
 4341SOL    HW113922   1.455   4.348   1.090
 4341SOL    HW213923   1.454   4.283   1.240
 4342SOL     OW13924   1.018   3.380   2.952
 4342SOL    HW113925   0.976   3.317   3.016
 4342SOL    HW213926   0.991   3.474   2.975
 4343SOL     OW13927   2.380   1.176   1.538
 4343SOL    HW113928   2.458   1.175   1.476
 4343SOL    HW213929   2.306   1.119   1.501
 4344SOL     OW13930   1.980   5.103   3.048
 4344SOL    HW113931   1.945   5.086   3.141
 4344SOL    HW213932   1.981   5.201   3.031
 4345SOL     OW13933   1.521   2.121   5.726
 4345SOL    HW113934   1.619   2.104   5.725
 4345SOL    HW213935   1.489   2.144   5.634
 4346SOL     OW13936   2.078   3.274   1.950
 4346SOL    HW113937   2.114   3.367   1.944
 4346SOL    HW213938   1.995   3.266   1.894
 4347SOL     OW13939   5.807   6.534   2.911
 4347SOL    HW113940   5.870   6.466   2.873
 4347SOL    HW213941   5.755   6.494   2.986
 4348SOL     OW13942   1.934   3.873   6.836
 4348SOL    HW113943   1.921   3.913   6.746
 4348SOL    HW213944   1.857   3.896   6.895
 4349SOL     OW13945   0.255   1.081   3.622
 4349SOL    HW113946   0.183   1.087   3.691
 4349SOL    HW213947   0.228   1.132   3.541
 4350SOL     OW13948   5.204   2.077   3.714
 4350SOL    HW113949   5.131   2.011   3.731
 4350SOL    HW213950   5.292   2.030   3.708
 4351SOL     OW13951   2.956   5.905   1.831
 4351SOL    HW113952   2.941   5.814   1.868
 4351SOL    HW213953   2.904   5.972   1.885
 4352SOL     OW13954   6.251   0.921   2.161
 4352SOL    HW113955   6.327   0.952   2.103
 4352SOL    HW213956   6.286   0.859   2.231
 4353SOL     OW13957   3.353   5.612   6.347
 4353SOL    HW113958   3.321   5.553   6.421
 4353SOL    HW213959   3.442   5.580   6.316
 4354SOL     OW13960   2.302   0.238   0.770
 4354SOL    HW113961   2.358   0.321   0.758
 4354SOL    HW213962   2.325   0.195   0.857
 4355SOL     OW13963   4.860   1.326   0.118
 4355SOL    HW113964   4.771   1.331   0.164
 4355SOL    HW213965   4.857   1.379   0.033
 4356SOL     OW13966   4.355   4.170   0.600
 4356SOL    HW113967   4.347   4.119   0.515
 4356SOL    HW213968   4.313   4.118   0.675
 4357SOL     OW13969   5.963   0.331   6.995
 4357SOL    HW113970   6.062   0.322   7.000
 4357SOL    HW213971   5.920   0.243   7.016
 4358SOL     OW13972   0.710   6.911   1.651
 4358SOL    HW113973   0.636   6.859   1.693
 4358SOL    HW213974   0.797   6.884   1.692
 4359SOL     OW13975   6.564   2.340   3.983
 4359SOL    HW113976   6.504   2.340   4.063
 4359SOL    HW213977   6.639   2.405   3.997
 4360SOL     OW13978   1.258   3.407   1.070
 4360SOL    HW113979   1.304   3.421   1.157
 4360SOL    HW213980   1.174   3.354   1.085
 4361SOL     OW13981   5.212   2.347   1.890
 4361SOL    HW113982   5.221   2.414   1.964
 4361SOL    HW213983   5.303   2.321   1.857
 4362SOL     OW13984   6.546   4.049   4.462
 4362SOL    HW113985   6.620   4.028   4.398
 4362SOL    HW213986   6.507   3.964   4.497
 4363SOL     OW13987   5.108   2.439   5.998
 4363SOL    HW113988   5.061   2.357   6.030
 4363SOL    HW213989   5.161   2.418   5.916
 4364SOL     OW13990   3.171   4.082   4.552
 4364SOL    HW113991   3.090   4.029   4.530
 4364SOL    HW213992   3.195   4.140   4.474
 4365SOL     OW13993   3.553   1.945   2.555
 4365SOL    HW113994   3.594   1.999   2.482
 4365SOL    HW213995   3.554   1.848   2.530
 4366SOL     OW13996   5.862   5.560   0.951
 4366SOL    HW113997   5.839   5.498   0.876
 4366SOL    HW213998   5.822   5.526   1.036
 4367SOL     OW13999   1.304   6.304   6.153
 4367SOL    HW114000   1.250   6.381   6.120
 4367SOL    HW214001   1.377   6.284   6.087
 4368SOL     OW14002   5.601   3.672   1.761
 4368SOL    HW114003   5.604   3.770   1.782
 4368SOL    HW214004   5.521   3.653   1.705
 4369SOL     OW14005   4.181   5.405   2.104
 4369SOL    HW114006   4.201   5.324   2.160
 4369SOL    HW214007   4.095   5.390   2.055
 4370SOL     OW14008   5.551   4.579   3.344
 4370SOL    HW114009   5.632   4.563   3.288
 4370SOL    HW214010   5.577   4.626   3.429
 4371SOL     OW14011   6.363   1.954   1.779
 4371SOL    HW114012   6.302   1.879   1.804
 4371SOL    HW214013   6.366   1.963   1.680
 4372SOL     OW14014   4.229   1.136   3.215
 4372SOL    HW114015   4.139   1.095   3.198
 4372SOL    HW214016   4.280   1.144   3.129
 4373SOL     OW14017   6.839   1.970   6.365
 4373SOL    HW114018   6.764   1.951   6.427
 4373SOL    HW214019   6.803   1.998   6.276
 4374SOL     OW14020   1.798   2.685   1.583
 4374SOL    HW114021   1.726   2.701   1.650
 4374SOL    HW214022   1.831   2.772   1.548
 4375SOL     OW14023   2.497   6.490   4.729
 4375SOL    HW114024   2.589   6.452   4.730
 4375SOL    HW214025   2.437   6.431   4.675
 4376SOL     OW14026   5.511   0.934   3.039
 4376SOL    HW114027   5.490   1.008   2.975
 4376SOL    HW214028   5.607   0.940   3.067
 4377SOL     OW14029   5.850   4.318   6.285
 4377SOL    HW114030   5.763   4.365   6.296
 4377SOL    HW214031   5.855   4.242   6.350
 4378SOL     OW14032   1.650   0.224   3.952
 4378SOL    HW114033   1.648   0.223   4.052
 4378SOL    HW214034   1.742   0.246   3.920
 4379SOL     OW14035   2.751   2.008   5.223
 4379SOL    HW114036   2.698   1.959   5.154
 4379SOL    HW214037   2.816   2.069   5.179
 4380SOL     OW14038   0.386   1.147   1.684
 4380SOL    HW114039   0.363   1.052   1.706
 4380SOL    HW214040   0.340   1.208   1.749
 4381SOL     OW14041   2.137   6.566   5.988
 4381SOL    HW114042   2.047   6.533   6.017
 4381SOL    HW214043   2.192   6.489   5.956
 4382SOL     OW14044   6.943   3.566   5.296
 4382SOL    HW114045   7.015   3.599   5.358
 4382SOL    HW214046   6.871   3.523   5.350
 4383SOL     OW14047   5.541   2.983   6.894
 4383SOL    HW114048   5.525   2.911   6.826
 4383SOL    HW214049   5.565   2.942   6.982
 4384SOL     OW14050   6.131   6.385   4.172
 4384SOL    HW114051   6.113   6.301   4.121
 4384SOL    HW214052   6.100   6.464   4.119
 4385SOL     OW14053   5.354   1.395   4.587
 4385SOL    HW114054   5.402   1.366   4.504
 4385SOL    HW214055   5.373   1.492   4.605
 4386SOL     OW14056   1.130   3.313   5.409
 4386SOL    HW114057   1.084   3.369   5.340
 4386SOL    HW214058   1.215   3.357   5.436
 4387SOL     OW14059   6.549   1.986   0.623
 4387SOL    HW114060   6.486   2.057   0.657
 4387SOL    HW214061   6.503   1.930   0.555
 4388SOL     OW14062   5.288   2.460   6.387
 4388SOL    HW114063   5.264   2.549   6.423
 4388SOL    HW214064   5.352   2.415   6.449
 4389SOL     OW14065   1.002   3.806   1.607
 4389SOL    HW114066   0.933   3.744   1.643
 4389SOL    HW214067   1.082   3.753   1.577
 4390SOL     OW14068   6.427   1.037   1.744
 4390SOL    HW114069   6.460   0.976   1.816
 4390SOL    HW214070   6.339   1.075   1.770
 4391SOL     OW14071   2.194   6.376   6.781
 4391SOL    HW114072   2.244   6.343   6.701
 4391SOL    HW214073   2.159   6.467   6.763
 4392SOL     OW14074   1.967   2.408   5.018
 4392SOL    HW114075   1.994   2.320   5.058
 4392SOL    HW214076   1.986   2.481   5.084
 4393SOL     OW14077   4.896   1.134   1.720
 4393SOL    HW114078   4.992   1.158   1.716
 4393SOL    HW214079   4.876   1.090   1.808
 4394SOL     OW14080   1.122   0.434   1.568
 4394SOL    HW114081   1.084   0.344   1.545
 4394SOL    HW214082   1.173   0.470   1.490
 4395SOL     OW14083   2.838   5.519   0.960
 4395SOL    HW114084   2.807   5.495   1.052
 4395SOL    HW214085   2.840   5.436   0.904
 4396SOL     OW14086   2.617   0.071   3.236
 4396SOL    HW114087   2.602   6.992   3.233
 4396SOL    HW214088   2.680   0.097   3.163
 4397SOL     OW14089   3.059   1.887   4.547
 4397SOL    HW114090   3.149   1.849   4.528
 4397SOL    HW214091   3.009   1.902   4.462
 4398SOL     OW14092   2.170   2.958   5.360
 4398SOL    HW114093   2.237   2.911   5.302
 4398SOL    HW214094   2.200   3.053   5.375
 4399SOL     OW14095   2.944   6.907   2.320
 4399SOL    HW114096   2.876   6.922   2.248
 4399SOL    HW214097   2.970   6.995   2.360
 4400SOL     OW14098   1.825   5.409   4.683
 4400SOL    HW114099   1.897   5.357   4.637
 4400SOL    HW214100   1.864   5.494   4.719
 4401SOL     OW14101   3.538   0.441   6.317
 4401SOL    HW114102   3.465   0.417   6.381
 4401SOL    HW214103   3.510   0.417   6.224
 4402SOL     OW14104   1.416   0.510   3.473
 4402SOL    HW114105   1.470   0.429   3.497
 4402SOL    HW214106   1.391   0.505   3.376
 4403SOL     OW14107   1.708   5.002   1.246
 4403SOL    HW114108   1.745   5.077   1.192
 4403SOL    HW214109   1.767   4.984   1.325
 4404SOL     OW14110   0.343   6.766   6.307
 4404SOL    HW114111   0.331   6.823   6.225
 4404SOL    HW214112   0.371   6.674   6.280
 4405SOL     OW14113   1.807   5.260   3.649
 4405SOL    HW114114   1.736   5.190   3.636
 4405SOL    HW214115   1.897   5.220   3.631
 4406SOL     OW14116   6.451   3.645   1.827
 4406SOL    HW114117   6.353   3.658   1.836
 4406SOL    HW214118   6.499   3.728   1.855
 4407SOL     OW14119   6.059   6.161   1.829
 4407SOL    HW114120   6.000   6.215   1.768
 4407SOL    HW214121   6.137   6.217   1.857
 4408SOL     OW14122   4.024   0.921   0.350
 4408SOL    HW114123   3.995   0.908   0.255
 4408SOL    HW214124   4.079   0.842   0.379
 4409SOL     OW14125   2.887   0.501   3.047
 4409SOL    HW114126   2.983   0.476   3.037
 4409SOL    HW214127   2.849   0.524   2.957
 4410SOL     OW14128   1.432   6.413   1.350
 4410SOL    HW114129   1.453   6.355   1.429
 4410SOL    HW214130   1.342   6.387   1.314
 4411SOL     OW14131   3.337   4.518   5.338
 4411SOL    HW114132   3.299   4.432   5.304
 4411SOL    HW214133   3.436   4.509   5.346
 4412SOL     OW14134   4.881   6.394   2.724
 4412SOL    HW114135   4.825   6.474   2.699
 4412SOL    HW214136   4.977   6.413   2.706
 4413SOL     OW14137   4.419   6.138   4.138
 4413SOL    HW114138   4.391   6.157   4.044
 4413SOL    HW214139   4.465   6.050   4.142
 4414SOL     OW14140   4.531   4.280   1.260
 4414SOL    HW114141   4.536   4.366   1.311
 4414SOL    HW214142   4.617   4.231   1.270
 4415SOL     OW14143   2.802   3.135   1.252
 4415SOL    HW114144   2.774   3.228   1.229
 4415SOL    HW214145   2.816   3.128   1.351
 4416SOL     OW14146   4.262   2.218   3.195
 4416SOL    HW114147   4.249   2.228   3.294
 4416SOL    HW214148   4.302   2.302   3.158
 4417SOL     OW14149   0.259   4.126   3.685
 4417SOL    HW114150   0.166   4.092   3.700
 4417SOL    HW214151   0.263   4.176   3.599
 4418SOL     OW14152   6.078   6.684   6.257
 4418SOL    HW114153   6.047   6.764   6.309
 4418SOL    HW214154   6.091   6.607   6.319
 4419SOL     OW14155   6.391   5.605   6.436
 4419SOL    HW114156   6.459   5.584   6.507
 4419SOL    HW214157   6.302   5.621   6.479
 4420SOL     OW14158   3.698   2.105   0.785
 4420SOL    HW114159   3.627   2.175   0.784
 4420SOL    HW214160   3.711   2.071   0.878
 4421SOL     OW14161   1.240   2.366   5.473
 4421SOL    HW114162   1.247   2.271   5.503
 4421SOL    HW214163   1.172   2.414   5.529
 4422SOL     OW14164   6.951   4.339   6.608
 4422SOL    HW114165   0.013   4.368   6.558
 4422SOL    HW214166   6.928   4.245   6.582
 4423SOL     OW14167   5.747   4.454   4.853
 4423SOL    HW114168   5.847   4.454   4.849
 4423SOL    HW214169   5.714   4.363   4.875
 4424SOL     OW14170   5.187   5.714   3.482
 4424SOL    HW114171   5.131   5.697   3.563
 4424SOL    HW214172   5.249   5.791   3.500
 4425SOL     OW14173   1.844   5.258   1.401
 4425SOL    HW114174   1.908   5.208   1.343
 4425SOL    HW214175   1.846   5.355   1.377
 4426SOL     OW14176   0.726   0.187   4.485
 4426SOL    HW114177   0.674   0.104   4.464
 4426SOL    HW214178   0.733   0.198   4.584
 4427SOL     OW14179   2.835   6.252   2.910
 4427SOL    HW114180   2.910   6.302   2.866
 4427SOL    HW214181   2.748   6.283   2.871
 4428SOL     OW14182   5.463   7.004   3.197
 4428SOL    HW114183   5.386   0.001   3.135
 4428SOL    HW214184   5.430   7.004   3.291
 4429SOL     OW14185   2.376   5.981   3.337
 4429SOL    HW114186   2.385   6.081   3.344
 4429SOL    HW214187   2.457   5.944   3.291
 4430SOL     OW14188   4.937   4.215   5.393
 4430SOL    HW114189   4.962   4.217   5.296
 4430SOL    HW214190   4.940   4.120   5.426
 4431SOL     OW14191   3.570   6.682   3.581
 4431SOL    HW114192   3.642   6.621   3.547
 4431SOL    HW214193   3.481   6.646   3.553
 4432SOL     OW14194   1.058   3.611   6.171
 4432SOL    HW114195   0.963   3.602   6.143
 4432SOL    HW214196   1.066   3.684   6.239
 4433SOL     OW14197   0.102   0.960   5.581
 4433SOL    HW114198   0.128   0.878   5.632
 4433SOL    HW214199   0.013   0.946   5.538
 4434SOL     OW14200   0.126   0.352   2.302
 4434SOL    HW114201   0.116   0.439   2.350
 4434SOL    HW214202   0.122   0.277   2.369
 4435SOL     OW14203   2.222   3.726   0.578
 4435SOL    HW114204   2.221   3.637   0.534
 4435SOL    HW214205   2.311   3.741   0.621
 4436SOL     OW14206   4.033   1.649   1.981
 4436SOL    HW114207   3.997   1.585   1.913
 4436SOL    HW214208   3.961   1.670   2.048
 4437SOL     OW14209   0.021   3.988   0.818
 4437SOL    HW114210   6.979   3.942   0.754
 4437SOL    HW214211   0.031   4.084   0.792
 4438SOL     OW14212   3.764   1.000   5.545
 4438SOL    HW114213   3.689   1.063   5.567
 4438SOL    HW214214   3.808   1.028   5.461
 4439SOL     OW14215   2.672   6.787   2.659
 4439SOL    HW114216   2.649   6.771   2.563
 4439SOL    HW214217   2.768   6.765   2.675
 4440SOL     OW14218   1.532   4.928   0.308
 4440SOL    HW114219   1.591   4.895   0.234
 4440SOL    HW214220   1.558   5.022   0.331
 4441SOL     OW14221   7.011   1.136   0.563
 4441SOL    HW114222   6.980   1.050   0.603
 4441SOL    HW214223   0.091   1.141   0.568
 4442SOL     OW14224   1.795   4.612   6.513
 4442SOL    HW114225   1.770   4.708   6.499
 4442SOL    HW214226   1.726   4.567   6.570
 4443SOL     OW14227   0.529   5.602   6.005
 4443SOL    HW114228   0.507   5.700   5.997
 4443SOL    HW214229   0.476   5.562   6.079
 4444SOL     OW14230   5.368   4.552   6.835
 4444SOL    HW114231   5.276   4.548   6.797
 4444SOL    HW214232   5.394   4.647   6.850
 4445SOL     OW14233   6.912   5.450   6.918
 4445SOL    HW114234   6.985   5.435   6.852
 4445SOL    HW214235   6.864   5.536   6.896
 4446SOL     OW14236   5.351   0.487   1.028
 4446SOL    HW114237   5.274   0.430   1.057
 4446SOL    HW214238   5.429   0.470   1.088
 4447SOL     OW14239   4.782   5.527   5.607
 4447SOL    HW114240   4.813   5.597   5.543
 4447SOL    HW214241   4.858   5.497   5.664
 4448SOL     OW14242   3.765   6.447   2.201
 4448SOL    HW114243   3.844   6.491   2.243
 4448SOL    HW214244   3.734   6.502   2.123
 4449SOL     OW14245   3.374   1.418   5.354
 4449SOL    HW114246   3.390   1.319   5.356
 4449SOL    HW214247   3.324   1.445   5.436
 4450SOL     OW14248   3.337   6.934   0.300
 4450SOL    HW114249   3.252   6.986   0.307
 4450SOL    HW214250   3.327   6.847   0.349
 4451SOL     OW14251   5.363   4.406   2.808
 4451SOL    HW114252   5.369   4.486   2.868
 4451SOL    HW214253   5.290   4.419   2.741
 4452SOL     OW14254   4.726   6.229   4.710
 4452SOL    HW114255   4.755   6.292   4.638
 4452SOL    HW214256   4.626   6.224   4.712
 4453SOL     OW14257   6.869   3.853   0.673
 4453SOL    HW114258   6.887   3.788   0.747
 4453SOL    HW214259   6.770   3.863   0.661
 4454SOL     OW14260   0.974   2.310   6.683
 4454SOL    HW114261   0.899   2.254   6.648
 4454SOL    HW214262   0.949   2.406   6.679
 4455SOL     OW14263   0.673   6.714   5.437
 4455SOL    HW114264   0.747   6.651   5.462
 4455SOL    HW214265   0.611   6.725   5.514
 4456SOL     OW14266   1.873   0.274   4.925
 4456SOL    HW114267   1.839   0.189   4.884
 4456SOL    HW214268   1.973   0.271   4.929
 4457SOL     OW14269   1.327   2.801   4.734
 4457SOL    HW114270   1.363   2.711   4.709
 4457SOL    HW214271   1.231   2.792   4.760
 4458SOL     OW14272   1.894   3.573   6.523
 4458SOL    HW114273   1.858   3.591   6.615
 4458SOL    HW214274   1.856   3.487   6.489
 4459SOL     OW14275   1.423   2.941   2.878
 4459SOL    HW114276   1.511   2.905   2.847
 4459SOL    HW214277   1.357   2.866   2.885
 4460SOL     OW14278   0.025   3.182   4.425
 4460SOL    HW114279   0.006   3.270   4.382
 4460SOL    HW214280   0.110   3.188   4.477
 4461SOL     OW14281   2.496   0.896   1.250
 4461SOL    HW114282   2.417   0.880   1.191
 4461SOL    HW214283   2.494   0.832   1.327
 4462SOL     OW14284   6.565   4.757   3.141
 4462SOL    HW114285   6.613   4.720   3.061
 4462SOL    HW214286   6.505   4.687   3.179
 4463SOL     OW14287   6.209   1.473   0.401
 4463SOL    HW114288   6.136   1.462   0.469
 4463SOL    HW214289   6.295   1.439   0.439
 4464SOL     OW14290   0.464   4.989   0.547
 4464SOL    HW114291   0.501   5.081   0.563
 4464SOL    HW214292   0.526   4.921   0.585
 4465SOL     OW14293   3.090   5.618   0.993
 4465SOL    HW114294   2.992   5.600   0.997
 4465SOL    HW214295   3.139   5.548   1.044
 4466SOL     OW14296   1.579   2.559   3.115
 4466SOL    HW114297   1.563   2.534   3.020
 4466SOL    HW214298   1.546   2.652   3.132
 4467SOL     OW14299   4.578   5.957   3.118
 4467SOL    HW114300   4.597   6.046   3.075
 4467SOL    HW214301   4.637   5.945   3.197
 4468SOL     OW14302   1.561   2.653   1.420
 4468SOL    HW114303   1.518   2.738   1.449
 4468SOL    HW214304   1.633   2.629   1.486
 4469SOL     OW14305   2.968   6.097   1.238
 4469SOL    HW114306   2.989   6.002   1.217
 4469SOL    HW214307   3.010   6.156   1.169
 4470SOL     OW14308   1.738   6.795   2.708
 4470SOL    HW114309   1.732   6.740   2.792
 4470SOL    HW214310   1.649   6.799   2.665
 4471SOL     OW14311   1.104   1.229   6.233
 4471SOL    HW114312   1.111   1.169   6.313
 4471SOL    HW214313   1.026   1.201   6.178
 4472SOL     OW14314   1.597   2.704   1.077
 4472SOL    HW114315   1.522   2.726   1.140
 4472SOL    HW214316   1.596   2.606   1.057
 4473SOL     OW14317   0.587   3.009   4.425
 4473SOL    HW114318   0.653   3.055   4.366
 4473SOL    HW214319   0.635   2.950   4.489
 4474SOL     OW14320   3.173   5.967   0.604
 4474SOL    HW114321   3.214   5.922   0.524
 4474SOL    HW214322   3.128   5.899   0.661
 4475SOL     OW14323   1.219   4.138   1.154
 4475SOL    HW114324   1.132   4.162   1.197
 4475SOL    HW214325   1.294   4.162   1.216
 4476SOL     OW14326   4.901   1.258   3.968
 4476SOL    HW114327   4.968   1.263   3.894
 4476SOL    HW214328   4.810   1.240   3.930
 4477SOL     OW14329   1.640   0.741   5.451
 4477SOL    HW114330   1.609   0.697   5.367
 4477SOL    HW214331   1.617   0.839   5.447
 4478SOL     OW14332   1.800   0.478   0.540
 4478SOL    HW114333   1.836   0.386   0.557
 4478SOL    HW214334   1.863   0.529   0.482
 4479SOL     OW14335   0.905   3.013   0.279
 4479SOL    HW114336   0.807   2.993   0.277
 4479SOL    HW214337   0.921   3.107   0.251
 4480SOL     OW14338   0.903   6.078   4.061
 4480SOL    HW114339   0.893   6.176   4.050
 4480SOL    HW214340   0.837   6.044   4.129
 4481SOL     OW14341   2.121   3.827   6.258
 4481SOL    HW114342   2.172   3.776   6.189
 4481SOL    HW214343   2.128   3.925   6.238
 4482SOL     OW14344   2.742   6.092   6.995
 4482SOL    HW114345   2.772   6.065   0.067
 4482SOL    HW214346   2.649   6.126   6.999
 4483SOL     OW14347   1.434   3.129   0.768
 4483SOL    HW114348   1.463   3.176   0.684
 4483SOL    HW214349   1.493   3.050   0.784
 4484SOL     OW14350   2.428   1.961   0.215
 4484SOL    HW114351   2.495   2.026   0.250
 4484SOL    HW214352   2.421   1.971   0.115
 4485SOL     OW14353   5.822   2.382   5.193
 4485SOL    HW114354   5.813   2.340   5.103
 4485SOL    HW214355   5.904   2.440   5.196
 4486SOL     OW14356   4.436   5.357   5.358
 4486SOL    HW114357   4.496   5.281   5.382
 4486SOL    HW214358   4.352   5.353   5.411
 4487SOL     OW14359   0.658   2.815   0.079
 4487SOL    HW114360   0.749   2.796   0.115
 4487SOL    HW214361   0.626   2.737   0.026
 4488SOL     OW14362   0.123   4.184   4.319
 4488SOL    HW114363   0.199   4.246   4.340
 4488SOL    HW214364   0.106   4.124   4.398
 4489SOL     OW14365   4.570   5.855   5.564
 4489SOL    HW114366   4.530   5.765   5.545
 4489SOL    HW214367   4.607   5.893   5.480
 4490SOL     OW14368   5.131   1.534   1.103
 4490SOL    HW114369   5.039   1.495   1.096
 4490SOL    HW214370   5.124   1.633   1.118
 4491SOL     OW14371   1.088   3.075   3.707
 4491SOL    HW114372   1.170   3.068   3.650
 4491SOL    HW214373   1.076   3.169   3.737
 4492SOL     OW14374   6.459   0.400   2.070
 4492SOL    HW114375   6.397   0.324   2.057
 4492SOL    HW214376   6.552   0.372   2.047
 4493SOL     OW14377   4.919   1.824   4.648
 4493SOL    HW114378   4.830   1.856   4.617
 4493SOL    HW214379   4.989   1.893   4.625
 4494SOL     OW14380   1.300   0.378   0.769
 4494SOL    HW114381   1.387   0.376   0.719
 4494SOL    HW214382   1.280   0.472   0.797
 4495SOL     OW14383   4.989   5.592   1.524
 4495SOL    HW114384   5.060   5.521   1.525
 4495SOL    HW214385   4.967   5.619   1.618
 4496SOL     OW14386   3.675   6.024   6.269
 4496SOL    HW114387   3.612   5.992   6.339
 4496SOL    HW214388   3.699   5.948   6.208
 4497SOL     OW14389   4.498   1.206   6.468
 4497SOL    HW114390   4.472   1.302   6.475
 4497SOL    HW214391   4.556   1.193   6.388
 4498SOL     OW14392   0.799   5.409   5.594
 4498SOL    HW114393   0.820   5.408   5.692
 4498SOL    HW214394   0.732   5.337   5.574
 4499SOL     OW14395   6.016   2.126   2.732
 4499SOL    HW114396   6.000   2.182   2.650
 4499SOL    HW214397   6.107   2.146   2.769
 4500SOL     OW14398   3.935   5.675   6.654
 4500SOL    HW114399   3.926   5.693   6.752
 4500SOL    HW214400   3.970   5.582   6.640
 4501SOL     OW14401   5.976   0.706   2.856
 4501SOL    HW114402   6.027   0.623   2.878
 4501SOL    HW214403   5.947   0.702   2.760
 4502SOL     OW14404   0.255   3.776   6.397
 4502SOL    HW114405   0.209   3.864   6.409
 4502SOL    HW214406   0.201   3.718   6.335
 4503SOL     OW14407   2.761   0.809   3.092
 4503SOL    HW114408   2.754   0.900   3.133
 4503SOL    HW214409   2.840   0.806   3.031
 4504SOL     OW14410   0.021   1.607   2.684
 4504SOL    HW114411   6.972   1.548   2.641
 4504SOL    HW214412   0.010   1.603   2.783
 4505SOL     OW14413   6.012   4.659   4.614
 4505SOL    HW114414   5.947   4.701   4.550
 4505SOL    HW214415   6.075   4.728   4.649
 4506SOL     OW14416   4.874   2.645   5.138
 4506SOL    HW114417   4.907   2.551   5.132
 4506SOL    HW214418   4.911   2.689   5.220
 4507SOL     OW14419   6.496   2.825   3.141
 4507SOL    HW114420   6.465   2.791   3.230
 4507SOL    HW214421   6.586   2.788   3.120
 4508SOL     OW14422   0.638   5.419   0.824
 4508SOL    HW114423   0.539   5.431   0.817
 4508SOL    HW214424   0.661   5.323   0.809
 4509SOL     OW14425   4.754   2.746   1.979
 4509SOL    HW114426   4.748   2.845   1.975
 4509SOL    HW214427   4.745   2.716   2.074
 4510SOL     OW14428   4.262   1.234   3.863
 4510SOL    HW114429   4.325   1.280   3.801
 4510SOL    HW214430   4.252   1.288   3.947
 4511SOL     OW14431   0.453   4.250   0.798
 4511SOL    HW114432   0.426   4.243   0.895
 4511SOL    HW214433   0.519   4.324   0.787
 4512SOL     OW14434   3.356   3.337   5.325
 4512SOL    HW114435   3.259   3.356   5.340
 4512SOL    HW214436   3.365   3.262   5.260
 4513SOL     OW14437   1.122   6.522   0.588
 4513SOL    HW114438   1.219   6.520   0.613
 4513SOL    HW214439   1.073   6.449   0.636
 4514SOL     OW14440   3.321   4.572   6.312
 4514SOL    HW114441   3.288   4.485   6.276
 4514SOL    HW214442   3.335   4.565   6.411
 4515SOL     OW14443   4.639   0.805   6.565
 4515SOL    HW114444   4.737   0.825   6.568
 4515SOL    HW214445   4.625   0.706   6.574
 4516SOL     OW14446   3.424   1.347   5.047
 4516SOL    HW114447   3.438   1.375   5.142
 4516SOL    HW214448   3.433   1.427   4.988
 4517SOL     OW14449   3.887   1.078   5.290
 4517SOL    HW114450   3.938   0.993   5.275
 4517SOL    HW214451   3.879   1.128   5.203
 4518SOL     OW14452   1.250   6.674   0.911
 4518SOL    HW114453   1.243   6.724   0.825
 4518SOL    HW214454   1.182   6.709   0.976
 4519SOL     OW14455   4.567   6.758   6.695
 4519SOL    HW114456   4.606   6.849   6.705
 4519SOL    HW214457   4.472   6.765   6.663
 4520SOL     OW14458   3.996   5.428   5.231
 4520SOL    HW114459   3.899   5.432   5.252
 4520SOL    HW214460   4.015   5.349   5.172
 4521SOL     OW14461   4.151   2.240   4.162
 4521SOL    HW114462   4.088   2.210   4.091
 4521SOL    HW214463   4.229   2.287   4.121
 4522SOL     OW14464   5.459   4.320   3.279
 4522SOL    HW114465   5.408   4.299   3.362
 4522SOL    HW214466   5.514   4.402   3.294
 4523SOL     OW14467   0.320   3.508   5.762
 4523SOL    HW114468   0.225   3.541   5.768
 4523SOL    HW214469   0.325   3.414   5.794
 4524SOL     OW14470   1.277   3.892   2.951
 4524SOL    HW114471   1.260   3.943   2.867
 4524SOL    HW214472   1.331   3.948   3.014
 4525SOL     OW14473   3.394   2.206   5.249
 4525SOL    HW114474   3.368   2.115   5.216
 4525SOL    HW214475   3.326   2.273   5.218
 4526SOL     OW14476   0.679   6.973   5.708
 4526SOL    HW114477   0.660   7.015   5.620
 4526SOL    HW214478   0.610   6.903   5.727
 4527SOL     OW14479   6.514   0.904   2.971
 4527SOL    HW114480   6.610   0.933   2.970
 4527SOL    HW214481   6.494   0.859   3.058
 4528SOL     OW14482   4.603   1.377   5.476
 4528SOL    HW114483   4.663   1.364   5.397
 4528SOL    HW214484   4.515   1.414   5.445
 4529SOL     OW14485   2.022   0.662   3.980
 4529SOL    HW114486   2.078   0.743   3.996
 4529SOL    HW214487   1.931   0.689   3.950
 4530SOL     OW14488   3.578   5.436   6.325
 4530SOL    HW114489   3.650   5.417   6.392
 4530SOL    HW214490   3.558   5.352   6.273
 4531SOL     OW14491   0.970   5.587   5.496
 4531SOL    HW114492   0.942   5.669   5.547
 4531SOL    HW214493   0.906   5.513   5.513
 4532SOL     OW14494   5.916   0.593   2.596
 4532SOL    HW114495   5.934   0.499   2.568
 4532SOL    HW214496   5.984   0.654   2.556
 4533SOL     OW14497   2.785   0.385   1.315
 4533SOL    HW114498   2.722   0.318   1.355
 4533SOL    HW214499   2.785   0.468   1.371
 4534SOL     OW14500   4.500   0.806   3.808
 4534SOL    HW114501   4.428   0.857   3.763
 4534SOL    HW214502   4.487   0.708   3.792
 4535SOL     OW14503   2.279   0.833   1.057
 4535SOL    HW114504   2.234   0.863   0.973
 4535SOL    HW214505   2.328   0.748   1.040
 4536SOL     OW14506   2.805   0.424   5.678
 4536SOL    HW114507   2.731   0.489   5.663
 4536SOL    HW214508   2.890   0.474   5.696
 4537SOL     OW14509   2.969   3.585   3.582
 4537SOL    HW114510   2.953   3.517   3.654
 4537SOL    HW214511   2.935   3.549   3.495
 4538SOL     OW14512   0.474   1.986   0.606
 4538SOL    HW114513   0.517   2.005   0.695
 4538SOL    HW214514   0.452   1.888   0.600
 4539SOL     OW14515   1.316   6.316   5.446
 4539SOL    HW114516   1.239   6.328   5.384
 4539SOL    HW214517   1.384   6.387   5.428
 4540SOL     OW14518   0.947   0.703   0.126
 4540SOL    HW114519   0.865   0.645   0.119
 4540SOL    HW214520   0.965   0.724   0.222
 4541SOL     OW14521   4.656   2.783   5.688
 4541SOL    HW114522   4.682   2.819   5.599
 4541SOL    HW214523   4.580   2.719   5.678
 4542SOL     OW14524   0.035   1.941   0.169
 4542SOL    HW114525   0.058   1.850   0.203
 4542SOL    HW214526   0.104   2.007   0.200
 4543SOL     OW14527   4.010   2.602   0.112
 4543SOL    HW114528   3.981   2.672   0.177
 4543SOL    HW214529   4.040   2.521   0.162
 4544SOL     OW14530   5.473   6.132   0.566
 4544SOL    HW114531   5.545   6.197   0.591
 4544SOL    HW214532   5.476   6.116   0.467
 4545SOL     OW14533   2.209   2.906   4.884
 4545SOL    HW114534   2.125   2.919   4.938
 4545SOL    HW214535   2.289   2.919   4.943
 4546SOL     OW14536   2.705   0.852   5.672
 4546SOL    HW114537   2.660   0.763   5.677
 4546SOL    HW214538   2.716   0.879   5.577
 4547SOL     OW14539   6.916   0.207   0.227
 4547SOL    HW114540   6.921   0.240   0.321
 4547SOL    HW214541   6.824   0.224   0.191
 4548SOL     OW14542   2.419   1.534   3.080
 4548SOL    HW114543   2.335   1.492   3.116
 4548SOL    HW214544   2.411   1.545   2.981
 4549SOL     OW14545   6.644   3.794   4.582
 4549SOL    HW114546   6.743   3.810   4.584
 4549SOL    HW214547   6.599   3.857   4.645
 4550SOL     OW14548   1.679   4.857   3.142
 4550SOL    HW114549   1.630   4.798   3.207
 4550SOL    HW214550   1.629   4.943   3.131
 4551SOL     OW14551   1.299   2.642   5.269
 4551SOL    HW114552   1.208   2.608   5.245
 4551SOL    HW214553   1.368   2.589   5.221
 4552SOL     OW14554   5.403   1.687   0.560
 4552SOL    HW114555   5.456   1.603   0.570
 4552SOL    HW214556   5.310   1.665   0.529
 4553SOL     OW14557   6.545   5.211   6.612
 4553SOL    HW114558   6.575   5.178   6.702
 4553SOL    HW214559   6.621   5.258   6.568
 4554SOL     OW14560   6.210   6.547   3.178
 4554SOL    HW114561   6.297   6.530   3.224
 4554SOL    HW214562   6.174   6.636   3.207
 4555SOL     OW14563   2.016   0.604   0.425
 4555SOL    HW114564   2.026   0.571   0.331
 4555SOL    HW214565   2.035   0.703   0.427
 4556SOL     OW14566   5.894   4.472   5.114
 4556SOL    HW114567   5.857   4.518   5.194
 4556SOL    HW214568   5.942   4.539   5.057
 4557SOL     OW14569   6.876   4.625   3.520
 4557SOL    HW114570   6.860   4.724   3.516
 4557SOL    HW214571   6.817   4.579   3.453
 4558SOL     OW14572   1.096   3.613   4.768
 4558SOL    HW114573   1.124   3.709   4.761
 4558SOL    HW214574   1.029   3.593   4.697
 4559SOL     OW14575   6.716   2.786   3.345
 4559SOL    HW114576   6.714   2.756   3.441
 4559SOL    HW214577   6.743   2.882   3.341
 4560SOL     OW14578   6.276   4.254   2.726
 4560SOL    HW114579   6.326   4.341   2.730
 4560SOL    HW214580   6.180   4.270   2.746
 4561SOL     OW14581   3.796   2.156   4.140
 4561SOL    HW114582   3.815   2.076   4.197
 4561SOL    HW214583   3.748   2.225   4.195
 4562SOL     OW14584   3.484   1.114   1.297
 4562SOL    HW114585   3.526   1.048   1.235
 4562SOL    HW214586   3.394   1.141   1.261
 4563SOL     OW14587   0.760   4.472   2.156
 4563SOL    HW114588   0.782   4.377   2.131
 4563SOL    HW214589   0.727   4.520   2.075
 4564SOL     OW14590   1.545   3.730   2.140
 4564SOL    HW114591   1.597   3.816   2.143
 4564SOL    HW214592   1.450   3.750   2.117
 4565SOL     OW14593   2.056   5.774   6.031
 4565SOL    HW114594   1.981   5.799   6.092
 4565SOL    HW214595   2.126   5.845   6.033
 4566SOL     OW14596   5.990   4.901   2.909
 4566SOL    HW114597   6.081   4.899   2.867
 4566SOL    HW214598   5.926   4.950   2.849
 4567SOL     OW14599   7.005   0.279   6.701
 4567SOL    HW114600   6.967   0.250   6.789
 4567SOL    HW214601   0.063   0.341   6.716
 4568SOL     OW14602   1.509   5.218   3.140
 4568SOL    HW114603   1.595   5.188   3.182
 4568SOL    HW214604   1.513   5.201   3.042
 4569SOL     OW14605   2.160   0.952   3.223
 4569SOL    HW114606   2.151   1.044   3.261
 4569SOL    HW214607   2.077   0.928   3.172
 4570SOL     OW14608   5.590   6.521   1.989
 4570SOL    HW114609   5.498   6.541   2.023
 4570SOL    HW214610   5.629   6.603   1.948
 4571SOL     OW14611   3.296   3.331   6.797
 4571SOL    HW114612   3.323   3.256   6.735
 4571SOL    HW214613   3.240   3.397   6.747
 4572SOL     OW14614   3.047   3.512   1.878
 4572SOL    HW114615   2.998   3.470   1.801
 4572SOL    HW214616   3.125   3.455   1.903
 4573SOL     OW14617   2.967   5.460   1.644
 4573SOL    HW114618   2.874   5.495   1.656
 4573SOL    HW214619   2.967   5.388   1.574
 4574SOL     OW14620   5.246   1.188   1.295
 4574SOL    HW114621   5.262   1.284   1.320
 4574SOL    HW214622   5.147   1.172   1.288
 4575SOL     OW14623   0.403   6.961   5.540
 4575SOL    HW114624   0.323   6.993   5.489
 4575SOL    HW214625   0.463   0.019   5.559
 4576SOL     OW14626   2.738   4.941   5.269
 4576SOL    HW114627   2.777   4.941   5.178
 4576SOL    HW214628   2.729   4.846   5.302
 4577SOL     OW14629   0.851   1.933   2.286
 4577SOL    HW114630   0.818   1.847   2.325
 4577SOL    HW214631   0.779   1.975   2.231
 4578SOL     OW14632   1.881   1.579   2.346
 4578SOL    HW114633   1.968   1.598   2.392
 4578SOL    HW214634   1.884   1.616   2.253
 4579SOL     OW14635   4.743   0.814   3.090
 4579SOL    HW114636   4.662   0.872   3.093
 4579SOL    HW214637   4.821   0.867   3.057
 4580SOL     OW14638   0.198   2.300   0.755
 4580SOL    HW114639   0.181   2.297   0.853
 4580SOL    HW214640   0.126   2.353   0.710
 4581SOL     OW14641   3.266   0.862   0.921
 4581SOL    HW114642   3.302   0.822   1.005
 4581SOL    HW214643   3.204   0.796   0.877
 4582SOL     OW14644   5.846   1.379   3.690
 4582SOL    HW114645   5.846   1.400   3.592
 4582SOL    HW214646   5.765   1.324   3.712
 4583SOL     OW14647   1.180   0.268   0.027
 4583SOL    HW114648   1.207   0.364   0.023
 4583SOL    HW214649   1.244   0.218   0.085
 4584SOL     OW14650   1.204   0.683   4.413
 4584SOL    HW114651   1.143   0.609   4.442
 4584SOL    HW214652   1.215   0.681   4.314
 4585SOL     OW14653   2.125   3.619   3.555
 4585SOL    HW114654   2.119   3.650   3.650
 4585SOL    HW214655   2.138   3.520   3.554
 4586SOL     OW14656   5.624   4.772   6.532
 4586SOL    HW114657   5.572   4.760   6.447
 4586SOL    HW214658   5.706   4.714   6.529
 4587SOL     OW14659   3.076   3.131   4.910
 4587SOL    HW114660   3.149   3.158   4.974
 4587SOL    HW214661   2.997   3.099   4.961
 4588SOL     OW14662   3.034   3.563   6.107
 4588SOL    HW114663   3.125   3.528   6.085
 4588SOL    HW214664   3.028   3.579   6.206
 4589SOL     OW14665   6.476   6.756   2.405
 4589SOL    HW114666   6.482   6.670   2.456
 4589SOL    HW214667   6.541   6.822   2.442
 4590SOL     OW14668   3.294   5.796   1.018
 4590SOL    HW114669   3.220   5.739   1.054
 4590SOL    HW214670   3.259   5.888   1.000
 4591SOL     OW14671   1.855   0.630   5.548
 4591SOL    HW114672   1.850   0.618   5.647
 4591SOL    HW214673   1.765   0.655   5.513
 4592SOL     OW14674   1.619   1.675   3.623
 4592SOL    HW114675   1.557   1.692   3.700
 4592SOL    HW214676   1.687   1.607   3.649
 4593SOL     OW14677   1.482   5.858   4.465
 4593SOL    HW114678   1.450   5.952   4.458
 4593SOL    HW214679   1.477   5.828   4.560
 4594SOL     OW14680   1.802   0.365   3.374
 4594SOL    HW114681   1.757   0.292   3.324
 4594SOL    HW214682   1.819   0.336   3.468
 4595SOL     OW14683   5.405   2.140   6.378
 4595SOL    HW114684   5.416   2.180   6.288
 4595SOL    HW214685   5.464   2.187   6.444
 4596SOL     OW14686   6.576   0.912   2.211
 4596SOL    HW114687   6.640   0.989   2.212
 4596SOL    HW214688   6.617   0.835   2.260
 4597SOL     OW14689   3.285   6.264   0.000
 4597SOL    HW114690   3.237   6.322   6.954
 4597SOL    HW214691   3.352   6.319   0.051
 4598SOL     OW14692   1.796   4.587   0.208
 4598SOL    HW114693   1.771   4.678   0.174
 4598SOL    HW214694   1.778   4.520   0.136
 4599SOL     OW14695   2.232   5.799   2.206
 4599SOL    HW114696   2.158   5.845   2.255
 4599SOL    HW214697   2.196   5.752   2.126
 4600SOL     OW14698   0.274   6.216   5.858
 4600SOL    HW114699   0.331   6.235   5.937
 4600SOL    HW214700   0.183   6.187   5.889
 4601SOL     OW14701   1.785   0.949   5.134
 4601SOL    HW114702   1.782   1.016   5.060
 4601SOL    HW214703   1.780   0.996   5.222
 4602SOL     OW14704   3.099   2.370   6.678
 4602SOL    HW114705   3.051   2.451   6.714
 4602SOL    HW214706   3.148   2.395   6.595
 4603SOL     OW14707   4.835   6.744   0.686
 4603SOL    HW114708   4.870   6.836   0.702
 4603SOL    HW214709   4.741   6.737   0.721
 4604SOL     OW14710   6.201   6.601   5.642
 4604SOL    HW114711   6.224   6.671   5.709
 4604SOL    HW214712   6.175   6.644   5.555
 4605SOL     OW14713   3.659   0.543   1.868
 4605SOL    HW114714   3.576   0.532   1.814
 4605SOL    HW214715   3.671   0.639   1.892
 4606SOL     OW14716   6.831   6.506   4.852
 4606SOL    HW114717   6.808   6.544   4.763
 4606SOL    HW214718   6.821   6.577   4.922
 4607SOL     OW14719   2.216   2.434   1.271
 4607SOL    HW114720   2.262   2.432   1.183
 4607SOL    HW214721   2.248   2.357   1.327
 4608SOL     OW14722   6.903   2.940   4.528
 4608SOL    HW114723   6.970   3.002   4.486
 4608SOL    HW214724   6.841   2.906   4.457
 4609SOL     OW14725   4.351   5.954   6.352
 4609SOL    HW114726   4.263   5.955   6.305
 4609SOL    HW214727   4.413   6.021   6.309
 4610SOL     OW14728   5.594   3.713   6.599
 4610SOL    HW114729   5.691   3.734   6.611
 4610SOL    HW214730   5.576   3.620   6.629
 4611SOL     OW14731   1.116   0.949   6.580
 4611SOL    HW114732   1.175   1.002   6.519
 4611SOL    HW214733   1.171   0.885   6.633
 4612SOL     OW14734   1.869   1.263   1.684
 4612SOL    HW114735   1.959   1.272   1.729
 4612SOL    HW214736   1.865   1.176   1.636
 4613SOL     OW14737   1.680   4.671   1.513
 4613SOL    HW114738   1.593   4.683   1.464
 4613SOL    HW214739   1.730   4.594   1.474
 4614SOL     OW14740   6.712   4.193   4.714
 4614SOL    HW114741   6.783   4.236   4.658
 4614SOL    HW214742   6.636   4.165   4.655
 4615SOL     OW14743   1.274   3.255   6.912
 4615SOL    HW114744   1.285   3.230   7.008
 4615SOL    HW214745   1.283   3.354   6.903
 4616SOL     OW14746   6.544   2.667   6.264
 4616SOL    HW114747   6.530   2.573   6.295
 4616SOL    HW214748   6.587   2.720   6.337
 4617SOL     OW14749   0.243   2.959   3.532
 4617SOL    HW114750   0.260   2.897   3.609
 4617SOL    HW214751   0.148   2.988   3.533
 4618SOL     OW14752   1.958   4.255   5.996
 4618SOL    HW114753   1.861   4.277   5.989
 4618SOL    HW214754   2.003   4.270   5.908
 4619SOL     OW14755   4.834   6.056   6.101
 4619SOL    HW114756   4.776   6.105   6.166
 4619SOL    HW214757   4.864   5.969   6.142
 4620SOL     OW14758   0.473   4.744   2.311
 4620SOL    HW114759   0.535   4.693   2.372
 4620SOL    HW214760   0.527   4.793   2.243
 4621SOL     OW14761   3.829   6.965   2.671
 4621SOL    HW114762   3.793   7.016   2.750
 4621SOL    HW214763   3.855   0.010   2.599
 4622SOL     OW14764   5.454   6.123   1.762
 4622SOL    HW114765   5.491   6.056   1.698
 4622SOL    HW214766   5.518   6.200   1.770
 4623SOL     OW14767   2.718   4.907   1.082
 4623SOL    HW114768   2.704   4.810   1.103
 4623SOL    HW214769   2.662   4.933   1.004
 4624SOL     OW14770   4.343   1.279   2.007
 4624SOL    HW114771   4.369   1.268   1.911
 4624SOL    HW214772   4.319   1.374   2.024
 4625SOL     OW14773   1.789   6.169   1.960
 4625SOL    HW114774   1.780   6.268   1.955
 4625SOL    HW214775   1.837   6.135   1.878
 4626SOL     OW14776   4.605   3.806   1.713
 4626SOL    HW114777   4.541   3.883   1.709
 4626SOL    HW214778   4.695   3.836   1.682
 4627SOL     OW14779   5.558   6.939   4.970
 4627SOL    HW114780   5.608   6.858   4.941
 4627SOL    HW214781   5.572   7.013   4.904
 4628SOL     OW14782   5.579   5.339   4.318
 4628SOL    HW114783   5.606   5.376   4.407
 4628SOL    HW214784   5.581   5.412   4.250
 4629SOL     OW14785   2.547   6.407   6.720
 4629SOL    HW114786   2.524   6.331   6.660
 4629SOL    HW214787   2.523   6.384   6.815
 4630SOL     OW14788   2.147   3.164   2.176
 4630SOL    HW114789   2.103   3.201   2.094
 4630SOL    HW214790   2.208   3.234   2.215
 4631SOL     OW14791   6.774   0.552   3.019
 4631SOL    HW114792   6.744   0.545   3.114
 4631SOL    HW214793   6.787   0.461   2.981
 4632SOL     OW14794   3.241   4.855   2.630
 4632SOL    HW114795   3.274   4.905   2.550
 4632SOL    HW214796   3.318   4.828   2.687
 4633SOL     OW14797   5.077   1.430   4.504
 4633SOL    HW114798   5.082   1.425   4.405
 4633SOL    HW214799   5.163   1.398   4.544
 4634SOL     OW14800   3.007   3.955   4.815
 4634SOL    HW114801   3.047   3.973   4.905
 4634SOL    HW214802   3.003   4.041   4.763
 4635SOL     OW14803   4.775   6.694   1.960
 4635SOL    HW114804   4.855   6.715   1.903
 4635SOL    HW214805   4.697   6.673   1.902
 4636SOL     OW14806   1.804   5.596   0.545
 4636SOL    HW114807   1.754   5.662   0.601
 4636SOL    HW214808   1.862   5.644   0.480
 4637SOL     OW14809   2.839   1.355   3.417
 4637SOL    HW114810   2.894   1.409   3.353
 4637SOL    HW214811   2.861   1.258   3.406
 4638SOL     OW14812   3.569   4.969   0.559
 4638SOL    HW114813   3.649   5.025   0.538
 4638SOL    HW214814   3.570   4.886   0.502
 4639SOL     OW14815   3.658   2.185   1.285
 4639SOL    HW114816   3.647   2.115   1.356
 4639SOL    HW214817   3.576   2.242   1.282
 4640SOL     OW14818   6.361   2.523   6.864
 4640SOL    HW114819   6.377   2.530   6.765
 4640SOL    HW214820   6.395   2.606   6.909
 4641SOL     OW14821   1.106   6.016   4.235
 4641SOL    HW114822   1.139   5.922   4.230
 4641SOL    HW214823   1.037   6.031   4.164
 4642SOL     OW14824   0.157   1.449   3.636
 4642SOL    HW114825   0.214   1.451   3.718
 4642SOL    HW214826   0.215   1.452   3.554
 4643SOL     OW14827   0.453   1.681   0.612
 4643SOL    HW114828   0.375   1.684   0.550
 4643SOL    HW214829   0.504   1.596   0.597
 4644SOL     OW14830   1.278   0.779   0.220
 4644SOL    HW114831   1.274   0.778   0.320
 4644SOL    HW214832   1.262   0.872   0.187
 4645SOL     OW14833   1.024   1.923   3.894
 4645SOL    HW114834   0.972   2.007   3.877
 4645SOL    HW214835   1.121   1.946   3.907
 4646SOL     OW14836   2.001   5.068   3.572
 4646SOL    HW114837   1.974   5.002   3.641
 4646SOL    HW214838   2.100   5.084   3.577
 4647SOL     OW14839   1.194   6.417   2.164
 4647SOL    HW114840   1.130   6.492   2.151
 4647SOL    HW214841   1.190   6.385   2.259
 4648SOL     OW14842   2.902   1.786   4.751
 4648SOL    HW114843   2.948   1.826   4.672
 4648SOL    HW214844   2.840   1.713   4.719
 4649SOL     OW14845   6.521   1.055   0.044
 4649SOL    HW114846   6.538   1.096   6.974
 4649SOL    HW214847   6.578   0.973   0.054
 4650SOL     OW14848   5.312   5.815   1.755
 4650SOL    HW114849   5.402   5.857   1.740
 4650SOL    HW214850   5.312   5.721   1.720
 4651SOL     OW14851   6.878   3.387   6.428
 4651SOL    HW114852   6.803   3.347   6.480
 4651SOL    HW214853   6.881   3.486   6.443
 4652SOL     OW14854   0.315   6.590   5.294
 4652SOL    HW114855   0.233   6.637   5.262
 4652SOL    HW214856   0.392   6.653   5.293
 4653SOL     OW14857   5.575   5.319   0.850
 4653SOL    HW114858   5.499   5.297   0.788
 4653SOL    HW214859   5.574   5.255   0.927
 4654SOL     OW14860   0.878   0.218   5.613
 4654SOL    HW114861   0.820   0.280   5.560
 4654SOL    HW214862   0.860   0.231   5.711
 4655SOL     OW14863   4.903   2.769   1.616
 4655SOL    HW114864   4.929   2.689   1.671
 4655SOL    HW214865   4.804   2.769   1.602
 4656SOL     OW14866   0.677   0.858   1.554
 4656SOL    HW114867   0.703   0.788   1.620
 4656SOL    HW214868   0.755   0.918   1.536
 4657SOL     OW14869   4.875   0.552   2.282
 4657SOL    HW114870   4.789   0.513   2.248
 4657SOL    HW214871   4.872   0.557   2.382
 4658SOL     OW14872   1.592   3.145   5.881
 4658SOL    HW114873   1.633   3.058   5.856
 4658SOL    HW214874   1.620   3.170   5.973
 4659SOL     OW14875   2.184   4.655   0.229
 4659SOL    HW114876   2.147   4.658   0.137
 4659SOL    HW214877   2.173   4.562   0.266
 4660SOL     OW14878   1.112   6.415   4.091
 4660SOL    HW114879   1.159   6.426   4.178
 4660SOL    HW214880   1.178   6.421   4.016
 4661SOL     OW14881   1.029   2.493   5.612
 4661SOL    HW114882   0.929   2.486   5.610
 4661SOL    HW214883   1.056   2.586   5.637
 4662SOL     OW14884   2.345   6.767   5.712
 4662SOL    HW114885   2.285   6.696   5.675
 4662SOL    HW214886   2.319   6.855   5.673
 4663SOL     OW14887   1.555   0.303   0.092
 4663SOL    HW114888   1.472   0.250   0.106
 4663SOL    HW214889   1.569   0.317   7.013
 4664SOL     OW14890   6.927   6.703   6.771
 4664SOL    HW114891   6.964   6.705   6.864
 4664SOL    HW214892   6.835   6.742   6.770
 4665SOL     OW14893   2.047   0.263   4.591
 4665SOL    HW114894   2.119   0.330   4.606
 4665SOL    HW214895   1.972   0.305   4.541
 4666SOL     OW14896   2.657   1.823   4.856
 4666SOL    HW114897   2.730   1.859   4.799
 4666SOL    HW214898   2.569   1.837   4.811
 4667SOL     OW14899   6.523   3.811   1.134
 4667SOL    HW114900   6.509   3.909   1.118
 4667SOL    HW214901   6.609   3.797   1.182
 4668SOL     OW14902   4.345   2.327   3.799
 4668SOL    HW114903   4.266   2.344   3.741
 4668SOL    HW214904   4.314   2.301   3.891
 4669SOL     OW14905   5.537   0.026   6.810
 4669SOL    HW114906   5.563   0.069   6.724
 4669SOL    HW214907   5.528   0.095   6.881
 4670SOL     OW14908   0.300   2.567   0.632
 4670SOL    HW114909   0.394   2.598   0.620
 4670SOL    HW214910   0.278   2.563   0.729
 4671SOL     OW14911   0.804   3.447   0.648
 4671SOL    HW114912   0.750   3.505   0.587
 4671SOL    HW214913   0.850   3.376   0.595
 4672SOL     OW14914   2.272   3.901   6.621
 4672SOL    HW114915   2.307   3.838   6.690
 4672SOL    HW214916   2.265   3.854   6.533
 4673SOL     OW14917   5.790   0.916   0.006
 4673SOL    HW114918   5.704   0.918   0.057
 4673SOL    HW214919   5.863   0.885   0.066
 4674SOL     OW14920   1.049   2.306   1.296
 4674SOL    HW114921   1.085   2.320   1.204
 4674SOL    HW214922   0.990   2.383   1.321
 4675SOL     OW14923   2.388   6.116   0.259
 4675SOL    HW114924   2.327   6.053   0.212
 4675SOL    HW214925   2.482   6.085   0.251
 4676SOL     OW14926   0.397   6.216   4.166
 4676SOL    HW114927   0.380   6.140   4.103
 4676SOL    HW214928   0.490   6.250   4.152
 4677SOL     OW14929   4.305   0.213   6.674
 4677SOL    HW114930   4.349   0.240   6.588
 4677SOL    HW214931   4.375   0.180   6.738
 4678SOL     OW14932   2.199   4.477   6.308
 4678SOL    HW114933   2.129   4.434   6.365
 4678SOL    HW214934   2.162   4.561   6.269
 4679SOL     OW14935   2.559   0.574   5.497
 4679SOL    HW114936   2.580   0.612   5.407
 4679SOL    HW214937   2.514   0.485   5.486
 4680SOL     OW14938   1.961   4.860   0.567
 4680SOL    HW114939   2.013   4.776   0.581
 4680SOL    HW214940   1.881   4.860   0.626
 4681SOL     OW14941   0.416   5.361   5.049
 4681SOL    HW114942   0.347   5.329   5.113
 4681SOL    HW214943   0.452   5.449   5.078
 4682SOL     OW14944   4.591   6.480   0.671
 4682SOL    HW114945   4.654   6.448   0.601
 4682SOL    HW214946   4.547   6.565   0.642
 4683SOL     OW14947   6.882   4.212   3.720
 4683SOL    HW114948   6.790   4.225   3.682
 4683SOL    HW214949   6.945   4.278   3.678
 4684SOL     OW14950   1.346   1.022   4.128
 4684SOL    HW114951   1.409   1.078   4.182
 4684SOL    HW214952   1.252   1.050   4.146
 4685SOL     OW14953   5.177   4.827   4.865
 4685SOL    HW114954   5.170   4.912   4.918
 4685SOL    HW214955   5.187   4.750   4.928
 4686SOL     OW14956   4.414   5.569   0.318
 4686SOL    HW114957   4.410   5.650   0.258
 4686SOL    HW214958   4.485   5.507   0.286
 4687SOL     OW14959   5.609   6.245   4.702
 4687SOL    HW114960   5.597   6.339   4.732
 4687SOL    HW214961   5.532   6.218   4.644
 4688SOL     OW14962   0.363   2.033   6.358
 4688SOL    HW114963   0.421   1.952   6.370
 4688SOL    HW214964   0.280   2.007   6.309
 4689SOL     OW14965   1.428   5.422   5.537
 4689SOL    HW114966   1.468   5.490   5.477
 4689SOL    HW214967   1.467   5.430   5.629
 4690SOL     OW14968   1.585   2.523   0.270
 4690SOL    HW114969   1.602   2.509   0.367
 4690SOL    HW214970   1.639   2.458   0.217
 4691SOL     OW14971   3.148   4.952   0.763
 4691SOL    HW114972   3.087   4.990   0.832
 4691SOL    HW214973   3.229   4.915   0.808
 4692SOL     OW14974   0.165   5.402   3.146
 4692SOL    HW114975   0.093   5.447   3.199
 4692SOL    HW214976   0.125   5.334   3.085
 4693SOL     OW14977   0.307   1.434   3.403
 4693SOL    HW114978   0.405   1.437   3.420
 4693SOL    HW214979   0.283   1.346   3.361
 4694SOL     OW14980   1.521   1.759   6.500
 4694SOL    HW114981   1.441   1.770   6.560
 4694SOL    HW214982   1.599   1.807   6.539
 4695SOL     OW14983   3.409   2.994   2.038
 4695SOL    HW114984   3.464   3.038   2.109
 4695SOL    HW214985   3.312   3.014   2.054
 4696SOL     OW14986   0.010   3.510   6.958
 4696SOL    HW114987   6.934   3.483   6.962
 4696SOL    HW214988   0.068   3.432   6.980
 4697SOL     OW14989   1.071   4.609   0.066
 4697SOL    HW114990   1.165   4.627   0.096
 4697SOL    HW214991   1.028   4.544   0.129
 4698SOL     OW14992   5.626   2.794   1.062
 4698SOL    HW114993   5.725   2.780   1.053
 4698SOL    HW214994   5.598   2.872   1.006
 4699SOL     OW14995   6.583   0.497   3.700
 4699SOL    HW114996   6.563   0.556   3.623
 4699SOL    HW214997   6.683   0.490   3.711
 4700SOL     OW14998   4.742   0.729   1.657
 4700SOL    HW114999   4.664   0.781   1.622
 4700SOL    HW215000   4.806   0.712   1.583
 4701SOL     OW15001   0.828   0.949   0.796
 4701SOL    HW115002   0.907   1.004   0.822
 4701SOL    HW215003   0.843   0.853   0.822
 4702SOL     OW15004   3.340   4.327   0.228
 4702SOL    HW115005   3.279   4.248   0.227
 4702SOL    HW215006   3.363   4.352   0.134
 4703SOL     OW15007   1.857   0.865   2.052
 4703SOL    HW115008   1.878   0.949   2.003
 4703SOL    HW215009   1.765   0.870   2.090
 4704SOL     OW15010   5.030   6.711   0.467
 4704SOL    HW115011   4.970   6.722   0.547
 4704SOL    HW215012   5.076   6.623   0.472
 4705SOL     OW15013   3.221   3.415   4.162
 4705SOL    HW115014   3.275   3.353   4.220
 4705SOL    HW215015   3.192   3.494   4.216
 4706SOL     OW15016   4.067   5.532   1.443
 4706SOL    HW115017   4.153   5.584   1.437
 4706SOL    HW215018   4.078   5.457   1.508
 4707SOL     OW15019   3.086   6.213   0.718
 4707SOL    HW115020   3.141   6.132   0.700
 4707SOL    HW215021   2.995   6.202   0.678
 4708SOL     OW15022   2.345   2.301   2.136
 4708SOL    HW115023   2.292   2.385   2.140
 4708SOL    HW215024   2.441   2.321   2.156
 4709SOL     OW15025   4.070   4.281   6.029
 4709SOL    HW115026   3.990   4.237   5.988
 4709SOL    HW215027   4.043   4.327   6.114
 4710SOL     OW15028   5.109   1.914   0.891
 4710SOL    HW115029   5.035   1.855   0.860
 4710SOL    HW215030   5.196   1.883   0.853
 4711SOL     OW15031   2.932   0.697   2.569
 4711SOL    HW115032   2.939   0.672   2.665
 4711SOL    HW215033   2.872   0.633   2.522
 4712SOL     OW15034   1.451   4.873   0.538
 4712SOL    HW115035   1.354   4.898   0.544
 4712SOL    HW215036   1.489   4.903   0.451
 4713SOL     OW15037   2.126   5.725   0.786
 4713SOL    HW115038   2.186   5.709   0.708
 4713SOL    HW215039   2.154   5.808   0.833
 4714SOL     OW15040   3.620   2.466   1.055
 4714SOL    HW115041   3.707   2.419   1.047
 4714SOL    HW215042   3.615   2.514   1.143
 4715SOL     OW15043   6.619   3.710   3.520
 4715SOL    HW115044   6.594   3.626   3.567
 4715SOL    HW215045   6.669   3.770   3.583
 4716SOL     OW15046   3.522   6.172   0.276
 4716SOL    HW115047   3.553   6.083   0.311
 4716SOL    HW215048   3.458   6.213   0.341
 4717SOL     OW15049   1.537   5.779   3.835
 4717SOL    HW115050   1.536   5.712   3.910
 4717SOL    HW215051   1.529   5.730   3.748
 4718SOL     OW15052   5.868   1.220   6.146
 4718SOL    HW115053   5.900   1.144   6.202
 4718SOL    HW215054   5.820   1.286   6.204
 4719SOL     OW15055   4.701   2.829   1.233
 4719SOL    HW115056   4.723   2.875   1.319
 4719SOL    HW215057   4.626   2.877   1.188
 4720SOL     OW15058   2.258   0.910   4.991
 4720SOL    HW115059   2.343   0.959   5.008
 4720SOL    HW215060   2.272   0.812   5.003
 4721SOL     OW15061   1.554   2.370   1.681
 4721SOL    HW115062   1.643   2.333   1.653
 4721SOL    HW215063   1.559   2.470   1.681
 4722SOL     OW15064   1.982   6.676   1.005
 4722SOL    HW115065   1.895   6.725   1.003
 4722SOL    HW215066   1.988   6.622   1.089
 4723SOL     OW15067   2.903   0.015   6.869
 4723SOL    HW115068   2.895   6.980   6.953
 4723SOL    HW215069   2.993   7.019   6.828
 4724SOL     OW15070   4.550   5.089   1.563
 4724SOL    HW115071   4.545   4.993   1.535
 4724SOL    HW215072   4.609   5.139   1.499
 4725SOL     OW15073   5.788   5.738   3.508
 4725SOL    HW115074   5.815   5.834   3.506
 4725SOL    HW215075   5.731   5.717   3.429
 4726SOL     OW15076   0.073   5.563   6.690
 4726SOL    HW115077   0.110   5.627   6.757
 4726SOL    HW215078   0.119   5.575   6.603
 4727SOL     OW15079   0.183   6.563   0.025
 4727SOL    HW115080   0.224   6.586   6.956
 4727SOL    HW215081   0.145   6.471   0.020
 4728SOL     OW15082   0.281   1.382   0.479
 4728SOL    HW115083   0.370   1.427   0.468
 4728SOL    HW215084   0.293   1.283   0.482
 4729SOL     OW15085   3.601   0.312   1.699
 4729SOL    HW115086   3.687   0.335   1.744
 4729SOL    HW215087   3.598   0.355   1.609
 4730SOL     OW15088   1.468   0.289   5.366
 4730SOL    HW115089   1.370   0.300   5.381
 4730SOL    HW215090   1.483   0.231   5.286
 4731SOL     OW15091   5.546   1.660   5.931
 4731SOL    HW115092   5.513   1.566   5.938
 4731SOL    HW215093   5.472   1.718   5.895
 4732SOL     OW15094   0.235   2.099   0.559
 4732SOL    HW115095   0.232   2.188   0.603
 4732SOL    HW215096   0.325   2.057   0.576
 4733SOL     OW15097   6.781   2.921   4.044
 4733SOL    HW115098   6.695   2.888   4.006
 4733SOL    HW215099   6.784   2.901   4.142
 4734SOL     OW15100   4.146   4.606   6.527
 4734SOL    HW115101   4.183   4.690   6.488
 4734SOL    HW215102   4.050   4.597   6.501
 4735SOL     OW15103   0.750   5.451   3.263
 4735SOL    HW115104   0.841   5.445   3.304
 4735SOL    HW215105   0.713   5.542   3.279
 4736SOL     OW15106   1.438   0.819   0.801
 4736SOL    HW115107   1.421   0.915   0.778
 4736SOL    HW215108   1.536   0.801   0.796
 4737SOL     OW15109   2.642   5.599   1.975
 4737SOL    HW115110   2.606   5.688   1.946
 4737SOL    HW215111   2.668   5.603   2.071
 4738SOL     OW15112   0.067   6.419   2.632
 4738SOL    HW115113   0.080   6.516   2.611
 4738SOL    HW215114   7.011   6.383   2.577
 4739SOL     OW15115   5.109   0.563   1.253
 4739SOL    HW115116   5.078   0.632   1.189
 4739SOL    HW215117   5.112   0.474   1.208
 4740SOL     OW15118   0.513   2.365   3.617
 4740SOL    HW115119   0.503   2.460   3.645
 4740SOL    HW215120   0.490   2.357   3.520
 4741SOL     OW15121   3.837   4.046   1.398
 4741SOL    HW115122   3.870   3.958   1.365
 4741SOL    HW215123   3.786   4.092   1.326
 4742SOL     OW15124   3.573   6.988   0.453
 4742SOL    HW115125   3.509   7.002   0.378
 4742SOL    HW215126   3.601   6.892   0.456
 4743SOL     OW15127   2.101   4.911   1.267
 4743SOL    HW115128   2.037   4.986   1.249
 4743SOL    HW215129   2.165   4.938   1.339
 4744SOL     OW15130   2.505   5.680   1.005
 4744SOL    HW115131   2.564   5.707   0.928
 4744SOL    HW215132   2.468   5.589   0.988
 4745SOL     OW15133   1.267   4.429   6.865
 4745SOL    HW115134   1.279   4.373   6.782
 4745SOL    HW215135   1.288   4.524   6.844
 4746SOL     OW15136   4.752   5.757   4.056
 4746SOL    HW115137   4.682   5.693   4.086
 4746SOL    HW215138   4.842   5.713   4.063
 4747SOL     OW15139   1.515   2.216   0.206
 4747SOL    HW115140   1.578   2.178   0.273
 4747SOL    HW215141   1.566   2.269   0.138
 4748SOL     OW15142   1.795   6.511   2.604
 4748SOL    HW115143   1.697   6.530   2.599
 4748SOL    HW215144   1.846   6.596   2.588
 4749SOL     OW15145   2.249   1.598   6.456
 4749SOL    HW115146   2.253   1.679   6.398
 4749SOL    HW215147   2.161   1.552   6.442
 4750SOL     OW15148   4.992   2.737   5.414
 4750SOL    HW115149   4.956   2.668   5.476
 4750SOL    HW215150   4.949   2.825   5.435
 4751SOL     OW15151   4.330   0.591   3.654
 4751SOL    HW115152   4.401   0.523   3.670
 4751SOL    HW215153   4.273   0.601   3.735
 4752SOL     OW15154   4.556   1.863   6.757
 4752SOL    HW115155   4.485   1.817   6.703
 4752SOL    HW215156   4.637   1.877   6.701
 4753SOL     OW15157   3.239   6.212   5.745
 4753SOL    HW115158   3.189   6.169   5.821
 4753SOL    HW215159   3.193   6.297   5.720
 4754SOL     OW15160   4.865   4.751   6.587
 4754SOL    HW115161   4.879   4.847   6.611
 4754SOL    HW215162   4.783   4.741   6.531
 4755SOL     OW15163   1.500   1.320   1.514
 4755SOL    HW115164   1.535   1.313   1.608
 4755SOL    HW215165   1.441   1.400   1.507
 4756SOL     OW15166   6.422   3.951   6.258
 4756SOL    HW115167   6.334   3.974   6.218
 4756SOL    HW215168   6.495   3.997   6.207
 4757SOL     OW15169   1.920   3.708   1.054
 4757SOL    HW115170   1.824   3.738   1.051
 4757SOL    HW215171   1.980   3.787   1.043
 4758SOL     OW15172   2.588   6.343   3.142
 4758SOL    HW115173   2.679   6.356   3.103
 4758SOL    HW215174   2.536   6.280   3.084
 4759SOL     OW15175   0.843   5.774   1.837
 4759SOL    HW115176   0.909   5.715   1.790
 4759SOL    HW215177   0.855   5.869   1.808
 4760SOL     OW15178   1.239   5.982   1.151
 4760SOL    HW115179   1.296   5.919   1.203
 4760SOL    HW215180   1.150   5.992   1.195
 4761SOL     OW15181   6.388   6.278   1.625
 4761SOL    HW115182   6.299   6.282   1.581
 4761SOL    HW215183   6.377   6.292   1.723
 4762SOL     OW15184   1.372   0.394   2.070
 4762SOL    HW115185   1.413   0.350   2.150
 4762SOL    HW215186   1.273   0.384   2.074
 4763SOL     OW15187   5.747   4.396   1.659
 4763SOL    HW115188   5.811   4.435   1.593
 4763SOL    HW215189   5.755   4.445   1.746
 4764SOL     OW15190   4.866   2.797   0.644
 4764SOL    HW115191   4.840   2.702   0.663
 4764SOL    HW215192   4.810   2.859   0.699
 4765SOL     OW15193   3.496   1.585   4.421
 4765SOL    HW115194   3.564   1.593   4.348
 4765SOL    HW215195   3.464   1.490   4.427
 4766SOL     OW15196   0.404   0.299   4.025
 4766SOL    HW115197   0.496   0.267   4.045
 4766SOL    HW215198   0.408   0.392   3.987
 4767SOL     OW15199   1.869   4.259   3.565
 4767SOL    HW115200   1.835   4.170   3.596
 4767SOL    HW215201   1.793   4.314   3.531
 4768SOL     OW15202   4.590   2.688   6.704
 4768SOL    HW115203   4.565   2.706   6.799
 4768SOL    HW215204   4.507   2.671   6.650
 4769SOL     OW15205   2.699   4.386   0.500
 4769SOL    HW115206   2.631   4.456   0.517
 4769SOL    HW215207   2.780   4.403   0.555
 4770SOL     OW15208   0.712   1.351   5.275
 4770SOL    HW115209   0.790   1.360   5.214
 4770SOL    HW215210   0.643   1.419   5.251
 4771SOL     OW15211   1.670   6.808   4.853
 4771SOL    HW115212   1.770   6.803   4.856
 4771SOL    HW215213   1.634   6.732   4.799
 4772SOL     OW15214   2.727   5.129   2.270
 4772SOL    HW115215   2.767   5.048   2.312
 4772SOL    HW215216   2.708   5.197   2.341
 4773SOL     OW15217   2.051   5.273   4.562
 4773SOL    HW115218   2.075   5.218   4.642
 4773SOL    HW215219   1.988   5.221   4.504
 4774SOL     OW15220   1.481   4.381   0.048
 4774SOL    HW115221   1.488   4.332   0.135
 4774SOL    HW215222   1.388   4.373   0.012
 4775SOL     OW15223   6.467   6.400   5.203
 4775SOL    HW115224   6.504   6.425   5.292
 4775SOL    HW215225   6.441   6.303   5.204
 4776SOL     OW15226   6.991   1.213   6.118
 4776SOL    HW115227   6.898   1.217   6.083
 4776SOL    HW215228   0.036   1.215   6.042
 4777SOL     OW15229   1.290   0.315   2.408
 4777SOL    HW115230   1.309   0.411   2.427
 4777SOL    HW215231   1.301   0.261   2.492
 4778SOL     OW15232   1.893   1.224   6.754
 4778SOL    HW115233   1.897   1.166   6.835
 4778SOL    HW215234   1.849   1.175   6.679
 4779SOL     OW15235   5.535   0.365   4.646
 4779SOL    HW115236   5.584   0.298   4.591
 4779SOL    HW215237   5.600   0.431   4.683
 4780SOL     OW15238   5.737   2.680   4.977
 4780SOL    HW115239   5.696   2.592   4.955
 4780SOL    HW215240   5.675   2.732   5.036
 4781SOL     OW15241   2.146   5.535   2.431
 4781SOL    HW115242   2.195   5.473   2.369
 4781SOL    HW215243   2.048   5.516   2.427
 4782SOL     OW15244   6.730   6.837   4.418
 4782SOL    HW115245   6.810   6.862   4.364
 4782SOL    HW215246   6.661   6.795   4.358
 4783SOL     OW15247   6.695   3.388   6.066
 4783SOL    HW115248   6.756   3.466   6.059
 4783SOL    HW215249   6.600   3.419   6.062
 4784SOL     OW15250   5.377   3.087   6.629
 4784SOL    HW115251   5.407   3.141   6.708
 4784SOL    HW215252   5.313   3.016   6.659
 4785SOL     OW15253   6.927   6.847   4.216
 4785SOL    HW115254   6.897   6.753   4.198
 4785SOL    HW215255   0.006   6.853   4.202
 4786SOL     OW15256   1.425   5.410   6.893
 4786SOL    HW115257   1.377   5.496   6.874
 4786SOL    HW215258   1.436   5.359   6.808
 4787SOL     OW15259   3.535   1.587   3.941
 4787SOL    HW115260   3.603   1.523   3.978
 4787SOL    HW215261   3.566   1.680   3.957
 4788SOL     OW15262   6.159   5.974   0.647
 4788SOL    HW115263   6.086   5.950   0.582
 4788SOL    HW215264   6.209   5.891   0.673
 4789SOL     OW15265   5.733   1.072   2.834
 4789SOL    HW115266   5.822   1.119   2.830
 4789SOL    HW215267   5.684   1.085   2.748
 4790SOL     OW15268   6.678   1.938   5.129
 4790SOL    HW115269   6.655   2.035   5.131
 4790SOL    HW215270   6.672   1.904   5.035
 4791SOL     OW15271   0.020   0.645   0.619
 4791SOL    HW115272   0.009   0.627   0.717
 4791SOL    HW215273   0.112   0.617   0.591
 4792SOL     OW15274   2.158   3.181   2.822
 4792SOL    HW115275   2.225   3.239   2.775
 4792SOL    HW215276   2.151   3.208   2.918
 4793SOL     OW15277   0.873   3.337   5.865
 4793SOL    HW115278   0.889   3.240   5.883
 4793SOL    HW215279   0.945   3.372   5.804
 4794SOL     OW15280   4.284   1.376   4.496
 4794SOL    HW115281   4.243   1.322   4.423
 4794SOL    HW215282   4.321   1.461   4.459
 4795SOL     OW15283   6.858   0.933   6.370
 4795SOL    HW115284   6.930   0.991   6.408
 4795SOL    HW215285   6.782   0.927   6.434
 4796SOL     OW15286   4.284   1.236   5.366
 4796SOL    HW115287   4.317   1.155   5.414
 4796SOL    HW215288   4.281   1.218   5.268
 4797SOL     OW15289   1.457   5.116   5.395
 4797SOL    HW115290   1.551   5.092   5.371
 4797SOL    HW215291   1.456   5.200   5.447
 4798SOL     OW15292   4.370   4.912   6.727
 4798SOL    HW115293   4.436   4.926   6.800
 4798SOL    HW215294   4.352   4.815   6.716
 4799SOL     OW15295   3.787   2.861   0.038
 4799SOL    HW115296   3.829   2.948   0.013
 4799SOL    HW215297   3.817   2.834   0.129
 4800SOL     OW15298   1.064   3.950   0.342
 4800SOL    HW115299   1.146   3.968   0.397
 4800SOL    HW215300   0.989   4.009   0.374
 4801SOL     OW15301   5.706   2.640   2.117
 4801SOL    HW115302   5.715   2.630   2.216
 4801SOL    HW215303   5.660   2.725   2.096
 4802SOL     OW15304   6.412   0.829   4.322
 4802SOL    HW115305   6.403   0.756   4.254
 4802SOL    HW215306   6.344   0.901   4.304
 4803SOL     OW15307   5.519   3.889   5.894
 4803SOL    HW115308   5.486   3.909   5.802
 4803SOL    HW215309   5.498   3.794   5.918
 4804SOL     OW15310   4.692   1.569   0.840
 4804SOL    HW115311   4.683   1.472   0.816
 4804SOL    HW215312   4.681   1.579   0.939
 4805SOL     OW15313   6.529   1.142   6.810
 4805SOL    HW115314   6.609   1.162   6.754
 4805SOL    HW215315   6.448   1.135   6.751
 4806SOL     OW15316   1.053   1.130   3.566
 4806SOL    HW115317   1.088   1.065   3.633
 4806SOL    HW215318   1.062   1.223   3.601
 4807SOL     OW15319   0.554   3.537   5.620
 4807SOL    HW115320   0.477   3.500   5.672
 4807SOL    HW215321   0.632   3.551   5.682
 4808SOL     OW15322   3.792   5.833   1.311
 4808SOL    HW115323   3.835   5.809   1.399
 4808SOL    HW215324   3.698   5.863   1.328
 4809SOL     OW15325   3.437   4.131   1.161
 4809SOL    HW115326   3.379   4.053   1.185
 4809SOL    HW215327   3.432   4.199   1.234
 4810SOL     OW15328   0.496   5.078   3.779
 4810SOL    HW115329   0.490   5.082   3.679
 4810SOL    HW215330   0.532   5.165   3.814
 4811SOL     OW15331   3.101   3.932   4.194
 4811SOL    HW115332   3.169   3.997   4.229
 4811SOL    HW215333   3.112   3.922   4.096
 4812SOL     OW15334   1.298   0.366   2.855
 4812SOL    HW115335   1.227   0.404   2.796
 4812SOL    HW215336   1.344   0.440   2.904
 4813SOL     OW15337   6.384   1.236   5.614
 4813SOL    HW115338   6.430   1.317   5.578
 4813SOL    HW215339   6.437   1.154   5.592
 4814SOL     OW15340   5.986   3.809   1.402
 4814SOL    HW115341   5.923   3.735   1.377
 4814SOL    HW215342   5.971   3.887   1.342
 4815SOL     OW15343   5.862   4.696   1.771
 4815SOL    HW115344   5.828   4.620   1.827
 4815SOL    HW215345   5.909   4.660   1.691
 4816SOL     OW15346   2.125   1.483   2.603
 4816SOL    HW115347   2.215   1.452   2.634
 4816SOL    HW215348   2.123   1.583   2.601
 4817SOL     OW15349   3.938   2.582   0.507
 4817SOL    HW115350   3.938   2.510   0.437
 4817SOL    HW215351   3.848   2.586   0.551
 4818SOL     OW15352   3.543   0.714   5.096
 4818SOL    HW115353   3.579   0.659   5.172
 4818SOL    HW215354   3.450   0.685   5.075
 4819SOL     OW15355   3.570   0.162   1.097
 4819SOL    HW115356   3.529   0.180   1.187
 4819SOL    HW215357   3.657   0.211   1.090
 4820SOL     OW15358   5.855   4.031   1.740
 4820SOL    HW115359   5.819   4.120   1.712
 4820SOL    HW215360   5.955   4.032   1.735
 4821SOL     OW15361   0.362   4.912   1.463
 4821SOL    HW115362   0.326   4.891   1.372
 4821SOL    HW215363   0.439   4.975   1.455
 4822SOL     OW15364   1.689   4.330   2.789
 4822SOL    HW115365   1.664   4.423   2.760
 4822SOL    HW215366   1.646   4.310   2.877
 4823SOL     OW15367   1.499   1.170   4.295
 4823SOL    HW115368   1.550   1.126   4.369
 4823SOL    HW215369   1.549   1.250   4.262
 4824SOL     OW15370   5.544   2.855   2.115
 4824SOL    HW115371   5.557   2.832   2.212
 4824SOL    HW215372   5.520   2.952   2.107
 4825SOL     OW15373   0.512   3.300   3.096
 4825SOL    HW115374   0.582   3.356   3.140
 4825SOL    HW215375   0.425   3.349   3.096
 4826SOL     OW15376   6.386   5.882   6.997
 4826SOL    HW115377   6.388   5.970   0.024
 4826SOL    HW215378   6.443   5.817   0.026
 4827SOL     OW15379   5.202   0.947   1.201
 4827SOL    HW115380   5.239   1.036   1.225
 4827SOL    HW215381   5.270   0.895   1.150
 4828SOL     OW15382   5.239   3.855   0.027
 4828SOL    HW115383   5.242   3.951   0.001
 4828SOL    HW215384   5.209   3.800   6.968
 4829SOL     OW15385   3.360   0.582   5.539
 4829SOL    HW115386   3.337   0.526   5.619
 4829SOL    HW215387   3.421   0.656   5.567
 4830SOL     OW15388   3.981   6.992   5.133
 4830SOL    HW115389   3.970   6.962   5.038
 4830SOL    HW215390   3.919   0.049   5.151
 4831SOL     OW15391   6.415   4.062   5.719
 4831SOL    HW115392   6.505   4.052   5.678
 4831SOL    HW215393   6.398   3.986   5.782
 4832SOL     OW15394   1.971   2.803   6.768
 4832SOL    HW115395   1.963   2.889   6.718
 4832SOL    HW215396   1.995   2.729   6.705
 4833SOL     OW15397   5.047   1.583   3.296
 4833SOL    HW115398   4.954   1.620   3.290
 4833SOL    HW215399   5.043   1.483   3.284
 4834SOL     OW15400   5.685   0.697   2.760
 4834SOL    HW115401   5.757   0.656   2.703
 4834SOL    HW215402   5.680   0.795   2.742
 4835SOL     OW15403   1.874   0.321   6.149
 4835SOL    HW115404   1.890   0.229   6.184
 4835SOL    HW215405   1.819   0.315   6.066
 4836SOL     OW15406   5.280   2.896   2.960
 4836SOL    HW115407   5.346   2.971   2.964
 4836SOL    HW215408   5.200   2.920   3.015
 4837SOL     OW15409   1.561   4.221   0.356
 4837SOL    HW115410   1.534   4.194   0.449
 4837SOL    HW215411   1.569   4.321   0.352
 4838SOL     OW15412   2.979   5.877   2.619
 4838SOL    HW115413   2.912   5.833   2.680
 4838SOL    HW215414   2.975   5.976   2.633
 4839SOL     OW15415   0.701   6.225   6.655
 4839SOL    HW115416   0.651   6.156   6.602
 4839SOL    HW215417   0.792   6.236   6.616
 4840SOL     OW15418   6.834   6.446   6.944
 4840SOL    HW115419   6.736   6.452   6.961
 4840SOL    HW215420   6.852   6.466   6.847
 4841SOL     OW15421   2.394   5.658   2.415
 4841SOL    HW115422   2.299   5.671   2.389
 4841SOL    HW215423   2.448   5.631   2.335
 4842SOL     OW15424   3.574   6.231   1.334
 4842SOL    HW115425   3.525   6.312   1.302
 4842SOL    HW215426   3.672   6.245   1.320
 4843SOL     OW15427   0.114   3.239   0.333
 4843SOL    HW115428   0.075   3.149   0.353
 4843SOL    HW215429   0.152   3.278   0.417
 4844SOL     OW15430   6.445   1.636   5.653
 4844SOL    HW115431   6.462   1.558   5.593
 4844SOL    HW215432   6.528   1.690   5.663
 4845SOL     OW15433   5.938   5.285   3.685
 4845SOL    HW115434   5.985   5.259   3.769
 4845SOL    HW215435   5.868   5.354   3.705
 4846SOL     OW15436   1.271   4.465   0.941
 4846SOL    HW115437   1.306   4.511   1.023
 4846SOL    HW215438   1.173   4.480   0.934
 4847SOL     OW15439   4.168   2.265   4.438
 4847SOL    HW115440   4.240   2.196   4.438
 4847SOL    HW215441   4.135   2.280   4.345
 4848SOL     OW15442   2.892   2.198   2.260
 4848SOL    HW115443   2.871   2.248   2.176
 4848SOL    HW215444   2.900   2.262   2.336
 4849SOL     OW15445   1.407   5.980   0.332
 4849SOL    HW115446   1.400   6.059   0.393
 4849SOL    HW215447   1.503   5.960   0.313
 4850SOL     OW15448   4.009   0.733   2.614
 4850SOL    HW115449   4.063   0.753   2.696
 4850SOL    HW215450   4.069   0.732   2.534
 4851SOL     OW15451   4.951   6.692   4.801
 4851SOL    HW115452   5.018   6.658   4.866
 4851SOL    HW215453   4.866   6.716   4.849
 4852SOL     OW15454   1.526   1.642   0.905
 4852SOL    HW115455   1.480   1.581   0.969
 4852SOL    HW215456   1.502   1.737   0.926
 4853SOL     OW15457   2.838   1.516   1.881
 4853SOL    HW115458   2.818   1.558   1.969
 4853SOL    HW215459   2.937   1.521   1.863
 4854SOL     OW15460   4.800   6.658   0.992
 4854SOL    HW115461   4.835   6.565   0.979
 4854SOL    HW215462   4.734   6.679   0.919
 4855SOL     OW15463   0.336   2.498   2.473
 4855SOL    HW115464   0.394   2.579   2.484
 4855SOL    HW215465   0.240   2.523   2.489
 4856SOL     OW15466   2.566   4.559   3.756
 4856SOL    HW115467   2.568   4.598   3.849
 4856SOL    HW215468   2.521   4.470   3.759
 4857SOL     OW15469   0.156   1.799   5.612
 4857SOL    HW115470   0.254   1.799   5.632
 4857SOL    HW215471   0.123   1.894   5.610
 4858SOL     OW15472   1.265   1.331   3.766
 4858SOL    HW115473   1.339   1.374   3.818
 4858SOL    HW215474   1.259   1.234   3.789
 4859SOL     OW15475   2.779   5.730   5.283
 4859SOL    HW115476   2.680   5.742   5.275
 4859SOL    HW215477   2.801   5.633   5.277
 4860SOL     OW15478   4.677   4.700   0.801
 4860SOL    HW115479   4.621   4.765   0.851
 4860SOL    HW215480   4.717   4.745   0.721
 4861SOL     OW15481   5.216   3.777   5.557
 4861SOL    HW115482   5.239   3.732   5.470
 4861SOL    HW215483   5.179   3.709   5.620
 4862SOL     OW15484   1.533   6.295   2.311
 4862SOL    HW115485   1.622   6.273   2.350
 4862SOL    HW215486   1.507   6.223   2.246
 4863SOL     OW15487   6.421   4.131   6.550
 4863SOL    HW115488   6.483   4.056   6.526
 4863SOL    HW215489   6.447   4.169   6.639
 4864SOL     OW15490   2.753   1.425   4.031
 4864SOL    HW115491   2.850   1.430   4.005
 4864SOL    HW215492   2.743   1.366   4.111
 4865SOL     OW15493   1.966   6.196   5.171
 4865SOL    HW115494   1.881   6.165   5.213
 4865SOL    HW215495   1.973   6.295   5.180
 4866SOL     OW15496   6.519   4.205   6.797
 4866SOL    HW115497   6.448   4.163   6.854
 4866SOL    HW215498   6.575   4.266   6.853
 4867SOL     OW15499   5.287   6.947   2.632
 4867SOL    HW115500   5.366   6.935   2.572
 4867SOL    HW215501   5.210   6.894   2.597
 4868SOL     OW15502   6.996   4.529   0.720
 4868SOL    HW115503   0.071   4.561   0.730
 4868SOL    HW215504   6.988   4.436   0.755
 4869SOL     OW15505   0.552   0.885   0.288
 4869SOL    HW115506   0.530   0.837   0.373
 4869SOL    HW215507   0.640   0.931   0.296
 4870SOL     OW15508   0.878   6.000   2.085
 4870SOL    HW115509   0.878   6.032   2.180
 4870SOL    HW215510   0.922   5.910   2.080
 4871SOL     OW15511   1.327   1.791   4.413
 4871SOL    HW115512   1.343   1.694   4.432
 4871SOL    HW215513   1.377   1.847   4.478
 4872SOL     OW15514   5.932   6.788   3.033
 4872SOL    HW115515   5.864   6.723   2.997
 4872SOL    HW215516   5.932   6.870   2.976
 4873SOL     OW15517   6.706   5.924   5.372
 4873SOL    HW115518   6.607   5.918   5.356
 4873SOL    HW215519   6.755   5.902   5.288
 4874SOL     OW15520   5.517   2.661   2.697
 4874SOL    HW115521   5.526   2.674   2.796
 4874SOL    HW215522   5.586   2.595   2.666
 4875SOL     OW15523   5.656   6.563   5.140
 4875SOL    HW115524   5.701   6.495   5.082
 4875SOL    HW215525   5.724   6.626   5.178
 4876SOL     OW15526   1.768   1.096   3.259
 4876SOL    HW115527   1.816   1.173   3.217
 4876SOL    HW215528   1.809   1.076   3.348
 4877SOL     OW15529   0.076   1.831   5.157
 4877SOL    HW115530   0.090   1.826   5.058
 4877SOL    HW215531   0.121   1.913   5.192
 4878SOL     OW15532   0.508   2.713   2.438
 4878SOL    HW115533   0.441   2.749   2.373
 4878SOL    HW215534   0.541   2.787   2.496
 4879SOL     OW15535   5.498   1.628   3.180
 4879SOL    HW115536   5.596   1.637   3.201
 4879SOL    HW215537   5.458   1.556   3.237
 4880SOL     OW15538   6.921   2.586   6.308
 4880SOL    HW115539   6.911   2.493   6.344
 4880SOL    HW215540   6.830   2.627   6.294
 4881SOL     OW15541   1.532   2.913   1.701
 4881SOL    HW115542   1.590   2.991   1.725
 4881SOL    HW215543   1.472   2.938   1.624
 4882SOL     OW15544   4.372   2.114   4.292
 4882SOL    HW115545   4.405   2.036   4.239
 4882SOL    HW215546   4.293   2.155   4.247
 4883SOL     OW15547   6.480   4.090   1.134
 4883SOL    HW115548   6.572   4.127   1.120
 4883SOL    HW215549   6.413   4.162   1.116
 4884SOL     OW15550   2.108   6.440   1.817
 4884SOL    HW115551   2.205   6.430   1.799
 4884SOL    HW215552   2.070   6.513   1.761
 4885SOL     OW15553   1.246   4.116   0.499
 4885SOL    HW115554   1.292   4.149   0.416
 4885SOL    HW215555   1.237   4.190   0.564
 4886SOL     OW15556   2.819   0.977   1.823
 4886SOL    HW115557   2.771   1.031   1.754
 4886SOL    HW215558   2.890   1.033   1.865
 4887SOL     OW15559   6.484   6.507   0.957
 4887SOL    HW115560   6.500   6.582   1.021
 4887SOL    HW215561   6.432   6.540   0.878
 4888SOL     OW15562   4.103   6.271   3.336
 4888SOL    HW115563   4.183   6.270   3.275
 4888SOL    HW215564   4.078   6.177   3.358
 4889SOL     OW15565   6.731   3.126   3.676
 4889SOL    HW115566   6.772   3.134   3.767
 4889SOL    HW215567   6.641   3.084   3.683
 4890SOL     OW15568   0.693   1.463   4.865
 4890SOL    HW115569   0.737   1.501   4.946
 4890SOL    HW215570   0.743   1.492   4.783
 4891SOL     OW15571   2.634   5.759   6.196
 4891SOL    HW115572   2.659   5.701   6.118
 4891SOL    HW215573   2.716   5.787   6.245
 4892SOL     OW15574   5.418   5.819   2.796
 4892SOL    HW115575   5.327   5.800   2.759
 4892SOL    HW215576   5.461   5.892   2.744
 4893SOL     OW15577   0.530   3.425   1.934
 4893SOL    HW115578   0.459   3.476   1.885
 4893SOL    HW215579   0.540   3.461   2.026
 4894SOL     OW15580   4.979   0.309   1.889
 4894SOL    HW115581   5.047   0.289   1.818
 4894SOL    HW215582   4.995   0.400   1.926
 4895SOL     OW15583   6.850   4.547   4.086
 4895SOL    HW115584   6.937   4.505   4.060
 4895SOL    HW215585   6.783   4.477   4.107
 4896SOL     OW15586   1.786   4.957   4.182
 4896SOL    HW115587   1.863   5.016   4.208
 4896SOL    HW215588   1.735   5.001   4.108
 4897SOL     OW15589   1.587   6.475   5.230
 4897SOL    HW115590   1.538   6.526   5.301
 4897SOL    HW215591   1.599   6.381   5.259
 4898SOL     OW15592   4.535   2.084   3.697
 4898SOL    HW115593   4.592   2.112   3.619
 4898SOL    HW215594   4.568   2.130   3.780
 4899SOL     OW15595   0.065   5.924   1.796
 4899SOL    HW115596   0.087   5.839   1.843
 4899SOL    HW215597   0.095   5.919   1.701
 4900SOL     OW15598   3.593   5.990   5.622
 4900SOL    HW115599   3.544   6.072   5.592
 4900SOL    HW215600   3.682   6.016   5.658
 4901SOL     OW15601   0.420   1.542   5.711
 4901SOL    HW115602   0.513   1.522   5.743
 4901SOL    HW215603   0.356   1.535   5.788
 4902SOL     OW15604   1.550   0.024   5.923
 4902SOL    HW115605   1.543   6.945   5.937
 4902SOL    HW215606   1.635   0.044   5.874
 4903SOL     OW15607   5.291   4.237   2.336
 4903SOL    HW115608   5.300   4.201   2.243
 4903SOL    HW215609   5.267   4.334   2.333
 4904SOL     OW15610   2.124   0.264   0.145
 4904SOL    HW115611   2.028   0.239   0.154
 4904SOL    HW215612   2.160   0.229   0.059
 4905SOL     OW15613   3.201   6.444   2.568
 4905SOL    HW115614   3.279   6.433   2.628
 4905SOL    HW215615   3.232   6.451   2.473
 4906SOL     OW15616   4.885   3.255   5.086
 4906SOL    HW115617   4.895   3.263   4.987
 4906SOL    HW215618   4.792   3.282   5.112
 4907SOL     OW15619   4.791   1.782   6.568
 4907SOL    HW115620   4.791   1.682   6.566
 4907SOL    HW215621   4.843   1.816   6.490
 4908SOL     OW15622   3.891   6.274   6.809
 4908SOL    HW115623   3.902   6.314   6.718
 4908SOL    HW215624   3.840   6.338   6.867
 4909SOL     OW15625   5.095   4.640   4.647
 4909SOL    HW115626   5.143   4.710   4.701
 4909SOL    HW215627   5.162   4.575   4.611
 4910SOL     OW15628   4.400   1.664   5.641
 4910SOL    HW115629   4.479   1.712   5.602
 4910SOL    HW215630   4.349   1.620   5.568
 4911SOL     OW15631   6.786   2.775   2.199
 4911SOL    HW115632   6.760   2.697   2.142
 4911SOL    HW215633   6.751   2.859   2.158
 4912SOL     OW15634   5.497   2.191   4.045
 4912SOL    HW115635   5.477   2.094   4.031
 4912SOL    HW215636   5.534   2.204   4.137
 4913SOL     OW15637   0.096   3.066   5.964
 4913SOL    HW115638   0.118   2.999   5.893
 4913SOL    HW215639   0.023   3.126   5.931
 4914SOL     OW15640   4.569   0.560   3.282
 4914SOL    HW115641   4.529   0.566   3.190
 4914SOL    HW215642   4.632   0.482   3.286
 4915SOL     OW15643   3.385   5.341   6.002
 4915SOL    HW115644   3.410   5.274   6.073
 4915SOL    HW215645   3.341   5.420   6.044
 4916SOL     OW15646   6.381   2.317   4.178
 4916SOL    HW115647   6.335   2.241   4.133
 4916SOL    HW215648   6.348   2.326   4.272
 4917SOL     OW15649   4.491   6.710   0.572
 4917SOL    HW115650   4.556   6.755   0.511
 4917SOL    HW215651   4.421   6.663   0.519
 4918SOL     OW15652   6.400   5.198   2.624
 4918SOL    HW115653   6.417   5.129   2.694
 4918SOL    HW215654   6.323   5.255   2.652
 4919SOL     OW15655   3.640   3.962   2.280
 4919SOL    HW115656   3.641   4.021   2.199
 4919SOL    HW215657   3.614   4.016   2.360
 4920SOL     OW15658   6.067   0.838   5.389
 4920SOL    HW115659   5.971   0.856   5.366
 4920SOL    HW215660   6.072   0.792   5.477
 4921SOL     OW15661   0.434   6.784   2.147
 4921SOL    HW115662   0.386   6.871   2.149
 4921SOL    HW215663   0.468   6.763   2.239
 4922SOL     OW15664   3.478   2.342   6.588
 4922SOL    HW115665   3.472   2.439   6.565
 4922SOL    HW215666   3.568   2.322   6.627
 4923SOL     OW15667   3.403   1.611   1.783
 4923SOL    HW115668   3.488   1.642   1.824
 4923SOL    HW215669   3.408   1.621   1.684
 4924SOL     OW15670   2.503   0.312   5.368
 4924SOL    HW115671   2.560   0.250   5.312
 4924SOL    HW215672   2.418   0.331   5.320
 4925SOL     OW15673   5.443   5.643   3.388
 4925SOL    HW115674   5.459   5.550   3.421
 4925SOL    HW215675   5.390   5.694   3.457
 4926SOL     OW15676   5.520   2.569   0.990
 4926SOL    HW115677   5.431   2.556   1.034
 4926SOL    HW215678   5.556   2.659   1.013
 4927SOL     OW15679   3.514   1.536   6.673
 4927SOL    HW115680   3.419   1.507   6.669
 4927SOL    HW215681   3.527   1.617   6.615
 4928SOL     OW15682   0.040   1.897   0.482
 4928SOL    HW115683   7.001   1.846   0.545
 4928SOL    HW215684   0.077   1.977   0.529
 4929SOL     OW15685   0.566   6.308   5.068
 4929SOL    HW115686   0.611   6.268   4.988
 4929SOL    HW215687   0.561   6.408   5.057
 4930SOL     OW15688   5.229   6.167   2.358
 4930SOL    HW115689   5.200   6.247   2.412
 4930SOL    HW215690   5.259   6.094   2.419
 4931SOL     OW15691   6.281   5.729   0.757
 4931SOL    HW115692   6.374   5.693   0.748
 4931SOL    HW215693   6.221   5.658   0.793
 4932SOL     OW15694   2.955   3.350   2.108
 4932SOL    HW115695   2.980   3.394   2.022
 4932SOL    HW215696   2.927   3.256   2.091
 4933SOL     OW15697   2.585   6.546   5.509
 4933SOL    HW115698   2.498   6.544   5.459
 4933SOL    HW215699   2.580   6.482   5.586
 4934SOL     OW15700   4.163   5.110   2.840
 4934SOL    HW115701   4.109   5.171   2.782
 4934SOL    HW215702   4.157   5.016   2.805
 4935SOL     OW15703   0.210   1.090   6.224
 4935SOL    HW115704   0.174   1.058   6.312
 4935SOL    HW215705   0.153   1.166   6.191
 4936SOL     OW15706   3.328   2.684   0.569
 4936SOL    HW115707   3.332   2.716   0.474
 4936SOL    HW215708   3.414   2.708   0.615
 4937SOL     OW15709   4.432   2.401   4.965
 4937SOL    HW115710   4.467   2.393   4.872
 4937SOL    HW215711   4.333   2.385   4.965
 4938SOL     OW15712   4.165   5.504   6.357
 4938SOL    HW115713   4.066   5.498   6.355
 4938SOL    HW215714   4.195   5.539   6.446
 4939SOL     OW15715   4.441   2.860   6.276
 4939SOL    HW115716   4.448   2.946   6.226
 4939SOL    HW215717   4.520   2.851   6.338
 4940SOL     OW15718   1.789   6.116   4.475
 4940SOL    HW115719   1.790   6.129   4.376
 4940SOL    HW215720   1.862   6.169   4.516
 4941SOL     OW15721   5.479   0.416   0.767
 4941SOL    HW115722   5.438   0.484   0.828
 4941SOL    HW215723   5.550   0.366   0.816
 4942SOL     OW15724   5.425   4.232   5.727
 4942SOL    HW115725   5.410   4.207   5.631
 4942SOL    HW215726   5.518   4.204   5.754
 4943SOL     OW15727   5.012   2.332   1.279
 4943SOL    HW115728   5.063   2.299   1.199
 4943SOL    HW215729   5.051   2.419   1.310
 4944SOL     OW15730   2.370   4.683   2.736
 4944SOL    HW115731   2.377   4.767   2.682
 4944SOL    HW215732   2.421   4.694   2.821
 4945SOL     OW15733   0.663   6.383   4.425
 4945SOL    HW115734   0.637   6.333   4.508
 4945SOL    HW215735   0.763   6.395   4.424
 4946SOL     OW15736   1.159   4.430   2.047
 4946SOL    HW115737   1.144   4.339   2.086
 4946SOL    HW215738   1.079   4.455   1.992
 4947SOL     OW15739   0.335   0.020   0.657
 4947SOL    HW115740   0.433   0.031   0.668
 4947SOL    HW215741   0.307   6.950   0.692
 4948SOL     OW15742   1.698   1.457   2.056
 4948SOL    HW115743   1.657   1.532   2.004
 4948SOL    HW215744   1.793   1.479   2.076
 4949SOL     OW15745   5.221   1.395   4.215
 4949SOL    HW115746   5.192   1.487   4.187
 4949SOL    HW215747   5.229   1.336   4.134
 4950SOL     OW15748   3.097   5.445   5.461
 4950SOL    HW115749   3.196   5.442   5.463
 4950SOL    HW215750   3.062   5.461   5.553
 4951SOL     OW15751   4.273   2.050   3.635
 4951SOL    HW115752   4.355   2.072   3.687
 4951SOL    HW215753   4.254   1.952   3.641
 4952SOL     OW15754   0.650   5.583   5.023
 4952SOL    HW115755   0.750   5.585   5.024
 4952SOL    HW215756   0.616   5.672   4.992
 4953SOL     OW15757   1.624   5.425   1.709
 4953SOL    HW115758   1.704   5.378   1.672
 4953SOL    HW215759   1.563   5.358   1.752
 4954SOL     OW15760   5.370   5.566   6.871
 4954SOL    HW115761   5.451   5.537   6.922
 4954SOL    HW215762   5.395   5.636   6.805
 4955SOL     OW15763   0.897   6.630   1.602
 4955SOL    HW115764   0.935   6.721   1.615
 4955SOL    HW215765   0.910   6.575   1.685
 4956SOL     OW15766   4.942   6.042   4.695
 4956SOL    HW115767   4.861   6.098   4.711
 4956SOL    HW215768   4.916   5.955   4.654
 4957SOL     OW15769   0.894   0.154   3.787
 4957SOL    HW115770   0.945   0.074   3.817
 4957SOL    HW215771   0.958   0.227   3.760
 4958SOL     OW15772   6.886   6.014   0.117
 4958SOL    HW115773   6.966   6.035   0.062
 4958SOL    HW215774   6.895   6.058   0.206
 4959SOL     OW15775   1.091   0.906   1.210
 4959SOL    HW115776   1.147   0.969   1.157
 4959SOL    HW215777   1.150   0.839   1.255
 4960SOL     OW15778   3.673   6.419   4.963
 4960SOL    HW115779   3.693   6.430   5.061
 4960SOL    HW215780   3.742   6.360   4.921
 4961SOL     OW15781   4.411   0.533   5.210
 4961SOL    HW115782   4.372   0.442   5.199
 4961SOL    HW215783   4.479   0.532   5.284
 4962SOL     OW15784   6.927   1.570   1.509
 4962SOL    HW115785   0.003   1.589   1.533
 4962SOL    HW215786   6.901   1.625   1.430
 4963SOL     OW15787   0.173   5.088   1.788
 4963SOL    HW115788   0.187   5.037   1.873
 4963SOL    HW215789   0.116   5.035   1.726
 4964SOL     OW15790   3.799   6.561   3.497
 4964SOL    HW115791   3.822   6.567   3.400
 4964SOL    HW215792   3.813   6.467   3.528
 4965SOL     OW15793   6.807   6.630   4.620
 4965SOL    HW115794   6.727   6.674   4.578
 4965SOL    HW215795   6.849   6.568   4.553
 4966SOL     OW15796   3.760   4.963   3.848
 4966SOL    HW115797   3.662   4.973   3.830
 4966SOL    HW215798   3.781   4.993   3.941
 4967SOL     OW15799   4.346   2.281   5.884
 4967SOL    HW115800   4.260   2.230   5.886
 4967SOL    HW215801   4.357   2.331   5.969
 4968SOL     OW15802   5.945   3.614   5.466
 4968SOL    HW115803   5.993   3.701   5.462
 4968SOL    HW215804   5.878   3.609   5.392
 4969SOL     OW15805   0.841   1.892   1.977
 4969SOL    HW115806   0.854   1.793   1.983
 4969SOL    HW215807   0.770   1.920   2.041
 4970SOL     OW15808   0.815   2.667   6.111
 4970SOL    HW115809   0.798   2.714   6.024
 4970SOL    HW215810   0.729   2.633   6.148
 4971SOL     OW15811   6.208   6.031   4.037
 4971SOL    HW115812   6.238   5.999   4.127
 4971SOL    HW215813   6.262   5.988   3.965
 4972SOL     OW15814   1.082   2.705   6.060
 4972SOL    HW115815   1.130   2.637   6.116
 4972SOL    HW215816   0.983   2.695   6.074
 4973SOL     OW15817   5.669   6.024   3.020
 4973SOL    HW115818   5.624   6.100   2.974
 4973SOL    HW215819   5.640   6.020   3.115
 4974SOL     OW15820   4.974   6.761   1.779
 4974SOL    HW115821   4.968   6.732   1.684
 4974SOL    HW215822   5.064   6.738   1.816
 4975SOL     OW15823   5.612   5.849   0.361
 4975SOL    HW115824   5.577   5.883   0.274
 4975SOL    HW215825   5.646   5.926   0.415
 4976SOL     OW15826   3.970   0.314   4.619
 4976SOL    HW115827   3.975   0.413   4.633
 4976SOL    HW215828   3.924   0.272   4.697
 4977SOL     OW15829   3.641   4.156   0.335
 4977SOL    HW115830   3.718   4.093   0.318
 4977SOL    HW215831   3.556   4.113   0.305
 4978SOL     OW15832   6.135   2.902   5.830
 4978SOL    HW115833   6.200   2.828   5.812
 4978SOL    HW215834   6.109   2.944   5.743
 4979SOL     OW15835   1.833   1.569   5.425
 4979SOL    HW115836   1.785   1.504   5.483
 4979SOL    HW215837   1.779   1.653   5.416
 4980SOL     OW15838   2.454   5.522   2.176
 4980SOL    HW115839   2.471   5.536   2.078
 4980SOL    HW215840   2.539   5.491   2.220
 4981SOL     OW15841   3.914   6.463   5.601
 4981SOL    HW115842   3.870   6.541   5.558
 4981SOL    HW215843   4.013   6.466   5.582
 4982SOL     OW15844   2.443   2.585   0.459
 4982SOL    HW115845   2.365   2.639   0.490
 4982SOL    HW215846   2.448   2.587   0.360
 4983SOL     OW15847   5.217   3.011   4.276
 4983SOL    HW115848   5.205   2.995   4.373
 4983SOL    HW215849   5.205   3.108   4.256
 4984SOL     OW15850   4.908   3.607   2.781
 4984SOL    HW115851   4.872   3.518   2.810
 4984SOL    HW215852   5.004   3.597   2.755
 4985SOL     OW15853   5.672   3.896   2.640
 4985SOL    HW115854   5.739   3.822   2.642
 4985SOL    HW215855   5.704   3.970   2.581
 4986SOL     OW15856   4.950   4.563   1.869
 4986SOL    HW115857   5.037   4.513   1.868
 4986SOL    HW215858   4.885   4.514   1.928
 4987SOL     OW15859   0.439   3.756   0.947
 4987SOL    HW115860   0.450   3.828   0.879
 4987SOL    HW215861   0.455   3.667   0.904
 4988SOL     OW15862   0.384   2.320   5.097
 4988SOL    HW115863   0.463   2.262   5.077
 4988SOL    HW215864   0.362   2.314   5.194
 4989SOL     OW15865   0.280   1.107   0.471
 4989SOL    HW115866   0.279   1.093   0.372
 4989SOL    HW215867   0.308   1.022   0.516
 4990SOL     OW15868   0.580   2.527   5.212
 4990SOL    HW115869   0.621   2.450   5.260
 4990SOL    HW215870   0.503   2.495   5.157
 4991SOL     OW15871   1.591   2.597   4.495
 4991SOL    HW115872   1.670   2.537   4.509
 4991SOL    HW215873   1.617   2.691   4.518
 4992SOL     OW15874   3.231   0.830   5.522
 4992SOL    HW115875   3.251   0.928   5.529
 4992SOL    HW215876   3.284   0.791   5.447
 4993SOL     OW15877   2.782   5.784   3.779
 4993SOL    HW115878   2.724   5.841   3.836
 4993SOL    HW215879   2.781   5.690   3.814
 4994SOL     OW15880   0.042   6.676   2.307
 4994SOL    HW115881   0.067   6.754   2.249
 4994SOL    HW215882   0.111   6.604   2.297
 4995SOL     OW15883   5.859   2.443   5.740
 4995SOL    HW115884   5.812   2.381   5.804
 4995SOL    HW215885   5.828   2.424   5.647
 4996SOL     OW15886   0.678   1.257   4.151
 4996SOL    HW115887   0.595   1.309   4.133
 4996SOL    HW215888   0.758   1.313   4.130
 4997SOL     OW15889   0.490   2.304   3.340
 4997SOL    HW115890   0.559   2.234   3.324
 4997SOL    HW215891   0.425   2.303   3.264
 4998SOL     OW15892   1.346   5.508   5.086
 4998SOL    HW115893   1.383   5.422   5.051
 4998SOL    HW215894   1.404   5.542   5.160
 4999SOL     OW15895   6.327   4.347   1.101
 4999SOL    HW115896   6.238   4.342   1.056
 4999SOL    HW215897   6.391   4.397   1.044
 5000SOL     OW15898   0.010   5.709   4.282
 5000SOL    HW115899   6.937   5.731   4.253
 5000SOL    HW215900   0.052   5.649   4.214
 5001SOL     OW15901   4.595   4.298   5.700
 5001SOL    HW115902   4.662   4.318   5.771
 5001SOL    HW215903   4.638   4.309   5.610
 5002SOL     OW15904   2.205   1.414   1.553
 5002SOL    HW115905   2.258   1.494   1.581
 5002SOL    HW215906   2.252   1.330   1.582
 5003SOL     OW15907   6.464   5.356   3.001
 5003SOL    HW115908   6.541   5.297   2.975
 5003SOL    HW215909   6.495   5.451   3.006
 5004SOL     OW15910   3.644   5.571   6.857
 5004SOL    HW115911   3.713   5.503   6.882
 5004SOL    HW215912   3.642   5.644   6.926
 5005SOL     OW15913   4.641   2.421   7.015
 5005SOL    HW115914   4.644   2.490   0.068
 5005SOL    HW215915   4.723   2.427   6.959
 5006SOL     OW15916   5.110   4.906   3.759
 5006SOL    HW115917   5.184   4.889   3.824
 5006SOL    HW215918   5.044   4.831   3.763
 5007SOL     OW15919   3.783   1.528   4.599
 5007SOL    HW115920   3.706   1.465   4.604
 5007SOL    HW215921   3.868   1.476   4.592
 5008SOL     OW15922   6.700   1.553   3.783
 5008SOL    HW115923   6.722   1.649   3.803
 5008SOL    HW215924   6.768   1.516   3.720
 5009SOL     OW15925   1.937   6.311   4.066
 5009SOL    HW115926   1.990   6.300   3.981
 5009SOL    HW215927   1.995   6.289   4.144
 5010SOL     OW15928   4.134   3.516   4.651
 5010SOL    HW115929   4.049   3.469   4.627
 5010SOL    HW215930   4.114   3.610   4.678
 5011SOL     OW15931   1.564   2.722   2.637
 5011SOL    HW115932   1.598   2.805   2.683
 5011SOL    HW215933   1.471   2.738   2.603
 5012SOL     OW15934   6.361   3.422   6.771
 5012SOL    HW115935   6.311   3.361   6.710
 5012SOL    HW215936   6.366   3.381   6.862
 5013SOL     OW15937   4.698   1.285   6.274
 5013SOL    HW115938   4.697   1.371   6.222
 5013SOL    HW215939   4.789   1.271   6.313
 5014SOL     OW15940   6.139   6.511   0.089
 5014SOL    HW115941   6.052   6.497   0.136
 5014SOL    HW215942   6.170   6.605   0.104
 5015SOL     OW15943   5.165   2.494   3.289
 5015SOL    HW115944   5.178   2.506   3.387
 5015SOL    HW215945   5.193   2.402   3.262
 5016SOL     OW15946   2.339   6.744   2.336
 5016SOL    HW115947   2.307   6.797   2.415
 5016SOL    HW215948   2.260   6.715   2.282
 5017SOL     OW15949   2.613   3.023   1.505
 5017SOL    HW115950   2.653   3.079   1.576
 5017SOL    HW215951   2.549   2.957   1.546
 5018SOL     OW15952   6.782   5.153   4.441
 5018SOL    HW115953   6.698   5.199   4.411
 5018SOL    HW215954   6.852   5.221   4.462
 5019SOL     OW15955   2.717   5.391   6.312
 5019SOL    HW115956   2.673   5.372   6.224
 5019SOL    HW215957   2.800   5.444   6.296
 5020SOL     OW15958   4.832   5.507   6.512
 5020SOL    HW115959   4.833   5.490   6.413
 5020SOL    HW215960   4.926   5.509   6.546
 5021SOL     OW15961   1.960   5.022   6.050
 5021SOL    HW115962   1.951   5.121   6.040
 5021SOL    HW215963   1.903   4.977   5.982
 5022SOL     OW15964   1.813   5.136   0.789
 5022SOL    HW115965   1.775   5.045   0.810
 5022SOL    HW215966   1.903   5.126   0.747
 5023SOL     OW15967   6.855   3.557   2.388
 5023SOL    HW115968   6.897   3.627   2.446
 5023SOL    HW215969   6.794   3.601   2.321
 5024SOL     OW15970   5.265   3.597   5.344
 5024SOL    HW115971   5.273   3.507   5.386
 5024SOL    HW215972   5.181   3.601   5.290
 5025SOL     OW15973   6.315   1.798   2.827
 5025SOL    HW115974   6.362   1.851   2.898
 5025SOL    HW215975   6.224   1.837   2.812
 5026SOL     OW15976   0.552   6.256   2.974
 5026SOL    HW115977   0.472   6.234   2.917
 5026SOL    HW215978   0.559   6.355   2.984
 5027SOL     OW15979   0.907   6.801   3.661
 5027SOL    HW115980   0.972   6.751   3.604
 5027SOL    HW215981   0.956   6.854   3.730
 5028SOL     OW15982   1.340   0.798   2.914
 5028SOL    HW115983   1.426   0.760   2.949
 5028SOL    HW215984   1.359   0.882   2.864
 5029SOL     OW15985   6.963   1.017   2.043
 5029SOL    HW115986   7.011   0.950   2.101
 5029SOL    HW215987   0.005   1.092   2.021
 5030SOL     OW15988   1.866   5.471   6.954
 5030SOL    HW115989   1.790   5.418   6.992
 5030SOL    HW215990   1.923   5.506   0.009
 5031SOL     OW15991   5.732   0.358   5.082
 5031SOL    HW115992   5.702   0.385   4.990
 5031SOL    HW215993   5.727   0.259   5.090
 5032SOL     OW15994   0.822   6.118   1.019
 5032SOL    HW115995   0.812   6.042   0.955
 5032SOL    HW215996   0.898   6.177   0.989
 5033SOL     OW15997   1.437   4.068   5.851
 5033SOL    HW115998   1.493   4.150   5.841
 5033SOL    HW215999   1.489   3.989   5.819
 5034SOL     OW16000   6.692   4.134   0.438
 5034SOL    HW116001   6.729   4.069   0.372
 5034SOL    HW216002   6.598   4.159   0.412
 5035SOL     OW16003   6.198   4.064   1.178
 5035SOL    HW116004   6.290   4.093   1.203
 5035SOL    HW216005   6.200   4.024   1.086
 5036SOL     OW16006   1.871   0.635   2.511
 5036SOL    HW116007   1.931   0.677   2.579
 5036SOL    HW216008   1.799   0.701   2.486
 5037SOL     OW16009   4.750   2.877   3.290
 5037SOL    HW116010   4.709   2.897   3.201
 5037SOL    HW216011   4.797   2.789   3.286
 5038SOL     OW16012   2.656   6.561   6.021
 5038SOL    HW116013   2.750   6.587   6.000
 5038SOL    HW216014   2.600   6.643   6.031
 5039SOL     OW16015   1.810   1.468   3.624
 5039SOL    HW116016   1.751   1.423   3.557
 5039SOL    HW216017   1.869   1.400   3.667
 5040SOL     OW16018   2.993   3.204   6.474
 5040SOL    HW116019   3.062   3.173   6.409
 5040SOL    HW216020   3.012   3.166   6.565
 5041SOL     OW16021   1.384   5.304   1.099
 5041SOL    HW116022   1.472   5.333   1.061
 5041SOL    HW216023   1.310   5.342   1.043
 5042SOL     OW16024   5.930   1.915   5.995
 5042SOL    HW116025   5.865   1.985   6.024
 5042SOL    HW216026   6.012   1.919   6.052
 5043SOL     OW16027   4.469   0.039   3.116
 5043SOL    HW116028   4.448   6.962   3.125
 5043SOL    HW216029   4.387   0.093   3.135
 5044SOL     OW16030   6.096   4.408   3.129
 5044SOL    HW116031   6.086   4.352   3.211
 5044SOL    HW216032   6.068   4.356   3.049
 5045SOL     OW16033   6.243   3.055   6.042
 5045SOL    HW116034   6.200   3.008   6.119
 5045SOL    HW216035   6.222   3.006   5.957
 5046SOL     OW16036   3.429   3.164   5.138
 5046SOL    HW116037   3.411   3.173   5.040
 5046SOL    HW216038   3.525   3.183   5.156
 5047SOL     OW16039   1.385   0.976   2.698
 5047SOL    HW116040   1.457   1.045   2.705
 5047SOL    HW216041   1.426   0.885   2.701
 5048SOL     OW16042   5.728   3.115   1.388
 5048SOL    HW116043   5.703   3.115   1.484
 5048SOL    HW216044   5.744   3.210   1.358
 5049SOL     OW16045   1.271   2.711   2.460
 5049SOL    HW116046   1.318   2.798   2.480
 5049SOL    HW216047   1.232   2.715   2.368
 5050SOL     OW16048   0.966   3.494   0.862
 5050SOL    HW116049   0.935   3.421   0.923
 5050SOL    HW216050   0.909   3.496   0.780
 5051SOL     OW16051   3.029   4.168   0.371
 5051SOL    HW116052   2.940   4.206   0.343
 5051SOL    HW216053   3.084   4.148   0.290
 5052SOL     OW16054   6.077   3.451   0.922
 5052SOL    HW116055   6.089   3.546   0.894
 5052SOL    HW216056   6.098   3.390   0.846
 5053SOL     OW16057   2.051   4.914   0.313
 5053SOL    HW116058   2.091   4.829   0.279
 5053SOL    HW216059   2.010   4.899   0.403
 5054SOL     OW16060   3.934   5.963   5.103
 5054SOL    HW116061   3.915   5.909   5.022
 5054SOL    HW216062   4.009   5.922   5.155
 5055SOL     OW16063   1.907   2.101   3.914
 5055SOL    HW116064   1.891   2.024   3.853
 5055SOL    HW216065   1.929   2.182   3.860
 5056SOL     OW16066   1.863   2.263   5.296
 5056SOL    HW116067   1.948   2.211   5.304
 5056SOL    HW216068   1.882   2.360   5.313
 5057SOL     OW16069   0.818   5.158   3.006
 5057SOL    HW116070   0.833   5.072   3.055
 5057SOL    HW216071   0.737   5.204   3.043
 5058SOL     OW16072   3.653   3.879   6.963
 5058SOL    HW116073   3.571   3.925   6.995
 5058SOL    HW216074   3.640   3.780   6.969
 5059SOL     OW16075   4.142   1.546   3.353
 5059SOL    HW116076   4.167   1.600   3.273
 5059SOL    HW216077   4.044   1.554   3.368
 5060SOL     OW16078   0.040   3.714   5.504
 5060SOL    HW116079   0.046   3.616   5.524
 5060SOL    HW216080   0.127   3.758   5.525
 5061SOL     OW16081   3.778   2.368   5.572
 5061SOL    HW116082   3.846   2.386   5.500
 5061SOL    HW216083   3.753   2.454   5.617
 5062SOL     OW16084   5.429   0.617   3.581
 5062SOL    HW116085   5.444   0.536   3.638
 5062SOL    HW216086   5.517   0.661   3.562
 5063SOL     OW16087   0.994   0.896   1.938
 5063SOL    HW116088   0.995   0.988   1.978
 5063SOL    HW216089   0.902   0.858   1.946
 5064SOL     OW16090   5.156   5.596   0.725
 5064SOL    HW116091   5.063   5.633   0.721
 5064SOL    HW216092   5.221   5.666   0.698
 5065SOL     OW16093   2.264   1.138   2.826
 5065SOL    HW116094   2.173   1.167   2.856
 5065SOL    HW216095   2.292   1.057   2.877
 5066SOL     OW16096   2.392   4.902   2.552
 5066SOL    HW116097   2.489   4.921   2.571
 5066SOL    HW216098   2.340   4.987   2.559
 5067SOL     OW16099   5.558   2.697   0.550
 5067SOL    HW116100   5.526   2.660   0.463
 5067SOL    HW216101   5.596   2.789   0.536
 5068SOL     OW16102   2.861   5.711   0.503
 5068SOL    HW116103   2.923   5.694   0.427
 5068SOL    HW216104   2.912   5.749   0.580
 5069SOL     OW16105   3.451   4.970   5.026
 5069SOL    HW116106   3.385   5.037   4.991
 5069SOL    HW216107   3.405   4.908   5.090
 5070SOL     OW16108   5.836   3.727   4.862
 5070SOL    HW116109   5.858   3.723   4.764
 5070SOL    HW216110   5.919   3.749   4.913
 5071SOL     OW16111   2.682   0.122   4.174
 5071SOL    HW116112   2.771   0.082   4.156
 5071SOL    HW216113   2.680   0.158   4.267
 5072SOL     OW16114   0.601   1.301   0.255
 5072SOL    HW116115   0.520   1.303   0.195
 5072SOL    HW216116   0.652   1.217   0.237
 5073SOL     OW16117   2.370   0.632   2.288
 5073SOL    HW116118   2.373   0.710   2.226
 5073SOL    HW216119   2.303   0.649   2.360
 5074SOL     OW16120   3.520   2.188   1.735
 5074SOL    HW116121   3.589   2.251   1.770
 5074SOL    HW216122   3.531   2.098   1.777
 5075SOL     OW16123   0.897   3.457   0.015
 5075SOL    HW116124   0.941   3.505   6.958
 5075SOL    HW216125   0.872   3.523   0.086
 5076SOL     OW16126   5.859   0.022   6.504
 5076SOL    HW116127   5.842   7.015   6.409
 5076SOL    HW216128   5.891   6.962   6.555
 5077SOL     OW16129   0.511   4.742   3.695
 5077SOL    HW116130   0.542   4.654   3.732
 5077SOL    HW216131   0.506   4.809   3.769
 5078SOL     OW16132   0.423   2.119   4.238
 5078SOL    HW116133   0.356   2.055   4.201
 5078SOL    HW216134   0.391   2.155   4.325
 5079SOL     OW16135   1.954   2.951   5.913
 5079SOL    HW116136   1.867   2.905   5.931
 5079SOL    HW216137   1.948   3.005   5.830
 5080SOL     OW16138   5.637   5.669   0.082
 5080SOL    HW116139   5.640   5.572   0.057
 5080SOL    HW216140   5.727   5.698   0.114
 5081SOL     OW16141   2.922   5.662   5.619
 5081SOL    HW116142   2.895   5.724   5.546
 5081SOL    HW216143   2.944   5.715   5.701
 5082SOL     OW16144   5.742   6.061   1.690
 5082SOL    HW116145   5.743   6.089   1.786
 5082SOL    HW216146   5.698   5.972   1.681
 5083SOL     OW16147   1.752   0.132   3.225
 5083SOL    HW116148   1.722   0.168   3.137
 5083SOL    HW216149   1.778   0.035   3.215
 5084SOL     OW16150   2.334   4.921   5.510
 5084SOL    HW116151   2.269   4.927   5.435
 5084SOL    HW216152   2.291   4.876   5.588
 5085SOL     OW16153   0.622   4.338   5.231
 5085SOL    HW116154   0.666   4.319   5.319
 5085SOL    HW216155   0.692   4.357   5.162
 5086SOL     OW16156   1.721   5.204   1.921
 5086SOL    HW116157   1.671   5.274   1.972
 5086SOL    HW216158   1.750   5.241   1.833
 5087SOL     OW16159   6.466   4.444   2.126
 5087SOL    HW116160   6.471   4.373   2.056
 5087SOL    HW216161   6.531   4.423   2.200
 5088SOL     OW16162   5.397   6.211   2.159
 5088SOL    HW116163   5.360   6.139   2.100
 5088SOL    HW216164   5.339   6.221   2.240
 5089SOL     OW16165   5.208   5.550   5.748
 5089SOL    HW116166   5.271   5.508   5.682
 5089SOL    HW216167   5.127   5.492   5.759
 5090SOL     OW16168   3.049   0.131   5.284
 5090SOL    HW116169   3.089   0.167   5.367
 5090SOL    HW216170   2.952   0.157   5.279
 5091SOL     OW16171   6.393   6.946   6.426
 5091SOL    HW116172   6.406   6.866   6.485
 5091SOL    HW216173   6.451   6.937   6.345
 5092SOL     OW16174   2.877   3.463   4.246
 5092SOL    HW116175   2.835   3.532   4.187
 5092SOL    HW216176   2.840   3.471   4.338
 5093SOL     OW16177   2.560   1.790   2.520
 5093SOL    HW116178   2.581   1.876   2.473
 5093SOL    HW216179   2.633   1.770   2.585
 5094SOL     OW16180   2.158   5.482   5.417
 5094SOL    HW116181   2.193   5.390   5.400
 5094SOL    HW216182   2.174   5.540   5.337
 5095SOL     OW16183   6.299   1.519   2.946
 5095SOL    HW116184   6.330   1.439   2.894
 5095SOL    HW216185   6.310   1.601   2.890
 5096SOL     OW16186   5.808   2.715   5.774
 5096SOL    HW116187   5.812   2.702   5.873
 5096SOL    HW216188   5.864   2.646   5.729
 5097SOL     OW16189   1.093   0.464   5.818
 5097SOL    HW116190   1.050   0.383   5.858
 5097SOL    HW216191   1.113   0.446   5.721
 5098SOL     OW16192   3.231   3.329   1.037
 5098SOL    HW116193   3.262   3.243   0.995
 5098SOL    HW216194   3.194   3.389   0.966
 5099SOL     OW16195   1.513   0.253   2.291
 5099SOL    HW116196   1.502   0.162   2.252
 5099SOL    HW216197   1.427   0.282   2.333
 5100SOL     OW16198   5.279   3.716   2.144
 5100SOL    HW116199   5.360   3.774   2.144
 5100SOL    HW216200   5.223   3.737   2.224
 5101SOL     OW16201   3.785   0.569   6.513
 5101SOL    HW116202   3.718   0.642   6.522
 5101SOL    HW216203   3.745   0.492   6.462
 5102SOL     OW16204   4.749   4.635   4.253
 5102SOL    HW116205   4.693   4.553   4.239
 5102SOL    HW216206   4.728   4.702   4.182
 5103SOL     OW16207   0.654   1.154   6.154
 5103SOL    HW116208   0.720   1.185   6.222
 5103SOL    HW216209   0.702   1.125   6.071
 5104SOL     OW16210   3.829   3.316   1.879
 5104SOL    HW116211   3.851   3.289   1.786
 5104SOL    HW216212   3.784   3.405   1.879
 5105SOL     OW16213   4.243   3.168   6.208
 5105SOL    HW116214   4.212   3.091   6.152
 5105SOL    HW216215   4.198   3.165   6.297
 5106SOL     OW16216   4.469   2.413   0.838
 5106SOL    HW116217   4.441   2.488   0.898
 5106SOL    HW216218   4.493   2.449   0.748
 5107SOL     OW16219   4.751   3.681   6.971
 5107SOL    HW116220   4.812   3.651   0.025
 5107SOL    HW216221   4.689   3.752   7.006
 5108SOL     OW16222   4.015   4.578   0.478
 5108SOL    HW116223   3.948   4.505   0.494
 5108SOL    HW216224   3.997   4.620   0.389
 5109SOL     OW16225   1.127   3.017   0.928
 5109SOL    HW116226   1.171   3.053   1.010
 5109SOL    HW216227   1.156   3.069   0.848
 5110SOL     OW16228   4.983   0.173   5.825
 5110SOL    HW116229   5.018   0.128   5.743
 5110SOL    HW216230   5.014   0.123   5.906
 5111SOL     OW16231   0.442   6.486   4.740
 5111SOL    HW116232   0.476   6.407   4.688
 5111SOL    HW216233   0.493   6.495   4.825
 5112SOL     OW16234   6.692   6.720   3.407
 5112SOL    HW116235   6.630   6.677   3.472
 5112SOL    HW216236   6.657   6.810   3.381
 5113SOL     OW16237   1.803   3.653   6.765
 5113SOL    HW116238   1.861   3.724   6.803
 5113SOL    HW216239   1.769   3.594   6.839
 5114SOL     OW16240   4.904   5.017   1.057
 5114SOL    HW116241   4.926   4.921   1.046
 5114SOL    HW216242   4.945   5.052   1.141
 5115SOL     OW16243   1.787   3.990   0.873
 5115SOL    HW116244   1.880   4.023   0.857
 5115SOL    HW216245   1.731   4.066   0.907
 5116SOL     OW16246   1.278   1.080   6.422
 5116SOL    HW116247   1.320   1.067   6.332
 5116SOL    HW216248   1.333   1.145   6.475
 5117SOL     OW16249   1.375   2.439   3.910
 5117SOL    HW116250   1.406   2.350   3.878
 5117SOL    HW216251   1.368   2.438   4.010
 5118SOL     OW16252   4.627   5.626   6.232
 5118SOL    HW116253   4.683   5.647   6.152
 5118SOL    HW216254   4.614   5.527   6.239
 5119SOL     OW16255   5.560   0.995   0.123
 5119SOL    HW116256   5.481   0.943   0.089
 5119SOL    HW216257   5.528   1.077   0.170
 5120SOL     OW16258   5.573   6.255   6.667
 5120SOL    HW116259   5.499   6.188   6.671
 5120SOL    HW216260   5.650   6.222   6.721
 5121SOL     OW16261   1.315   3.475   6.317
 5121SOL    HW116262   1.319   3.539   6.239
 5121SOL    HW216263   1.407   3.449   6.343
 5122SOL     OW16264   5.405   5.132   4.371
 5122SOL    HW116265   5.393   5.134   4.470
 5122SOL    HW216266   5.465   5.207   4.343
 5123SOL     OW16267   5.037   3.329   1.366
 5123SOL    HW116268   4.959   3.334   1.429
 5123SOL    HW216269   5.108   3.394   1.395
 5124SOL     OW16270   2.243   6.022   5.349
 5124SOL    HW116271   2.174   5.950   5.346
 5124SOL    HW216272   2.209   6.100   5.402
 5125SOL     OW16273   6.765   2.076   3.816
 5125SOL    HW116274   6.759   1.978   3.798
 5125SOL    HW216275   6.741   2.094   3.912
 5126SOL     OW16276   2.003   0.339   0.840
 5126SOL    HW116277   2.102   0.328   0.844
 5126SOL    HW216278   1.977   0.425   0.884
 5127SOL     OW16279   2.250   5.281   6.863
 5127SOL    HW116280   2.261   5.363   6.919
 5127SOL    HW216281   2.336   5.261   6.816
 5128SOL     OW16282   6.338   0.192   1.967
 5128SOL    HW116283   6.385   0.111   1.932
 5128SOL    HW216284   6.242   0.189   1.941
 5129SOL     OW16285   5.511   0.051   0.877
 5129SOL    HW116286   5.468   6.990   0.916
 5129SOL    HW216287   5.442   0.108   0.832
 5130SOL     OW16288   0.044   4.761   3.208
 5130SOL    HW116289   0.070   4.792   3.299
 5130SOL    HW216290   0.044   4.839   3.145
 5131SOL     OW16291   2.772   2.305   2.615
 5131SOL    HW116292   2.691   2.306   2.555
 5131SOL    HW216293   2.742   2.302   2.710
 5132SOL     OW16294   2.994   6.359   5.104
 5132SOL    HW116295   2.897   6.376   5.122
 5132SOL    HW216296   3.011   6.261   5.106
 5133SOL     OW16297   3.860   6.563   6.330
 5133SOL    HW116298   3.823   6.629   6.395
 5133SOL    HW216299   3.932   6.606   6.275
 5134SOL     OW16300   6.470   4.144   0.078
 5134SOL    HW116301   6.568   4.144   0.097
 5134SOL    HW216302   6.435   4.051   0.084
 5135SOL     OW16303   5.902   1.791   4.326
 5135SOL    HW116304   5.886   1.693   4.341
 5135SOL    HW216305   5.820   1.842   4.350
 5136SOL     OW16306   4.038   1.002   4.122
 5136SOL    HW116307   4.097   1.061   4.176
 5136SOL    HW216308   3.999   1.053   4.045
 5137SOL     OW16309   3.340   4.553   6.583
 5137SOL    HW116310   3.341   4.640   6.632
 5137SOL    HW216311   3.264   4.497   6.615
 5138SOL     OW16312   2.551   3.165   6.290
 5138SOL    HW116313   2.579   3.220   6.211
 5138SOL    HW216314   2.475   3.210   6.337
 5139SOL     OW16315   0.689   0.276   3.142
 5139SOL    HW116316   0.746   0.208   3.096
 5139SOL    HW216317   0.601   0.282   3.096
 5140SOL     OW16318   3.737   2.865   1.842
 5140SOL    HW116319   3.800   2.793   1.812
 5140SOL    HW216320   3.654   2.824   1.879
 5141SOL     OW16321   6.596   3.481   6.626
 5141SOL    HW116322   6.575   3.514   6.534
 5141SOL    HW216323   6.511   3.453   6.671
 5142SOL     OW16324   5.592   3.233   4.109
 5142SOL    HW116325   5.545   3.145   4.116
 5142SOL    HW216326   5.535   3.298   4.059
 5143SOL     OW16327   6.866   4.717   4.663
 5143SOL    HW116328   6.885   4.636   4.718
 5143SOL    HW216329   6.889   4.698   4.567
 5144SOL     OW16330   1.614   1.219   5.132
 5144SOL    HW116331   1.679   1.188   5.063
 5144SOL    HW216332   1.528   1.167   5.123
 5145SOL     OW16333   3.063   5.868   5.766
 5145SOL    HW116334   3.078   5.966   5.781
 5145SOL    HW216335   3.114   5.839   5.685
 5146SOL     OW16336   2.743   4.247   6.968
 5146SOL    HW116337   2.679   4.319   6.996
 5146SOL    HW216338   2.692   4.165   6.943
 5147SOL     OW16339   5.894   4.826   6.733
 5147SOL    HW116340   5.890   4.754   6.663
 5147SOL    HW216341   5.813   4.885   6.724
 5148SOL     OW16342   0.392   6.391   1.565
 5148SOL    HW116343   0.341   6.461   1.614
 5148SOL    HW216344   0.482   6.426   1.540
 5149SOL     OW16345   6.527   1.197   4.950
 5149SOL    HW116346   6.590   1.148   5.011
 5149SOL    HW216347   6.513   1.145   4.867
 5150SOL     OW16348   1.576   5.269   4.297
 5150SOL    HW116349   1.479   5.252   4.313
 5150SOL    HW216350   1.631   5.222   4.367
 5151SOL     OW16351   4.428   0.955   6.512
 5151SOL    HW116352   4.514   0.916   6.544
 5151SOL    HW216353   4.430   1.055   6.523
 5152SOL     OW16354   0.788   4.974   0.206
 5152SOL    HW116355   0.854   4.926   0.147
 5152SOL    HW216356   0.720   5.020   0.149
 5153SOL     OW16357   1.765   1.541   0.792
 5153SOL    HW116358   1.681   1.551   0.846
 5153SOL    HW216359   1.833   1.607   0.823
 5154SOL     OW16360   2.130   3.351   4.529
 5154SOL    HW116361   2.045   3.305   4.505
 5154SOL    HW216362   2.170   3.306   4.609
 5155SOL     OW16363   3.149   1.251   2.071
 5155SOL    HW116364   3.204   1.323   2.028
 5155SOL    HW216365   3.205   1.169   2.085
 5156SOL     OW16366   5.766   2.970   5.781
 5156SOL    HW116367   5.811   3.014   5.860
 5156SOL    HW216368   5.790   2.874   5.778
 5157SOL     OW16369   5.938   3.166   3.532
 5157SOL    HW116370   6.001   3.136   3.460
 5157SOL    HW216371   5.895   3.086   3.574
 5158SOL     OW16372   4.142   1.285   1.014
 5158SOL    HW116373   4.194   1.346   1.073
 5158SOL    HW216374   4.202   1.252   0.940
 5159SOL     OW16375   1.107   2.847   4.455
 5159SOL    HW116376   1.162   2.842   4.372
 5159SOL    HW216377   1.126   2.932   4.503
 5160SOL     OW16378   2.133   3.060   4.301
 5160SOL    HW116379   2.044   3.016   4.284
 5160SOL    HW216380   2.160   3.044   4.396
 5161SOL     OW16381   1.522   2.808   6.738
 5161SOL    HW116382   1.584   2.826   6.814
 5161SOL    HW216383   1.429   2.833   6.765
 5162SOL     OW16384   6.119   6.497   4.931
 5162SOL    HW116385   6.127   6.587   4.974
 5162SOL    HW216386   6.204   6.474   4.884
 5163SOL     OW16387   5.741   3.338   0.993
 5163SOL    HW116388   5.772   3.361   1.085
 5163SOL    HW216389   5.790   3.395   0.927
 5164SOL     OW16390   5.831   4.829   6.091
 5164SOL    HW116391   5.845   4.895   6.165
 5164SOL    HW216392   5.913   4.772   6.082
 5165SOL     OW16393   6.584   4.350   4.395
 5165SOL    HW116394   6.612   4.415   4.465
 5165SOL    HW216395   6.521   4.283   4.434
 5166SOL     OW16396   1.091   0.222   1.834
 5166SOL    HW116397   1.032   0.295   1.866
 5166SOL    HW216398   1.107   0.157   1.908
 5167SOL     OW16399   0.697   6.367   5.750
 5167SOL    HW116400   0.709   6.273   5.780
 5167SOL    HW216401   0.748   6.429   5.810
 5168SOL     OW16402   4.076   2.056   3.045
 5168SOL    HW116403   4.041   2.082   2.955
 5168SOL    HW216404   4.120   2.135   3.088
 5169SOL     OW16405   3.647   4.617   6.162
 5169SOL    HW116406   3.557   4.657   6.148
 5169SOL    HW216407   3.646   4.520   6.138
 5170SOL     OW16408   5.119   4.042   4.259
 5170SOL    HW116409   5.191   4.076   4.198
 5170SOL    HW216410   5.078   4.119   4.308
 5171SOL     OW16411   2.482   4.568   4.629
 5171SOL    HW116412   2.486   4.483   4.576
 5171SOL    HW216413   2.471   4.546   4.726
 5172SOL     OW16414   2.128   5.312   0.846
 5172SOL    HW116415   2.065   5.384   0.818
 5172SOL    HW216416   2.113   5.230   0.792
 5173SOL     OW16417   5.891   3.914   5.792
 5173SOL    HW116418   5.920   3.905   5.887
 5173SOL    HW216419   5.814   3.853   5.774
 5174SOL     OW16420   1.497   4.491   5.734
 5174SOL    HW116421   1.429   4.514   5.804
 5174SOL    HW216422   1.487   4.554   5.657
 5175SOL     OW16423   0.423   4.926   6.707
 5175SOL    HW116424   0.344   4.893   6.758
 5175SOL    HW216425   0.393   4.994   6.640
 5176SOL     OW16426   5.203   3.571   0.290
 5176SOL    HW116427   5.258   3.631   0.347
 5176SOL    HW216428   5.142   3.516   0.348
 5177SOL     OW16429   5.479   6.751   6.814
 5177SOL    HW116430   5.472   6.733   6.912
 5177SOL    HW216431   5.506   6.846   6.799
 5178SOL     OW16432   2.133   1.876   1.526
 5178SOL    HW116433   2.143   1.972   1.553
 5178SOL    HW216434   2.160   1.817   1.601
 5179SOL     OW16435   2.747   5.806   5.837
 5179SOL    HW116436   2.784   5.898   5.828
 5179SOL    HW216437   2.686   5.787   5.760
 5180SOL     OW16438   3.258   2.416   1.219
 5180SOL    HW116439   3.329   2.458   1.163
 5180SOL    HW216440   3.212   2.487   1.273
 5181SOL     OW16441   3.245   5.297   2.548
 5181SOL    HW116442   3.187   5.365   2.501
 5181SOL    HW216443   3.192   5.213   2.562
 5182SOL     OW16444   5.147   4.359   1.967
 5182SOL    HW116445   5.183   4.367   2.060
 5182SOL    HW216446   5.222   4.362   1.901
 5183SOL     OW16447   4.606   0.607   2.869
 5183SOL    HW116448   4.666   0.555   2.808
 5183SOL    HW216449   4.610   0.704   2.844
 5184SOL     OW16450   0.864   1.678   2.947
 5184SOL    HW116451   0.875   1.625   3.032
 5184SOL    HW216452   0.821   1.766   2.969
 5185SOL     OW16453   4.124   0.060   2.272
 5185SOL    HW116454   4.208   0.113   2.259
 5185SOL    HW216455   4.076   0.052   2.184
 5186SOL     OW16456   6.055   4.352   0.711
 5186SOL    HW116457   5.980   4.290   0.733
 5186SOL    HW216458   6.118   4.307   0.647
 5187SOL     OW16459   5.230   1.465   3.863
 5187SOL    HW116460   5.216   1.524   3.784
 5187SOL    HW216461   5.254   1.373   3.831
 5188SOL     OW16462   0.910   3.479   5.027
 5188SOL    HW116463   0.921   3.559   4.968
 5188SOL    HW216464   0.841   3.419   4.989
 5189SOL     OW16465   4.660   5.165   6.565
 5189SOL    HW116466   4.563   5.147   6.576
 5189SOL    HW216467   4.686   5.244   6.620
 5190SOL     OW16468   1.332   2.324   3.430
 5190SOL    HW116469   1.263   2.363   3.369
 5190SOL    HW216470   1.423   2.352   3.401
 5191SOL     OW16471   3.871   0.429   1.755
 5191SOL    HW116472   3.887   0.494   1.680
 5191SOL    HW216473   3.801   0.466   1.816
 5192SOL     OW16474   6.162   4.431   2.542
 5192SOL    HW116475   6.188   4.337   2.561
 5192SOL    HW216476   6.205   4.461   2.457
 5193SOL     OW16477   5.245   3.714   3.008
 5193SOL    HW116478   5.235   3.634   2.949
 5193SOL    HW216479   5.341   3.742   3.012
 5194SOL     OW16480   5.881   1.098   5.902
 5194SOL    HW116481   5.898   1.162   5.977
 5194SOL    HW216482   5.820   1.025   5.934
 5195SOL     OW16483   6.266   6.789   5.851
 5195SOL    HW116484   6.258   6.888   5.864
 5195SOL    HW216485   6.192   6.743   5.901
 5196SOL     OW16486   0.784   3.362   1.762
 5196SOL    HW116487   0.712   3.387   1.827
 5196SOL    HW216488   0.761   3.276   1.718
 5197SOL     OW16489   2.979   6.393   4.832
 5197SOL    HW116490   3.029   6.310   4.805
 5197SOL    HW216491   3.011   6.423   4.921
 5198SOL     OW16492   4.279   7.018   5.557
 5198SOL    HW116493   4.198   0.045   5.521
 5198SOL    HW216494   4.300   6.939   5.500
 5199SOL     OW16495   1.169   4.925   1.439
 5199SOL    HW116496   1.268   4.942   1.430
 5199SOL    HW216497   1.153   4.862   1.515
 5200SOL     OW16498   6.708   0.681   5.184
 5200SOL    HW116499   6.784   0.633   5.140
 5200SOL    HW216500   6.631   0.618   5.196
 5201SOL     OW16501   6.418   5.100   4.965
 5201SOL    HW116502   6.442   5.111   4.868
 5201SOL    HW216503   6.372   5.183   4.997
 5202SOL     OW16504   3.772   2.966   5.962
 5202SOL    HW116505   3.731   2.889   5.913
 5202SOL    HW216506   3.860   2.989   5.920
 5203SOL     OW16507   1.946   0.672   6.785
 5203SOL    HW116508   1.909   0.600   6.843
 5203SOL    HW216509   2.025   0.713   6.829
 5204SOL     OW16510   2.672   0.128   0.883
 5204SOL    HW116511   2.711   0.066   0.815
 5204SOL    HW216512   2.738   0.144   0.956
 5205SOL     OW16513   0.189   6.267   1.376
 5205SOL    HW116514   0.194   6.211   1.459
 5205SOL    HW216515   0.094   6.287   1.355
 5206SOL     OW16516   1.117   4.950   4.046
 5206SOL    HW116517   1.057   4.910   3.977
 5206SOL    HW216518   1.084   5.041   4.070
 5207SOL     OW16519   6.593   0.176   3.721
 5207SOL    HW116520   6.573   0.271   3.747
 5207SOL    HW216521   6.509   0.122   3.728
 5208SOL     OW16522   5.597   1.999   0.736
 5208SOL    HW116523   5.587   2.051   0.652
 5208SOL    HW216524   5.668   2.040   0.793
 5209SOL     OW16525   5.886   5.670   3.137
 5209SOL    HW116526   5.926   5.579   3.147
 5209SOL    HW216527   5.795   5.670   3.179
 5210SOL     OW16528   5.347   3.746   0.429
 5210SOL    HW116529   5.377   3.816   0.365
 5210SOL    HW216530   5.352   3.782   0.523
 5211SOL     OW16531   5.584   2.433   4.942
 5211SOL    HW116532   5.538   2.419   4.855
 5211SOL    HW216533   5.673   2.388   4.940
 5212SOL     OW16534   0.869   3.666   0.184
 5212SOL    HW116535   0.913   3.746   0.144
 5212SOL    HW216536   0.891   3.660   0.281
 5213SOL     OW16537   3.704   3.648   3.024
 5213SOL    HW116538   3.773   3.613   3.087
 5213SOL    HW216539   3.749   3.685   2.943
 5214SOL     OW16540   5.641   3.641   5.291
 5214SOL    HW116541   5.597   3.680   5.210
 5214SOL    HW216542   5.658   3.544   5.276
 5215SOL     OW16543   0.670   3.767   5.028
 5215SOL    HW116544   0.767   3.781   5.043
 5215SOL    HW216545   0.652   3.670   5.013
 5216SOL     OW16546   5.535   5.019   1.384
 5216SOL    HW116547   5.600   4.943   1.386
 5216SOL    HW216548   5.466   5.002   1.314
 5217SOL     OW16549   4.738   5.961   3.337
 5217SOL    HW116550   4.837   5.949   3.348
 5217SOL    HW216551   4.694   5.955   3.427
 5218SOL     OW16552   6.691   0.293   0.971
 5218SOL    HW116553   6.641   0.208   0.989
 5218SOL    HW216554   6.783   0.271   0.938
 5219SOL     OW16555   3.147   1.232   5.069
 5219SOL    HW116556   3.246   1.246   5.069
 5219SOL    HW216557   3.104   1.298   5.008
 5220SOL     OW16558   2.533   4.835   3.998
 5220SOL    HW116559   2.478   4.856   4.079
 5220SOL    HW216560   2.626   4.810   4.025
 5221SOL     OW16561   6.494   5.629   1.158
 5221SOL    HW116562   6.453   5.626   1.250
 5221SOL    HW216563   6.571   5.692   1.158
 5222SOL     OW16564   6.251   3.762   1.235
 5222SOL    HW116565   6.175   3.802   1.184
 5222SOL    HW216566   6.337   3.780   1.187
 5223SOL     OW16567   0.009   2.996   0.373
 5223SOL    HW116568   6.936   3.009   0.407
 5223SOL    HW216569   0.068   2.967   0.448
 5224SOL     OW16570   6.762   2.282   4.941
 5224SOL    HW116571   6.834   2.212   4.948
 5224SOL    HW216572   6.801   2.365   4.900
 5225SOL     OW16573   0.083   1.533   4.477
 5225SOL    HW116574   0.060   1.465   4.408
 5225SOL    HW216575   0.175   1.514   4.513
 5226SOL     OW16576   0.755   6.503   3.832
 5226SOL    HW116577   0.711   6.584   3.792
 5226SOL    HW216578   0.829   6.473   3.773
 5227SOL     OW16579   0.695   2.987   5.695
 5227SOL    HW116580   0.789   3.001   5.664
 5227SOL    HW216581   0.668   3.062   5.755
 5228SOL     OW16582   1.037   1.505   5.582
 5228SOL    HW116583   1.103   1.460   5.521
 5228SOL    HW216584   0.945   1.493   5.545
 5229SOL     OW16585   3.453   1.736   6.177
 5229SOL    HW116586   3.450   1.734   6.077
 5229SOL    HW216587   3.456   1.831   6.209
 5230SOL     OW16588   6.916   6.927   1.906
 5230SOL    HW116589   7.015   6.933   1.903
 5230SOL    HW216590   6.884   6.856   1.843
 5231SOL     OW16591   6.672   2.965   2.073
 5231SOL    HW116592   6.586   2.943   2.028
 5231SOL    HW216593   6.714   3.044   2.028
 5232SOL     OW16594   1.678   2.853   5.927
 5232SOL    HW116595   1.613   2.798   5.875
 5232SOL    HW216596   1.678   2.824   6.022
 5233SOL     OW16597   3.365   6.868   2.553
 5233SOL    HW116598   3.456   6.828   2.548
 5233SOL    HW216599   3.301   6.814   2.498
 5234SOL     OW16600   2.820   2.405   0.026
 5234SOL    HW116601   2.838   2.312   0.059
 5234SOL    HW216602   2.886   2.468   0.067
 5235SOL     OW16603   1.857   2.415   1.592
 5235SOL    HW116604   1.879   2.376   1.502
 5235SOL    HW216605   1.860   2.515   1.587
 5236SOL     OW16606   3.244   5.168   1.312
 5236SOL    HW116607   3.304   5.151   1.391
 5236SOL    HW216608   3.279   5.118   1.233
 5237SOL     OW16609   2.223   1.921   2.710
 5237SOL    HW116610   2.242   1.887   2.803
 5237SOL    HW216611   2.150   1.989   2.714
 5238SOL     OW16612   0.631   6.543   2.987
 5238SOL    HW116613   0.676   6.627   3.019
 5238SOL    HW216614   0.567   6.566   2.914
 5239SOL     OW16615   2.704   3.956   0.636
 5239SOL    HW116616   2.728   3.861   0.653
 5239SOL    HW216617   2.780   4.002   0.589
 5240SOL     OW16618   2.471   3.854   5.973
 5240SOL    HW116619   2.498   3.806   5.889
 5240SOL    HW216620   2.521   3.815   6.050
 5241SOL     OW16621   0.737   6.108   2.528
 5241SOL    HW116622   0.769   6.186   2.473
 5241SOL    HW216623   0.815   6.048   2.548
 5242SOL     OW16624   4.367   1.091   0.055
 5242SOL    HW116625   4.379   1.053   0.147
 5242SOL    HW216626   4.457   1.110   0.015
 5243SOL     OW16627   2.533   5.861   1.849
 5243SOL    HW116628   2.597   5.926   1.892
 5243SOL    HW216629   2.559   5.847   1.754
 5244SOL     OW16630   4.823   1.716   0.204
 5244SOL    HW116631   4.755   1.706   0.132
 5244SOL    HW216632   4.908   1.672   0.175
 5245SOL     OW16633   3.208   3.713   1.696
 5245SOL    HW116634   3.264   3.755   1.624
 5245SOL    HW216635   3.133   3.661   1.653
 5246SOL     OW16636   6.784   4.217   6.360
 5246SOL    HW116637   6.697   4.187   6.321
 5246SOL    HW216638   6.824   4.143   6.413
 5247SOL     OW16639   4.149   2.273   6.570
 5247SOL    HW116640   4.050   2.288   6.564
 5247SOL    HW216641   4.184   2.312   6.655
 5248SOL     OW16642   5.643   0.770   3.501
 5248SOL    HW116643   5.670   0.740   3.410
 5248SOL    HW216644   5.679   0.861   3.518
 5249SOL     OW16645   0.725   4.335   0.343
 5249SOL    HW116646   0.659   4.367   0.275
 5249SOL    HW216647   0.776   4.413   0.380
 5250SOL     OW16648   1.893   6.001   0.915
 5250SOL    HW116649   1.958   6.045   0.977
 5250SOL    HW216650   1.820   6.065   0.892
 5251SOL     OW16651   0.760   4.937   0.541
 5251SOL    HW116652   0.733   4.872   0.612
 5251SOL    HW216653   0.712   4.916   0.456
 5252SOL     OW16654   3.288   6.298   2.320
 5252SOL    HW116655   3.238   6.212   2.322
 5252SOL    HW216656   3.382   6.282   2.288
 5253SOL     OW16657   6.654   5.559   4.889
 5253SOL    HW116658   6.596   5.514   4.821
 5253SOL    HW216659   6.724   5.496   4.921
 5254SOL     OW16660   4.958   6.399   3.637
 5254SOL    HW116661   4.959   6.314   3.585
 5254SOL    HW216662   4.933   6.379   3.732
 5255SOL     OW16663   6.594   1.773   5.339
 5255SOL    HW116664   6.588   1.682   5.297
 5255SOL    HW216665   6.619   1.840   5.269
 5256SOL     OW16666   0.003   1.619   2.223
 5256SOL    HW116667   6.967   1.640   2.303
 5256SOL    HW216668   7.001   1.683   2.149
 5257SOL     OW16669   4.170   1.456   6.354
 5257SOL    HW116670   4.149   1.358   6.360
 5257SOL    HW216671   4.087   1.509   6.370
 5258SOL     OW16672   4.402   1.404   3.699
 5258SOL    HW116673   4.501   1.390   3.701
 5258SOL    HW216674   4.368   1.390   3.606
 5259SOL     OW16675   6.445   4.896   3.681
 5259SOL    HW116676   6.456   4.819   3.619
 5259SOL    HW216677   6.535   4.926   3.714
 5260SOL     OW16678   2.205   0.686   0.618
 5260SOL    HW116679   2.137   0.618   0.590
 5260SOL    HW216680   2.253   0.719   0.538
 5261SOL     OW16681   5.615   4.417   6.407
 5261SOL    HW116682   5.529   4.447   6.365
 5261SOL    HW216683   5.600   4.392   6.502
 5262SOL     OW16684   1.655   1.334   2.756
 5262SOL    HW116685   1.609   1.288   2.832
 5262SOL    HW216686   1.724   1.397   2.791
 5263SOL     OW16687   1.378   6.501   2.390
 5263SOL    HW116688   1.435   6.424   2.361
 5263SOL    HW216689   1.400   6.582   2.335
 5264SOL     OW16690   6.306   1.550   1.942
 5264SOL    HW116691   6.397   1.590   1.949
 5264SOL    HW216692   6.239   1.622   1.927
 5265SOL     OW16693   6.644   4.725   5.200
 5265SOL    HW116694   6.564   4.767   5.159
 5265SOL    HW216695   6.685   4.789   5.266
 5266SOL     OW16696   1.871   0.553   6.540
 5266SOL    HW116697   1.930   0.554   6.621
 5266SOL    HW216698   1.830   0.643   6.528
 5267SOL     OW16699   5.644   2.498   4.283
 5267SOL    HW116700   5.701   2.517   4.203
 5267SOL    HW216701   5.632   2.583   4.335
 5268SOL     OW16702   5.225   0.098   6.133
 5268SOL    HW116703   5.312   0.090   6.084
 5268SOL    HW216704   5.229   0.044   6.217
 5269SOL     OW16705   0.409   7.013   3.418
 5269SOL    HW116706   0.426   0.061   3.346
 5269SOL    HW216707   0.318   0.007   3.457
 5270SOL     OW16708   0.429   1.247   6.271
 5270SOL    HW116709   0.360   1.174   6.275
 5270SOL    HW216710   0.506   1.217   6.215
 5271SOL     OW16711   0.435   5.039   2.867
 5271SOL    HW116712   0.339   5.015   2.856
 5271SOL    HW216713   0.470   5.077   2.781
 5272SOL     OW16714   4.372   0.689   0.050
 5272SOL    HW116715   4.283   0.648   0.071
 5272SOL    HW216716   4.367   0.735   6.981
 5273SOL     OW16717   2.407   2.076   2.568
 5273SOL    HW116718   2.364   1.991   2.598
 5273SOL    HW216719   2.344   2.153   2.583
 5274SOL     OW16720   5.304   4.958   1.210
 5274SOL    HW116721   5.308   4.983   1.113
 5274SOL    HW216722   5.226   4.897   1.225
 5275SOL     OW16723   4.447   2.051   6.942
 5275SOL    HW116724   4.484   1.978   6.885
 5275SOL    HW216725   4.385   2.012   7.010
 5276SOL     OW16726   4.287   6.766   1.441
 5276SOL    HW116727   4.319   6.857   1.467
 5276SOL    HW216728   4.215   6.736   1.504
 5277SOL     OW16729   2.424   2.884   1.646
 5277SOL    HW116730   2.454   2.830   1.725
 5277SOL    HW216731   2.346   2.941   1.672
 5278SOL     OW16732   4.594   3.545   1.567
 5278SOL    HW116733   4.615   3.560   1.471
 5278SOL    HW216734   4.596   3.632   1.616
 5279SOL     OW16735   1.999   5.683   2.848
 5279SOL    HW116736   2.003   5.628   2.766
 5279SOL    HW216737   1.944   5.765   2.831
 5280SOL     OW16738   4.410   0.204   4.915
 5280SOL    HW116739   4.460   0.247   4.839
 5280SOL    HW216740   4.312   0.223   4.905
 5281SOL     OW16741   0.245   2.827   2.337
 5281SOL    HW116742   0.154   2.848   2.371
 5281SOL    HW216743   0.237   2.791   2.243
 5282SOL     OW16744   5.220   1.624   2.081
 5282SOL    HW116745   5.279   1.702   2.059
 5282SOL    HW216746   5.135   1.630   2.030
 5283SOL     OW16747   5.310   5.399   6.325
 5283SOL    HW116748   5.316   5.311   6.373
 5283SOL    HW216749   5.385   5.458   6.355
 5284SOL     OW16750   5.273   2.844   3.499
 5284SOL    HW116751   5.276   2.819   3.402
 5284SOL    HW216752   5.325   2.777   3.552
 5285SOL     OW16753   3.541   6.034   2.382
 5285SOL    HW116754   3.498   6.012   2.470
 5285SOL    HW216755   3.533   5.955   2.321
 5286SOL     OW16756   2.266   5.132   2.117
 5286SOL    HW116757   2.323   5.051   2.105
 5286SOL    HW216758   2.224   5.157   2.030
 5287SOL     OW16759   0.910   2.147   1.840
 5287SOL    HW116760   0.865   2.061   1.863
 5287SOL    HW216761   0.938   2.145   1.744
 5288SOL     OW16762   4.697   1.348   0.451
 5288SOL    HW116763   4.676   1.443   0.473
 5288SOL    HW216764   4.680   1.332   0.354
 5289SOL     OW16765   2.337   5.994   0.839
 5289SOL    HW116766   2.275   6.072   0.849
 5289SOL    HW216767   2.383   5.978   0.926
 5290SOL     OW16768   4.612   6.046   0.856
 5290SOL    HW116769   4.692   6.023   0.912
 5290SOL    HW216770   4.552   5.967   0.848
 5291SOL     OW16771   2.034   4.851   6.783
 5291SOL    HW116772   2.049   4.755   6.761
 5291SOL    HW216773   2.093   4.908   6.725
 5292SOL     OW16774   5.069   2.262   6.248
 5292SOL    HW116775   5.124   2.214   6.316
 5292SOL    HW216776   5.108   2.352   6.231
 5293SOL     OW16777   0.917   1.289   4.350
 5293SOL    HW116778   0.871   1.378   4.356
 5293SOL    HW216779   0.961   1.267   4.437
 5294SOL     OW16780   4.958   2.366   5.117
 5294SOL    HW116781   4.936   2.278   5.076
 5294SOL    HW216782   4.954   2.359   5.217
 5295SOL     OW16783   5.846   0.920   1.762
 5295SOL    HW116784   5.839   0.827   1.796
 5295SOL    HW216785   5.798   0.928   1.674
 5296SOL     OW16786   0.647   3.539   0.459
 5296SOL    HW116787   0.692   3.617   0.414
 5296SOL    HW216788   0.656   3.458   0.402
 5297SOL     OW16789   1.657   3.190   1.721
 5297SOL    HW116790   1.734   3.126   1.730
 5297SOL    HW216791   1.647   3.241   1.806
 5298SOL     OW16792   1.186   5.595   1.444
 5298SOL    HW116793   1.248   5.517   1.433
 5298SOL    HW216794   1.118   5.593   1.371
 5299SOL     OW16795   3.076   0.202   1.525
 5299SOL    HW116796   3.069   0.226   1.428
 5299SOL    HW216797   3.154   0.141   1.539
 5300SOL     OW16798   6.724   5.408   3.626
 5300SOL    HW116799   6.717   5.435   3.530
 5300SOL    HW216800   6.633   5.390   3.663
 5301SOL     OW16801   4.917   0.334   0.362
 5301SOL    HW116802   4.943   0.425   0.393
 5301SOL    HW216803   4.968   0.311   0.280
 5302SOL     OW16804   6.799   4.473   3.313
 5302SOL    HW116805   6.870   4.403   3.318
 5302SOL    HW216806   6.710   4.431   3.334
 5303SOL     OW16807   0.466   5.586   3.280
 5303SOL    HW116808   0.371   5.615   3.286
 5303SOL    HW216809   0.524   5.654   3.325
 5304SOL     OW16810   4.957   2.329   5.379
 5304SOL    HW116811   5.050   2.356   5.406
 5304SOL    HW216812   4.906   2.298   5.459
 5305SOL     OW16813   2.870   1.077   2.490
 5305SOL    HW116814   2.790   1.019   2.479
 5305SOL    HW216815   2.888   1.126   2.404
 5306SOL     OW16816   2.436   0.133   4.683
 5306SOL    HW116817   2.343   0.130   4.721
 5306SOL    HW216818   2.450   0.054   4.623
 5307SOL     OW16819   4.444   0.160   6.901
 5307SOL    HW116820   4.378   0.106   6.952
 5307SOL    HW216821   4.520   0.185   6.960
 5308SOL     OW16822   0.162   1.184   2.014
 5308SOL    HW116823   0.149   1.255   2.083
 5308SOL    HW216824   0.201   1.225   1.931
 5309SOL     OW16825   4.036   3.744   4.113
 5309SOL    HW116826   4.063   3.779   4.024
 5309SOL    HW216827   3.982   3.660   4.101
 5310SOL     OW16828   6.059   1.996   0.758
 5310SOL    HW116829   6.045   1.988   0.856
 5310SOL    HW216830   6.016   1.919   0.711
 5311SOL     OW16831   1.795   5.798   0.058
 5311SOL    HW116832   1.857   5.734   0.103
 5311SOL    HW216833   1.806   5.791   6.978
 5312SOL     OW16834   0.088   3.007   1.944
 5312SOL    HW116835   0.059   2.981   1.852
 5312SOL    HW216836   0.147   2.935   1.982
 5313SOL     OW16837   1.180   5.630   0.155
 5313SOL    HW116838   1.226   5.629   0.066
 5313SOL    HW216839   1.233   5.685   0.220
 5314SOL     OW16840   3.490   4.451   0.807
 5314SOL    HW116841   3.492   4.470   0.905
 5314SOL    HW216842   3.406   4.488   0.767
 5315SOL     OW16843   5.243   3.013   2.226
 5315SOL    HW116844   5.322   3.043   2.173
 5315SOL    HW216845   5.247   3.053   2.317
 5316SOL     OW16846   5.845   5.555   5.091
 5316SOL    HW116847   5.898   5.630   5.050
 5316SOL    HW216848   5.776   5.594   5.152
 5317SOL     OW16849   6.041   5.553   2.833
 5317SOL    HW116850   5.983   5.616   2.781
 5317SOL    HW216851   6.020   5.459   2.804
 5318SOL     OW16852   0.551   2.316   4.666
 5318SOL    HW116853   0.476   2.331   4.730
 5318SOL    HW216854   0.627   2.273   4.714
 5319SOL     OW16855   3.536   0.393   1.431
 5319SOL    HW116856   3.475   0.345   1.368
 5319SOL    HW216857   3.556   0.484   1.395
 5320SOL     OW16858   6.148   3.863   5.640
 5320SOL    HW116859   6.056   3.881   5.675
 5320SOL    HW216860   6.153   3.891   5.544
 5321SOL     OW16861   1.544   5.295   6.210
 5321SOL    HW116862   1.494   5.347   6.279
 5321SOL    HW216863   1.592   5.359   6.148
 5322SOL     OW16864   3.296   6.432   0.744
 5322SOL    HW116865   3.228   6.361   0.725
 5322SOL    HW216866   3.387   6.399   0.719
 5323SOL     OW16867   6.021   3.384   0.112
 5323SOL    HW116868   5.991   3.461   0.169
 5323SOL    HW216869   6.019   3.300   0.165
 5324SOL     OW16870   3.887   3.235   1.599
 5324SOL    HW116871   3.940   3.159   1.639
 5324SOL    HW216872   3.803   3.199   1.560
 5325SOL     OW16873   4.558   5.955   4.531
 5325SOL    HW116874   4.608   5.960   4.444
 5325SOL    HW216875   4.569   6.041   4.580
 5326SOL     OW16876   0.336   0.006   2.226
 5326SOL    HW116877   0.432   0.016   2.255
 5326SOL    HW216878   0.276   0.044   2.297
 5327SOL     OW16879   6.430   0.977   4.026
 5327SOL    HW116880   6.394   0.897   3.979
 5327SOL    HW216881   6.358   1.019   4.082
 5328SOL     OW16882   3.732   4.992   0.962
 5328SOL    HW116883   3.689   4.925   1.023
 5328SOL    HW216884   3.746   5.077   1.012
 5329SOL     OW16885   6.551   5.775   0.531
 5329SOL    HW116886   6.536   5.709   0.605
 5329SOL    HW216887   6.649   5.783   0.513
 5330SOL     OW16888   3.879   5.255   0.170
 5330SOL    HW116889   3.900   5.314   0.248
 5330SOL    HW216890   3.809   5.189   0.197
 5331SOL     OW16891   4.730   2.819   6.406
 5331SOL    HW116892   4.798   2.758   6.366
 5331SOL    HW216893   4.772   2.870   6.482
 5332SOL     OW16894   5.967   3.262   6.861
 5332SOL    HW116895   6.057   3.243   6.823
 5332SOL    HW216896   5.973   3.339   6.925
 5333SOL     OW16897   1.266   2.060   4.308
 5333SOL    HW116898   1.281   1.969   4.347
 5333SOL    HW216899   1.345   2.119   4.328
 5334SOL     OW16900   3.665   5.734   1.731
 5334SOL    HW116901   3.760   5.705   1.720
 5334SOL    HW216902   3.608   5.687   1.664
 5335SOL     OW16903   0.505   4.649   1.282
 5335SOL    HW116904   0.493   4.556   1.248
 5335SOL    HW216905   0.421   4.701   1.267
 5336SOL     OW16906   1.966   2.851   5.069
 5336SOL    HW116907   1.980   2.784   5.142
 5336SOL    HW216908   1.868   2.872   5.062
 5337SOL     OW16909   6.701   4.670   0.851
 5337SOL    HW116910   6.603   4.688   0.856
 5337SOL    HW216911   6.732   4.682   0.756
 5338SOL     OW16912   6.336   3.628   0.166
 5338SOL    HW116913   6.399   3.705   0.149
 5338SOL    HW216914   6.389   3.547   0.191
 5339SOL     OW16915   5.452   3.296   2.681
 5339SOL    HW116916   5.390   3.218   2.669
 5339SOL    HW216917   5.419   3.373   2.626
 5340SOL     OW16918   4.958   3.487   1.933
 5340SOL    HW116919   5.021   3.450   2.001
 5340SOL    HW216920   4.865   3.488   1.971
 5341SOL     OW16921   4.419   4.589   3.583
 5341SOL    HW116922   4.352   4.619   3.514
 5341SOL    HW216923   4.420   4.655   3.659
 5342SOL     OW16924   6.274   5.618   5.093
 5342SOL    HW116925   6.240   5.631   5.186
 5342SOL    HW216926   6.260   5.702   5.041
 5343SOL     OW16927   3.593   3.184   6.268
 5343SOL    HW116928   3.622   3.158   6.360
 5343SOL    HW216929   3.619   3.113   6.203
 5344SOL     OW16930   0.212   1.735   6.526
 5344SOL    HW116931   0.173   1.719   6.435
 5344SOL    HW216932   0.312   1.741   6.519
 5345SOL     OW16933   5.536   1.399   6.198
 5345SOL    HW116934   5.537   1.299   6.189
 5345SOL    HW216935   5.608   1.427   6.261
 5346SOL     OW16936   3.302   5.641   2.885
 5346SOL    HW116937   3.303   5.555   2.835
 5346SOL    HW216938   3.214   5.687   2.872
 5347SOL     OW16939   5.649   1.502   3.963
 5347SOL    HW116940   5.717   1.573   3.980
 5347SOL    HW216941   5.637   1.489   3.864
 5348SOL     OW16942   5.105   2.625   4.757
 5348SOL    HW116943   5.032   2.569   4.795
 5348SOL    HW216944   5.078   2.660   4.667
 5349SOL     OW16945   1.236   3.642   1.633
 5349SOL    HW116946   1.303   3.597   1.693
 5349SOL    HW216947   1.247   3.608   1.540
 5350SOL     OW16948   1.621   6.403   0.072
 5350SOL    HW116949   1.590   6.426   7.000
 5350SOL    HW216950   1.568   6.455   0.139
 5351SOL     OW16951   6.383   6.034   3.497
 5351SOL    HW116952   6.351   6.081   3.414
 5351SOL    HW216953   6.464   6.082   3.533
 5352SOL     OW16954   1.186   3.119   5.955
 5352SOL    HW116955   1.194   3.218   5.952
 5352SOL    HW216956   1.183   3.083   5.862
 5353SOL     OW16957   3.886   4.847   3.596
 5353SOL    HW116958   3.970   4.803   3.628
 5353SOL    HW216959   3.831   4.875   3.674
 5354SOL     OW16960   3.602   5.628   1.276
 5354SOL    HW116961   3.668   5.699   1.249
 5354SOL    HW216962   3.553   5.596   1.196
 5355SOL     OW16963   5.587   5.337   5.301
 5355SOL    HW116964   5.523   5.387   5.243
 5355SOL    HW216965   5.545   5.250   5.329
 5356SOL     OW16966   0.714   6.333   0.712
 5356SOL    HW116967   0.641   6.348   0.646
 5356SOL    HW216968   0.693   6.253   0.769
 5357SOL     OW16969   6.349   3.853   2.868
 5357SOL    HW116970   6.249   3.853   2.862
 5357SOL    HW216971   6.388   3.813   2.784
 5358SOL     OW16972   5.016   1.060   6.703
 5358SOL    HW116973   5.107   1.055   6.661
 5358SOL    HW216974   5.011   1.142   6.760
 5359SOL     OW16975   3.493   2.400   6.912
 5359SOL    HW116976   3.562   2.397   6.840
 5359SOL    HW216977   3.487   2.311   6.957
 5360SOL     OW16978   5.965   4.918   4.201
 5360SOL    HW116979   6.062   4.896   4.216
 5360SOL    HW216980   5.957   5.004   4.152
 5361SOL     OW16981   1.423   5.259   2.675
 5361SOL    HW116982   1.513   5.286   2.640
 5361SOL    HW216983   1.353   5.317   2.635
 5362SOL     OW16984   5.891   1.565   2.281
 5362SOL    HW116985   5.917   1.633   2.213
 5362SOL    HW216986   5.897   1.605   2.372
 5363SOL     OW16987   5.363   5.090   3.301
 5363SOL    HW116988   5.453   5.110   3.265
 5363SOL    HW216989   5.293   5.122   3.237
 5364SOL     OW16990   4.474   1.762   2.521
 5364SOL    HW116991   4.552   1.750   2.582
 5364SOL    HW216992   4.452   1.860   2.515
 5365SOL     OW16993   2.902   3.511   4.542
 5365SOL    HW116994   2.941   3.440   4.601
 5365SOL    HW216995   2.895   3.596   4.593
 5366SOL     OW16996   6.046   5.621   3.462
 5366SOL    HW116997   5.981   5.628   3.538
 5366SOL    HW216998   6.000   5.646   3.377
 5367SOL     OW16999   6.025   5.968   1.506
 5367SOL    HW117000   5.969   6.023   1.444
 5367SOL    HW217001   6.122   5.992   1.493
 5368SOL     OW17002   0.092   6.266   4.473
 5368SOL    HW117003   0.154   6.320   4.416
 5368SOL    HW217004   0.142   6.191   4.515
 5369SOL     OW17005   4.266   5.761   2.938
 5369SOL    HW117006   4.212   5.757   3.022
 5369SOL    HW217007   4.294   5.855   2.921
 5370SOL     OW17008   1.818   2.952   0.271
 5370SOL    HW117009   1.746   3.000   0.321
 5370SOL    HW217010   1.907   2.992   0.294
 5371SOL     OW17011   6.328   5.741   4.709
 5371SOL    HW117012   6.425   5.757   4.724
 5371SOL    HW217013   6.300   5.657   4.755
 5372SOL     OW17014   1.806   6.748   3.016
 5372SOL    HW117015   1.792   6.822   3.081
 5372SOL    HW217016   1.803   6.660   3.065
 5373SOL     OW17017   2.483   1.339   6.296
 5373SOL    HW117018   2.407   1.362   6.236
 5373SOL    HW217019   2.457   1.356   6.391
 5374SOL     OW17020   1.902   3.897   1.783
 5374SOL    HW117021   1.988   3.890   1.734
 5374SOL    HW217022   1.862   3.806   1.795
 5375SOL     OW17023   2.367   4.565   5.227
 5375SOL    HW117024   2.366   4.474   5.184
 5375SOL    HW217025   2.433   4.564   5.303
 5376SOL     OW17026   0.595   0.104   6.552
 5376SOL    HW117027   0.516   0.072   6.604
 5376SOL    HW217028   0.672   0.042   6.568
 5377SOL     OW17029   1.189   1.500   2.997
 5377SOL    HW117030   1.179   1.440   3.076
 5377SOL    HW217031   1.241   1.581   3.023
 5378SOL     OW17032   4.374   0.064   2.500
 5378SOL    HW117033   4.370   0.155   2.542
 5378SOL    HW217034   4.289   0.015   2.519
 5379SOL     OW17035   2.392   2.086   4.323
 5379SOL    HW117036   2.482   2.052   4.351
 5379SOL    HW217037   2.327   2.009   4.320
 5380SOL     OW17038   4.650   5.842   1.791
 5380SOL    HW117039   4.737   5.855   1.839
 5380SOL    HW217040   4.661   5.868   1.695
 5381SOL     OW17041   2.933   0.606   3.319
 5381SOL    HW117042   2.890   0.612   3.409
 5381SOL    HW217043   2.872   0.646   3.251
 5382SOL     OW17044   4.589   0.867   2.731
 5382SOL    HW117045   4.623   0.953   2.770
 5382SOL    HW217046   4.540   0.886   2.646
 5383SOL     OW17047   2.161   3.128   4.708
 5383SOL    HW117048   2.070   3.141   4.747
 5383SOL    HW217049   2.216   3.073   4.771
 5384SOL     OW17050   5.301   5.768   5.587
 5384SOL    HW117051   5.396   5.740   5.571
 5384SOL    HW217052   5.272   5.735   5.677
 5385SOL     OW17053   4.077   3.512   6.395
 5385SOL    HW117054   4.101   3.492   6.300
 5385SOL    HW217055   4.160   3.522   6.449
 5386SOL     OW17056   4.875   4.534   3.860
 5386SOL    HW117057   4.883   4.550   3.958
 5386SOL    HW217058   4.820   4.451   3.844
 5387SOL     OW17059   1.161   1.659   4.009
 5387SOL    HW117060   1.163   1.715   3.926
 5387SOL    HW217061   1.178   1.563   3.985
 5388SOL     OW17062   6.651   6.832   3.740
 5388SOL    HW117063   6.725   6.774   3.772
 5388SOL    HW217064   6.594   6.781   3.676
 5389SOL     OW17065   5.256   0.826   3.608
 5389SOL    HW117066   5.312   0.909   3.605
 5389SOL    HW217067   5.312   0.747   3.585
 5390SOL     OW17068   0.065   3.993   3.441
 5390SOL    HW117069   0.137   4.063   3.438
 5390SOL    HW217070   7.006   4.024   3.387
 5391SOL     OW17071   2.882   2.456   1.065
 5391SOL    HW117072   2.872   2.391   1.140
 5391SOL    HW217073   2.964   2.434   1.012
 5392SOL     OW17074   5.948   0.624   4.254
 5392SOL    HW117075   5.934   0.693   4.325
 5392SOL    HW217076   5.916   0.535   4.288
 5393SOL     OW17077   4.361   2.427   4.071
 5393SOL    HW117078   4.346   2.521   4.100
 5393SOL    HW217079   4.457   2.414   4.045
 5394SOL     OW17080   0.287   2.779   1.687
 5394SOL    HW117081   0.220   2.791   1.760
 5394SOL    HW217082   0.249   2.719   1.617
 5395SOL     OW17083   6.777   1.571   0.990
 5395SOL    HW117084   6.711   1.641   0.965
 5395SOL    HW217085   6.818   1.533   0.907
 5396SOL     OW17086   4.355   3.494   0.410
 5396SOL    HW117087   4.361   3.396   0.429
 5396SOL    HW217088   4.272   3.532   0.452
 5397SOL     OW17089   6.808   0.627   2.743
 5397SOL    HW117090   6.793   0.614   2.841
 5397SOL    HW217091   6.832   0.723   2.727
 5398SOL     OW17092   6.861   3.380   2.644
 5398SOL    HW117093   6.819   3.441   2.577
 5398SOL    HW217094   6.822   3.398   2.734
 5399SOL     OW17095   1.795   2.782   0.506
 5399SOL    HW117096   1.851   2.786   0.424
 5399SOL    HW217097   1.726   2.855   0.503
 5400SOL     OW17098   4.795   3.357   1.543
 5400SOL    HW117099   4.812   3.267   1.582
 5400SOL    HW217100   4.709   3.393   1.577
 5401SOL     OW17101   5.666   2.345   1.363
 5401SOL    HW117102   5.577   2.362   1.405
 5401SOL    HW217103   5.715   2.432   1.354
 5402SOL     OW17104   1.178   6.018   3.157
 5402SOL    HW117105   1.091   5.977   3.132
 5402SOL    HW217106   1.195   6.099   3.100
 5403SOL     OW17107   5.114   2.411   6.898
 5403SOL    HW117108   5.214   2.407   6.898
 5403SOL    HW217109   5.079   2.362   6.978
 5404SOL     OW17110   4.676   0.026   0.059
 5404SOL    HW117111   4.695   0.124   0.049
 5404SOL    HW217112   4.740   7.005   0.124
 5405SOL     OW17113   0.343   4.952   0.280
 5405SOL    HW117114   0.349   5.051   0.267
 5405SOL    HW217115   0.376   4.927   0.371
 5406SOL     OW17116   2.284   1.362   6.113
 5406SOL    HW117117   2.246   1.272   6.134
 5406SOL    HW217118   2.224   1.410   6.049
 5407SOL     OW17119   1.481   6.757   3.398
 5407SOL    HW117120   1.534   6.697   3.339
 5407SOL    HW217121   1.532   6.774   3.483
 5408SOL     OW17122   2.351   1.479   4.431
 5408SOL    HW117123   2.340   1.522   4.521
 5408SOL    HW217124   2.432   1.420   4.433
 5409SOL     OW17125   1.037   2.558   2.162
 5409SOL    HW117126   1.088   2.625   2.109
 5409SOL    HW217127   0.983   2.501   2.100
 5410SOL     OW17128   6.008   2.516   0.726
 5410SOL    HW117129   6.008   2.422   0.760
 5410SOL    HW217130   6.067   2.523   0.646
 5411SOL     OW17131   3.805   5.379   6.938
 5411SOL    HW117132   3.881   5.357   6.877
 5411SOL    HW217133   3.814   5.328   0.004
 5412SOL     OW17134   0.518   2.224   5.547
 5412SOL    HW117135   0.549   2.245   5.454
 5412SOL    HW217136   0.554   2.134   5.574
 5413SOL     OW17137   0.944   4.853   4.942
 5413SOL    HW117138   0.962   4.797   5.023
 5413SOL    HW217139   0.869   4.917   4.961
 5414SOL     OW17140   5.543   4.481   5.632
 5414SOL    HW117141   5.485   4.407   5.665
 5414SOL    HW217142   5.637   4.448   5.623
 5415SOL     OW17143   3.378   1.278   0.338
 5415SOL    HW117144   3.404   1.236   0.425
 5415SOL    HW217145   3.460   1.314   0.293
 5416SOL     OW17146   3.656   5.805   6.985
 5416SOL    HW117147   3.632   5.901   6.998
 5416SOL    HW217148   3.750   5.798   6.950
 5417SOL     OW17149   4.957   6.747   3.923
 5417SOL    HW117150   4.976   6.667   3.980
 5417SOL    HW217151   4.859   6.765   3.923
 5418SOL     OW17152   6.793   2.999   5.345
 5418SOL    HW117153   6.835   2.965   5.429
 5418SOL    HW217154   6.703   2.957   5.333
 5419SOL     OW17155   4.460   1.476   6.406
 5419SOL    HW117156   4.524   1.479   6.329
 5419SOL    HW217157   4.366   1.481   6.372
 5420SOL     OW17158   1.532   2.176   1.879
 5420SOL    HW117159   1.542   2.254   1.816
 5420SOL    HW217160   1.435   2.164   1.901
 5421SOL     OW17161   3.684   4.938   2.129
 5421SOL    HW117162   3.624   5.013   2.156
 5421SOL    HW217163   3.639   4.881   2.060
 5422SOL     OW17164   2.796   4.861   3.749
 5422SOL    HW117165   2.741   4.805   3.810
 5422SOL    HW217166   2.774   4.958   3.764
 5423SOL     OW17167   4.824   6.980   1.681
 5423SOL    HW117168   4.747   6.932   1.638
 5423SOL    HW217169   4.890   6.914   1.716
 5424SOL     OW17170   4.262   3.851   5.304
 5424SOL    HW117171   4.321   3.772   5.288
 5424SOL    HW217172   4.167   3.825   5.291
 5425SOL     OW17173   1.257   4.260   5.973
 5425SOL    HW117174   1.266   4.212   5.886
 5425SOL    HW217175   1.170   4.236   6.016
 5426SOL     OW17176   0.061   4.914   1.565
 5426SOL    HW117177   0.150   4.895   1.523
 5426SOL    HW217178   0.037   4.839   1.627
 5427SOL     OW17179   4.332   3.236   0.502
 5427SOL    HW117180   4.416   3.188   0.475
 5427SOL    HW217181   4.274   3.174   0.554
 5428SOL     OW17182   5.112   4.863   3.158
 5428SOL    HW117183   5.186   4.844   3.223
 5428SOL    HW217184   5.135   4.825   3.069
 5429SOL     OW17185   2.958   6.979   4.231
 5429SOL    HW117186   2.931   6.951   4.323
 5429SOL    HW217187   3.036   0.020   4.236
 5430SOL     OW17188   2.269   3.782   5.576
 5430SOL    HW117189   2.205   3.854   5.604
 5430SOL    HW217190   2.280   3.784   5.477
 5431SOL     OW17191   4.824   4.440   0.276
 5431SOL    HW117192   4.750   4.418   0.339
 5431SOL    HW217193   4.875   4.519   0.310
 5432SOL     OW17194   0.316   5.117   6.555
 5432SOL    HW117195   0.289   5.111   6.459
 5432SOL    HW217196   0.268   5.193   6.598
 5433SOL     OW17197   3.694   0.079   1.371
 5433SOL    HW117198   3.733   0.145   1.436
 5433SOL    HW217199   3.768   0.029   1.326
 5434SOL     OW17200   4.576   0.374   4.294
 5434SOL    HW117201   4.486   0.416   4.281
 5434SOL    HW217202   4.647   0.440   4.269
 5435SOL     OW17203   6.574   4.979   0.208
 5435SOL    HW117204   6.637   4.970   0.286
 5435SOL    HW217205   6.624   4.962   0.123
 5436SOL     OW17206   1.769   4.896   2.337
 5436SOL    HW117207   1.720   4.814   2.306
 5436SOL    HW217208   1.760   4.968   2.268
 5437SOL     OW17209   3.299   6.561   1.054
 5437SOL    HW117210   3.360   6.602   0.986
 5437SOL    HW217211   3.236   6.498   1.008
 5438SOL     OW17212   4.553   6.580   1.798
 5438SOL    HW117213   4.548   6.530   1.884
 5438SOL    HW217214   4.470   6.634   1.785
 5439SOL     OW17215   0.812   4.133   0.973
 5439SOL    HW117216   0.889   4.073   0.950
 5439SOL    HW217217   0.763   4.156   0.889
 5440SOL     OW17218   5.392   6.405   3.804
 5440SOL    HW117219   5.430   6.464   3.733
 5440SOL    HW217220   5.364   6.318   3.764
 5441SOL     OW17221   5.646   2.409   4.636
 5441SOL    HW117222   5.577   2.468   4.595
 5441SOL    HW217223   5.610   2.316   4.646
 5442SOL     OW17224   2.774   0.471   6.392
 5442SOL    HW117225   2.739   0.565   6.391
 5442SOL    HW217226   2.856   0.466   6.449
 5443SOL     OW17227   5.179   0.974   2.702
 5443SOL    HW117228   5.174   0.888   2.754
 5443SOL    HW217229   5.272   0.988   2.671
 5444SOL     OW17230   6.966   1.396   6.335
 5444SOL    HW117231   7.003   1.340   6.262
 5444SOL    HW217232   7.009   1.370   6.422
 5445SOL     OW17233   5.969   6.383   5.942
 5445SOL    HW117234   5.965   6.320   6.020
 5445SOL    HW217235   5.895   6.450   5.950
 5446SOL     OW17236   0.153   4.555   5.699
 5446SOL    HW117237   0.094   4.582   5.775
 5446SOL    HW217238   0.131   4.610   5.619
 5447SOL     OW17239   6.764   1.467   1.699
 5447SOL    HW117240   6.798   1.437   1.788
 5447SOL    HW217241   6.830   1.442   1.628
 5448SOL     OW17242   5.408   4.870   2.578
 5448SOL    HW117243   5.502   4.848   2.553
 5448SOL    HW217244   5.397   4.864   2.677
 5449SOL     OW17245   3.009   0.767   1.746
 5449SOL    HW117246   3.102   0.783   1.780
 5449SOL    HW217247   2.943   0.806   1.810
 5450SOL     OW17248   4.561   5.744   2.318
 5450SOL    HW117249   4.498   5.792   2.257
 5450SOL    HW217250   4.509   5.696   2.389
 5451SOL     OW17251   6.218   6.298   3.836
 5451SOL    HW117252   6.248   6.208   3.804
 5451SOL    HW217253   6.178   6.348   3.759
 5452SOL     OW17254   2.132   3.710   2.864
 5452SOL    HW117255   2.230   3.699   2.850
 5452SOL    HW217256   2.085   3.714   2.776
 5453SOL     OW17257   6.955   4.778   4.224
 5453SOL    HW117258   6.919   4.856   4.175
 5453SOL    HW217259   6.954   4.697   4.165
 5454SOL     OW17260   6.045   4.208   3.310
 5454SOL    HW117261   6.025   4.136   3.244
 5454SOL    HW217262   6.122   4.180   3.368
 5455SOL     OW17263   2.616   1.888   3.587
 5455SOL    HW117264   2.624   1.809   3.648
 5455SOL    HW217265   2.705   1.933   3.577
 5456SOL     OW17266   5.822   2.385   0.551
 5456SOL    HW117267   5.770   2.441   0.615
 5456SOL    HW217268   5.904   2.350   0.596
 5457SOL     OW17269   5.743   1.033   6.368
 5457SOL    HW117270   5.723   1.089   6.448
 5457SOL    HW217271   5.684   0.952   6.369
 5458SOL     OW17272   5.731   3.988   6.875
 5458SOL    HW117273   5.732   4.041   6.960
 5458SOL    HW217274   5.646   3.934   6.871
 5459SOL     OW17275   2.200   3.395   4.923
 5459SOL    HW117276   2.241   3.343   4.848
 5459SOL    HW217277   2.160   3.331   4.989
 5460SOL     OW17278   0.473   0.576   1.496
 5460SOL    HW117279   0.383   0.534   1.483
 5460SOL    HW217280   0.521   0.580   1.408
 5461SOL     OW17281   6.343   1.131   6.153
 5461SOL    HW117282   6.332   1.073   6.072
 5461SOL    HW217283   6.409   1.090   6.215
 5462SOL     OW17284   4.954   4.496   6.477
 5462SOL    HW117285   4.952   4.494   6.377
 5462SOL    HW217286   4.918   4.583   6.509
 5463SOL     OW17287   0.815   3.483   6.072
 5463SOL    HW117288   0.838   3.416   6.002
 5463SOL    HW217289   0.784   3.436   6.155
 5464SOL     OW17290   1.745   5.609   5.742
 5464SOL    HW117291   1.789   5.625   5.654
 5464SOL    HW217292   1.716   5.513   5.747
 5465SOL     OW17293   0.568   6.974   4.502
 5465SOL    HW117294   0.570   6.879   4.472
 5465SOL    HW217295   0.479   6.994   4.543
 5466SOL     OW17296   5.776   1.736   4.064
 5466SOL    HW117297   5.778   1.827   4.022
 5466SOL    HW217298   5.809   1.743   4.158
 5467SOL     OW17299   4.936   3.265   4.146
 5467SOL    HW117300   4.929   3.364   4.138
 5467SOL    HW217301   5.027   3.239   4.177
 5468SOL     OW17302   0.402   1.367   1.241
 5468SOL    HW117303   0.412   1.345   1.144
 5468SOL    HW217304   0.356   1.292   1.288
 5469SOL     OW17305   3.337   0.513   4.161
 5469SOL    HW117306   3.387   0.532   4.077
 5469SOL    HW217307   3.265   0.581   4.174
 5470SOL     OW17308   4.603   4.908   4.365
 5470SOL    HW117309   4.662   4.837   4.327
 5470SOL    HW217310   4.531   4.865   4.419
 5471SOL     OW17311   4.849   0.447   2.820
 5471SOL    HW117312   4.835   0.462   2.917
 5471SOL    HW217313   4.831   0.351   2.798
 5472SOL     OW17314   3.194   3.543   6.658
 5472SOL    HW117315   3.284   3.584   6.649
 5472SOL    HW217316   3.124   3.609   6.629
 5473SOL     OW17317   3.049   5.035   1.906
 5473SOL    HW117318   3.054   5.096   1.985
 5473SOL    HW217319   3.034   4.942   1.937
 5474SOL     OW17320   0.955   4.890   2.425
 5474SOL    HW117321   0.965   4.969   2.485
 5474SOL    HW217322   0.965   4.806   2.479
 5475SOL     OW17323   0.874   1.173   5.450
 5475SOL    HW117324   0.816   1.127   5.383
 5475SOL    HW217325   0.959   1.202   5.406
 5476SOL     OW17326   1.964   7.007   5.342
 5476SOL    HW117327   1.947   7.003   5.244
 5476SOL    HW217328   1.880   6.987   5.392
 5477SOL     OW17329   1.883   3.832   3.865
 5477SOL    HW117330   1.788   3.809   3.843
 5477SOL    HW217331   1.943   3.757   3.840
 5478SOL     OW17332   4.991   4.823   5.711
 5478SOL    HW117333   5.026   4.750   5.653
 5478SOL    HW217334   5.061   4.894   5.722
 5479SOL     OW17335   5.152   2.064   4.058
 5479SOL    HW117336   5.111   2.151   4.029
 5479SOL    HW217337   5.101   1.988   4.017
 5480SOL     OW17338   1.205   3.325   4.018
 5480SOL    HW117339   1.136   3.275   4.071
 5480SOL    HW217340   1.294   3.279   4.027
 5481SOL     OW17341   4.391   1.797   6.526
 5481SOL    HW117342   4.417   1.705   6.497
 5481SOL    HW217343   4.398   1.860   6.448
 5482SOL     OW17344   5.402   3.307   1.716
 5482SOL    HW117345   5.370   3.263   1.632
 5482SOL    HW217346   5.327   3.313   1.782
 5483SOL     OW17347   6.668   2.986   6.779
 5483SOL    HW117348   6.670   2.888   6.764
 5483SOL    HW217349   6.756   3.016   6.816
 5484SOL     OW17350   6.734   6.751   5.004
 5484SOL    HW117351   6.704   6.831   4.951
 5484SOL    HW217352   6.776   6.782   5.090
 5485SOL     OW17353   3.625   0.384   5.148
 5485SOL    HW117354   3.702   0.443   5.174
 5485SOL    HW217355   3.606   0.393   5.051
 5486SOL     OW17356   1.069   0.888   3.984
 5486SOL    HW117357   1.104   0.854   4.072
 5486SOL    HW217358   0.978   0.850   3.968
 5487SOL     OW17359   4.618   5.049   0.493
 5487SOL    HW117360   4.584   5.072   0.584
 5487SOL    HW217361   4.546   5.004   0.440
 5488SOL     OW17362   4.990   0.696   5.894
 5488SOL    HW117363   5.060   0.626   5.905
 5488SOL    HW217364   5.019   0.780   5.939
 5489SOL     OW17365   0.705   4.119   3.271
 5489SOL    HW117366   0.689   4.038   3.214
 5489SOL    HW217367   0.704   4.092   3.367
 5490SOL     OW17368   2.281   2.381   0.118
 5490SOL    HW117369   2.354   2.326   0.078
 5490SOL    HW217370   2.315   2.473   0.137
 5491SOL     OW17371   0.427   5.380   1.648
 5491SOL    HW117372   0.480   5.309   1.695
 5491SOL    HW217373   0.489   5.441   1.599
 5492SOL     OW17374   1.545   1.012   5.351
 5492SOL    HW117375   1.453   0.984   5.324
 5492SOL    HW217376   1.573   1.091   5.296
 5493SOL     OW17377   3.077   2.982   0.222
 5493SOL    HW117378   2.981   2.953   0.221
 5493SOL    HW217379   3.127   2.930   0.153
 5494SOL     OW17380   5.884   2.962   2.308
 5494SOL    HW117381   5.895   3.021   2.228
 5494SOL    HW217382   5.801   2.906   2.297
 5495SOL     OW17383   3.617   2.973   2.647
 5495SOL    HW117384   3.673   2.924   2.580
 5495SOL    HW217385   3.655   3.065   2.662
 5496SOL     OW17386   3.693   5.308   1.391
 5496SOL    HW117387   3.684   5.314   1.490
 5496SOL    HW217388   3.701   5.401   1.353
 5497SOL     OW17389   6.592   6.926   2.207
 5497SOL    HW117390   6.629   6.941   2.299
 5497SOL    HW217391   6.507   6.875   2.214
 5498SOL     OW17392   4.065   0.500   5.125
 5498SOL    HW117393   4.080   0.599   5.123
 5498SOL    HW217394   4.104   0.461   5.208
 5499SOL     OW17395   6.914   1.921   4.467
 5499SOL    HW117396   6.840   1.914   4.400
 5499SOL    HW217397   7.000   1.891   4.426
 5500SOL     OW17398   1.820   5.900   1.625
 5500SOL    HW117399   1.859   5.972   1.683
 5500SOL    HW217400   1.757   5.845   1.679
 5501SOL     OW17401   1.797   0.039   2.650
 5501SOL    HW117402   1.874   0.102   2.635
 5501SOL    HW217403   1.823   6.990   2.717
 5502SOL     OW17404   4.508   3.853   0.248
 5502SOL    HW117405   4.509   3.755   0.267
 5502SOL    HW217406   4.517   3.868   0.149
 5503SOL     OW17407   0.962   5.659   4.484
 5503SOL    HW117408   1.020   5.724   4.534
 5503SOL    HW217409   0.898   5.616   4.547
 5504SOL     OW17410   3.374   2.132   4.725
 5504SOL    HW117411   3.461   2.130   4.774
 5504SOL    HW217412   3.303   2.089   4.781
 5505SOL     OW17413   2.929   4.868   6.013
 5505SOL    HW117414   2.974   4.794   6.063
 5505SOL    HW217415   2.885   4.930   6.078
 5506SOL     OW17416   6.531   0.044   5.669
 5506SOL    HW117417   6.474   0.068   5.591
 5506SOL    HW217418   6.617   0.095   5.665
 5507SOL     OW17419   3.037   5.670   4.364
 5507SOL    HW117420   2.964   5.709   4.420
 5507SOL    HW217421   3.103   5.622   4.422
 5508SOL     OW17422   2.282   0.629   6.122
 5508SOL    HW117423   2.211   0.563   6.147
 5508SOL    HW217424   2.316   0.609   6.031
 5509SOL     OW17425   6.019   6.061   6.481
 5509SOL    HW117426   6.013   6.135   6.548
 5509SOL    HW217427   6.089   5.996   6.509
 5510SOL     OW17428   4.708   0.562   5.820
 5510SOL    HW117429   4.763   0.642   5.795
 5510SOL    HW217430   4.760   0.506   5.884
 5511SOL     OW17431   0.334   1.617   2.067
 5511SOL    HW117432   0.420   1.651   2.029
 5511SOL    HW217433   0.281   1.694   2.103
 5512SOL     OW17434   1.381   0.107   1.085
 5512SOL    HW117435   1.387   0.127   1.183
 5512SOL    HW217436   1.414   0.014   1.068
 5513SOL     OW17437   3.421   4.950   4.357
 5513SOL    HW117438   3.436   4.926   4.261
 5513SOL    HW217439   3.359   5.029   4.362
 5514SOL     OW17440   5.915   5.132   3.479
 5514SOL    HW117441   5.932   5.185   3.563
 5514SOL    HW217442   6.001   5.123   3.428
 5515SOL     OW17443   7.003   3.391   2.123
 5515SOL    HW117444   6.921   3.369   2.070
 5515SOL    HW217445   0.024   3.306   2.157
 5516SOL     OW17446   1.490   3.445   6.060
 5516SOL    HW117447   1.455   3.538   6.073
 5516SOL    HW217448   1.414   3.380   6.061
 5517SOL     OW17449   2.380   0.885   2.464
 5517SOL    HW117450   2.352   0.811   2.524
 5517SOL    HW217451   2.380   0.971   2.515
 5518SOL     OW17452   5.869   4.958   5.386
 5518SOL    HW117453   5.943   4.895   5.409
 5518SOL    HW217454   5.782   4.910   5.392
 5519SOL     OW17455   5.139   3.535   3.685
 5519SOL    HW117456   5.236   3.553   3.666
 5519SOL    HW217457   5.101   3.611   3.738
 5520SOL     OW17458   1.532   3.491   1.476
 5520SOL    HW117459   1.579   3.478   1.388
 5520SOL    HW217460   1.434   3.499   1.461
 5521SOL     OW17461   5.363   5.319   1.772
 5521SOL    HW117462   5.306   5.290   1.849
 5521SOL    HW217463   5.371   5.243   1.707
 5522SOL     OW17464   2.034   3.527   2.177
 5522SOL    HW117465   2.085   3.513   2.093
 5522SOL    HW217466   2.045   3.622   2.207
 5523SOL     OW17467   2.838   0.623   1.450
 5523SOL    HW117468   2.864   0.697   1.513
 5523SOL    HW217469   2.921   0.578   1.415
 5524SOL     OW17470   6.598   5.442   6.045
 5524SOL    HW117471   6.615   5.537   6.017
 5524SOL    HW217472   6.575   5.439   6.142
 5525SOL     OW17473   7.003   5.459   5.022
 5525SOL    HW117474   6.918   5.407   5.021
 5525SOL    HW217475   0.060   5.400   4.996
 5526SOL     OW17476   5.938   2.757   4.795
 5526SOL    HW117477   5.855   2.730   4.844
 5526SOL    HW217478   5.988   2.675   4.767
 5527SOL     OW17479   2.101   3.559   1.334
 5527SOL    HW117480   2.043   3.489   1.292
 5527SOL    HW217481   2.192   3.554   1.295
 5528SOL     OW17482   0.755   3.444   3.174
 5528SOL    HW117483   0.803   3.358   3.156
 5528SOL    HW217484   0.793   3.517   3.118
 5529SOL     OW17485   1.284   1.348   5.048
 5529SOL    HW117486   1.271   1.277   5.117
 5529SOL    HW217487   1.271   1.309   4.957
 5530SOL     OW17488   1.108   2.845   0.703
 5530SOL    HW117489   1.110   2.889   0.793
 5530SOL    HW217490   1.195   2.858   0.657
 5531SOL     OW17491   2.949   2.811   5.871
 5531SOL    HW117492   2.975   2.859   5.787
 5531SOL    HW217493   2.880   2.742   5.851
 5532SOL     OW17494   2.480   1.413   1.136
 5532SOL    HW117495   2.386   1.392   1.164
 5532SOL    HW217496   2.535   1.436   1.216
 5533SOL     OW17497   4.343   0.689   1.206
 5533SOL    HW117498   4.243   0.680   1.206
 5533SOL    HW217499   4.374   0.720   1.117
 5534SOL     OW17500   6.814   4.328   5.694
 5534SOL    HW117501   6.792   4.375   5.779
 5534SOL    HW217502   6.912   4.310   5.690
 5535SOL     OW17503   5.746   3.413   3.531
 5535SOL    HW117504   5.799   3.473   3.470
 5535SOL    HW217505   5.795   3.326   3.543
 5536SOL     OW17506   1.841   0.645   3.373
 5536SOL    HW117507   1.804   0.553   3.384
 5536SOL    HW217508   1.765   0.711   3.369
 5537SOL     OW17509   4.383   1.138   4.638
 5537SOL    HW117510   4.329   1.203   4.585
 5537SOL    HW217511   4.342   1.047   4.631
 5538SOL     OW17512   5.665   1.729   0.739
 5538SOL    HW117513   5.598   1.655   0.731
 5538SOL    HW217514   5.619   1.817   0.725
 5539SOL     OW17515   3.460   6.997   0.023
 5539SOL    HW117516   3.447   0.057   6.984
 5539SOL    HW217517   3.448   0.004   0.118
 5540SOL     OW17518   5.458   0.791   6.737
 5540SOL    HW117519   5.432   0.700   6.769
 5540SOL    HW217520   5.425   0.860   6.801
 5541SOL     OW17521   5.009   3.433   5.565
 5541SOL    HW117522   4.964   3.358   5.612
 5541SOL    HW217523   5.108   3.425   5.577
 5542SOL     OW17524   4.005   4.398   6.812
 5542SOL    HW117525   4.050   4.441   6.890
 5542SOL    HW217526   3.930   4.457   6.780
 5543SOL     OW17527   1.366   0.326   0.446
 5543SOL    HW117528   1.401   0.404   0.393
 5543SOL    HW217529   1.419   0.317   0.530
 5544SOL     OW17530   3.815   5.499   6.085
 5544SOL    HW117531   3.859   5.514   5.996
 5544SOL    HW217532   3.794   5.402   6.095
 5545SOL     OW17533   4.051   0.205   2.933
 5545SOL    HW117534   4.123   0.188   2.999
 5545SOL    HW217535   4.031   0.303   2.930
 5546SOL     OW17536   0.712   4.963   5.009
 5546SOL    HW117537   0.677   4.917   5.091
 5546SOL    HW217538   0.659   5.046   4.993
 5547SOL     OW17539   5.240   1.000   4.498
 5547SOL    HW117540   5.233   1.072   4.566
 5547SOL    HW217541   5.336   0.988   4.471
 5548SOL     OW17542   6.826   4.128   5.086
 5548SOL    HW117543   6.732   4.123   5.120
 5548SOL    HW217544   6.889   4.102   5.159
 5549SOL     OW17545   4.345   2.751   0.736
 5549SOL    HW117546   4.247   2.751   0.717
 5549SOL    HW217547   4.362   2.788   0.827
 5550SOL     OW17548   1.830   4.094   1.969
 5550SOL    HW117549   1.766   4.060   2.039
 5550SOL    HW217550   1.839   4.026   1.896
 5551SOL     OW17551   2.064   5.532   3.718
 5551SOL    HW117552   1.971   5.554   3.690
 5551SOL    HW217553   2.070   5.435   3.738
 5552SOL     OW17554   0.340   6.257   6.826
 5552SOL    HW117555   0.420   6.222   6.872
 5552SOL    HW217556   0.365   6.290   6.734
 5553SOL     OW17557   4.746   0.607   6.854
 5553SOL    HW117558   4.681   0.679   6.876
 5553SOL    HW217559   4.815   0.600   6.926
 5554SOL     OW17560   5.470   2.334   1.772
 5554SOL    HW117561   5.536   2.349   1.698
 5554SOL    HW217562   5.506   2.266   1.836
 5555SOL     OW17563   1.511   4.477   2.041
 5555SOL    HW117564   1.445   4.504   2.111
 5555SOL    HW217565   1.571   4.555   2.019
 5556SOL     OW17566   0.042   0.986   4.576
 5556SOL    HW117567   0.034   1.037   4.662
 5556SOL    HW217568   0.133   0.947   4.568
 5557SOL     OW17569   3.198   6.012   2.163
 5557SOL    HW117570   3.296   6.022   2.151
 5557SOL    HW217571   3.168   5.925   2.123
 5558SOL     OW17572   3.862   4.660   6.970
 5558SOL    HW117573   3.794   4.724   7.006
 5558SOL    HW217574   3.837   4.635   6.877
 5559SOL     OW17575   1.914   0.005   2.371
 5559SOL    HW117576   2.009   0.036   2.365
 5559SOL    HW217577   1.854   0.072   2.328
 5560SOL     OW17578   0.969   6.445   2.790
 5560SOL    HW117579   0.939   6.489   2.705
 5560SOL    HW217580   1.018   6.361   2.770
 5561SOL     OW17581   3.337   6.968   3.585
 5561SOL    HW117582   3.332   6.920   3.497
 5561SOL    HW217583   3.266   0.018   3.589
 5562SOL     OW17584   4.107   3.760   1.250
 5562SOL    HW117585   4.008   3.766   1.258
 5562SOL    HW217586   4.149   3.766   1.341
 5563SOL     OW17587   2.620   4.739   3.237
 5563SOL    HW117588   2.619   4.677   3.316
 5563SOL    HW217589   2.713   4.772   3.221
 5564SOL     OW17590   5.356   0.346   6.163
 5564SOL    HW117591   5.454   0.353   6.146
 5564SOL    HW217592   5.322   0.261   6.122
 5565SOL     OW17593   3.167   2.182   6.844
 5565SOL    HW117594   3.146   2.262   6.787
 5565SOL    HW217595   3.220   2.212   6.924
 5566SOL     OW17596   1.403   3.770   6.546
 5566SOL    HW117597   1.336   3.701   6.575
 5566SOL    HW217598   1.355   3.848   6.506
 5567SOL     OW17599   6.899   4.227   1.692
 5567SOL    HW117600   6.967   4.219   1.619
 5567SOL    HW217601   6.947   4.239   1.780
 5568SOL     OW17602   4.400   6.282   1.736
 5568SOL    HW117603   4.479   6.234   1.774
 5568SOL    HW217604   4.320   6.222   1.740
 5569SOL     OW17605   2.086   3.300   4.160
 5569SOL    HW117606   2.127   3.217   4.196
 5569SOL    HW217607   2.097   3.374   4.226
 5570SOL     OW17608   0.484   4.050   2.890
 5570SOL    HW117609   0.572   4.076   2.851
 5570SOL    HW217610   0.420   4.127   2.884
 5571SOL     OW17611   6.274   4.817   1.661
 5571SOL    HW117612   6.205   4.832   1.732
 5571SOL    HW217613   6.307   4.905   1.627
 5572SOL     OW17614   1.331   3.054   5.018
 5572SOL    HW117615   1.308   3.122   5.087
 5572SOL    HW217616   1.317   3.093   4.927
 5573SOL     OW17617   2.928   5.159   4.424
 5573SOL    HW117618   2.884   5.120   4.504
 5573SOL    HW217619   2.961   5.085   4.364
 5574SOL     OW17620   6.887   2.328   6.405
 5574SOL    HW117621   6.922   2.302   6.495
 5574SOL    HW217622   6.929   2.270   6.335
 5575SOL     OW17623   0.456   0.134   1.530
 5575SOL    HW117624   0.492   0.189   1.605
 5575SOL    HW217625   0.429   0.044   1.563
 5576SOL     OW17626   2.169   4.176   3.385
 5576SOL    HW117627   2.159   4.092   3.438
 5576SOL    HW217628   2.080   4.202   3.347
 5577SOL     OW17629   1.665   3.243   6.135
 5577SOL    HW117630   1.619   3.331   6.121
 5577SOL    HW217631   1.601   3.178   6.177
 5578SOL     OW17632   4.131   3.558   3.149
 5578SOL    HW117633   4.119   3.580   3.052
 5578SOL    HW217634   4.159   3.640   3.198
 5579SOL     OW17635   0.765   3.094   1.683
 5579SOL    HW117636   0.846   3.043   1.712
 5579SOL    HW217637   0.683   3.047   1.717
 5580SOL     OW17638   5.005   1.883   5.502
 5580SOL    HW117639   4.927   1.855   5.447
 5580SOL    HW217640   5.083   1.823   5.483
 5581SOL     OW17641   0.927   1.513   6.861
 5581SOL    HW117642   0.844   1.517   6.805
 5581SOL    HW217643   0.913   1.563   6.946
 5582SOL     OW17644   2.702   2.652   6.378
 5582SOL    HW117645   2.769   2.710   6.332
 5582SOL    HW217646   2.619   2.647   6.322
 5583SOL     OW17647   5.560   1.054   2.095
 5583SOL    HW117648   5.498   1.126   2.126
 5583SOL    HW217649   5.550   1.042   1.996
 5584SOL     OW17650   0.514   3.995   5.053
 5584SOL    HW117651   0.571   4.075   5.035
 5584SOL    HW217652   0.570   3.912   5.054
 5585SOL     OW17653   4.981   4.859   1.850
 5585SOL    HW117654   4.982   4.760   1.866
 5585SOL    HW217655   5.027   4.905   1.926
 5586SOL     OW17656   6.815   3.045   6.412
 5586SOL    HW117657   6.905   3.014   6.445
 5586SOL    HW217658   6.766   3.090   6.486
 5587SOL     OW17659   4.986   0.387   6.316
 5587SOL    HW117660   5.012   0.331   6.394
 5587SOL    HW217661   4.971   0.329   6.236
 5588SOL     OW17662   3.245   6.529   1.718
 5588SOL    HW117663   3.301   6.461   1.670
 5588SOL    HW217664   3.150   6.501   1.718
 5589SOL     OW17665   5.798   4.948   6.335
 5589SOL    HW117666   5.717   4.888   6.327
 5589SOL    HW217667   5.785   5.010   6.412
 5590SOL     OW17668   5.774   5.718   4.294
 5590SOL    HW117669   5.810   5.758   4.209
 5590SOL    HW217670   5.770   5.789   4.365
 5591SOL     OW17671   6.239   1.540   1.268
 5591SOL    HW117672   6.147   1.548   1.230
 5591SOL    HW217673   6.306   1.562   1.198
 5592SOL     OW17674   0.769   4.713   3.340
 5592SOL    HW117675   0.779   4.797   3.392
 5592SOL    HW217676   0.822   4.640   3.383
 5593SOL     OW17677   6.759   1.977   0.129
 5593SOL    HW117678   6.855   1.950   0.117
 5593SOL    HW217679   6.745   2.068   0.090
 5594SOL     OW17680   5.474   2.434   5.202
 5594SOL    HW117681   5.530   2.500   5.251
 5594SOL    HW217682   5.492   2.440   5.104
 5595SOL     OW17683   0.746   2.408   5.628
 5595SOL    HW117684   0.691   2.489   5.610
 5595SOL    HW217685   0.686   2.330   5.645
 5596SOL     OW17686   4.374   6.293   2.523
 5596SOL    HW117687   4.448   6.226   2.536
 5596SOL    HW217688   4.295   6.247   2.483
 5597SOL     OW17689   5.412   3.509   3.216
 5597SOL    HW117690   5.353   3.569   3.269
 5597SOL    HW217691   5.465   3.450   3.278
 5598SOL     OW17692   5.356   2.209   4.864
 5598SOL    HW117693   5.324   2.295   4.826
 5598SOL    HW217694   5.450   2.193   4.834
 5599SOL     OW17695   0.608   1.805   4.007
 5599SOL    HW117696   0.600   1.884   3.946
 5599SOL    HW217697   0.701   1.800   4.043
 5600SOL     OW17698   1.369   2.485   4.171
 5600SOL    HW117699   1.407   2.570   4.133
 5600SOL    HW217700   1.298   2.508   4.237
 5601SOL     OW17701   2.254   1.037   5.553
 5601SOL    HW117702   2.310   1.049   5.635
 5601SOL    HW217703   2.179   1.103   5.553
 5602SOL     OW17704   1.160   2.002   0.817
 5602SOL    HW117705   1.107   2.068   0.870
 5602SOL    HW217706   1.258   2.013   0.838
 5603SOL     OW17707   5.546   2.266   6.604
 5603SOL    HW117708   5.579   2.357   6.582
 5603SOL    HW217709   5.567   2.245   6.700
 5604SOL     OW17710   5.986   1.854   5.578
 5604SOL    HW117711   6.077   1.814   5.588
 5604SOL    HW217712   5.922   1.807   5.638
 5605SOL     OW17713   0.358   1.944   4.491
 5605SOL    HW117714   0.452   1.930   4.459
 5605SOL    HW217715   0.334   2.040   4.481
 5606SOL     OW17716   4.451   0.053   1.549
 5606SOL    HW117717   4.496   0.120   1.490
 5606SOL    HW217718   4.514   6.998   1.570
 5607SOL     OW17719   5.934   1.964   1.573
 5607SOL    HW117720   5.919   1.990   1.669
 5607SOL    HW217721   6.031   1.975   1.550
 5608SOL     OW17722   3.997   6.958   4.854
 5608SOL    HW117723   4.041   6.878   4.812
 5608SOL    HW217724   3.954   7.013   4.782
 5609SOL     OW17725   2.816   6.488   6.414
 5609SOL    HW117726   2.833   6.404   6.362
 5609SOL    HW217727   2.783   6.464   6.505
 5610SOL     OW17728   4.802   1.031   0.378
 5610SOL    HW117729   4.878   1.055   0.318
 5610SOL    HW217730   4.730   0.987   0.325
 5611SOL     OW17731   1.693   4.715   3.460
 5611SOL    HW117732   1.667   4.765   3.543
 5611SOL    HW217733   1.684   4.616   3.477
 5612SOL     OW17734   2.723   0.083   5.517
 5612SOL    HW117735   2.692   7.010   5.495
 5612SOL    HW217736   2.776   0.119   5.440
 5613SOL     OW17737   4.252   4.627   1.897
 5613SOL    HW117738   4.246   4.554   1.830
 5613SOL    HW217739   4.323   4.606   1.964
 5614SOL     OW17740   4.889   2.483   3.259
 5614SOL    HW117741   4.898   2.409   3.193
 5614SOL    HW217742   4.963   2.479   3.326
 5615SOL     OW17743   1.469   0.613   0.563
 5615SOL    HW117744   1.535   0.624   0.638
 5615SOL    HW217745   1.510   0.556   0.492
 5616SOL     OW17746   1.624   0.817   4.588
 5616SOL    HW117747   1.592   0.728   4.557
 5616SOL    HW217748   1.578   0.841   4.674
 5617SOL     OW17749   2.046   0.602   4.846
 5617SOL    HW117750   2.023   0.645   4.934
 5617SOL    HW217751   1.991   0.642   4.774
 5618SOL     OW17752   0.248   4.187   3.419
 5618SOL    HW117753   0.210   4.266   3.372
 5618SOL    HW217754   0.313   4.140   3.359
 5619SOL     OW17755   2.507   3.746   5.719
 5619SOL    HW117756   2.420   3.757   5.672
 5619SOL    HW217757   2.582   3.770   5.657
 5620SOL     OW17758   3.456   1.868   6.577
 5620SOL    HW117759   3.361   1.874   6.548
 5620SOL    HW217760   3.463   1.893   6.673
 5621SOL     OW17761   1.643   2.113   5.408
 5621SOL    HW117762   1.587   2.184   5.451
 5621SOL    HW217763   1.711   2.155   5.348
 5622SOL     OW17764   5.742   0.905   6.028
 5622SOL    HW117765   5.664   0.889   6.088
 5622SOL    HW217766   5.722   0.867   5.937
 5623SOL     OW17767   1.399   6.070   6.949
 5623SOL    HW117768   1.466   6.091   0.001
 5623SOL    HW217769   1.444   6.016   6.878
 5624SOL     OW17770   1.272   4.725   3.544
 5624SOL    HW117771   1.200   4.789   3.572
 5624SOL    HW217772   1.231   4.648   3.495
 5625SOL     OW17773   6.627   2.920   4.825
 5625SOL    HW117774   6.727   2.927   4.827
 5625SOL    HW217775   6.592   2.921   4.919
 5626SOL     OW17776   3.807   0.134   4.775
 5626SOL    HW117777   3.833   0.085   4.692
 5626SOL    HW217778   3.781   0.068   4.846
 5627SOL     OW17779   1.511   6.363   1.836
 5627SOL    HW117780   1.430   6.304   1.829
 5627SOL    HW217781   1.509   6.413   1.922
 5628SOL     OW17782   1.974   1.621   4.618
 5628SOL    HW117783   1.889   1.618   4.566
 5628SOL    HW217784   2.034   1.548   4.588
 5629SOL     OW17785   3.495   3.529   2.592
 5629SOL    HW117786   3.592   3.546   2.576
 5629SOL    HW217787   3.440   3.596   2.543
 5630SOL     OW17788   0.544   4.686   1.568
 5630SOL    HW117789   0.525   4.784   1.572
 5630SOL    HW217790   0.520   4.651   1.477
 5631SOL     OW17791   4.638   0.876   0.142
 5631SOL    HW117792   4.644   0.961   0.090
 5631SOL    HW217793   4.550   0.833   0.126
 5632SOL     OW17794   4.270   3.540   6.574
 5632SOL    HW117795   4.250   3.524   6.671
 5632SOL    HW217796   4.322   3.625   6.564
 5633SOL     OW17797   6.370   2.697   4.647
 5633SOL    HW117798   6.422   2.773   4.609
 5633SOL    HW217799   6.424   2.613   4.642
 5634SOL     OW17800   4.290   5.499   4.122
 5634SOL    HW117801   4.271   5.466   4.030
 5634SOL    HW217802   4.221   5.565   4.150
 5635SOL     OW17803   2.653   2.270   4.907
 5635SOL    HW117804   2.686   2.285   4.813
 5635SOL    HW217805   2.554   2.254   4.905
 5636SOL     OW17806   4.235   5.466   2.956
 5636SOL    HW117807   4.278   5.556   2.948
 5636SOL    HW217808   4.179   5.448   2.875
 5637SOL     OW17809   5.649   6.686   3.427
 5637SOL    HW117810   5.692   6.758   3.481
 5637SOL    HW217811   5.716   6.615   3.406
 5638SOL     OW17812   5.215   3.112   6.426
 5638SOL    HW117813   5.274   3.122   6.506
 5638SOL    HW217814   5.237   3.183   6.360
 5639SOL     OW17815   2.038   1.614   6.175
 5639SOL    HW117816   2.030   1.543   6.245
 5639SOL    HW217817   2.113   1.676   6.198
 5640SOL     OW17818   2.627   0.339   3.149
 5640SOL    HW117819   2.702   0.402   3.128
 5640SOL    HW217820   2.663   0.260   3.200
 5641SOL     OW17821   6.308   5.220   5.192
 5641SOL    HW117822   6.235   5.287   5.200
 5641SOL    HW217823   6.289   5.142   5.252
 5642SOL     OW17824   1.214   2.056   5.977
 5642SOL    HW117825   1.227   2.154   5.962
 5642SOL    HW217826   1.300   2.014   6.005
 5643SOL     OW17827   5.914   2.477   4.684
 5643SOL    HW117828   5.816   2.459   4.687
 5643SOL    HW217829   5.945   2.478   4.589
 5644SOL     OW17830   3.513   0.515   6.751
 5644SOL    HW117831   3.525   0.422   6.716
 5644SOL    HW217832   3.602   0.554   6.772
 5645SOL     OW17833   5.684   2.853   4.188
 5645SOL    HW117834   5.721   2.820   4.101
 5645SOL    HW217835   5.626   2.933   4.172
 5646SOL     OW17836   1.803   4.551   2.981
 5646SOL    HW117837   1.717   4.563   2.931
 5646SOL    HW217838   1.880   4.556   2.918
 5647SOL     OW17839   6.718   5.734   2.840
 5647SOL    HW117840   6.771   5.806   2.885
 5647SOL    HW217841   6.772   5.694   2.766
 5648SOL     OW17842   4.089   6.484   2.978
 5648SOL    HW117843   4.068   6.574   3.015
 5648SOL    HW217844   4.188   6.470   2.978
 5649SOL     OW17845   0.458   6.444   3.893
 5649SOL    HW117846   0.487   6.416   3.985
 5649SOL    HW217847   0.534   6.487   3.845
 5650SOL     OW17848   6.755   4.166   0.157
 5650SOL    HW117849   6.766   4.262   0.181
 5650SOL    HW217850   6.839   4.132   0.116
 5651SOL     OW17851   1.455   0.566   1.698
 5651SOL    HW117852   1.509   0.563   1.783
 5651SOL    HW217853   1.358   0.576   1.720
 5652SOL     OW17854   1.224   5.849   1.979
 5652SOL    HW117855   1.215   5.921   1.909
 5652SOL    HW217856   1.207   5.760   1.937
 5653SOL     OW17857   0.153   6.872   0.919
 5653SOL    HW117858   0.128   6.845   0.826
 5653SOL    HW217859   0.141   6.795   0.981
 5654SOL     OW17860   2.474   5.978   5.213
 5654SOL    HW117861   2.377   5.989   5.237
 5654SOL    HW217862   2.484   5.906   5.146
 5655SOL     OW17863   6.466   2.843   4.295
 5655SOL    HW117864   6.436   2.819   4.387
 5655SOL    HW217865   6.395   2.899   4.251
 5656SOL     OW17866   0.153   3.242   0.068
 5656SOL    HW117867   0.156   3.144   0.050
 5656SOL    HW217868   0.150   3.258   0.166
 5657SOL     OW17869   4.148   5.341   5.433
 5657SOL    HW117870   4.086   5.373   5.362
 5657SOL    HW217871   4.173   5.418   5.492
 5658SOL     OW17872   2.007   2.200   5.685
 5658SOL    HW117873   2.089   2.166   5.731
 5658SOL    HW217874   2.032   2.260   5.609
 5659SOL     OW17875   3.959   4.356   6.265
 5659SOL    HW117876   3.935   4.439   6.315
 5659SOL    HW217877   3.876   4.305   6.243
 5660SOL     OW17878   4.298   0.501   6.244
 5660SOL    HW117879   4.217   0.443   6.252
 5660SOL    HW217880   4.274   0.586   6.197
 5661SOL     OW17881   1.162   5.114   5.675
 5661SOL    HW117882   1.151   5.200   5.626
 5661SOL    HW217883   1.220   5.128   5.755
 5662SOL     OW17884   2.536   6.326   2.533
 5662SOL    HW117885   2.623   6.373   2.523
 5662SOL    HW217886   2.499   6.303   2.443
 5663SOL     OW17887   0.898   2.697   0.115
 5663SOL    HW117888   0.960   2.671   0.041
 5663SOL    HW217889   0.862   2.615   0.159
 5664SOL     OW17890   5.104   3.724   4.162
 5664SOL    HW117891   5.023   3.783   4.163
 5664SOL    HW217892   5.171   3.759   4.227
 5665SOL     OW17893   2.113   1.489   1.095
 5665SOL    HW117894   2.155   1.416   1.148
 5665SOL    HW217895   2.015   1.495   1.118
 5666SOL     OW17896   5.220   1.185   4.691
 5666SOL    HW117897   5.156   1.207   4.765
 5666SOL    HW217898   5.270   1.268   4.665
 5667SOL     OW17899   2.368   5.132   5.042
 5667SOL    HW117900   2.407   5.173   5.125
 5667SOL    HW217901   2.416   5.047   5.021
 5668SOL     OW17902   5.389   3.106   3.547
 5668SOL    HW117903   5.449   3.125   3.624
 5668SOL    HW217904   5.353   3.013   3.555
 5669SOL     OW17905   6.634   4.485   6.518
 5669SOL    HW117906   6.589   4.468   6.606
 5669SOL    HW217907   6.652   4.398   6.472
 5670SOL     OW17908   0.626   2.123   2.481
 5670SOL    HW117909   0.559   2.069   2.429
 5670SOL    HW217910   0.578   2.176   2.551
 5671SOL     OW17911   7.016   6.726   3.460
 5671SOL    HW117912   6.924   6.704   3.427
 5671SOL    HW217913   0.057   6.649   3.444
 5672SOL     OW17914   5.228   3.172   5.399
 5672SOL    HW117915   5.192   3.097   5.455
 5672SOL    HW217916   5.257   3.247   5.459
 5673SOL     OW17917   0.482   0.740   0.876
 5673SOL    HW117918   0.546   0.809   0.909
 5673SOL    HW217919   0.416   0.718   0.948
 5674SOL     OW17920   1.909   5.274   6.000
 5674SOL    HW117921   1.984   5.339   5.983
 5674SOL    HW217922   1.863   5.298   6.086
 5675SOL     OW17923   2.269   1.864   0.473
 5675SOL    HW117924   2.277   1.851   0.374
 5675SOL    HW217925   2.213   1.790   0.511
 5676SOL     OW17926   2.782   2.089   1.589
 5676SOL    HW117927   2.753   2.035   1.510
 5676SOL    HW217928   2.731   2.061   1.670
 5677SOL     OW17929   6.778   0.824   1.261
 5677SOL    HW117930   6.838   0.860   1.332
 5677SOL    HW217931   6.740   0.900   1.208
 5678SOL     OW17932   3.233   2.114   2.166
 5678SOL    HW117933   3.220   2.158   2.078
 5678SOL    HW217934   3.155   2.055   2.187
 5679SOL     OW17935   6.048   3.365   5.026
 5679SOL    HW117936   6.109   3.368   4.946
 5679SOL    HW217937   6.092   3.411   5.103
 5680SOL     OW17938   1.640   6.228   5.309
 5680SOL    HW117939   1.645   6.148   5.249
 5680SOL    HW217940   1.648   6.198   5.404
 5681SOL     OW17941   1.078   3.895   3.538
 5681SOL    HW117942   1.042   3.949   3.613
 5681SOL    HW217943   1.106   3.805   3.572
 5682SOL     OW17944   2.193   4.260   1.941
 5682SOL    HW117945   2.114   4.279   1.999
 5682SOL    HW217946   2.256   4.337   1.944
 5683SOL     OW17947   6.072   1.304   6.401
 5683SOL    HW117948   6.063   1.403   6.392
 5683SOL    HW217949   6.159   1.283   6.445
 5684SOL     OW17950   1.878   2.593   5.218
 5684SOL    HW117951   1.784   2.618   5.241
 5684SOL    HW217952   1.937   2.611   5.297
 5685SOL     OW17953   2.670   1.984   3.232
 5685SOL    HW117954   2.590   1.931   3.203
 5685SOL    HW217955   2.737   1.922   3.273
 5686SOL     OW17956   3.470   6.165   6.091
 5686SOL    HW117957   3.531   6.163   6.170
 5686SOL    HW217958   3.430   6.074   6.078
 5687SOL     OW17959   2.341   6.303   6.465
 5687SOL    HW117960   2.385   6.322   6.377
 5687SOL    HW217961   2.395   6.235   6.515
 5688SOL     OW17962   2.426   2.562   3.155
 5688SOL    HW117963   2.333   2.528   3.142
 5688SOL    HW217964   2.472   2.567   3.067
 5689SOL     OW17965   0.574   2.339   1.585
 5689SOL    HW117966   0.587   2.437   1.598
 5689SOL    HW217967   0.639   2.289   1.642
 5690SOL     OW17968   1.501   5.767   0.130
 5690SOL    HW117969   1.459   5.774   0.221
 5690SOL    HW217970   1.594   5.802   0.134
 5691SOL     OW17971   3.280   1.366   2.433
 5691SOL    HW117972   3.181   1.381   2.427
 5691SOL    HW217973   3.318   1.423   2.506
 5692SOL     OW17974   4.572   4.829   1.501
 5692SOL    HW117975   4.503   4.765   1.537
 5692SOL    HW217976   4.661   4.807   1.540
 5693SOL     OW17977   3.854   0.802   1.239
 5693SOL    HW117978   3.816   0.837   1.153
 5693SOL    HW217979   3.897   0.876   1.289
 5694SOL     OW17980   0.947   6.486   1.829
 5694SOL    HW117981   1.027   6.520   1.879
 5694SOL    HW217982   0.890   6.431   1.890
 5695SOL     OW17983   1.559   0.270   0.922
 5695SOL    HW117984   1.568   0.352   0.979
 5695SOL    HW217985   1.487   0.211   0.959
 5696SOL     OW17986   1.563   0.346   3.713
 5696SOL    HW117987   1.565   0.288   3.632
 5696SOL    HW217988   1.582   0.291   3.794
 5697SOL     OW17989   6.365   2.837   0.391
 5697SOL    HW117990   6.319   2.762   0.343
 5697SOL    HW217991   6.433   2.799   0.454
 5698SOL     OW17992   2.532   2.548   3.824
 5698SOL    HW117993   2.513   2.644   3.804
 5698SOL    HW217994   2.595   2.511   3.756
 5699SOL     OW17995   1.995   2.437   2.837
 5699SOL    HW117996   1.905   2.478   2.846
 5699SOL    HW217997   1.986   2.342   2.807
 5700SOL     OW17998   6.204   0.888   3.607
 5700SOL    HW117999   6.298   0.857   3.622
 5700SOL    HW218000   6.149   0.867   3.688
 5701SOL     OW18001   0.184   1.050   1.103
 5701SOL    HW118002   0.238   1.092   1.029
 5701SOL    HW218003   0.228   1.067   1.191
 5702SOL     OW18004   2.662   6.680   4.279
 5702SOL    HW118005   2.637   6.776   4.266
 5702SOL    HW218006   2.631   6.627   4.199
 5703SOL     OW18007   7.013   2.912   6.595
 5703SOL    HW118008   0.025   2.942   6.685
 5703SOL    HW218009   0.050   2.836   6.563
 5704SOL     OW18010   5.145   4.585   3.847
 5704SOL    HW118011   5.050   4.563   3.825
 5704SOL    HW218012   5.147   4.661   3.912
 5705SOL     OW18013   6.151   6.715   5.378
 5705SOL    HW118014   6.211   6.765   5.315
 5705SOL    HW218015   6.085   6.779   5.418
 5706SOL     OW18016   4.858   2.089   0.172
 5706SOL    HW118017   4.761   2.067   0.166
 5706SOL    HW218018   4.895   2.051   0.257
 5707SOL     OW18019   5.886   5.505   2.161
 5707SOL    HW118020   5.816   5.514   2.232
 5707SOL    HW218021   5.877   5.580   2.096
 5708SOL     OW18022   4.381   5.991   2.839
 5708SOL    HW118023   4.458   6.031   2.889
 5708SOL    HW218024   4.413   5.958   2.750
 5709SOL     OW18025   0.383   1.429   2.273
 5709SOL    HW118026   0.366   1.490   2.195
 5709SOL    HW218027   0.338   1.465   2.354
 5710SOL     OW18028   2.896   2.111   1.005
 5710SOL    HW118029   2.901   2.150   0.913
 5710SOL    HW218030   2.964   2.155   1.064
 5711SOL     OW18031   5.599   2.249   2.009
 5711SOL    HW118032   5.570   2.274   2.102
 5711SOL    HW218033   5.675   2.308   1.982
 5712SOL     OW18034   6.135   6.155   1.246
 5712SOL    HW118035   6.108   6.211   1.168
 5712SOL    HW218036   6.111   6.059   1.228
 5713SOL     OW18037   2.649   6.407   0.558
 5713SOL    HW118038   2.622   6.488   0.506
 5713SOL    HW218039   2.734   6.426   0.607
 5714SOL     OW18040   6.096   6.778   1.177
 5714SOL    HW118041   6.019   6.792   1.239
 5714SOL    HW218042   6.178   6.755   1.230
 5715SOL     OW18043   0.506   0.223   1.278
 5715SOL    HW118044   0.434   0.218   1.209
 5715SOL    HW218045   0.471   0.189   1.366
 5716SOL     OW18046   6.688   4.755   5.614
 5716SOL    HW118047   6.737   4.811   5.547
 5716SOL    HW218048   6.675   4.807   5.698
 5717SOL     OW18049   1.103   5.124   3.121
 5717SOL    HW118050   1.027   5.084   3.070
 5717SOL    HW218051   1.162   5.052   3.155
 5718SOL     OW18052   0.711   3.343   0.287
 5718SOL    HW118053   0.637   3.315   0.227
 5718SOL    HW218054   0.799   3.322   0.244
 5719SOL     OW18055   2.571   3.686   1.097
 5719SOL    HW118056   2.607   3.597   1.070
 5719SOL    HW218057   2.612   3.758   1.041
 5720SOL     OW18058   2.463   4.465   6.219
 5720SOL    HW118059   2.389   4.475   6.286
 5720SOL    HW218060   2.542   4.423   6.263
 5721SOL     OW18061   3.316   4.004   0.673
 5721SOL    HW118062   3.378   4.078   0.645
 5721SOL    HW218063   3.370   3.921   0.689
 5722SOL     OW18064   0.899   1.213   5.995
 5722SOL    HW118065   0.980   1.249   5.950
 5722SOL    HW218066   0.848   1.154   5.932
 5723SOL     OW18067   4.520   3.277   6.735
 5723SOL    HW118068   4.485   3.184   6.747
 5723SOL    HW218069   4.517   3.300   6.638
 5724SOL     OW18070   6.546   2.575   4.192
 5724SOL    HW118071   6.487   2.638   4.243
 5724SOL    HW218072   6.539   2.483   4.232
 5725SOL     OW18073   6.977   4.032   4.081
 5725SOL    HW118074   0.010   4.113   4.105
 5725SOL    HW218075   6.896   4.059   4.029
 5726SOL     OW18076   5.312   4.561   2.486
 5726SOL    HW118077   5.269   4.545   2.397
 5726SOL    HW218078   5.262   4.510   2.557
 5727SOL     OW18079   0.588   2.172   4.982
 5727SOL    HW118080   0.546   2.082   4.973
 5727SOL    HW218081   0.673   2.174   4.929
 5728SOL     OW18082   4.860   6.558   5.053
 5728SOL    HW118083   4.904   6.614   5.124
 5728SOL    HW218084   4.785   6.609   5.012
 5729SOL     OW18085   2.053   2.055   5.243
 5729SOL    HW118086   2.117   2.074   5.168
 5729SOL    HW218087   2.102   2.009   5.317
 5730SOL     OW18088   6.671   3.939   4.813
 5730SOL    HW118089   6.640   3.930   4.908
 5730SOL    HW218090   6.697   4.034   4.796
 5731SOL     OW18091   0.236   6.478   2.310
 5731SOL    HW118092   0.249   6.444   2.403
 5731SOL    HW218093   0.322   6.467   2.259
 5732SOL     OW18094   0.652   0.351   3.413
 5732SOL    HW118095   0.686   0.302   3.493
 5732SOL    HW218096   0.677   0.301   3.330
 5733SOL     OW18097   3.743   0.739   5.496
 5733SOL    HW118098   3.665   0.706   5.549
 5733SOL    HW218099   3.763   0.834   5.520
 5734SOL     OW18100   2.340   6.440   2.803
 5734SOL    HW118101   2.369   6.526   2.846
 5734SOL    HW218102   2.327   6.455   2.705
 5735SOL     OW18103   2.641   1.320   1.865
 5735SOL    HW118104   2.724   1.376   1.873
 5735SOL    HW218105   2.654   1.253   1.791
 5736SOL     OW18106   1.622   5.121   0.028
 5736SOL    HW118107   1.699   5.107   6.985
 5736SOL    HW218108   1.615   5.218   0.051
 5737SOL     OW18109   5.243   4.421   0.767
 5737SOL    HW118110   5.323   4.463   0.724
 5737SOL    HW218111   5.241   4.446   0.864
 5738SOL     OW18112   1.564   3.711   6.321
 5738SOL    HW118113   1.519   3.702   6.410
 5738SOL    HW218114   1.663   3.717   6.335
 5739SOL     OW18115   0.579   1.005   0.919
 5739SOL    HW118116   0.674   0.996   0.890
 5739SOL    HW218117   0.576   1.026   1.017
 5740SOL     OW18118   3.899   5.550   6.342
 5740SOL    HW118119   3.861   5.532   6.252
 5740SOL    HW218120   3.861   5.635   6.379
 5741SOL     OW18121   0.501   4.800   3.211
 5741SOL    HW118122   0.482   4.897   3.197
 5741SOL    HW218123   0.550   4.787   3.297
 5742SOL     OW18124   6.475   6.456   4.431
 5742SOL    HW118125   6.541   6.381   4.436
 5742SOL    HW218126   6.382   6.419   4.429
 5743SOL     OW18127   1.823   6.544   5.079
 5743SOL    HW118128   1.900   6.518   5.136
 5743SOL    HW218129   1.738   6.536   5.131
 5744SOL     OW18130   6.019   6.623   2.216
 5744SOL    HW118131   6.081   6.687   2.261
 5744SOL    HW218132   6.046   6.613   2.120
 5745SOL     OW18133   1.313   1.815   3.721
 5745SOL    HW118134   1.281   1.897   3.674
 5745SOL    HW218135   1.317   1.739   3.656
 5746SOL     OW18136   5.804   3.778   0.115
 5746SOL    HW118137   5.720   3.829   0.098
 5746SOL    HW218138   5.868   3.835   0.168
 5747SOL     OW18139   1.228   6.322   3.198
 5747SOL    HW118140   1.236   6.361   3.289
 5747SOL    HW218141   1.314   6.279   3.172
 5748SOL     OW18142   2.421   6.151   3.003
 5748SOL    HW118143   2.353   6.086   3.038
 5748SOL    HW218144   2.420   6.149   2.903
 5749SOL     OW18145   2.209   1.654   3.565
 5749SOL    HW118146   2.203   1.673   3.663
 5749SOL    HW218147   2.262   1.570   3.550
 5750SOL     OW18148   6.383   5.611   2.666
 5750SOL    HW118149   6.323   5.560   2.606
 5750SOL    HW218150   6.476   5.575   2.659
 5751SOL     OW18151   2.528   3.854   6.420
 5751SOL    HW118152   2.575   3.873   6.333
 5751SOL    HW218153   2.583   3.790   6.474
 5752SOL     OW18154   6.478   0.450   6.987
 5752SOL    HW118155   6.514   0.509   0.040
 5752SOL    HW218156   6.384   0.478   6.966
 5753SOL     OW18157   3.728   2.321   0.471
 5753SOL    HW118158   3.729   2.381   0.551
 5753SOL    HW218159   3.776   2.236   0.493
 5754SOL     OW18160   6.040   4.589   0.861
 5754SOL    HW118161   6.064   4.531   0.784
 5754SOL    HW218162   6.079   4.680   0.848
 5755SOL     OW18163   3.516   3.753   1.768
 5755SOL    HW118164   3.430   3.768   1.719
 5755SOL    HW218165   3.588   3.807   1.725
 5756SOL     OW18166   0.241   6.401   4.295
 5756SOL    HW118167   0.173   6.422   4.224
 5756SOL    HW218168   0.319   6.354   4.253
 5757SOL     OW18169   0.564   5.097   1.433
 5757SOL    HW118170   0.591   5.167   1.367
 5757SOL    HW218171   0.634   5.088   1.503
 5758SOL     OW18172   0.845   1.684   5.775
 5758SOL    HW118173   0.912   1.692   5.702
 5758SOL    HW218174   0.757   1.719   5.744
 5759SOL     OW18175   4.978   2.049   5.024
 5759SOL    HW118176   4.976   1.949   5.025
 5759SOL    HW218177   5.049   2.081   5.086
 5760SOL     OW18178   1.795   5.739   1.889
 5760SOL    HW118179   1.826   5.644   1.887
 5760SOL    HW218180   1.859   5.794   1.942
 5761SOL     OW18181   4.740   0.372   4.934
 5761SOL    HW118182   4.822   0.407   4.978
 5761SOL    HW218183   4.751   0.274   4.916
 5762SOL     OW18184   5.443   6.292   1.338
 5762SOL    HW118185   5.506   6.225   1.377
 5762SOL    HW218186   5.439   6.373   1.398
 5763SOL     OW18187   1.022   1.454   1.239
 5763SOL    HW118188   1.062   1.484   1.326
 5763SOL    HW218189   1.082   1.482   1.164
 5764SOL     OW18190   4.844   3.672   5.566
 5764SOL    HW118191   4.897   3.754   5.544
 5764SOL    HW218192   4.904   3.592   5.560
 5765SOL     OW18193   5.581   4.796   0.689
 5765SOL    HW118194   5.681   4.796   0.694
 5765SOL    HW218195   5.550   4.875   0.637
 5766SOL     OW18196   3.019   0.948   3.917
 5766SOL    HW118197   2.981   0.962   4.009
 5766SOL    HW218198   2.976   1.012   3.853
 5767SOL     OW18199   0.088   6.655   1.072
 5767SOL    HW118200   0.044   6.593   1.007
 5767SOL    HW218201   0.175   6.615   1.102
 5768SOL     OW18202   6.491   0.634   2.831
 5768SOL    HW118203   6.511   0.676   2.920
 5768SOL    HW218204   6.550   0.554   2.818
 5769SOL     OW18205   2.406   5.678   3.925
 5769SOL    HW118206   2.468   5.602   3.940
 5769SOL    HW218207   2.387   5.688   3.827
 5770SOL     OW18208   6.222   0.085   1.504
 5770SOL    HW118209   6.153   0.015   1.525
 5770SOL    HW218210   6.184   0.151   1.440
 5771SOL     OW18211   0.672   1.655   2.470
 5771SOL    HW118212   0.670   1.593   2.548
 5771SOL    HW218213   0.674   1.601   2.385
 5772SOL     OW18214   6.669   4.475   6.891
 5772SOL    HW118215   6.758   4.487   6.848
 5772SOL    HW218216   6.674   4.504   6.987
 5773SOL     OW18217   5.945   5.802   4.021
 5773SOL    HW118218   5.968   5.897   4.040
 5773SOL    HW218219   5.899   5.795   3.933
 5774SOL     OW18220   2.684   5.351   2.982
 5774SOL    HW118221   2.651   5.386   2.894
 5774SOL    HW218222   2.633   5.268   3.005
 5775SOL     OW18223   0.054   0.326   0.429
 5775SOL    HW118224   0.092   0.233   0.431
 5775SOL    HW218225   7.017   0.340   0.510
 5776SOL     OW18226   5.231   1.255   6.229
 5776SOL    HW118227   5.137   1.280   6.204
 5776SOL    HW218228   5.295   1.297   6.165
 5777SOL     OW18229   5.883   0.565   5.234
 5777SOL    HW118230   5.815   0.539   5.165
 5777SOL    HW218231   5.881   0.664   5.246
 5778SOL     OW18232   2.697   0.052   3.784
 5778SOL    HW118233   2.662   0.146   3.789
 5778SOL    HW218234   2.735   0.036   3.693
 5779SOL     OW18235   4.346   1.215   2.525
 5779SOL    HW118236   4.262   1.200   2.578
 5779SOL    HW218237   4.324   1.266   2.442
 5780SOL     OW18238   6.160   3.543   1.342
 5780SOL    HW118239   6.190   3.627   1.298
 5780SOL    HW218240   6.197   3.538   1.435
 5781SOL     OW18241   2.232   4.750   5.006
 5781SOL    HW118242   2.305   4.704   4.956
 5781SOL    HW218243   2.158   4.773   4.943
 5782SOL     OW18244   2.735   1.045   3.212
 5782SOL    HW118245   2.654   1.094   3.245
 5782SOL    HW218246   2.775   1.094   3.135
 5783SOL     OW18247   2.518   6.600   0.992
 5783SOL    HW118248   2.455   6.631   1.063
 5783SOL    HW218249   2.468   6.583   0.907
 5784SOL     OW18250   1.965   5.601   0.157
 5784SOL    HW118251   1.980   5.666   0.232
 5784SOL    HW218252   1.943   5.511   0.196
 5785SOL     OW18253   2.559   1.646   0.511
 5785SOL    HW118254   2.657   1.650   0.530
 5785SOL    HW218255   2.509   1.700   0.579
 5786SOL     OW18256   0.974   3.264   0.206
 5786SOL    HW118257   1.066   3.294   0.233
 5786SOL    HW218258   0.950   3.305   0.119
 5787SOL     OW18259   0.207   3.177   5.569
 5787SOL    HW118260   0.169   3.238   5.500
 5787SOL    HW218261   0.304   3.162   5.550
 5788SOL     OW18262   1.638   2.632   2.014
 5788SOL    HW118263   1.555   2.577   2.018
 5788SOL    HW218264   1.711   2.587   2.067
 5789SOL     OW18265   3.086   5.325   6.913
 5789SOL    HW118266   3.148   5.402   6.904
 5789SOL    HW218267   3.007   5.339   6.854
 5790SOL     OW18268   6.205   5.420   3.589
 5790SOL    HW118269   6.140   5.473   3.534
 5790SOL    HW218270   6.155   5.353   3.644
 5791SOL     OW18271   4.158   1.609   1.439
 5791SOL    HW118272   4.142   1.690   1.382
 5791SOL    HW218273   4.204   1.636   1.524
 5792SOL     OW18274   4.603   2.213   2.705
 5792SOL    HW118275   4.590   2.263   2.791
 5792SOL    HW218276   4.521   2.160   2.685
 5793SOL     OW18277   3.952   2.613   6.546
 5793SOL    HW118278   3.956   2.547   6.471
 5793SOL    HW218279   3.856   2.630   6.570
 5794SOL     OW18280   3.674   6.424   6.888
 5794SOL    HW118281   3.661   6.509   6.837
 5794SOL    HW218282   3.633   6.434   6.979
 5795SOL     OW18283   1.983   6.046   1.809
 5795SOL    HW118284   2.000   6.013   1.901
 5795SOL    HW218285   2.064   6.031   1.752
 5796SOL     OW18286   4.946   0.543   6.594
 5796SOL    HW118287   4.893   0.626   6.611
 5796SOL    HW218288   5.043   0.562   6.610
 5797SOL     OW18289   6.808   2.848   0.828
 5797SOL    HW118290   6.903   2.834   0.801
 5797SOL    HW218291   6.758   2.762   0.821
 5798SOL     OW18292   1.720   3.543   4.228
 5798SOL    HW118293   1.628   3.575   4.207
 5798SOL    HW218294   1.723   3.443   4.221
 5799SOL     OW18295   2.817   0.312   3.597
 5799SOL    HW118296   2.760   0.335   3.517
 5799SOL    HW218297   2.909   0.288   3.566
 5800SOL     OW18298   1.428   0.210   1.374
 5800SOL    HW118299   1.385   0.300   1.364
 5800SOL    HW218300   1.415   0.178   1.468
 5801SOL     OW18301   1.917   1.601   2.070
 5801SOL    HW118302   1.982   1.525   2.081
 5801SOL    HW218303   1.967   1.684   2.046
 5802SOL     OW18304   0.676   0.039   2.063
 5802SOL    HW118305   0.708   0.133   2.052
 5802SOL    HW218306   0.662   0.019   2.160
 5803SOL     OW18307   0.668   6.052   4.271
 5803SOL    HW118308   0.631   6.142   4.249
 5803SOL    HW218309   0.594   5.984   4.267
 5804SOL     OW18310   6.007   1.858   2.830
 5804SOL    HW118311   6.007   1.956   2.849
 5804SOL    HW218312   5.916   1.820   2.848
 5805SOL     OW18313   1.432   2.901   2.179
 5805SOL    HW118314   1.514   2.940   2.137
 5805SOL    HW218315   1.430   2.923   2.276
 5806SOL     OW18316   6.563   3.868   1.948
 5806SOL    HW118317   6.591   3.958   1.915
 5806SOL    HW218318   6.518   3.877   2.037
 5807SOL     OW18319   1.611   1.024   1.869
 5807SOL    HW118320   1.592   1.121   1.853
 5807SOL    HW218321   1.589   1.001   1.963
 5808SOL     OW18322   6.580   0.609   5.924
 5808SOL    HW118323   6.639   0.578   5.850
 5808SOL    HW218324   6.622   0.588   6.012
 5809SOL     OW18325   0.281   2.863   4.881
 5809SOL    HW118326   0.246   2.954   4.904
 5809SOL    HW218327   0.204   2.802   4.859
 5810SOL     OW18328   3.482   6.542   5.222
 5810SOL    HW118329   3.384   6.522   5.225
 5810SOL    HW218330   3.516   6.524   5.129
 5811SOL     OW18331   3.944   4.190   6.636
 5811SOL    HW118332   3.844   4.185   6.631
 5811SOL    HW218333   3.970   4.261   6.702
 5812SOL     OW18334   5.735   2.824   6.042
 5812SOL    HW118335   5.652   2.785   6.002
 5812SOL    HW218336   5.715   2.856   6.135
 5813SOL     OW18337   4.884   5.654   0.672
 5813SOL    HW118338   4.854   5.564   0.640
 5813SOL    HW218339   4.830   5.725   0.627
 5814SOL     OW18340   5.863   1.166   1.909
 5814SOL    HW118341   5.887   1.086   1.854
 5814SOL    HW218342   5.876   1.146   2.006
 5815SOL     OW18343   6.193   3.201   3.965
 5815SOL    HW118344   6.165   3.221   3.871
 5815SOL    HW218345   6.118   3.224   4.027
 5816SOL     OW18346   0.224   3.942   2.617
 5816SOL    HW118347   0.134   3.921   2.577
 5816SOL    HW218348   0.219   3.930   2.716
 5817SOL     OW18349   5.997   3.714   3.158
 5817SOL    HW118350   6.011   3.813   3.152
 5817SOL    HW218351   5.992   3.676   3.065
 5818SOL     OW18352   2.735   0.438   4.377
 5818SOL    HW118353   2.654   0.379   4.370
 5818SOL    HW218354   2.814   0.391   4.338
 5819SOL     OW18355   3.961   4.115   0.506
 5819SOL    HW118356   4.007   4.042   0.455
 5819SOL    HW218357   3.909   4.075   0.582
 5820SOL     OW18358   6.313   6.240   2.481
 5820SOL    HW118359   6.230   6.186   2.491
 5820SOL    HW218360   6.293   6.337   2.492
 5821SOL     OW18361   6.977   0.268   1.709
 5821SOL    HW118362   6.937   0.231   1.792
 5821SOL    HW218363   6.904   0.300   1.648
 5822SOL     OW18364   1.509   4.269   2.991
 5822SOL    HW118365   1.431   4.328   3.008
 5822SOL    HW218366   1.487   4.175   3.019
 5823SOL     OW18367   1.773   6.552   3.820
 5823SOL    HW118368   1.718   6.550   3.904
 5823SOL    HW218369   1.717   6.524   3.743
 5824SOL     OW18370   1.502   6.764   2.266
 5824SOL    HW118371   1.590   6.732   2.228
 5824SOL    HW218372   1.476   6.850   2.221
 5825SOL     OW18373   4.797   1.719   3.816
 5825SOL    HW118374   4.835   1.628   3.799
 5825SOL    HW218375   4.740   1.747   3.738
 5826SOL     OW18376   1.493   6.977   5.461
 5826SOL    HW118377   1.465   0.025   5.529
 5826SOL    HW218378   1.417   6.962   5.397
 5827SOL     OW18379   2.078   4.268   3.722
 5827SOL    HW118380   2.150   4.200   3.704
 5827SOL    HW218381   2.004   4.256   3.656
 5828SOL     OW18382   4.353   0.978   5.470
 5828SOL    HW118383   4.403   0.961   5.555
 5828SOL    HW218384   4.409   0.949   5.393
 5829SOL     OW18385   2.176   0.314   3.010
 5829SOL    HW118386   2.249   0.248   2.992
 5829SOL    HW218387   2.087   0.268   3.002
 5830SOL     OW18388   4.281   5.269   4.273
 5830SOL    HW118389   4.281   5.357   4.225
 5830SOL    HW218390   4.354   5.211   4.236
 5831SOL     OW18391   1.809   1.947   5.183
 5831SOL    HW118392   1.733   2.011   5.186
 5831SOL    HW218393   1.895   1.996   5.196
 5832SOL     OW18394   2.977   5.191   2.124
 5832SOL    HW118395   2.926   5.264   2.078
 5832SOL    HW218396   2.917   5.145   2.190
 5833SOL     OW18397   3.648   5.464   0.238
 5833SOL    HW118398   3.571   5.410   0.270
 5833SOL    HW218399   3.677   5.431   0.148
 5834SOL     OW18400   6.339   2.857   6.602
 5834SOL    HW118401   6.425   2.896   6.570
 5834SOL    HW218402   6.285   2.927   6.649
 5835SOL     OW18403   4.853   1.867   3.030
 5835SOL    HW118404   4.825   1.944   2.972
 5835SOL    HW218405   4.947   1.882   3.061
 5836SOL     OW18406   5.359   5.883   2.398
 5836SOL    HW118407   5.433   5.883   2.331
 5836SOL    HW218408   5.306   5.799   2.388
 5837SOL     OW18409   2.784   5.053   6.192
 5837SOL    HW118410   2.741   5.002   6.266
 5837SOL    HW218411   2.722   5.124   6.159
 5838SOL     OW18412   3.912   2.781   0.293
 5838SOL    HW118413   3.898   2.746   0.386
 5838SOL    HW218414   3.978   2.856   0.295
 5839SOL     OW18415   1.606   2.431   0.548
 5839SOL    HW118416   1.631   2.504   0.612
 5839SOL    HW218417   1.574   2.351   0.599
 5840SOL     OW18418   0.204   3.701   3.534
 5840SOL    HW118419   0.116   3.667   3.569
 5840SOL    HW218420   0.258   3.624   3.500
 5841SOL     OW18421   5.343   1.306   0.684
 5841SOL    HW118422   5.334   1.308   0.783
 5841SOL    HW218423   5.292   1.228   0.647
 5842SOL     OW18424   2.859   1.648   1.129
 5842SOL    HW118425   2.832   1.567   1.181
 5842SOL    HW218426   2.832   1.637   1.034
 5843SOL     OW18427   3.332   3.108   0.935
 5843SOL    HW118428   3.420   3.068   0.909
 5843SOL    HW218429   3.261   3.038   0.933
 5844SOL     OW18430   0.462   5.766   4.959
 5844SOL    HW118431   0.379   5.734   5.005
 5844SOL    HW218432   0.451   5.754   4.860
 5845SOL     OW18433   1.523   6.906   2.551
 5845SOL    HW118434   1.582   6.986   2.560
 5845SOL    HW218435   1.508   6.887   2.454
 5846SOL     OW18436   0.478   3.731   5.456
 5846SOL    HW118437   0.507   3.648   5.504
 5846SOL    HW218438   0.556   3.792   5.444
 5847SOL     OW18439   1.371   4.193   6.261
 5847SOL    HW118440   1.329   4.242   6.185
 5847SOL    HW218441   1.462   4.231   6.279
 5848SOL     OW18442   1.928   5.493   1.850
 5848SOL    HW118443   1.997   5.443   1.902
 5848SOL    HW218444   1.868   5.429   1.802
 5849SOL     OW18445   2.922   5.846   6.150
 5849SOL    HW118446   2.923   5.865   6.249
 5849SOL    HW218447   2.846   5.896   6.108
 5850SOL     OW18448   0.596   1.359   1.925
 5850SOL    HW118449   0.656   1.393   1.853
 5850SOL    HW218450   0.503   1.392   1.909
 5851SOL     OW18451   6.315   3.826   4.489
 5851SOL    HW118452   6.301   3.894   4.416
 5851SOL    HW218453   6.251   3.751   4.477
 5852SOL     OW18454   5.091   4.117   2.492
 5852SOL    HW118455   5.031   4.086   2.419
 5852SOL    HW218456   5.182   4.136   2.455
 5853SOL     OW18457   4.766   4.793   6.334
 5853SOL    HW118458   4.760   4.743   6.247
 5853SOL    HW218459   4.726   4.884   6.324
 5854SOL     OW18460   3.480   4.966   5.351
 5854SOL    HW118461   3.399   4.914   5.321
 5854SOL    HW218462   3.550   4.903   5.385
 5855SOL     OW18463   2.495   2.595   2.878
 5855SOL    HW118464   2.521   2.690   2.892
 5855SOL    HW218465   2.398   2.589   2.855
 5856SOL     OW18466   0.990   6.271   2.999
 5856SOL    HW118467   1.051   6.294   3.075
 5856SOL    HW218468   0.964   6.355   2.951
 5857SOL     OW18469   5.589   4.959   6.738
 5857SOL    HW118470   5.610   4.898   6.661
 5857SOL    HW218471   5.570   5.051   6.703
 5858SOL     OW18472   1.668   0.768   2.866
 5858SOL    HW118473   1.755   0.817   2.857
 5858SOL    HW218474   1.628   0.787   2.955
 5859SOL     OW18475   5.468   5.706   1.478
 5859SOL    HW118476   5.409   5.733   1.403
 5859SOL    HW218477   5.426   5.632   1.530
 5860SOL     OW18478   0.700   4.356   3.062
 5860SOL    HW118479   0.684   4.455   3.066
 5860SOL    HW218480   0.747   4.327   3.145
 5861SOL     OW18481   4.765   0.892   5.268
 5861SOL    HW118482   4.837   0.828   5.240
 5861SOL    HW218483   4.805   0.965   5.324
 5862SOL     OW18484   6.220   5.336   2.920
 5862SOL    HW118485   6.187   5.430   2.911
 5862SOL    HW218486   6.317   5.337   2.945
 5863SOL     OW18487   3.943   6.915   6.895
 5863SOL    HW118488   4.040   6.931   6.880
 5863SOL    HW218489   3.926   6.900   6.993
 5864SOL     OW18490   3.313   3.928   2.268
 5864SOL    HW118491   3.356   3.955   2.181
 5864SOL    HW218492   3.218   3.958   2.269
 5865SOL     OW18493   6.630   0.120   6.426
 5865SOL    HW118494   6.672   0.099   6.514
 5865SOL    HW218495   6.538   0.157   6.441
 5866SOL     OW18496   3.381   2.882   2.753
 5866SOL    HW118497   3.385   2.901   2.851
 5866SOL    HW218498   3.463   2.917   2.709
 5867SOL     OW18499   2.721   1.667   1.496
 5867SOL    HW118500   2.817   1.642   1.482
 5867SOL    HW218501   2.707   1.761   1.465
 5868SOL     OW18502   0.746   1.149   6.575
 5868SOL    HW118503   0.781   1.162   6.668
 5868SOL    HW218504   0.760   1.053   6.548
 5869SOL     OW18505   1.273   5.974   3.529
 5869SOL    HW118506   1.357   5.922   3.516
 5869SOL    HW218507   1.198   5.932   3.477
 5870SOL     OW18508   3.482   6.158   4.657
 5870SOL    HW118509   3.431   6.104   4.590
 5870SOL    HW218510   3.493   6.251   4.624
 5871SOL     OW18511   3.083   3.058   3.900
 5871SOL    HW118512   3.065   3.137   3.959
 5871SOL    HW218513   3.123   3.089   3.814
 5872SOL     OW18514   4.725   5.862   0.578
 5872SOL    HW118515   4.659   5.788   0.560
 5872SOL    HW218516   4.704   5.903   0.667
 5873SOL     OW18517   4.381   5.936   2.219
 5873SOL    HW118518   4.448   6.009   2.209
 5873SOL    HW218519   4.291   5.976   2.239
 5874SOL     OW18520   1.037   4.106   5.586
 5874SOL    HW118521   0.951   4.058   5.600
 5874SOL    HW218522   1.031   4.199   5.624
 5875SOL     OW18523   3.598   1.981   1.471
 5875SOL    HW118524   3.679   1.973   1.529
 5875SOL    HW218525   3.517   1.995   1.529
 5876SOL     OW18526   3.417   3.078   1.618
 5876SOL    HW118527   3.344   3.042   1.559
 5876SOL    HW218528   3.394   3.171   1.648
 5877SOL     OW18529   5.857   4.521   1.194
 5877SOL    HW118530   5.815   4.526   1.103
 5877SOL    HW218531   5.854   4.612   1.236
 5878SOL     OW18532   2.220   4.568   2.526
 5878SOL    HW118533   2.289   4.584   2.596
 5878SOL    HW218534   2.145   4.633   2.538
 5879SOL     OW18535   0.600   4.290   4.006
 5879SOL    HW118536   0.616   4.195   3.976
 5879SOL    HW218537   0.661   4.312   4.081
 5880SOL     OW18538   3.342   5.667   0.225
 5880SOL    HW118539   3.367   5.714   0.141
 5880SOL    HW218540   3.357   5.569   0.215
 5881SOL     OW18541   1.474   5.650   4.289
 5881SOL    HW118542   1.461   5.728   4.349
 5881SOL    HW218543   1.554   5.598   4.319
 5882SOL     OW18544   4.964   0.882   2.924
 5882SOL    HW118545   5.048   0.832   2.944
 5882SOL    HW218546   4.924   0.846   2.839
 5883SOL     OW18547   0.671   3.430   5.295
 5883SOL    HW118548   0.642   3.408   5.388
 5883SOL    HW218549   0.751   3.491   5.299
 5884SOL     OW18550   0.559   1.192   3.724
 5884SOL    HW118551   0.553   1.291   3.735
 5884SOL    HW218552   0.478   1.158   3.677
 5885SOL     OW18553   5.707   6.935   1.019
 5885SOL    HW118554   5.802   6.959   0.997
 5885SOL    HW218555   5.649   7.014   1.005
 5886SOL     OW18556   0.258   0.847   6.557
 5886SOL    HW118557   0.238   0.787   6.480
 5886SOL    HW218558   0.352   0.832   6.587
 5887SOL     OW18559   4.610   6.409   3.115
 5887SOL    HW118560   4.574   6.490   3.068
 5887SOL    HW218561   4.710   6.414   3.118
 5888SOL     OW18562   0.881   0.501   2.981
 5888SOL    HW118563   0.845   0.587   2.944
 5888SOL    HW218564   0.873   0.503   3.081
 5889SOL     OW18565   2.840   0.291   0.238
 5889SOL    HW118566   2.808   0.246   0.321
 5889SOL    HW218567   2.929   0.254   0.212
 5890SOL     OW18568   3.265   5.004   6.037
 5890SOL    HW118569   3.231   4.945   5.963
 5890SOL    HW218570   3.264   5.099   6.007
 5891SOL     OW18571   1.904   3.217   6.731
 5891SOL    HW118572   1.949   3.134   6.699
 5891SOL    HW218573   1.969   3.293   6.731
 5892SOL     OW18574   1.360   0.177   2.639
 5892SOL    HW118575   1.284   0.114   2.655
 5892SOL    HW218576   1.346   0.260   2.694
 5893SOL     OW18577   1.937   0.873   3.069
 5893SOL    HW118578   1.924   0.899   2.973
 5893SOL    HW218579   1.854   0.895   3.120
 5894SOL     OW18580   0.681   3.509   3.675
 5894SOL    HW118581   0.741   3.486   3.599
 5894SOL    HW218582   0.706   3.455   3.755
 5895SOL     OW18583   5.237   3.876   3.689
 5895SOL    HW118584   5.234   3.909   3.783
 5895SOL    HW218585   5.153   3.901   3.641
 5896SOL     OW18586   4.452   2.058   5.673
 5896SOL    HW118587   4.395   2.124   5.722
 5896SOL    HW218588   4.518   2.017   5.737
 5897SOL     OW18589   4.194   0.133   1.655
 5897SOL    HW118590   4.278   0.079   1.661
 5897SOL    HW218591   4.154   0.141   1.746
 5898SOL     OW18592   1.918   6.788   2.507
 5898SOL    HW118593   1.865   6.807   2.590
 5898SOL    HW218594   1.932   6.873   2.456
 5899SOL     OW18595   5.570   0.174   3.710
 5899SOL    HW118596   5.554   0.100   3.775
 5899SOL    HW218597   5.560   0.262   3.757
 5900SOL     OW18598   4.268   5.033   2.117
 5900SOL    HW118599   4.202   4.958   2.109
 5900SOL    HW218600   4.225   5.110   2.164
 5901SOL     OW18601   3.546   6.806   5.311
 5901SOL    HW118602   3.537   6.716   5.269
 5901SOL    HW218603   3.472   6.865   5.278
 5902SOL     OW18604   6.252   1.105   7.013
 5902SOL    HW118605   6.347   1.084   0.016
 5902SOL    HW218606   6.248   1.151   6.925
 5903SOL     OW18607   0.265   3.186   6.668
 5903SOL    HW118608   0.176   3.231   6.656
 5903SOL    HW218609   0.284   3.128   6.588
 5904SOL     OW18610   0.426   4.104   2.498
 5904SOL    HW118611   0.376   4.028   2.540
 5904SOL    HW218612   0.364   4.181   2.483
 5905SOL     OW18613   6.483   4.689   1.859
 5905SOL    HW118614   6.562   4.748   1.841
 5905SOL    HW218615   6.402   4.727   1.814
 5906SOL     OW18616   6.963   1.344   4.195
 5906SOL    HW118617   6.898   1.269   4.206
 5906SOL    HW218618   6.912   1.429   4.181
 5907SOL     OW18619   1.776   6.695   2.245
 5907SOL    HW118620   1.792   6.737   2.335
 5907SOL    HW218621   1.835   6.739   2.177
 5908SOL     OW18622   0.281   2.494   6.183
 5908SOL    HW118623   0.299   2.399   6.158
 5908SOL    HW218624   0.204   2.528   6.129
 5909SOL     OW18625   6.922   4.048   1.073
 5909SOL    HW118626   6.962   4.006   1.155
 5909SOL    HW218627   6.971   4.014   0.992
 5910SOL     OW18628   2.151   1.798   3.794
 5910SOL    HW118629   2.057   1.825   3.817
 5910SOL    HW218630   2.203   1.784   3.878
 5911SOL     OW18631   0.077   5.789   6.319
 5911SOL    HW118632   0.079   5.854   6.394
 5911SOL    HW218633   0.160   5.799   6.264
 5912SOL     OW18634   0.822   0.807   3.899
 5912SOL    HW118635   0.729   0.823   3.934
 5912SOL    HW218636   0.844   0.876   3.830
 5913SOL     OW18637   6.091   1.645   6.953
 5913SOL    HW118638   6.072   1.582   0.009
 5913SOL    HW218639   6.014   1.709   6.945
 5914SOL     OW18640   0.504   6.307   0.549
 5914SOL    HW118641   0.478   6.399   0.577
 5914SOL    HW218642   0.438   6.271   0.484
 5915SOL     OW18643   4.244   1.715   6.202
 5915SOL    HW118644   4.184   1.792   6.182
 5915SOL    HW218645   4.196   1.649   6.260
 5916SOL     OW18646   0.642   6.432   2.216
 5916SOL    HW118647   0.656   6.367   2.142
 5916SOL    HW218648   0.641   6.525   2.180
 5917SOL     OW18649   3.287   4.762   0.474
 5917SOL    HW118650   3.248   4.851   0.448
 5917SOL    HW218651   3.251   4.735   0.563
 5918SOL     OW18652   2.740   6.376   5.242
 5918SOL    HW118653   2.770   6.401   5.334
 5918SOL    HW218654   2.641   6.362   5.242
 5919SOL     OW18655   3.302   3.423   4.551
 5919SOL    HW118656   3.213   3.400   4.591
 5919SOL    HW218657   3.305   3.391   4.456
 5920SOL     OW18658   5.732   0.318   5.716
 5920SOL    HW118659   5.791   0.366   5.781
 5920SOL    HW218660   5.764   0.336   5.623
 5921SOL     OW18661   2.686   4.310   6.334
 5921SOL    HW118662   2.704   4.302   6.432
 5921SOL    HW218663   2.723   4.230   6.287
 5922SOL     OW18664   5.194   3.264   2.404
 5922SOL    HW118665   5.111   3.251   2.458
 5922SOL    HW218666   5.265   3.201   2.435
 5923SOL     OW18667   6.296   0.423   3.496
 5923SOL    HW118668   6.334   0.381   3.578
 5923SOL    HW218669   6.328   0.374   3.415
 5924SOL     OW18670   5.412   6.720   3.257
 5924SOL    HW118671   5.482   6.685   3.319
 5924SOL    HW218672   5.425   6.818   3.244
 5925SOL     OW18673   4.711   0.557   1.183
 5925SOL    HW118674   4.659   0.634   1.221
 5925SOL    HW218675   4.690   0.547   1.086
 5926SOL     OW18676   4.830   4.778   3.690
 5926SOL    HW118677   4.848   4.686   3.726
 5926SOL    HW218678   4.874   4.788   3.601
 5927SOL     OW18679   0.581   4.829   1.922
 5927SOL    HW118680   0.537   4.867   2.003
 5927SOL    HW218681   0.513   4.816   1.850
 5928SOL     OW18682   2.681   0.521   0.357
 5928SOL    HW118683   2.720   0.435   0.392
 5928SOL    HW218684   2.601   0.500   0.301
 5929SOL     OW18685   1.670   0.733   6.876
 5929SOL    HW118686   1.649   0.723   6.973
 5929SOL    HW218687   1.596   0.784   6.831
 5930SOL     OW18688   1.616   3.592   2.361
 5930SOL    HW118689   1.532   3.562   2.408
 5930SOL    HW218690   1.592   3.653   2.286
 5931SOL     OW18691   5.148   6.487   2.710
 5931SOL    HW118692   5.142   6.522   2.803
 5931SOL    HW218693   5.216   6.541   2.659
 5932SOL     OW18694   3.076   0.943   5.964
 5932SOL    HW118695   3.020   1.022   5.987
 5932SOL    HW218696   3.023   0.880   5.906
 5933SOL     OW18697   6.151   6.494   4.592
 5933SOL    HW118698   6.212   6.419   4.565
 5933SOL    HW218699   6.062   6.457   4.617
 5934SOL     OW18700   3.504   3.592   6.817
 5934SOL    HW118701   3.502   3.495   6.792
 5934SOL    HW218702   3.518   3.601   6.916
 5935SOL     OW18703   1.030   6.017   5.736
 5935SOL    HW118704   1.106   6.020   5.671
 5935SOL    HW218705   1.010   5.922   5.759
 5936SOL     OW18706   3.142   3.062   2.035
 5936SOL    HW118707   3.138   3.040   2.133
 5936SOL    HW218708   3.049   3.079   2.001
 5937SOL     OW18709   0.241   3.320   1.310
 5937SOL    HW118710   0.312   3.254   1.289
 5937SOL    HW218711   0.274   3.413   1.291
 5938SOL     OW18712   0.650   4.525   4.199
 5938SOL    HW118713   0.671   4.497   4.292
 5938SOL    HW218714   0.733   4.555   4.153
 5939SOL     OW18715   3.724   1.554   4.952
 5939SOL    HW118716   3.625   1.555   4.945
 5939SOL    HW218717   3.764   1.569   4.861
 5940SOL     OW18718   5.198   5.599   1.987
 5940SOL    HW118719   5.188   5.620   1.890
 5940SOL    HW218720   5.148   5.667   2.041
 5941SOL     OW18721   0.142   2.318   2.858
 5941SOL    HW118722   0.106   2.266   2.935
 5941SOL    HW218723   0.147   2.259   2.778
 5942SOL     OW18724   5.197   3.025   6.024
 5942SOL    HW118725   5.149   3.008   6.110
 5942SOL    HW218726   5.139   2.997   5.947
 5943SOL     OW18727   3.017   4.188   1.794
 5943SOL    HW118728   2.983   4.275   1.831
 5943SOL    HW218729   2.940   4.129   1.770
 5944SOL     OW18730   0.025   3.805   6.668
 5944SOL    HW118731   6.979   3.784   6.740
 5944SOL    HW218732   0.100   3.739   6.671
 5945SOL     OW18733   6.705   6.005   4.702
 5945SOL    HW118734   6.743   5.922   4.743
 5945SOL    HW218735   6.779   6.069   4.682
 5946SOL     OW18736   3.052   4.005   0.578
 5946SOL    HW118737   3.049   4.075   0.507
 5946SOL    HW218738   3.143   4.003   0.619
 5947SOL     OW18739   3.802   3.649   4.604
 5947SOL    HW118740   3.890   3.693   4.620
 5947SOL    HW218741   3.784   3.582   4.677
 5948SOL     OW18742   5.263   3.473   1.418
 5948SOL    HW118743   5.308   3.394   1.460
 5948SOL    HW218744   5.301   3.557   1.456
 5949SOL     OW18745   0.128   4.301   2.694
 5949SOL    HW118746   0.051   4.239   2.675
 5949SOL    HW218747   0.194   4.295   2.619
 5950SOL     OW18748   3.947   0.347   4.958
 5950SOL    HW118749   4.005   0.407   5.013
 5950SOL    HW218750   3.900   0.283   5.018
 5951SOL     OW18751   0.557   3.798   6.492
 5951SOL    HW118752   0.528   3.773   6.399
 5951SOL    HW218753   0.656   3.790   6.499
 5952SOL     OW18754   4.268   4.606   0.854
 5952SOL    HW118755   4.334   4.655   0.797
 5952SOL    HW218756   4.249   4.660   0.936
 5953SOL     OW18757   6.545   2.936   5.087
 5953SOL    HW118758   6.613   2.863   5.094
 5953SOL    HW218759   6.477   2.924   5.160
 5954SOL     OW18760   1.617   5.913   4.216
 5954SOL    HW118761   1.611   5.903   4.315
 5954SOL    HW218762   1.527   5.899   4.175
 5955SOL     OW18763   5.298   3.310   0.798
 5955SOL    HW118764   5.232   3.238   0.775
 5955SOL    HW218765   5.358   3.277   0.871
 5956SOL     OW18766   5.428   2.739   5.372
 5956SOL    HW118767   5.507   2.692   5.331
 5956SOL    HW218768   5.344   2.702   5.333
 5957SOL     OW18769   7.004   1.889   3.022
 5957SOL    HW118770   6.940   1.944   3.076
 5957SOL    HW218771   0.008   1.806   3.073
 5958SOL     OW18772   3.041   0.224   2.367
 5958SOL    HW118773   3.039   0.280   2.285
 5958SOL    HW218774   3.117   0.159   2.362
 5959SOL     OW18775   4.934   2.629   4.009
 5959SOL    HW118776   4.978   2.685   4.078
 5959SOL    HW218777   4.866   2.683   3.960
 5960SOL     OW18778   4.101   0.063   6.110
 5960SOL    HW118779   4.108   0.162   6.096
 5960SOL    HW218780   4.187   0.020   6.083
 5961SOL     OW18781   2.824   2.175   3.304
 5961SOL    HW118782   2.746   2.112   3.311
 5961SOL    HW218783   2.792   2.268   3.323
 5962SOL     OW18784   5.189   5.948   0.843
 5962SOL    HW118785   5.193   5.893   0.759
 5962SOL    HW218786   5.282   5.970   0.872
 5963SOL     OW18787   3.002   4.317   6.917
 5963SOL    HW118788   2.907   4.292   6.935
 5963SOL    HW218789   3.039   4.367   6.995
 5964SOL     OW18790   2.608   6.785   2.398
 5964SOL    HW118791   2.656   6.777   2.310
 5964SOL    HW218792   2.510   6.768   2.383
 5965SOL     OW18793   1.923   0.431   6.958
 5965SOL    HW118794   1.830   0.426   6.921
 5965SOL    HW218795   1.920   0.462   0.033
 5966SOL     OW18796   2.441   1.079   4.572
 5966SOL    HW118797   2.423   1.047   4.479
 5966SOL    HW218798   2.537   1.063   4.595
 5967SOL     OW18799   3.283   1.904   4.274
 5967SOL    HW118800   3.324   1.880   4.186
 5967SOL    HW218801   3.333   1.981   4.315
 5968SOL     OW18802   5.725   2.619   1.670
 5968SOL    HW118803   5.629   2.615   1.641
 5968SOL    HW218804   5.779   2.664   1.599
 5969SOL     OW18805   5.392   0.613   0.190
 5969SOL    HW118806   5.295   0.590   0.201
 5969SOL    HW218807   5.423   0.663   0.271
 5970SOL     OW18808   0.199   3.280   0.860
 5970SOL    HW118809   0.159   3.211   0.800
 5970SOL    HW218810   0.129   3.346   0.887
 5971SOL     OW18811   6.803   6.656   3.859
 5971SOL    HW118812   6.892   6.657   3.813
 5971SOL    HW218813   6.810   6.706   3.945
 5972SOL     OW18814   4.912   4.756   1.048
 5972SOL    HW118815   4.848   4.741   1.123
 5972SOL    HW218816   4.867   4.737   0.961
 5973SOL     OW18817   2.912   1.934   2.682
 5973SOL    HW118818   2.955   2.024   2.684
 5973SOL    HW218819   2.854   1.921   2.762
 5974SOL     OW18820   5.343   2.070   5.612
 5974SOL    HW118821   5.409   2.055   5.538
 5974SOL    HW218822   5.354   1.999   5.681
 5975SOL     OW18823   4.787   4.872   0.602
 5975SOL    HW118824   4.859   4.930   0.639
 5975SOL    HW218825   4.729   4.926   0.541
 5976SOL     OW18826   2.292   3.239   5.860
 5976SOL    HW118827   2.384   3.206   5.837
 5976SOL    HW218828   2.261   3.196   5.944
 5977SOL     OW18829   6.245   4.237   0.533
 5977SOL    HW118830   6.299   4.321   0.536
 5977SOL    HW218831   6.283   4.176   0.463
 5978SOL     OW18832   2.576   3.803   0.320
 5978SOL    HW118833   2.657   3.836   0.271
 5978SOL    HW218834   2.604   3.735   0.387
 5979SOL     OW18835   5.663   0.589   1.605
 5979SOL    HW118836   5.680   0.513   1.543
 5979SOL    HW218837   5.734   0.658   1.594
 5980SOL     OW18838   2.883   2.848   1.208
 5980SOL    HW118839   2.857   2.944   1.206
 5980SOL    HW218840   2.847   2.805   1.291
 5981SOL     OW18841   3.145   2.401   0.909
 5981SOL    HW118842   3.207   2.476   0.934
 5981SOL    HW218843   3.126   2.404   0.811
 5982SOL     OW18844   5.556   3.059   0.615
 5982SOL    HW118845   5.476   3.048   0.557
 5982SOL    HW218846   5.610   3.137   0.584
 5983SOL     OW18847   6.930   0.793   3.106
 5983SOL    HW118848   6.950   0.765   3.200
 5983SOL    HW218849   6.847   0.748   3.075
 5984SOL     OW18850   6.149   0.030   4.204
 5984SOL    HW118851   6.200   0.057   4.286
 5984SOL    HW218852   6.128   6.952   4.208
 5985SOL     OW18853   6.107   3.142   2.592
 5985SOL    HW118854   6.074   3.236   2.584
 5985SOL    HW218855   6.151   3.130   2.681
 5986SOL     OW18856   4.166   3.709   4.912
 5986SOL    HW118857   4.169   3.745   4.818
 5986SOL    HW218858   4.259   3.704   4.948
 5987SOL     OW18859   0.058   6.844   5.344
 5987SOL    HW118860   0.038   6.792   5.427
 5987SOL    HW218861   6.994   6.854   5.290
 5988SOL     OW18862   1.173   2.481   6.208
 5988SOL    HW118863   1.175   2.487   6.308
 5988SOL    HW218864   1.109   2.409   6.181
 5989SOL     OW18865   0.723   5.981   6.149
 5989SOL    HW118866   0.774   5.910   6.197
 5989SOL    HW218867   0.682   6.043   6.216
 5990SOL     OW18868   3.541   4.967   1.798
 5990SOL    HW118869   3.544   4.885   1.856
 5990SOL    HW218870   3.516   4.941   1.705
 5991SOL     OW18871   4.745   0.182   0.923
 5991SOL    HW118872   4.653   0.215   0.901
 5991SOL    HW218873   4.799   0.258   0.960
 5992SOL     OW18874   3.966   6.309   1.943
 5992SOL    HW118875   4.063   6.332   1.953
 5992SOL    HW218876   3.912   6.361   2.009
 5993SOL     OW18877   6.134   2.010   0.383
 5993SOL    HW118878   6.044   1.977   0.354
 5993SOL    HW218879   6.197   1.933   0.389
 5994SOL     OW18880   0.341   3.524   0.276
 5994SOL    HW118881   0.305   3.586   0.206
 5994SOL    HW218882   0.430   3.489   0.247
 5995SOL     OW18883   4.907   3.853   1.597
 5995SOL    HW118884   4.875   3.872   1.504
 5995SOL    HW218885   4.922   3.755   1.608
 5996SOL     OW18886   2.822   5.450   1.293
 5996SOL    HW118887   2.749   5.395   1.332
 5996SOL    HW218888   2.911   5.417   1.324
 5997SOL     OW18889   6.226   0.448   4.246
 5997SOL    HW118890   6.281   0.371   4.278
 5997SOL    HW218891   6.223   0.519   4.317
 5998SOL     OW18892   6.032   6.083   0.862
 5998SOL    HW118893   6.081   6.040   0.786
 5998SOL    HW218894   6.047   6.030   0.946
 5999SOL     OW18895   5.134   2.568   1.394
 5999SOL    HW118896   5.167   2.536   1.482
 5999SOL    HW218897   5.176   2.656   1.372
 6000SOL     OW18898   0.628   3.892   1.154
 6000SOL    HW118899   0.614   3.848   1.065
 6000SOL    HW218900   0.601   3.828   1.227
 6001SOL     OW18901   6.728   5.421   5.640
 6001SOL    HW118902   6.631   5.437   5.622
 6001SOL    HW218903   6.778   5.507   5.634
 6002SOL     OW18904   6.380   4.682   4.880
 6002SOL    HW118905   6.475   4.652   4.881
 6002SOL    HW218906   6.321   4.608   4.911
 6003SOL     OW18907   1.180   2.472   4.855
 6003SOL    HW118908   1.129   2.455   4.771
 6003SOL    HW218909   1.117   2.497   4.928
 6004SOL     OW18910   4.622   2.279   4.257
 6004SOL    HW118911   4.592   2.363   4.301
 6004SOL    HW218912   4.557   2.206   4.278
 6005SOL     OW18913   3.838   4.842   6.649
 6005SOL    HW118914   3.804   4.919   6.594
 6005SOL    HW218915   3.936   4.852   6.663
 6006SOL     OW18916   2.789   6.059   6.051
 6006SOL    HW118917   2.800   6.053   5.952
 6006SOL    HW218918   2.733   6.139   6.074
 6007SOL     OW18919   2.587   5.880   6.515
 6007SOL    HW118920   2.667   5.820   6.510
 6007SOL    HW218921   2.526   5.861   6.438
 6008SOL     OW18922   3.280   4.013   6.332
 6008SOL    HW118923   3.330   3.931   6.304
 6008SOL    HW218924   3.207   4.032   6.266
 6009SOL     OW18925   3.695   5.174   2.998
 6009SOL    HW118926   3.639   5.238   3.051
 6009SOL    HW218927   3.756   5.125   3.059
 6010SOL     OW18928   0.527   5.519   4.749
 6010SOL    HW118929   0.560   5.510   4.843
 6010SOL    HW218930   0.431   5.548   4.751
 6011SOL     OW18931   6.646   1.924   1.459
 6011SOL    HW118932   6.667   1.855   1.529
 6011SOL    HW218933   6.578   1.988   1.495
 6012SOL     OW18934   0.044   0.550   6.228
 6012SOL    HW118935   0.018   0.646   6.220
 6012SOL    HW218936   7.018   0.509   6.307
 6013SOL     OW18937   5.907   1.436   2.034
 6013SOL    HW118938   5.898   1.471   2.127
 6013SOL    HW218939   5.974   1.361   2.033
 6014SOL     OW18940   3.746   3.591   3.927
 6014SOL    HW118941   3.660   3.605   3.975
 6014SOL    HW218942   3.769   3.673   3.874
 6015SOL     OW18943   5.778   1.089   4.104
 6015SOL    HW118944   5.799   1.014   4.041
 6015SOL    HW218945   5.699   1.140   4.070
 6016SOL     OW18946   4.749   0.968   4.461
 6016SOL    HW118947   4.817   1.001   4.526
 6016SOL    HW218948   4.704   1.046   4.417
 6017SOL     OW18949   0.157   2.089   5.196
 6017SOL    HW118950   0.196   2.096   5.104
 6017SOL    HW218951   0.152   2.179   5.237
 6018SOL     OW18952   2.186   1.125   4.720
 6018SOL    HW118953   2.264   1.083   4.674
 6018SOL    HW218954   2.150   1.062   4.789
 6019SOL     OW18955   6.479   3.875   0.046
 6019SOL    HW118956   6.446   3.823   6.987
 6019SOL    HW218957   6.576   3.857   0.059
 6020SOL     OW18958   0.893   4.989   6.182
 6020SOL    HW118959   0.794   5.001   6.175
 6020SOL    HW218960   0.919   4.898   6.149
 6021SOL     OW18961   5.631   6.722   3.807
 6021SOL    HW118962   5.650   6.633   3.764
 6021SOL    HW218963   5.667   6.721   3.900
 6022SOL     OW18964   6.568   1.659   1.526
 6022SOL    HW118965   6.624   1.620   1.598
 6022SOL    HW218966   6.472   1.641   1.545
 6023SOL     OW18967   3.871   0.530   2.099
 6023SOL    HW118968   3.782   0.540   2.055
 6023SOL    HW218969   3.942   0.567   2.039
 6024SOL     OW18970   1.050   6.107   0.472
 6024SOL    HW118971   0.981   6.037   0.488
 6024SOL    HW218972   1.105   6.083   0.392
 6025SOL     OW18973   3.260   0.484   4.469
 6025SOL    HW118974   3.263   0.578   4.504
 6025SOL    HW218975   3.245   0.485   4.370
 6026SOL     OW18976   6.049   5.021   4.885
 6026SOL    HW118977   6.038   4.999   4.982
 6026SOL    HW218978   5.981   5.090   4.859
 6027SOL     OW18979   5.871   4.197   6.525
 6027SOL    HW118980   5.902   4.147   6.606
 6027SOL    HW218981   5.842   4.289   6.552
 6028SOL     OW18982   5.511   5.513   6.448
 6028SOL    HW118983   5.487   5.586   6.512
 6028SOL    HW218984   5.584   5.458   6.487
 6029SOL     OW18985   2.302   0.889   2.988
 6029SOL    HW118986   2.392   0.855   2.960
 6029SOL    HW218987   2.270   0.837   3.067
 6030SOL     OW18988   5.702   3.952   4.308
 6030SOL    HW118989   5.742   3.860   4.302
 6030SOL    HW218990   5.604   3.947   4.289
 6031SOL     OW18991   0.591   5.976   5.301
 6031SOL    HW118992   0.577   5.877   5.305
 6031SOL    HW218993   0.511   6.020   5.262
 6032SOL     OW18994   3.493   5.917   3.222
 6032SOL    HW118995   3.450   6.001   3.255
 6032SOL    HW218996   3.553   5.880   3.293
 6033SOL     OW18997   1.607   1.810   2.442
 6033SOL    HW118998   1.553   1.740   2.490
 6033SOL    HW218999   1.576   1.901   2.470
 6034SOL     OW19000   0.520   0.244   0.544
 6034SOL    HW119001   0.565   0.251   0.455
 6034SOL    HW219002   0.437   0.301   0.544
 6035SOL     OW19003   2.287   0.424   2.699
 6035SOL    HW119004   2.253   0.435   2.792
 6035SOL    HW219005   2.210   0.415   2.636
 6036SOL     OW19006   6.998   2.926   1.143
 6036SOL    HW119007   6.899   2.920   1.133
 6036SOL    HW219008   0.002   3.015   1.182
 6037SOL     OW19009   5.102   1.802   0.005
 6037SOL    HW119010   5.060   1.780   6.937
 6037SOL    HW219011   5.132   1.897   0.005
 6038SOL     OW19012   0.424   1.956   5.862
 6038SOL    HW119013   0.512   2.000   5.848
 6038SOL    HW219014   0.437   1.863   5.897
 6039SOL     OW19015   3.896   3.006   3.453
 6039SOL    HW119016   3.916   3.005   3.355
 6039SOL    HW219017   3.978   3.035   3.503
 6040SOL     OW19018   0.894   1.421   0.246
 6040SOL    HW119019   0.798   1.391   0.246
 6040SOL    HW219020   0.949   1.356   0.194
 6041SOL     OW19021   2.512   3.186   5.620
 6041SOL    HW119022   2.607   3.158   5.627
 6041SOL    HW219023   2.458   3.113   5.577
 6042SOL     OW19024   3.365   6.020   3.691
 6042SOL    HW119025   3.311   5.949   3.645
 6042SOL    HW219026   3.332   6.031   3.785
 6043SOL     OW19027   2.552   0.381   3.459
 6043SOL    HW119028   2.485   0.384   3.385
 6043SOL    HW219029   2.527   0.311   3.525
 6044SOL     OW19030   1.121   3.191   1.515
 6044SOL    HW119031   1.090   3.197   1.610
 6044SOL    HW219032   1.213   3.229   1.507
 6045SOL     OW19033   4.759   1.682   3.208
 6045SOL    HW119034   4.662   1.660   3.193
 6045SOL    HW219035   4.787   1.754   3.145
 6046SOL     OW19036   3.958   3.169   2.234
 6046SOL    HW119037   4.020   3.247   2.233
 6046SOL    HW219038   3.972   3.115   2.151
 6047SOL     OW19039   6.402   2.012   0.964
 6047SOL    HW119040   6.451   2.098   0.978
 6047SOL    HW219041   6.364   2.010   0.872
 6048SOL     OW19042   5.980   6.033   4.619
 6048SOL    HW119043   6.008   6.046   4.524
 6048SOL    HW219044   6.048   5.974   4.665
 6049SOL     OW19045   4.666   4.932   5.371
 6049SOL    HW119046   4.596   4.896   5.308
 6049SOL    HW219047   4.646   4.902   5.464
 6050SOL     OW19048   3.610   5.997   1.809
 6050SOL    HW119049   3.618   5.900   1.787
 6050SOL    HW219050   3.656   6.052   1.738
 6051SOL     OW19051   0.643   1.440   3.340
 6051SOL    HW119052   0.697   1.357   3.350
 6051SOL    HW219053   0.647   1.472   3.245
 6052SOL     OW19054   4.974   6.374   0.208
 6052SOL    HW119055   5.011   6.334   0.292
 6052SOL    HW219056   4.877   6.350   0.200
 6053SOL     OW19057   4.196   2.874   6.386
 6053SOL    HW119058   4.289   2.879   6.348
 6053SOL    HW219059   4.194   2.916   6.476
 6054SOL     OW19060   4.090   4.252   1.013
 6054SOL    HW119061   4.175   4.258   0.960
 6054SOL    HW219062   4.078   4.337   1.064
 6055SOL     OW19063   3.515   4.394   0.471
 6055SOL    HW119064   3.504   4.316   0.409
 6055SOL    HW219065   3.444   4.392   0.541
 6056SOL     OW19066   5.311   5.906   4.556
 6056SOL    HW119067   5.269   5.818   4.533
 6056SOL    HW219068   5.304   5.923   4.654
 6057SOL     OW19069   4.423   6.965   4.244
 6057SOL    HW119070   4.400   0.042   4.251
 6057SOL    HW219071   4.522   6.954   4.239
 6058SOL     OW19072   5.548   2.471   5.637
 6058SOL    HW119073   5.487   2.545   5.606
 6058SOL    HW219074   5.496   2.406   5.691
 6059SOL     OW19075   4.513   2.787   6.947
 6059SOL    HW119076   4.586   2.855   6.950
 6059SOL    HW219077   4.426   2.829   6.973
 6060SOL     OW19078   2.580   3.139   0.050
 6060SOL    HW119079   2.532   3.225   0.064
 6060SOL    HW219080   2.524   3.079   7.012
 6061SOL     OW19081   3.516   5.291   0.015
 6061SOL    HW119082   3.567   5.206   0.026
 6061SOL    HW219083   3.556   5.345   6.960
 6062SOL     OW19084   1.853   2.114   0.092
 6062SOL    HW119085   1.878   2.102   0.188
 6062SOL    HW219086   1.936   2.125   0.037
 6063SOL     OW19087   4.894   4.060   6.190
 6063SOL    HW119088   4.882   4.146   6.140
 6063SOL    HW219089   4.954   4.075   6.268
 6064SOL     OW19090   0.169   5.380   1.148
 6064SOL    HW119091   0.197   5.407   1.240
 6064SOL    HW219092   0.228   5.306   1.116
 6065SOL     OW19093   0.973   6.913   2.399
 6065SOL    HW119094   0.966   7.010   2.421
 6065SOL    HW219095   1.001   6.862   2.480
 6066SOL     OW19096   5.243   5.638   3.178
 6066SOL    HW119097   5.265   5.545   3.148
 6066SOL    HW219098   5.256   5.645   3.277
 6067SOL     OW19099   5.807   6.477   6.535
 6067SOL    HW119100   5.752   6.398   6.507
 6067SOL    HW219101   5.899   6.469   6.497
 6068SOL     OW19102   4.499   2.096   4.745
 6068SOL    HW119103   4.445   2.173   4.780
 6068SOL    HW219104   4.504   2.024   4.815
 6069SOL     OW19105   0.340   3.904   6.134
 6069SOL    HW119106   0.296   3.904   6.224
 6069SOL    HW219107   0.304   3.979   6.079
 6070SOL     OW19108   2.653   1.326   0.689
 6070SOL    HW119109   2.605   1.386   0.752
 6070SOL    HW219110   2.593   1.305   0.611
 6071SOL     OW19111   6.044   0.727   5.644
 6071SOL    HW119112   6.093   0.688   5.722
 6071SOL    HW219113   6.003   0.815   5.671
 6072SOL     OW19114   6.911   2.676   0.421
 6072SOL    HW119115   6.990   2.697   0.479
 6072SOL    HW219116   6.918   2.582   0.388
 6073SOL     OW19117   4.531   2.457   0.546
 6073SOL    HW119118   4.473   2.393   0.495
 6073SOL    HW219119   4.619   2.414   0.565
 6074SOL     OW19120   0.794   6.508   2.530
 6074SOL    HW119121   0.815   6.431   2.469
 6074SOL    HW219122   0.731   6.478   2.601
 6075SOL     OW19123   5.000   6.961   6.880
 6075SOL    HW119124   5.083   7.008   6.849
 6075SOL    HW219125   4.970   6.895   6.812
 6076SOL     OW19126   1.725   5.133   3.303
 6076SOL    HW119127   1.694   5.129   3.398
 6076SOL    HW219128   1.817   5.094   3.296
 6077SOL     OW19129   4.969   6.819   2.147
 6077SOL    HW119130   4.888   6.847   2.095
 6077SOL    HW219131   4.958   6.725   2.179
 6078SOL     OW19132   4.099   3.851   0.945
 6078SOL    HW119133   4.153   3.832   1.027
 6078SOL    HW219134   4.002   3.841   0.967
 6079SOL     OW19135   3.594   3.617   0.070
 6079SOL    HW119136   3.640   3.662   0.147
 6079SOL    HW219137   3.517   3.563   0.104
 6080SOL     OW19138   0.007   4.858   6.620
 6080SOL    HW119139   0.002   4.958   6.609
 6080SOL    HW219140   6.936   4.818   6.608
 6081SOL     OW19141   1.630   3.719   3.833
 6081SOL    HW119142   1.553   3.755   3.780
 6081SOL    HW219143   1.595   3.673   3.914
 6082SOL     OW19144   4.359   1.029   0.915
 6082SOL    HW119145   4.349   1.119   0.873
 6082SOL    HW219146   4.302   1.024   0.997
 6083SOL     OW19147   4.698   0.360   6.188
 6083SOL    HW119148   4.650   0.445   6.165
 6083SOL    HW219149   4.752   0.374   6.270
 6084SOL     OW19150   0.298   6.236   2.848
 6084SOL    HW119151   0.280   6.234   2.749
 6084SOL    HW219152   0.272   6.325   2.885
 6085SOL     OW19153   0.930   6.819   0.887
 6085SOL    HW119154   0.944   6.899   0.829
 6085SOL    HW219155   0.881   6.748   0.836
 6086SOL     OW19156   3.527   4.101   6.441
 6086SOL    HW119157   3.440   4.106   6.391
 6086SOL    HW219158   3.535   4.011   6.484
 6087SOL     OW19159   4.981   6.480   0.629
 6087SOL    HW119160   4.904   6.544   0.625
 6087SOL    HW219161   4.994   6.449   0.724
 6088SOL     OW19162   5.325   5.875   3.065
 6088SOL    HW119163   5.370   5.830   2.987
 6088SOL    HW219164   5.295   5.805   3.130
 6089SOL     OW19165   6.419   3.974   3.478
 6089SOL    HW119166   6.399   3.962   3.381
 6089SOL    HW219167   6.513   3.947   3.496
 6090SOL     OW19168   3.593   5.896   4.376
 6090SOL    HW119169   3.499   5.911   4.345
 6090SOL    HW219170   3.636   5.983   4.397
 6091SOL     OW19171   1.417   1.417   2.020
 6091SOL    HW119172   1.500   1.403   2.075
 6091SOL    HW219173   1.377   1.506   2.043
 6092SOL     OW19174   3.314   6.373   1.289
 6092SOL    HW119175   3.239   6.425   1.330
 6092SOL    HW219176   3.325   6.400   1.193
 6093SOL     OW19177   2.430   2.014   2.198
 6093SOL    HW119178   2.455   2.041   2.105
 6093SOL    HW219179   2.401   2.095   2.249
 6094SOL     OW19180   0.462   6.044   4.919
 6094SOL    HW119181   0.458   5.949   4.948
 6094SOL    HW219182   0.463   6.048   4.819
 6095SOL     OW19183   4.888   5.017   1.461
 6095SOL    HW119184   4.824   4.952   1.500
 6095SOL    HW219185   4.842   5.105   1.446
 6096SOL     OW19186   5.531   6.276   2.886
 6096SOL    HW119187   5.536   6.269   2.786
 6096SOL    HW219188   5.439   6.307   2.912
 6097SOL     OW19189   1.876   5.270   1.677
 6097SOL    HW119190   1.831   5.234   1.595
 6097SOL    HW219191   1.966   5.305   1.652
 6098SOL     OW19192   6.568   1.453   4.907
 6098SOL    HW119193   6.522   1.498   4.830
 6098SOL    HW219194   6.553   1.354   4.902
 6099SOL     OW19195   3.949   0.565   6.128
 6099SOL    HW119196   3.895   0.648   6.143
 6099SOL    HW219197   3.968   0.555   6.030
 6100SOL     OW19198   0.388   6.110   5.163
 6100SOL    HW119199   0.416   6.105   5.067
 6100SOL    HW219200   0.368   6.205   5.187
 6101SOL     OW19201   6.875   2.884   1.450
 6101SOL    HW119202   6.953   2.931   1.491
 6101SOL    HW219203   6.851   2.805   1.507
 6102SOL     OW19204   4.372   6.416   2.790
 6102SOL    HW119205   4.450   6.471   2.820
 6102SOL    HW219206   4.394   6.372   2.704
 6103SOL     OW19207   6.974   1.829   2.014
 6103SOL    HW119208   6.938   1.806   1.924
 6103SOL    HW219209   6.902   1.872   2.069
 6104SOL     OW19210   6.758   0.543   4.055
 6104SOL    HW119211   6.739   0.614   4.124
 6104SOL    HW219212   6.675   0.525   4.002
 6105SOL     OW19213   3.062   4.567   5.446
 6105SOL    HW119214   3.033   4.519   5.363
 6105SOL    HW219215   3.161   4.561   5.456
 6106SOL     OW19216   6.055   5.349   6.278
 6106SOL    HW119217   6.065   5.281   6.205
 6106SOL    HW219218   5.959   5.359   6.301
 6107SOL     OW19219   5.557   5.120   5.596
 6107SOL    HW119220   5.548   5.096   5.499
 6107SOL    HW219221   5.553   5.037   5.651
 6108SOL     OW19222   2.144   1.398   0.817
 6108SOL    HW119223   2.167   1.423   0.911
 6108SOL    HW219224   2.109   1.479   0.769
 6109SOL     OW19225   6.256   7.002   3.547
 6109SOL    HW119226   6.252   0.037   3.630
 6109SOL    HW219227   6.221   0.035   3.470
 6110SOL     OW19228   1.707   1.666   4.506
 6110SOL    HW119229   1.614   1.677   4.542
 6110SOL    HW219230   1.731   1.746   4.452
 6111SOL     OW19231   2.037   4.590   0.563
 6111SOL    HW119232   2.110   4.541   0.611
 6111SOL    HW219233   1.997   4.531   0.493
 6112SOL     OW19234   5.231   0.154   2.784
 6112SOL    HW119235   5.319   0.200   2.792
 6112SOL    HW219236   5.241   0.070   2.732
 6113SOL     OW19237   2.145   5.492   0.455
 6113SOL    HW119238   2.171   5.412   0.510
 6113SOL    HW219239   2.220   5.516   0.394
 6114SOL     OW19240   4.810   1.849   0.918
 6114SOL    HW119241   4.816   1.935   0.968
 6114SOL    HW219242   4.764   1.864   0.831
 6115SOL     OW19243   0.685   0.645   5.554
 6115SOL    HW119244   0.756   0.692   5.501
 6115SOL    HW219245   0.699   0.664   5.652
 6116SOL     OW19246   5.068   2.141   5.587
 6116SOL    HW119247   5.168   2.134   5.583
 6116SOL    HW219248   5.027   2.057   5.552
 6117SOL     OW19249   1.982   2.380   1.105
 6117SOL    HW119250   2.032   2.436   1.170
 6117SOL    HW219251   2.005   2.408   1.012
 6118SOL     OW19252   6.226   0.532   0.577
 6118SOL    HW119253   6.214   0.567   0.670
 6118SOL    HW219254   6.323   0.535   0.553
 6119SOL     OW19255   7.004   2.043   0.765
 6119SOL    HW119256   7.016   1.950   0.799
 6119SOL    HW219257   0.074   2.082   0.743
 6120SOL     OW19258   2.278   0.389   5.238
 6120SOL    HW119259   2.283   0.486   5.259
 6120SOL    HW219260   2.197   0.349   5.282
 6121SOL     OW19261   0.830   2.961   4.218
 6121SOL    HW119262   0.884   2.919   4.145
 6121SOL    HW219263   0.889   3.014   4.278
 6122SOL     OW19264   5.082   5.440   6.048
 6122SOL    HW119265   5.174   5.458   6.013
 6122SOL    HW219266   5.047   5.521   6.095
 6123SOL     OW19267   5.425   1.561   5.016
 6123SOL    HW119268   5.356   1.590   4.950
 6123SOL    HW219269   5.516   1.570   4.975
 6124SOL     OW19270   2.668   6.537   3.842
 6124SOL    HW119271   2.686   6.620   3.789
 6124SOL    HW219272   2.659   6.459   3.779
 6125SOL     OW19273   2.187   2.498   6.835
 6125SOL    HW119274   2.113   2.444   6.794
 6125SOL    HW219275   2.166   2.516   6.931
 6126SOL     OW19276   6.273   2.706   5.578
 6126SOL    HW119277   6.181   2.730   5.548
 6126SOL    HW219278   6.324   2.790   5.599
 6127SOL     OW19279   3.893   2.261   1.724
 6127SOL    HW119280   3.816   2.298   1.776
 6127SOL    HW219281   3.956   2.215   1.787
 6128SOL     OW19282   5.876   5.596   0.586
 6128SOL    HW119283   5.976   5.590   0.592
 6128SOL    HW219284   5.835   5.523   0.640
 6129SOL     OW19285   1.372   5.666   2.647
 6129SOL    HW119286   1.369   5.759   2.684
 6129SOL    HW219287   1.440   5.613   2.698
 6130SOL     OW19288   5.905   2.506   0.310
 6130SOL    HW119289   5.866   2.480   0.399
 6130SOL    HW219290   5.929   2.423   0.259
 6131SOL     OW19291   6.523   1.535   2.433
 6131SOL    HW119292   6.542   1.438   2.416
 6131SOL    HW219293   6.554   1.558   2.526
 6132SOL     OW19294   3.705   1.350   6.603
 6132SOL    HW119295   3.652   1.431   6.628
 6132SOL    HW219296   3.730   1.355   6.506
 6133SOL     OW19297   1.846   1.470   3.960
 6133SOL    HW119298   1.837   1.399   4.030
 6133SOL    HW219299   1.909   1.439   3.889
 6134SOL     OW19300   5.776   6.658   7.019
 6134SOL    HW119301   5.747   6.577   6.969
 6134SOL    HW219302   5.811   6.726   6.955
 6135SOL     OW19303   6.317   7.019   0.092
 6135SOL    HW119304   6.294   6.931   0.050
 6135SOL    HW219305   6.235   0.039   0.133
 6136SOL     OW19306   1.958   3.105   2.660
 6136SOL    HW119307   2.027   3.151   2.715
 6136SOL    HW219308   1.983   3.109   2.563
 6137SOL     OW19309   6.799   4.354   1.990
 6137SOL    HW119310   6.837   4.263   1.970
 6137SOL    HW219311   6.735   4.380   1.918
 6138SOL     OW19312   3.947   0.174   1.833
 6138SOL    HW119313   3.937   0.261   1.785
 6138SOL    HW219314   3.906   0.182   1.924
 6139SOL     OW19315   1.469   0.531   5.793
 6139SOL    HW119316   1.502   0.438   5.776
 6139SOL    HW219317   1.547   0.591   5.809
 6140SOL     OW19318   1.427   0.235   3.197
 6140SOL    HW119319   1.428   0.140   3.167
 6140SOL    HW219320   1.336   0.258   3.233
 6141SOL     OW19321   0.289   1.130   5.869
 6141SOL    HW119322   0.315   1.160   5.777
 6141SOL    HW219323   0.265   1.209   5.924
 6142SOL     OW19324   0.186   0.465   1.432
 6142SOL    HW119325   0.148   0.552   1.402
 6142SOL    HW219326   0.179   0.398   1.358
 6143SOL     OW19327   0.039   4.084   5.253
 6143SOL    HW119328   0.069   4.160   5.196
 6143SOL    HW219329   0.086   4.000   5.225
 6144SOL     OW19330   4.112   5.139   3.114
 6144SOL    HW119331   4.099   5.237   3.131
 6144SOL    HW219332   4.149   5.126   3.022
 6145SOL     OW19333   5.013   2.906   4.138
 6145SOL    HW119334   4.927   2.934   4.182
 6145SOL    HW219335   5.090   2.929   4.198
 6146SOL     OW19336   5.222   6.951   5.020
 6146SOL    HW119337   5.212   6.871   5.080
 6146SOL    HW219338   5.315   6.953   4.983
 6147SOL     OW19339   1.703   2.305   3.656
 6147SOL    HW119340   1.771   2.332   3.588
 6147SOL    HW219341   1.700   2.373   3.729
 6148SOL     OW19342   3.391   5.862   0.042
 6148SOL    HW119343   3.490   5.870   0.031
 6148SOL    HW219344   3.357   5.936   0.099
 6149SOL     OW19345   2.803   0.142   1.573
 6149SOL    HW119346   2.723   0.179   1.526
 6149SOL    HW219347   2.884   0.194   1.546
 6150SOL     OW19348   6.681   4.070   5.909
 6150SOL    HW119349   6.781   4.074   5.903
 6150SOL    HW219350   6.641   4.134   5.843
 6151SOL     OW19351   4.484   4.738   4.050
 6151SOL    HW119352   4.474   4.678   4.130
 6151SOL    HW219353   4.401   4.793   4.040
 6152SOL     OW19354   0.838   4.967   4.295
 6152SOL    HW119355   0.912   4.944   4.358
 6152SOL    HW219356   0.792   5.050   4.326
 6153SOL     OW19357   5.110   5.226   1.217
 6153SOL    HW119358   5.161   5.148   1.254
 6153SOL    HW219359   5.174   5.291   1.177
 6154SOL     OW19360   5.930   3.114   2.055
 6154SOL    HW119361   5.883   3.085   1.971
 6154SOL    HW219362   5.918   3.212   2.067
 6155SOL     OW19363   1.817   1.632   3.201
 6155SOL    HW119364   1.890   1.606   3.263
 6155SOL    HW219365   1.733   1.650   3.253
 6156SOL     OW19366   5.151   4.650   1.483
 6156SOL    HW119367   5.068   4.599   1.508
 6156SOL    HW219368   5.213   4.654   1.560
 6157SOL     OW19369   1.237   2.429   2.418
 6157SOL    HW119370   1.270   2.520   2.443
 6157SOL    HW219371   1.158   2.437   2.357
 6158SOL     OW19372   2.976   2.862   5.576
 6158SOL    HW119373   3.066   2.821   5.560
 6158SOL    HW219374   2.906   2.791   5.574
 6159SOL     OW19375   6.152   2.662   0.284
 6159SOL    HW119376   6.072   2.617   0.324
 6159SOL    HW219377   6.134   2.685   0.189
 6160SOL     OW19378   0.885   0.345   0.213
 6160SOL    HW119379   0.974   0.331   0.255
 6160SOL    HW219380   0.814   0.301   0.268
 6161SOL     OW19381   4.582   3.071   6.460
 6161SOL    HW119382   4.549   3.118   6.378
 6161SOL    HW219383   4.681   3.083   6.468
 6162SOL     OW19384   6.013   5.177   2.952
 6162SOL    HW119385   6.093   5.237   2.947
 6162SOL    HW219386   6.041   5.088   2.988
 6163SOL     OW19387   5.361   5.913   3.584
 6163SOL    HW119388   5.366   6.002   3.539
 6163SOL    HW219389   5.376   5.924   3.682
 6164SOL     OW19390   3.439   4.111   4.702
 6164SOL    HW119391   3.502   4.171   4.751
 6164SOL    HW219392   3.416   4.033   4.759
 6165SOL     OW19393   3.880   1.624   0.578
 6165SOL    HW119394   3.803   1.682   0.551
 6165SOL    HW219395   3.868   1.533   0.538
 6166SOL     OW19396   1.686   2.024   6.848
 6166SOL    HW119397   1.731   2.110   6.873
 6166SOL    HW219398   1.587   2.032   6.860
 6167SOL     OW19399   1.273   3.952   3.345
 6167SOL    HW119400   1.266   3.863   3.299
 6167SOL    HW219401   1.210   3.954   3.423
 6168SOL     OW19402   0.458   3.871   4.170
 6168SOL    HW119403   0.376   3.901   4.120
 6168SOL    HW219404   0.430   3.820   4.252
 6169SOL     OW19405   2.662   6.628   0.392
 6169SOL    HW119406   2.589   6.696   0.384
 6169SOL    HW219407   2.751   6.675   0.391
 6170SOL     OW19408   3.386   4.772   0.100
 6170SOL    HW119409   3.400   4.698   0.166
 6170SOL    HW219410   3.327   4.739   0.025
 6171SOL     OW19411   1.939   4.450   2.386
 6171SOL    HW119412   1.900   4.423   2.298
 6171SOL    HW219413   2.039   4.447   2.380
 6172SOL     OW19414   1.342   6.316   2.804
 6172SOL    HW119415   1.246   6.300   2.780
 6172SOL    HW219416   1.401   6.269   2.738
 6173SOL     OW19417   1.388   5.905   2.754
 6173SOL    HW119418   1.316   5.936   2.817
 6173SOL    HW219419   1.477   5.915   2.799
 6174SOL     OW19420   5.508   4.998   2.975
 6174SOL    HW119421   5.569   5.076   2.966
 6174SOL    HW219422   5.413   5.028   2.963
 6175SOL     OW19423   5.156   0.346   3.303
 6175SOL    HW119424   5.071   0.306   3.339
 6175SOL    HW219425   5.137   0.395   3.218
 6176SOL     OW19426   6.628   3.640   5.570
 6176SOL    HW119427   6.591   3.718   5.519
 6176SOL    HW219428   6.589   3.638   5.662
 6177SOL     OW19429   5.877   2.566   6.803
 6177SOL    HW119430   5.888   2.607   6.893
 6177SOL    HW219431   5.967   2.545   6.764
 6178SOL     OW19432   6.202   3.132   0.985
 6178SOL    HW119433   6.280   3.146   1.047
 6178SOL    HW219434   6.118   3.162   1.030
 6179SOL     OW19435   6.998   2.350   5.860
 6179SOL    HW119436   0.046   2.339   5.788
 6179SOL    HW219437   0.007   2.422   5.923
 6180SOL     OW19438   4.327   6.703   1.011
 6180SOL    HW119439   4.262   6.647   1.063
 6180SOL    HW219440   4.278   6.753   0.939
 6181SOL     OW19441   4.858   6.442   6.716
 6181SOL    HW119442   4.832   6.349   6.741
 6181SOL    HW219443   4.950   6.462   6.751
 6182SOL     OW19444   4.558   6.391   6.715
 6182SOL    HW119445   4.516   6.304   6.741
 6182SOL    HW219446   4.549   6.405   6.617
 6183SOL     OW19447   3.752   0.650   3.469
 6183SOL    HW119448   3.803   0.714   3.412
 6183SOL    HW219449   3.813   0.576   3.499
 6184SOL     OW19450   0.231   0.048   6.508
 6184SOL    HW119451   0.166   6.993   6.522
 6184SOL    HW219452   0.207   0.096   6.423
 6185SOL     OW19453   6.948   3.510   6.015
 6185SOL    HW119454   6.976   3.434   6.072
 6185SOL    HW219455   7.017   3.583   6.019
 6186SOL     OW19456   5.252   0.338   4.975
 6186SOL    HW119457   5.282   0.329   5.070
 6186SOL    HW219458   5.283   0.426   4.939
 6187SOL     OW19459   4.466   4.821   3.751
 6187SOL    HW119460   4.535   4.881   3.710
 6187SOL    HW219461   4.494   4.796   3.844
 6188SOL     OW19462   2.722   6.468   1.129
 6188SOL    HW119463   2.667   6.397   1.173
 6188SOL    HW219464   2.665   6.519   1.065
 6189SOL     OW19465   5.307   5.197   3.547
 6189SOL    HW119466   5.320   5.146   3.462
 6189SOL    HW219467   5.359   5.153   3.620
 6190SOL     OW19468   5.423   2.564   6.902
 6190SOL    HW119469   5.350   2.625   6.933
 6190SOL    HW219470   5.474   2.607   6.828
 6191SOL     OW19471   6.259   1.760   6.743
 6191SOL    HW119472   6.272   1.856   6.767
 6191SOL    HW219473   6.196   1.717   6.807
 6192SOL     OW19474   2.954   2.595   6.154
 6192SOL    HW119475   2.940   2.660   6.079
 6192SOL    HW219476   3.023   2.631   6.217
 6193SOL     OW19477   4.904   0.748   1.440
 6193SOL    HW119478   4.999   0.751   1.469
 6193SOL    HW219479   4.898   0.774   1.343
 6194SOL     OW19480   2.345   0.759   0.410
 6194SOL    HW119481   2.375   0.684   0.351
 6194SOL    HW219482   2.399   0.841   0.390
 6195SOL     OW19483   3.294   0.792   6.494
 6195SOL    HW119484   3.255   0.752   6.411
 6195SOL    HW219485   3.279   0.731   6.571
 6196SOL     OW19486   0.829   1.332   6.346
 6196SOL    HW119487   0.821   1.269   6.423
 6196SOL    HW219488   0.919   1.376   6.348
 6197SOL     OW19489   2.482   3.765   0.717
 6197SOL    HW119490   2.502   3.857   0.682
 6197SOL    HW219491   2.567   3.713   0.724
 6198SOL     OW19492   3.848   5.061   2.333
 6198SOL    HW119493   3.824   4.990   2.267
 6198SOL    HW219494   3.774   5.128   2.338
 6199SOL     OW19495   1.427   6.744   0.003
 6199SOL    HW119496   1.415   6.648   0.030
 6199SOL    HW219497   1.516   6.756   6.980
 6200SOL     OW19498   4.199   0.712   6.126
 6200SOL    HW119499   4.117   0.663   6.095
 6200SOL    HW219500   4.225   0.779   6.056
 6201SOL     OW19501   2.201   4.027   5.929
 6201SOL    HW119502   2.291   3.984   5.933
 6201SOL    HW219503   2.198   4.103   5.993
 6202SOL     OW19504   3.451   1.750   0.759
 6202SOL    HW119505   3.455   1.773   0.857
 6202SOL    HW219506   3.396   1.668   0.747
 6203SOL     OW19507   4.762   1.477   4.101
 6203SOL    HW119508   4.767   1.505   4.197
 6203SOL    HW219509   4.816   1.394   4.088
 6204SOL     OW19510   1.985   6.317   5.834
 6204SOL    HW119511   2.084   6.306   5.844
 6204SOL    HW219512   1.951   6.385   5.899
 6205SOL     OW19513   5.204   6.006   6.861
 6205SOL    HW119514   5.150   6.072   6.913
 6205SOL    HW219515   5.222   5.925   6.917
 6206SOL     OW19516   5.528   6.921   2.426
 6206SOL    HW119517   5.623   6.940   2.450
 6206SOL    HW219518   5.485   7.004   2.390
 6207SOL     OW19519   1.659   4.052   4.895
 6207SOL    HW119520   1.709   3.998   4.962
 6207SOL    HW219521   1.722   4.109   4.843
 6208SOL     OW19522   6.046   6.711   5.998
 6208SOL    HW119523   5.957   6.668   5.986
 6208SOL    HW219524   6.067   6.718   6.095
 6209SOL     OW19525   4.091   6.656   0.699
 6209SOL    HW119526   4.060   6.749   0.679
 6209SOL    HW219527   4.060   6.630   0.790
 6210SOL     OW19528   5.750   4.428   3.789
 6210SOL    HW119529   5.755   4.522   3.822
 6210SOL    HW219530   5.778   4.425   3.693
 6211SOL     OW19531   2.732   0.034   4.767
 6211SOL    HW119532   2.799   0.107   4.777
 6211SOL    HW219533   2.640   0.071   4.776
 6212SOL     OW19534   6.426   6.789   3.952
 6212SOL    HW119535   6.487   6.815   3.877
 6212SOL    HW219536   6.408   6.690   3.948
 6213SOL     OW19537   6.601   0.274   6.709
 6213SOL    HW119538   6.559   0.295   6.797
 6213SOL    HW219539   6.640   0.357   6.670
 6214SOL     OW19540   6.519   4.389   2.559
 6214SOL    HW119541   6.461   4.440   2.622
 6214SOL    HW219542   6.610   4.379   2.598
 6215SOL     OW19543   3.111   2.920   0.918
 6215SOL    HW119544   3.030   2.976   0.936
 6215SOL    HW219545   3.140   2.876   1.004
 6216SOL     OW19546   5.611   1.859   2.157
 6216SOL    HW119547   5.668   1.894   2.082
 6216SOL    HW219548   5.628   1.761   2.169
 6217SOL     OW19549   5.209   2.983   1.018
 6217SOL    HW119550   5.163   2.944   0.938
 6217SOL    HW219551   5.253   2.910   1.071
 6218SOL     OW19552   2.709   5.313   4.670
 6218SOL    HW119553   2.659   5.369   4.736
 6218SOL    HW219554   2.649   5.289   4.594
 6219SOL     OW19555   1.044   2.385   5.243
 6219SOL    HW119556   1.042   2.479   5.210
 6219SOL    HW219557   1.062   2.385   5.341
 6220SOL     OW19558   1.942   4.443   5.289
 6220SOL    HW119559   1.942   4.376   5.214
 6220SOL    HW219560   1.877   4.515   5.269
 6221SOL     OW19561   3.770   5.178   4.344
 6221SOL    HW119562   3.835   5.253   4.359
 6221SOL    HW219563   3.793   5.101   4.405
 6222SOL     OW19564   6.784   0.099   1.193
 6222SOL    HW119565   6.835   0.171   1.146
 6222SOL    HW219566   6.824   0.084   1.284
 6223SOL     OW19567   4.781   3.072   4.714
 6223SOL    HW119568   4.686   3.043   4.723
 6223SOL    HW219569   4.828   3.062   4.801
 6224SOL     OW19570   2.769   1.613   5.263
 6224SOL    HW119571   2.864   1.581   5.267
 6224SOL    HW219572   2.713   1.561   5.328
 6225SOL     OW19573   3.914   3.318   0.380
 6225SOL    HW119574   3.873   3.290   0.294
 6225SOL    HW219575   4.013   3.302   0.377
 6226SOL     OW19576   5.491   0.743   4.753
 6226SOL    HW119577   5.433   0.769   4.676
 6226SOL    HW219578   5.586   0.733   4.722
 6227SOL     OW19579   3.453   4.540   5.929
 6227SOL    HW119580   3.421   4.612   5.990
 6227SOL    HW219581   3.384   4.522   5.858
 6228SOL     OW19582   0.098   0.919   2.918
 6228SOL    HW119583   0.113   1.018   2.923
 6228SOL    HW219584   0.048   0.889   2.998
 6229SOL     OW19585   2.462   2.596   2.201
 6229SOL    HW119586   2.515   2.666   2.249
 6229SOL    HW219587   2.506   2.507   2.214
 6230SOL     OW19588   2.641   2.216   4.017
 6230SOL    HW119589   2.659   2.134   4.072
 6230SOL    HW219590   2.612   2.189   3.925
 6231SOL     OW19591   0.200   5.358   1.759
 6231SOL    HW119592   0.276   5.401   1.711
 6231SOL    HW219593   0.210   5.258   1.757
 6232SOL     OW19594   0.304   0.698   0.507
 6232SOL    HW119595   0.386   0.663   0.463
 6232SOL    HW219596   0.328   0.771   0.571
 6233SOL     OW19597   4.482   2.316   6.829
 6233SOL    HW119598   4.530   2.373   6.895
 6233SOL    HW219599   4.487   2.220   6.857
 6234SOL     OW19600   2.182   1.896   4.182
 6234SOL    HW119601   2.086   1.875   4.199
 6234SOL    HW219602   2.191   1.993   4.158
 6235SOL     OW19603   2.562   0.413   2.618
 6235SOL    HW119604   2.583   0.347   2.546
 6235SOL    HW219605   2.472   0.393   2.657
 6236SOL     OW19606   0.067   4.265   0.459
 6236SOL    HW119607   0.132   4.264   0.535
 6236SOL    HW219608   0.089   4.341   0.398
 6237SOL     OW19609   4.244   0.053   0.944
 6237SOL    HW119610   4.215   0.102   1.027
 6237SOL    HW219611   4.314   7.005   0.968
 6238SOL     OW19612   4.613   5.432   1.025
 6238SOL    HW119613   4.706   5.470   1.017
 6238SOL    HW219614   4.547   5.507   1.035
 6239SOL     OW19615   2.366   0.062   2.965
 6239SOL    HW119616   2.448   0.025   2.922
 6239SOL    HW219617   2.392   0.120   3.042
 6240SOL     OW19618   1.814   3.349   0.642
 6240SOL    HW119619   1.862   3.319   0.724
 6240SOL    HW219620   1.820   3.449   0.635
 6241SOL     OW19621   3.676   6.973   1.795
 6241SOL    HW119622   3.605   0.002   1.745
 6241SOL    HW219623   3.659   6.980   1.893
 6242SOL     OW19624   4.884   2.427   3.754
 6242SOL    HW119625   4.901   2.384   3.843
 6242SOL    HW219626   4.904   2.525   3.759
 6243SOL     OW19627   5.519   6.084   4.456
 6243SOL    HW119628   5.446   6.051   4.516
 6243SOL    HW219629   5.480   6.109   4.367
 6244SOL     OW19630   2.529   2.116   1.896
 6244SOL    HW119631   2.580   2.201   1.883
 6244SOL    HW219632   2.431   2.135   1.893
 6245SOL     OW19633   2.980   4.948   1.091
 6245SOL    HW119634   3.006   5.038   1.055
 6245SOL    HW219635   2.884   4.930   1.068
 6246SOL     OW19636   2.567   2.076   5.890
 6246SOL    HW119637   2.563   2.146   5.819
 6246SOL    HW219638   2.525   2.110   5.974
 6247SOL     OW19639   0.019   6.143   3.063
 6247SOL    HW119640   7.013   6.209   2.992
 6247SOL    HW219641   0.037   6.192   3.148
 6248SOL     OW19642   0.682   4.825   1.340
 6248SOL    HW119643   0.614   4.758   1.312
 6248SOL    HW219644   0.682   4.901   1.274
 6249SOL     OW19645   6.704   3.969   6.739
 6249SOL    HW119646   6.675   3.892   6.684
 6249SOL    HW219647   6.627   4.031   6.753
 6250SOL     OW19648   6.147   6.205   7.009
 6250SOL    HW119649   6.238   6.206   0.029
 6250SOL    HW219650   6.127   6.295   6.969
 6251SOL     OW19651   4.688   1.641   0.430
 6251SOL    HW119652   4.619   1.713   0.431
 6251SOL    HW219653   4.729   1.635   0.339
 6252SOL     OW19654   2.978   6.070   5.099
 6252SOL    HW119655   3.021   6.013   5.169
 6252SOL    HW219656   2.918   6.013   5.042
 6253SOL     OW19657   2.154   3.905   2.081
 6253SOL    HW119658   2.086   3.862   2.140
 6253SOL    HW219659   2.189   3.987   2.126
 6254SOL     OW19660   5.615   0.228   0.243
 6254SOL    HW119661   5.618   0.179   0.330
 6254SOL    HW219662   5.622   0.326   0.259
 6255SOL     OW19663   0.227   1.237   2.621
 6255SOL    HW119664   0.187   1.146   2.635
 6255SOL    HW219665   0.326   1.229   2.618
 6256SOL     OW19666   3.785   5.019   2.654
 6256SOL    HW119667   3.752   5.113   2.664
 6256SOL    HW219668   3.811   5.003   2.559
 6257SOL     OW19669   5.571   2.839   0.106
 6257SOL    HW119670   5.651   2.778   0.108
 6257SOL    HW219671   5.519   2.828   0.190
 6258SOL     OW19672   4.769   1.897   2.416
 6258SOL    HW119673   4.754   1.968   2.348
 6258SOL    HW219674   4.827   1.932   2.489
 6259SOL     OW19675   2.924   2.320   1.595
 6259SOL    HW119676   2.885   2.232   1.623
 6259SOL    HW219677   2.923   2.383   1.673
 6260SOL     OW19678   3.805   3.949   0.220
 6260SOL    HW119679   3.895   3.942   0.263
 6260SOL    HW219680   3.815   3.968   0.123
 6261SOL     OW19681   3.814   1.365   0.523
 6261SOL    HW119682   3.842   1.324   0.436
 6261SOL    HW219683   3.715   1.376   0.524
 6262SOL     OW19684   1.360   4.653   6.540
 6262SOL    HW119685   1.374   4.668   6.638
 6262SOL    HW219686   1.374   4.740   6.491
 6263SOL     OW19687   6.750   6.955   0.400
 6263SOL    HW119688   6.748   7.019   0.476
 6263SOL    HW219689   6.675   6.975   0.337
 6264SOL     OW19690   2.565   1.756   0.767
 6264SOL    HW119691   2.467   1.767   0.785
 6264SOL    HW219692   2.605   1.845   0.742
 6265SOL     OW19693   4.201   3.294   1.550
 6265SOL    HW119694   4.156   3.212   1.586
 6265SOL    HW219695   4.191   3.296   1.451
 6266SOL     OW19696   3.016   0.328   3.240
 6266SOL    HW119697   3.004   0.257   3.309
 6266SOL    HW219698   2.986   0.416   3.277
 6267SOL     OW19699   3.381   0.386   6.100
 6267SOL    HW119700   3.371   0.485   6.087
 6267SOL    HW219701   3.303   0.351   6.151
 6268SOL     OW19702   3.679   5.267   2.723
 6268SOL    HW119703   3.691   5.230   2.816
 6268SOL    HW219704   3.661   5.365   2.729
 6269SOL     OW19705   6.037   5.176   1.534
 6269SOL    HW119706   6.007   5.270   1.520
 6269SOL    HW219707   6.036   5.155   1.632
 6270SOL     OW19708   0.855   0.573   4.694
 6270SOL    HW119709   0.805   0.574   4.607
 6270SOL    HW219710   0.858   0.666   4.731
 6271SOL     OW19711   0.021   1.557   0.523
 6271SOL    HW119712   0.055   1.478   0.472
 6271SOL    HW219713   0.093   1.626   0.529
 6272SOL     OW19714   2.407   2.325   3.481
 6272SOL    HW119715   2.330   2.273   3.443
 6272SOL    HW219716   2.394   2.337   3.579
 6273SOL     OW19717   3.571   1.293   1.504
 6273SOL    HW119718   3.551   1.221   1.438
 6273SOL    HW219719   3.669   1.306   1.511
 6274SOL     OW19720   3.994   6.919   5.772
 6274SOL    HW119721   3.959   6.929   5.865
 6274SOL    HW219722   4.050   6.999   5.748
 6275SOL     OW19723   1.755   0.051   4.821
 6275SOL    HW119724   1.688   0.118   4.788
 6275SOL    HW219725   1.717   6.979   4.812
 6276SOL     OW19726   1.359   5.402   3.814
 6276SOL    HW119727   1.425   5.444   3.876
 6276SOL    HW219728   1.269   5.442   3.830
 6277SOL     OW19729   5.339   3.188   2.963
 6277SOL    HW119730   5.370   3.282   2.953
 6277SOL    HW219731   5.321   3.169   3.060
 6278SOL     OW19732   5.381   0.083   4.326
 6278SOL    HW119733   5.322   0.070   4.406
 6278SOL    HW219734   5.369   0.175   4.290
 6279SOL     OW19735   3.994   1.881   0.465
 6279SOL    HW119736   3.994   1.789   0.505
 6279SOL    HW219737   3.921   1.935   0.507
 6280SOL     OW19738   0.843   4.788   5.678
 6280SOL    HW119739   0.773   4.753   5.739
 6280SOL    HW219740   0.914   4.834   5.731
 6281SOL     OW19741   1.998   7.012   5.069
 6281SOL    HW119742   2.087   0.035   5.054
 6281SOL    HW219743   1.989   6.933   5.009
 6282SOL     OW19744   2.226   6.712   4.451
 6282SOL    HW119745   2.200   6.746   4.541
 6282SOL    HW219746   2.144   6.700   4.395
 6283SOL     OW19747   6.785   2.801   5.087
 6283SOL    HW119748   6.844   2.731   5.047
 6283SOL    HW219749   6.840   2.881   5.112
 6284SOL     OW19750   1.469   4.097   5.446
 6284SOL    HW119751   1.487   4.022   5.509
 6284SOL    HW219752   1.551   4.113   5.390
 6285SOL     OW19753   1.424   4.039   3.121
 6285SOL    HW119754   1.365   4.034   3.201
 6285SOL    HW219755   1.516   4.008   3.145
 6286SOL     OW19756   5.253   0.621   3.330
 6286SOL    HW119757   5.304   0.605   3.414
 6286SOL    HW219758   5.205   0.537   3.303
 6287SOL     OW19759   4.654   4.123   1.689
 6287SOL    HW119760   4.741   4.116   1.738
 6287SOL    HW219761   4.589   4.174   1.746
 6288SOL     OW19762   5.900   3.704   0.852
 6288SOL    HW119763   5.870   3.624   0.801
 6288SOL    HW219764   5.829   3.774   0.849
 6289SOL     OW19765   1.563   1.374   3.889
 6289SOL    HW119766   1.651   1.407   3.854
 6289SOL    HW219767   1.551   1.408   3.983
 6290SOL     OW19768   4.995   3.647   3.065
 6290SOL    HW119769   4.927   3.651   2.992
 6290SOL    HW219770   5.083   3.680   3.031
 6291SOL     OW19771   3.388   3.951   3.413
 6291SOL    HW119772   3.382   3.856   3.443
 6291SOL    HW219773   3.399   4.010   3.493
 6292SOL     OW19774   1.158   1.771   2.131
 6292SOL    HW119775   1.168   1.694   2.067
 6292SOL    HW219776   1.183   1.741   2.223
 6293SOL     OW19777   4.650   6.844   0.389
 6293SOL    HW119778   4.731   6.897   0.362
 6293SOL    HW219779   4.568   6.885   0.351
 6294SOL     OW19780   4.491   5.030   2.965
 6294SOL    HW119781   4.454   4.965   3.031
 6294SOL    HW219782   4.479   5.123   2.999
 6295SOL     OW19783   5.676   6.269   6.398
 6295SOL    HW119784   5.604   6.290   6.331
 6295SOL    HW219785   5.636   6.226   6.478
 6296SOL     OW19786   6.256   1.209   3.112
 6296SOL    HW119787   6.235   1.124   3.064
 6296SOL    HW219788   6.355   1.226   3.110
 6297SOL     OW19789   5.895   6.745   5.660
 6297SOL    HW119790   5.945   6.717   5.741
 6297SOL    HW219791   5.935   6.702   5.579
 6298SOL     OW19792   0.840   2.824   4.808
 6298SOL    HW119793   0.915   2.779   4.759
 6298SOL    HW219794   0.811   2.767   4.885
 6299SOL     OW19795   6.478   3.159   6.938
 6299SOL    HW119796   6.566   3.115   6.919
 6299SOL    HW219797   6.493   3.237   6.999
 6300SOL     OW19798   4.858   0.543   3.712
 6300SOL    HW119799   4.876   0.610   3.640
 6300SOL    HW219800   4.941   0.489   3.728
 6301SOL     OW19801   3.137   0.077   0.904
 6301SOL    HW119802   3.125   7.009   0.950
 6301SOL    HW219803   3.228   0.082   0.864
 6302SOL     OW19804   1.482   1.119   3.424
 6302SOL    HW119805   1.512   1.060   3.350
 6302SOL    HW219806   1.463   1.064   3.505
 6303SOL     OW19807   2.029   5.952   4.986
 6303SOL    HW119808   2.038   5.976   4.889
 6303SOL    HW219809   2.032   6.035   5.042
 6304SOL     OW19810   2.711   1.294   6.721
 6304SOL    HW119811   2.637   1.227   6.713
 6304SOL    HW219812   2.708   1.337   6.811
 6305SOL     OW19813   6.489   6.986   1.284
 6305SOL    HW119814   6.496   7.003   1.185
 6305SOL    HW219815   6.527   0.044   1.334
 6306SOL     OW19816   6.496   2.977   3.632
 6306SOL    HW119817   6.551   2.901   3.596
 6306SOL    HW219818   6.423   2.940   3.689
 6307SOL     OW19819   2.167   5.176   0.413
 6307SOL    HW119820   2.121   5.102   0.364
 6307SOL    HW219821   2.250   5.203   0.364
 6308SOL     OW19822   3.132   2.056   5.214
 6308SOL    HW119823   3.067   1.983   5.194
 6308SOL    HW219824   3.135   2.121   5.138
 6309SOL     OW19825   5.413   1.939   4.051
 6309SOL    HW119826   5.331   1.975   4.095
 6309SOL    HW219827   5.398   1.933   3.952
 6310SOL     OW19828   1.700   5.066   4.605
 6310SOL    HW119829   1.704   5.007   4.686
 6310SOL    HW219830   1.683   5.010   4.524
 6311SOL     OW19831   5.597   0.701   5.036
 6311SOL    HW119832   5.571   0.792   5.005
 6311SOL    HW219833   5.524   0.663   5.093
 6312SOL     OW19834   3.819   4.822   5.569
 6312SOL    HW119835   3.823   4.922   5.574
 6312SOL    HW219836   3.742   4.789   5.623
 6313SOL     OW19837   2.250   5.720   3.012
 6313SOL    HW119838   2.245   5.649   3.083
 6313SOL    HW219839   2.212   5.684   2.927
 6314SOL     OW19840   2.922   6.439   3.172
 6314SOL    HW119841   2.861   6.388   3.233
 6314SOL    HW219842   3.009   6.391   3.163
 6315SOL     OW19843   3.561   3.429   0.380
 6315SOL    HW119844   3.611   3.478   0.308
 6315SOL    HW219845   3.523   3.345   0.342
 6316SOL     OW19846   4.421   2.642   5.639
 6316SOL    HW119847   4.406   2.618   5.543
 6316SOL    HW219848   4.343   2.610   5.694
 6317SOL     OW19849   5.181   6.729   4.374
 6317SOL    HW119850   5.238   6.670   4.316
 6317SOL    HW219851   5.157   6.812   4.324
 6318SOL     OW19852   2.226   2.075   5.046
 6318SOL    HW119853   2.282   1.996   5.074
 6318SOL    HW219854   2.186   2.057   4.956
 6319SOL     OW19855   0.376   1.805   3.752
 6319SOL    HW119856   0.443   1.731   3.749
 6319SOL    HW219857   0.346   1.819   3.846
 6320SOL     OW19858   5.930   3.605   2.932
 6320SOL    HW119859   5.939   3.507   2.955
 6320SOL    HW219860   5.839   3.621   2.894
 6321SOL     OW19861   2.706   4.146   0.369
 6321SOL    HW119862   2.617   4.126   0.328
 6321SOL    HW219863   2.699   4.230   0.423
 6322SOL     OW19864   0.848   0.889   6.524
 6322SOL    HW119865   0.944   0.914   6.537
 6322SOL    HW219866   0.820   0.823   6.594
 6323SOL     OW19867   3.705   2.782   0.555
 6323SOL    HW119868   3.691   2.737   0.467
 6323SOL    HW219869   3.637   2.854   0.567
 6324SOL     OW19870   4.228   1.215   6.165
 6324SOL    HW119871   4.318   1.259   6.159
 6324SOL    HW219872   4.237   1.129   6.214
 6325SOL     OW19873   0.852   2.348   2.778
 6325SOL    HW119874   0.909   2.377   2.701
 6325SOL    HW219875   0.805   2.264   2.754
 6326SOL     OW19876   4.951   6.057   1.554
 6326SOL    HW119877   4.986   5.984   1.494
 6326SOL    HW219878   4.851   6.051   1.559
 6327SOL     OW19879   5.615   5.450   5.645
 6327SOL    HW119880   5.600   5.543   5.610
 6327SOL    HW219881   5.542   5.390   5.612
 6328SOL     OW19882   3.155   3.829   6.559
 6328SOL    HW119883   3.251   3.805   6.570
 6328SOL    HW219884   3.145   3.928   6.557
 6329SOL     OW19885   0.846   1.660   3.433
 6329SOL    HW119886   0.764   1.603   3.439
 6329SOL    HW219887   0.828   1.749   3.475
 6330SOL     OW19888   3.764   1.248   0.111
 6330SOL    HW119889   3.826   1.252   0.033
 6330SOL    HW219890   3.700   1.172   0.099
 6331SOL     OW19891   6.589   2.288   1.592
 6331SOL    HW119892   6.641   2.272   1.508
 6331SOL    HW219893   6.619   2.224   1.663
 6332SOL     OW19894   5.938   5.704   1.515
 6332SOL    HW119895   6.018   5.645   1.524
 6332SOL    HW219896   5.967   5.799   1.509
 6333SOL     OW19897   3.869   5.105   3.235
 6333SOL    HW119898   3.883   5.010   3.263
 6333SOL    HW219899   3.955   5.143   3.200
 6334SOL     OW19900   1.599   1.106   2.609
 6334SOL    HW119901   1.632   1.179   2.670
 6334SOL    HW219902   1.675   1.072   2.554
 6335SOL     OW19903   6.773   1.216   6.683
 6335SOL    HW119904   6.771   1.202   6.584
 6335SOL    HW219905   6.803   1.310   6.703
 6336SOL     OW19906   6.995   2.701   4.619
 6336SOL    HW119907   6.948   2.776   4.572
 6336SOL    HW219908   7.013   2.627   4.554
 6337SOL     OW19909   6.457   5.024   5.693
 6337SOL    HW119910   6.395   4.946   5.689
 6337SOL    HW219911   6.406   5.108   5.672
 6338SOL     OW19912   3.849   1.345   3.480
 6338SOL    HW119913   3.851   1.280   3.404
 6338SOL    HW219914   3.932   1.335   3.535
 6339SOL     OW19915   0.121   1.813   3.944
 6339SOL    HW119916   0.046   1.756   3.978
 6339SOL    HW219917   0.112   1.823   3.845
 6340SOL     OW19918   2.435   5.446   4.268
 6340SOL    HW119919   2.350   5.433   4.318
 6340SOL    HW219920   2.460   5.543   4.268
 6341SOL     OW19921   0.392   4.492   3.378
 6341SOL    HW119922   0.346   4.544   3.451
 6341SOL    HW219923   0.396   4.548   3.296
 6342SOL     OW19924   0.936   2.883   1.067
 6342SOL    HW119925   0.874   2.826   1.013
 6342SOL    HW219926   0.989   2.941   1.006
 6343SOL     OW19927   3.774   1.188   6.854
 6343SOL    HW119928   3.740   1.257   6.791
 6343SOL    HW219929   3.752   1.097   6.820
 6344SOL     OW19930   0.937   4.551   4.109
 6344SOL    HW119931   0.886   4.638   4.109
 6344SOL    HW219932   0.987   4.543   4.023
 6345SOL     OW19933   3.707   1.447   2.084
 6345SOL    HW119934   3.731   1.474   2.177
 6345SOL    HW219935   3.702   1.528   2.026
 6346SOL     OW19936   0.606   4.394   3.539
 6346SOL    HW119937   0.618   4.295   3.544
 6346SOL    HW219938   0.537   4.415   3.470
 6347SOL     OW19939   2.825   0.134   1.123
 6347SOL    HW119940   2.823   0.035   1.128
 6347SOL    HW219941   2.819   0.173   1.215
 6348SOL     OW19942   0.955   3.228   4.106
 6348SOL    HW119943   0.935   3.184   4.019
 6348SOL    HW219944   0.882   3.207   4.172
 6349SOL     OW19945   2.772   0.825   0.403
 6349SOL    HW119946   2.768   0.733   0.365
 6349SOL    HW219947   2.688   0.875   0.381
 6350SOL     OW19948   1.461   6.018   2.283
 6350SOL    HW119949   1.524   6.038   2.209
 6350SOL    HW219950   1.367   6.016   2.248
 6351SOL     OW19951   6.848   1.391   2.595
 6351SOL    HW119952   6.910   1.329   2.547
 6351SOL    HW219953   6.767   1.341   2.625
 6352SOL     OW19954   0.392   5.579   1.916
 6352SOL    HW119955   0.428   5.489   1.895
 6352SOL    HW219956   0.313   5.570   1.977
 6353SOL     OW19957   0.356   0.022   1.006
 6353SOL    HW119958   0.413   6.982   1.063
 6353SOL    HW219959   0.269   6.997   0.987
 6354SOL     OW19960   0.421   6.460   3.373
 6354SOL    HW119961   0.511   6.466   3.418
 6354SOL    HW219962   0.377   6.373   3.398
 6355SOL     OW19963   1.844   2.424   3.158
 6355SOL    HW119964   1.783   2.453   3.084
 6355SOL    HW219965   1.891   2.340   3.131
 6356SOL     OW19966   3.355   3.810   1.482
 6356SOL    HW119967   3.332   3.904   1.458
 6356SOL    HW219968   3.448   3.790   1.453
 6357SOL     OW19969   4.265   1.954   0.402
 6357SOL    HW119970   4.243   1.987   0.310
 6357SOL    HW219971   4.181   1.926   0.449
 6358SOL     OW19972   6.873   2.042   3.428
 6358SOL    HW119973   6.835   2.120   3.479
 6358SOL    HW219974   6.966   2.063   3.400
 6359SOL     OW19975   6.892   1.001   6.807
 6359SOL    HW119976   6.835   1.079   6.782
 6359SOL    HW219977   6.985   1.032   6.827
 6360SOL     OW19978   3.120   5.598   4.116
 6360SOL    HW119979   3.092   5.628   4.207
 6360SOL    HW219980   3.078   5.656   4.047
 6361SOL     OW19981   4.408   5.968   5.998
 6361SOL    HW119982   4.490   5.968   5.941
 6361SOL    HW219983   4.404   6.051   6.052
 6362SOL     OW19984   6.085   5.600   6.494
 6362SOL    HW119985   6.077   5.684   6.548
 6362SOL    HW219986   6.001   5.587   6.442
 6363SOL     OW19987   1.148   5.743   4.298
 6363SOL    HW119988   1.080   5.714   4.366
 6363SOL    HW219989   1.209   5.667   4.278
 6364SOL     OW19990   2.291   2.595   5.476
 6364SOL    HW119991   2.308   2.648   5.560
 6364SOL    HW219992   2.278   2.658   5.399
 6365SOL     OW19993   4.892   6.384   3.077
 6365SOL    HW119994   4.870   6.319   3.003
 6365SOL    HW219995   4.871   6.342   3.165
 6366SOL     OW19996   0.232   5.298   5.238
 6366SOL    HW119997   0.259   5.363   5.309
 6366SOL    HW219998   0.145   5.256   5.262
 6367SOL     OW19999   5.452   6.663   4.188
 6367SOL    HW120000   5.483   6.651   4.282
 6367SOL    HW220001   5.529   6.695   4.132
 6368SOL     OW20002   2.865   6.935   4.524
 6368SOL    HW120003   2.946   6.987   4.553
 6368SOL    HW220004   2.784   6.971   4.569
 6369SOL     OW20005   2.658   5.064   4.228
 6369SOL    HW120006   2.757   5.051   4.221
 6369SOL    HW220007   2.612   4.976   4.233
 6370SOL     OW20008   6.274   2.538   1.638
 6370SOL    HW120009   6.241   2.508   1.548
 6370SOL    HW220010   6.365   2.578   1.628
 6371SOL     OW20011   4.727   2.541   2.302
 6371SOL    HW120012   4.798   2.611   2.312
 6371SOL    HW220013   4.765   2.460   2.257
 6372SOL     OW20014   2.951   6.060   2.208
 6372SOL    HW120015   2.899   5.976   2.220
 6372SOL    HW220016   3.049   6.040   2.214
 6373SOL     OW20017   4.331   4.193   6.688
 6373SOL    HW120018   4.278   4.224   6.608
 6373SOL    HW220019   4.379   4.109   6.665
 6374SOL     OW20020   3.118   3.103   2.629
 6374SOL    HW120021   3.138   3.008   2.606
 6374SOL    HW220022   3.081   3.108   2.721
 6375SOL     OW20023   1.599   6.317   2.946
 6375SOL    HW120024   1.527   6.345   2.882
 6375SOL    HW220025   1.685   6.307   2.896
 6376SOL     OW20026   6.716   2.570   5.330
 6376SOL    HW120027   6.797   2.579   5.389
 6376SOL    HW220028   6.672   2.660   5.321
 6377SOL     OW20029   0.430   1.473   4.565
 6377SOL    HW120030   0.489   1.413   4.619
 6377SOL    HW220031   0.486   1.524   4.500
 6378SOL     OW20032   4.747   4.289   3.888
 6378SOL    HW120033   4.658   4.295   3.842
 6378SOL    HW220034   4.738   4.233   3.970
 6379SOL     OW20035   2.336   4.414   3.362
 6379SOL    HW120036   2.280   4.334   3.379
 6379SOL    HW220037   2.287   4.478   3.303
 6380SOL     OW20038   0.168   0.882   5.928
 6380SOL    HW120039   0.212   0.969   5.905
 6380SOL    HW220040   0.209   0.844   6.010
 6381SOL     OW20041   3.011   3.855   3.057
 6381SOL    HW120042   2.996   3.843   3.155
 6381SOL    HW220043   3.051   3.945   3.039
 6382SOL     OW20044   1.302   3.453   5.565
 6382SOL    HW120045   1.376   3.412   5.618
 6382SOL    HW220046   1.333   3.540   5.526
 6383SOL     OW20047   2.722   0.892   4.355
 6383SOL    HW120048   2.736   0.991   4.357
 6383SOL    HW220049   2.631   0.872   4.316
 6384SOL     OW20050   6.865   4.586   3.066
 6384SOL    HW120051   6.905   4.662   3.117
 6384SOL    HW220052   6.829   4.518   3.130
 6385SOL     OW20053   0.195   5.370   4.473
 6385SOL    HW120054   0.167   5.330   4.385
 6385SOL    HW220055   0.248   5.452   4.457
 6386SOL     OW20056   2.949   4.995   1.371
 6386SOL    HW120057   2.977   4.921   1.432
 6386SOL    HW220058   2.975   4.973   1.277
 6387SOL     OW20059   6.431   0.671   5.420
 6387SOL    HW120060   6.481   0.602   5.367
 6387SOL    HW220061   6.334   0.667   5.398
 6388SOL     OW20062   3.100   4.809   2.331
 6388SOL    HW120063   3.133   4.765   2.414
 6388SOL    HW220064   3.178   4.833   2.273
 6389SOL     OW20065   0.994   5.522   3.451
 6389SOL    HW120066   1.036   5.569   3.373
 6389SOL    HW220067   1.064   5.471   3.501
 6390SOL     OW20068   0.741   3.330   3.865
 6390SOL    HW120069   0.787   3.246   3.836
 6390SOL    HW220070   0.710   3.319   3.960
 6391SOL     OW20071   2.967   1.601   0.259
 6391SOL    HW120072   2.887   1.564   0.211
 6391SOL    HW220073   3.025   1.525   0.289
 6392SOL     OW20074   1.817   6.916   4.232
 6392SOL    HW120075   1.820   6.831   4.285
 6392SOL    HW220076   1.755   6.905   4.154
 6393SOL     OW20077   5.924   6.125   0.184
 6393SOL    HW120078   5.999   6.138   0.119
 6393SOL    HW220079   5.956   6.067   0.259
 6394SOL     OW20080   2.540   4.970   0.366
 6394SOL    HW120081   2.628   4.998   0.326
 6394SOL    HW220082   2.484   5.050   0.383
 6395SOL     OW20083   6.324   1.734   0.677
 6395SOL    HW120084   6.237   1.780   0.696
 6395SOL    HW220085   6.327   1.709   0.580
 6396SOL     OW20086   5.128   4.360   5.522
 6396SOL    HW120087   5.067   4.307   5.463
 6396SOL    HW220088   5.223   4.337   5.501
 6397SOL     OW20089   0.027   1.344   0.950
 6397SOL    HW120090   0.122   1.349   0.919
 6397SOL    HW220091   6.988   1.392   0.885
 6398SOL     OW20092   3.289   1.395   1.506
 6398SOL    HW120093   3.311   1.411   1.410
 6398SOL    HW220094   3.372   1.371   1.556
 6399SOL     OW20095   2.265   5.512   7.018
 6399SOL    HW120096   2.292   5.529   0.093
 6399SOL    HW220097   2.173   5.549   7.002
 6400SOL     OW20098   2.581   5.444   3.879
 6400SOL    HW120099   2.565   5.361   3.931
 6400SOL    HW220100   2.663   5.490   3.913
 6401SOL     OW20101   0.511   4.853   3.931
 6401SOL    HW120102   0.483   4.849   4.027
 6401SOL    HW220103   0.496   4.945   3.896
 6402SOL     OW20104   2.542   0.761   2.929
 6402SOL    HW120105   2.615   0.766   2.997
 6402SOL    HW220106   2.582   0.754   2.838
 6403SOL     OW20107   0.492   5.616   0.310
 6403SOL    HW120108   0.492   5.592   0.213
 6403SOL    HW220109   0.569   5.570   0.355
 6404SOL     OW20110   5.263   1.267   3.625
 6404SOL    HW120111   5.283   1.197   3.557
 6404SOL    HW220112   5.209   1.340   3.583
 6405SOL     OW20113   2.590   1.261   2.506
 6405SOL    HW120114   2.517   1.202   2.538
 6405SOL    HW220115   2.580   1.276   2.407
 6406SOL     OW20116   2.689   1.929   4.097
 6406SOL    HW120117   2.623   1.861   4.130
 6406SOL    HW220118   2.712   1.910   4.002
 6407SOL     OW20119   3.790   5.205   6.008
 6407SOL    HW120120   3.864   5.149   5.972
 6407SOL    HW220121   3.711   5.199   5.947
 6408SOL     OW20122   5.986   1.527   6.693
 6408SOL    HW120123   5.965   1.435   6.659
 6408SOL    HW220124   6.050   1.521   6.770
 6409SOL     OW20125   0.774   4.218   2.050
 6409SOL    HW120126   0.834   4.140   2.033
 6409SOL    HW220127   0.688   4.186   2.089
 6410SOL     OW20128   1.297   1.309   0.921
 6410SOL    HW120129   1.314   1.290   0.824
 6410SOL    HW220130   1.380   1.344   0.964
 6411SOL     OW20131   0.718   1.141   3.287
 6411SOL    HW120132   0.720   1.063   3.349
 6411SOL    HW220133   0.786   1.129   3.215
 6412SOL     OW20134   0.198   2.547   5.148
 6412SOL    HW120135   0.098   2.539   5.143
 6412SOL    HW220136   0.240   2.472   5.095
 6413SOL     OW20137   0.179   4.588   0.310
 6413SOL    HW120138   0.128   4.507   0.281
 6413SOL    HW220139   0.114   4.656   0.345
 6414SOL     OW20140   5.810   6.209   2.374
 6414SOL    HW120141   5.762   6.233   2.289
 6414SOL    HW220142   5.766   6.254   2.451
 6415SOL     OW20143   1.624   1.588   1.825
 6415SOL    HW120144   1.556   1.556   1.759
 6415SOL    HW220145   1.597   1.677   1.861
 6416SOL     OW20146   1.293   0.807   6.291
 6416SOL    HW120147   1.302   0.789   6.193
 6416SOL    HW220148   1.216   0.754   6.328
 6417SOL     OW20149   0.658   6.795   3.334
 6417SOL    HW120150   0.646   6.871   3.397
 6417SOL    HW220151   0.588   6.800   3.262
 6418SOL     OW20152   6.412   5.999   2.041
 6418SOL    HW120153   6.499   5.984   2.088
 6418SOL    HW220154   6.361   6.071   2.087
 6419SOL     OW20155   3.377   4.810   1.512
 6419SOL    HW120156   3.396   4.906   1.530
 6419SOL    HW220157   3.329   4.770   1.591
 6420SOL     OW20158   2.313   4.138   6.746
 6420SOL    HW120159   2.323   4.212   6.679
 6420SOL    HW220160   2.319   4.050   6.699
 6421SOL     OW20161   5.787   1.416   1.204
 6421SOL    HW120162   5.750   1.352   1.137
 6421SOL    HW220163   5.715   1.441   1.269
 6422SOL     OW20164   5.856   1.482   3.430
 6422SOL    HW120165   5.837   1.450   3.338
 6422SOL    HW220166   5.955   1.497   3.441
 6423SOL     OW20167   4.936   3.680   0.213
 6423SOL    HW120168   4.933   3.653   0.309
 6423SOL    HW220169   5.029   3.710   0.190
 6424SOL     OW20170   6.995   4.663   5.478
 6424SOL    HW120171   7.003   4.564   5.480
 6424SOL    HW220172   6.913   4.689   5.426
 6425SOL     OW20173   1.139   4.792   2.191
 6425SOL    HW120174   1.095   4.820   2.276
 6425SOL    HW220175   1.072   4.790   2.117
 6426SOL     OW20176   0.891   2.706   3.541
 6426SOL    HW120177   0.897   2.739   3.447
 6426SOL    HW220178   0.796   2.690   3.565
 6427SOL     OW20179   1.948   3.554   5.264
 6427SOL    HW120180   1.987   3.503   5.341
 6427SOL    HW220181   2.023   3.592   5.209
 6428SOL     OW20182   6.811   3.956   2.536
 6428SOL    HW120183   6.833   3.861   2.556
 6428SOL    HW220184   6.772   3.963   2.444
 6429SOL     OW20185   1.316   0.288   3.827
 6429SOL    HW120186   1.368   0.369   3.852
 6429SOL    HW220187   1.220   0.312   3.815
 6430SOL     OW20188   5.969   2.763   0.635
 6430SOL    HW120189   5.963   2.672   0.675
 6430SOL    HW220190   6.010   2.826   0.701
 6431SOL     OW20191   5.541   6.682   2.278
 6431SOL    HW120192   5.513   6.765   2.328
 6431SOL    HW220193   5.460   6.636   2.243
 6432SOL     OW20194   4.977   3.268   0.780
 6432SOL    HW120195   4.910   3.332   0.743
 6432SOL    HW220196   5.011   3.209   0.706
 6433SOL     OW20197   2.902   3.947   1.653
 6433SOL    HW120198   2.827   4.008   1.626
 6433SOL    HW220199   2.950   3.915   1.571
 6434SOL     OW20200   1.457   4.224   0.856
 6434SOL    HW120201   1.422   4.309   0.819
 6434SOL    HW220202   1.544   4.241   0.904
 6435SOL     OW20203   4.571   4.078   6.544
 6435SOL    HW120204   4.666   4.103   6.524
 6435SOL    HW220205   4.568   3.985   6.579
 6436SOL     OW20206   1.735   2.918   3.294
 6436SOL    HW120207   1.776   2.844   3.348
 6436SOL    HW220208   1.803   2.955   3.231
 6437SOL     OW20209   1.263   0.357   6.679
 6437SOL    HW120210   1.319   0.304   6.615
 6437SOL    HW220211   1.317   0.433   6.715
 6438SOL     OW20212   0.907   3.725   3.752
 6438SOL    HW120213   0.965   3.719   3.671
 6438SOL    HW220214   0.961   3.698   3.833
 6439SOL     OW20215   1.430   6.848   1.115
 6439SOL    HW120216   1.456   6.812   1.205
 6439SOL    HW220217   1.345   6.804   1.085
 6440SOL     OW20218   1.411   1.680   2.590
 6440SOL    HW120219   1.361   1.727   2.662
 6440SOL    HW220220   1.406   1.581   2.605
 6441SOL     OW20221   2.311   1.118   3.600
 6441SOL    HW120222   2.266   1.064   3.672
 6441SOL    HW220223   2.373   1.059   3.548
 6442SOL     OW20224   3.011   1.435   4.381
 6442SOL    HW120225   3.017   1.515   4.322
 6442SOL    HW220226   3.052   1.356   4.334
 6443SOL     OW20227   2.688   2.050   0.755
 6443SOL    HW120228   2.605   2.092   0.790
 6443SOL    HW220229   2.767   2.106   0.779
 6444SOL     OW20230   0.489   1.235   2.969
 6444SOL    HW120231   0.420   1.299   2.935
 6444SOL    HW220232   0.577   1.283   2.979
 6445SOL     OW20233   3.930   3.309   5.450
 6445SOL    HW120234   3.979   3.333   5.534
 6445SOL    HW220235   3.886   3.390   5.412
 6446SOL     OW20236   6.565   1.175   0.284
 6446SOL    HW120237   6.557   1.120   0.200
 6446SOL    HW220238   6.529   1.267   0.267
 6447SOL     OW20239   1.575   0.513   2.860
 6447SOL    HW120240   1.593   0.450   2.784
 6447SOL    HW220241   1.630   0.595   2.850
 6448SOL     OW20242   5.557   2.368   3.116
 6448SOL    HW120243   5.472   2.322   3.138
 6448SOL    HW220244   5.605   2.393   3.200
 6449SOL     OW20245   3.571   3.031   0.834
 6449SOL    HW120246   3.606   2.943   0.867
 6449SOL    HW220247   3.603   3.046   0.740
 6450SOL     OW20248   6.416   3.416   0.517
 6450SOL    HW120249   6.332   3.442   0.564
 6450SOL    HW220250   6.477   3.495   0.510
 6451SOL     OW20251   2.670   6.173   5.064
 6451SOL    HW120252   2.729   6.223   5.127
 6451SOL    HW220253   2.606   6.118   5.116
 6452SOL     OW20254   3.531   6.263   3.922
 6452SOL    HW120255   3.608   6.326   3.931
 6452SOL    HW220256   3.553   6.194   3.853
 6453SOL     OW20257   1.676   5.855   6.414
 6453SOL    HW120258   1.724   5.772   6.441
 6453SOL    HW220259   1.736   5.934   6.424
 6454SOL     OW20260   3.399   1.192   4.798
 6454SOL    HW120261   3.400   1.202   4.897
 6454SOL    HW220262   3.345   1.266   4.757
 6455SOL     OW20263   5.680   2.612   5.268
 6455SOL    HW120264   5.729   2.698   5.285
 6455SOL    HW220265   5.741   2.547   5.222
 6456SOL     OW20266   0.038   0.331   3.512
 6456SOL    HW120267   0.101   0.388   3.565
 6456SOL    HW220268   7.018   0.385   3.438
 6457SOL     OW20269   6.688   2.595   0.777
 6457SOL    HW120270   6.704   2.516   0.719
 6457SOL    HW220271   6.683   2.566   0.873
 6458SOL     OW20272   1.514   5.662   2.999
 6458SOL    HW120273   1.449   5.622   3.063
 6458SOL    HW220274   1.599   5.610   3.001
 6459SOL     OW20275   5.230   4.874   6.949
 6459SOL    HW120276   5.229   4.889   6.850
 6459SOL    HW220277   5.148   4.914   6.990
 6460SOL     OW20278   3.331   4.932   6.332
 6460SOL    HW120279   3.296   4.979   6.413
 6460SOL    HW220280   3.278   4.960   6.252
 6461SOL     OW20281   3.605   4.923   4.572
 6461SOL    HW120282   3.548   4.949   4.650
 6461SOL    HW220283   3.546   4.901   4.494
 6462SOL     OW20284   2.023   3.623   4.772
 6462SOL    HW120285   2.106   3.568   4.767
 6462SOL    HW220286   2.038   3.701   4.833
 6463SOL     OW20287   1.660   3.975   6.176
 6463SOL    HW120288   1.563   3.959   6.156
 6463SOL    HW220289   1.704   3.888   6.199
 6464SOL     OW20290   0.308   5.585   2.985
 6464SOL    HW120291   0.298   5.532   2.901
 6464SOL    HW220292   0.265   5.536   3.061
 6465SOL     OW20293   6.542   1.208   3.165
 6465SOL    HW120294   6.520   1.204   3.262
 6465SOL    HW220295   6.580   1.120   3.136
 6466SOL     OW20296   6.909   2.419   5.203
 6466SOL    HW120297   6.906   2.405   5.104
 6466SOL    HW220298   6.826   2.464   5.233
 6467SOL     OW20299   2.647   0.947   6.297
 6467SOL    HW120300   2.688   1.038   6.299
 6467SOL    HW220301   2.578   0.943   6.225
 6468SOL     OW20302   4.961   5.322   0.912
 6468SOL    HW120303   4.966   5.238   0.966
 6468SOL    HW220304   4.920   5.395   0.966
 6469SOL     OW20305   6.872   1.271   5.467
 6469SOL    HW120306   6.813   1.352   5.461
 6469SOL    HW220307   6.962   1.299   5.502
 6470SOL     OW20308   6.516   0.211   5.984
 6470SOL    HW120309   6.435   0.215   5.926
 6470SOL    HW220310   6.522   0.295   6.039
 6471SOL     OW20311   5.680   5.026   5.983
 6471SOL    HW120312   5.732   4.945   6.010
 6471SOL    HW220313   5.742   5.097   5.950
 6472SOL     OW20314   1.110   6.081   1.845
 6472SOL    HW120315   1.010   6.083   1.849
 6472SOL    HW220316   1.139   6.055   1.753
 6473SOL     OW20317   2.020   1.949   6.524
 6473SOL    HW120318   1.989   1.916   6.613
 6473SOL    HW220319   2.119   1.939   6.517
 6474SOL     OW20320   1.708   2.948   5.058
 6474SOL    HW120321   1.648   2.927   5.135
 6474SOL    HW220322   1.728   3.046   5.057
 6475SOL     OW20323   3.964   6.145   4.291
 6475SOL    HW120324   3.951   6.232   4.245
 6475SOL    HW220325   3.890   6.131   4.357
 6476SOL     OW20326   4.611   4.635   2.483
 6476SOL    HW120327   4.531   4.695   2.482
 6476SOL    HW220328   4.669   4.655   2.405
 6477SOL     OW20329   6.495   5.709   0.168
 6477SOL    HW120330   6.445   5.713   0.254
 6477SOL    HW220331   6.559   5.632   0.169
 6478SOL     OW20332   4.946   6.745   1.267
 6478SOL    HW120333   4.873   6.793   1.218
 6478SOL    HW220334   4.992   6.681   1.205
 6479SOL     OW20335   4.090   5.158   2.255
 6479SOL    HW120336   3.994   5.160   2.281
 6479SOL    HW220337   4.140   5.098   2.317
 6480SOL     OW20338   2.986   2.549   0.186
 6480SOL    HW120339   3.078   2.525   0.217
 6480SOL    HW220340   2.930   2.575   0.265
 6481SOL     OW20341   4.402   0.983   1.343
 6481SOL    HW120342   4.336   0.927   1.295
 6481SOL    HW220343   4.388   1.080   1.321
 6482SOL     OW20344   6.944   0.423   6.453
 6482SOL    HW120345   6.963   0.379   6.541
 6482SOL    HW220346   6.944   0.523   6.465
 6483SOL     OW20347   1.380   6.858   2.774
 6483SOL    HW120348   1.369   6.760   2.787
 6483SOL    HW220349   1.440   6.876   2.696
 6484SOL     OW20350   4.689   6.825   3.418
 6484SOL    HW120351   4.601   6.816   3.465
 6484SOL    HW220352   4.687   6.905   3.358
 6485SOL     OW20353   2.023   2.221   3.056
 6485SOL    HW120354   2.119   2.217   3.085
 6485SOL    HW220355   1.986   2.128   3.051
 6486SOL     OW20356   1.585   3.463   3.507
 6486SOL    HW120357   1.640   3.534   3.463
 6486SOL    HW220358   1.644   3.398   3.554
 6487SOL     OW20359   5.685   6.335   4.222
 6487SOL    HW120360   5.590   6.340   4.192
 6487SOL    HW220361   5.733   6.418   4.193
 6488SOL     OW20362   3.262   5.299   5.733
 6488SOL    HW120363   3.222   5.388   5.715
 6488SOL    HW220364   3.317   5.303   5.816
 6489SOL     OW20365   2.187   1.822   5.446
 6489SOL    HW120366   2.276   1.860   5.467
 6489SOL    HW220367   2.125   1.835   5.523
 6490SOL     OW20368   3.558   1.428   0.573
 6490SOL    HW120369   3.569   1.519   0.612
 6490SOL    HW220370   3.520   1.366   0.642
 6491SOL     OW20371   3.783   1.860   6.844
 6491SOL    HW120372   3.858   1.917   6.877
 6491SOL    HW220373   3.696   1.895   6.880
 6492SOL     OW20374   5.726   5.939   6.926
 6492SOL    HW120375   5.808   5.917   6.980
 6492SOL    HW220376   5.647   5.943   6.986
 6493SOL     OW20377   1.104   6.477   6.112
 6493SOL    HW120378   1.035   6.486   6.040
 6493SOL    HW220379   1.061   6.486   6.202
 6494SOL     OW20380   0.831   0.632   3.673
 6494SOL    HW120381   0.826   0.614   3.771
 6494SOL    HW220382   0.924   0.659   3.648
 6495SOL     OW20383   5.653   4.790   2.692
 6495SOL    HW120384   5.699   4.768   2.777
 6495SOL    HW220385   5.649   4.710   2.633
 6496SOL     OW20386   1.011   0.164   2.423
 6496SOL    HW120387   0.985   0.135   2.515
 6496SOL    HW220388   1.103   0.203   2.424
 6497SOL     OW20389   1.590   4.485   0.374
 6497SOL    HW120390   1.509   4.544   0.367
 6497SOL    HW220391   1.662   4.521   0.315
 6498SOL     OW20392   2.252   4.417   3.946
 6498SOL    HW120393   2.227   4.364   3.865
 6498SOL    HW220394   2.170   4.456   3.987
 6499SOL     OW20395   5.635   1.197   3.731
 6499SOL    HW120396   5.555   1.250   3.700
 6499SOL    HW220397   5.633   1.190   3.831
 6500SOL     OW20398   4.844   5.050   3.482
 6500SOL    HW120399   4.874   5.069   3.388
 6500SOL    HW220400   4.924   5.033   3.540
 6501SOL     OW20401   6.709   4.199   1.089
 6501SOL    HW120402   6.735   4.293   1.069
 6501SOL    HW220403   6.785   4.138   1.063
 6502SOL     OW20404   0.998   5.435   3.041
 6502SOL    HW120405   1.088   5.401   3.015
 6502SOL    HW220406   0.934   5.358   3.048
 6503SOL     OW20407   4.416   6.774   4.551
 6503SOL    HW120408   4.320   6.796   4.568
 6503SOL    HW220409   4.443   6.696   4.608
 6504SOL     OW20410   2.887   0.833   0.652
 6504SOL    HW120411   2.857   0.821   0.557
 6504SOL    HW220412   2.939   0.753   0.681
 6505SOL     OW20413   6.448   4.973   1.212
 6505SOL    HW120414   6.527   4.990   1.271
 6505SOL    HW220415   6.364   4.986   1.263
 6506SOL     OW20416   2.161   2.723   1.306
 6506SOL    HW120417   2.141   2.625   1.302
 6506SOL    HW220418   2.230   2.740   1.376
 6507SOL     OW20419   1.954   0.109   1.662
 6507SOL    HW120420   1.963   0.086   1.759
 6507SOL    HW220421   1.939   0.208   1.653
 6508SOL     OW20422   2.253   1.924   3.002
 6508SOL    HW120423   2.258   2.019   3.032
 6508SOL    HW220424   2.311   1.867   3.059
 6509SOL     OW20425   0.901   2.590   4.373
 6509SOL    HW120426   0.814   2.561   4.413
 6509SOL    HW220427   0.892   2.682   4.336
 6510SOL     OW20428   6.059   4.654   6.025
 6510SOL    HW120429   6.093   4.596   6.099
 6510SOL    HW220430   6.040   4.598   5.945
 6511SOL     OW20431   6.483   6.320   6.562
 6511SOL    HW120432   6.485   6.334   6.463
 6511SOL    HW220433   6.573   6.292   6.594
 6512SOL     OW20434   4.957   6.333   3.927
 6512SOL    HW120435   5.036   6.383   3.962
 6512SOL    HW220436   4.875   6.390   3.935
 6513SOL     OW20437   3.626   6.634   2.843
 6513SOL    HW120438   3.675   6.608   2.759
 6513SOL    HW220439   3.686   6.688   2.902
 6514SOL     OW20440   3.707   0.143   4.123
 6514SOL    HW120441   3.681   0.161   4.218
 6514SOL    HW220442   3.626   0.127   4.068
 6515SOL     OW20443   0.768   0.136   5.179
 6515SOL    HW120444   0.774   0.075   5.258
 6515SOL    HW220445   0.672   0.150   5.155
 6516SOL     OW20446   0.718   1.701   5.532
 6516SOL    HW120447   0.745   1.605   5.526
 6516SOL    HW220448   0.754   1.751   5.454
 6517SOL     OW20449   1.186   1.501   0.242
 6517SOL    HW120450   1.094   1.497   0.202
 6517SOL    HW220451   1.201   1.591   0.283
 6518SOL     OW20452   6.615   6.404   1.607
 6518SOL    HW120453   6.552   6.333   1.576
 6518SOL    HW220454   6.693   6.362   1.653
 6519SOL     OW20455   2.066   2.203   4.120
 6519SOL    HW120456   2.000   2.198   4.044
 6519SOL    HW220457   2.106   2.295   4.122
 6520SOL     OW20458   5.723   5.749   1.350
 6520SOL    HW120459   5.645   5.752   1.412
 6520SOL    HW220460   5.806   5.723   1.400
 6521SOL     OW20461   0.166   1.386   5.253
 6521SOL    HW120462   0.236   1.422   5.313
 6521SOL    HW220463   0.088   1.449   5.251
 6522SOL     OW20464   2.266   5.492   6.090
 6522SOL    HW120465   2.342   5.496   6.026
 6522SOL    HW220466   2.187   5.540   6.051
 6523SOL     OW20467   2.294   2.105   6.040
 6523SOL    HW120468   2.348   2.189   6.049
 6523SOL    HW220469   2.341   2.030   6.087
 6524SOL     OW20470   4.096   3.619   3.697
 6524SOL    HW120471   4.141   3.591   3.612
 6524SOL    HW220472   4.122   3.556   3.770
 6525SOL     OW20473   0.604   2.672   3.582
 6525SOL    HW120474   0.568   2.659   3.490
 6525SOL    HW220475   0.595   2.768   3.609
 6526SOL     OW20476   1.175   6.144   5.033
 6526SOL    HW120477   1.158   6.188   4.944
 6526SOL    HW220478   1.094   6.153   5.091
 6527SOL     OW20479   1.589   0.260   4.750
 6527SOL    HW120480   1.631   0.344   4.786
 6527SOL    HW220481   1.601   0.257   4.651
 6528SOL     OW20482   0.032   1.240   4.488
 6528SOL    HW120483   7.010   1.152   4.465
 6528SOL    HW220484   0.091   1.229   4.568
 6529SOL     OW20485   6.915   1.729   1.765
 6529SOL    HW120486   6.875   1.641   1.737
 6529SOL    HW220487   6.898   1.797   1.694
 6530SOL     OW20488   6.864   1.777   0.677
 6530SOL    HW120489   6.941   1.759   0.739
 6530SOL    HW220490   6.779   1.776   0.730
 6531SOL     OW20491   4.728   2.756   4.247
 6531SOL    HW120492   4.723   2.726   4.342
 6531SOL    HW220493   4.726   2.856   4.243
 6532SOL     OW20494   6.922   1.713   6.287
 6532SOL    HW120495   6.867   1.630   6.281
 6532SOL    HW220496   6.866   1.789   6.321
 6533SOL     OW20497   4.714   0.199   1.413
 6533SOL    HW120498   4.715   0.229   1.508
 6533SOL    HW220499   4.753   0.270   1.355
 6534SOL     OW20500   2.155   3.949   1.126
 6534SOL    HW120501   2.242   3.972   1.170
 6534SOL    HW220502   2.162   3.961   1.027
 6535SOL     OW20503   0.831   3.689   5.522
 6535SOL    HW120504   0.879   3.660   5.605
 6535SOL    HW220505   0.840   3.618   5.452
 6536SOL     OW20506   6.372   2.238   6.937
 6536SOL    HW120507   6.375   2.201   0.011
 6536SOL    HW220508   6.386   2.337   6.941
 6537SOL     OW20509   1.020   0.044   0.183
 6537SOL    HW120510   1.102   0.010   0.137
 6537SOL    HW220511   0.993   0.132   0.144
 6538SOL     OW20512   3.014   3.197   7.017
 6538SOL    HW120513   3.046   3.170   0.088
 6538SOL    HW220514   2.927   3.151   6.997
 6539SOL     OW20515   2.467   1.657   6.962
 6539SOL    HW120516   2.527   1.593   7.011
 6539SOL    HW220517   2.397   1.606   6.913
 6540SOL     OW20518   2.766   1.425   4.980
 6540SOL    HW120519   2.813   1.501   5.025
 6540SOL    HW220520   2.687   1.459   4.930
 6541SOL     OW20521   2.247   2.543   6.221
 6541SOL    HW120522   2.184   2.616   6.193
 6541SOL    HW220523   2.212   2.455   6.190
 6542SOL     OW20524   5.903   4.298   4.070
 6542SOL    HW120525   5.872   4.384   4.111
 6542SOL    HW220526   5.827   4.254   4.022
 6543SOL     OW20527   6.530   5.892   6.689
 6543SOL    HW120528   6.521   5.927   6.595
 6543SOL    HW220529   6.501   5.797   6.692
 6544SOL     OW20530   6.232   6.759   4.515
 6544SOL    HW120531   6.325   6.765   4.550
 6544SOL    HW220532   6.193   6.669   4.539
 6545SOL     OW20533   4.941   1.888   5.768
 6545SOL    HW120534   5.029   1.900   5.814
 6545SOL    HW220535   4.956   1.876   5.670
 6546SOL     OW20536   2.828   4.478   6.168
 6546SOL    HW120537   2.765   4.554   6.185
 6546SOL    HW220538   2.782   4.391   6.186
 6547SOL     OW20539   5.192   2.071   6.970
 6547SOL    HW120540   5.128   2.143   6.997
 6547SOL    HW220541   5.244   2.101   6.890
 6548SOL     OW20542   6.816   4.876   5.372
 6548SOL    HW120543   6.914   4.894   5.380
 6548SOL    HW220544   6.764   4.953   5.409
 6549SOL     OW20545   3.440   1.894   1.013
 6549SOL    HW120546   3.536   1.921   1.022
 6549SOL    HW220547   3.388   1.971   0.976
 6550SOL     OW20548   0.438   5.854   3.400
 6550SOL    HW120549   0.495   5.891   3.473
 6550SOL    HW220550   0.416   5.927   3.335
 6551SOL     OW20551   2.287   4.869   2.020
 6551SOL    HW120552   2.256   4.807   2.092
 6551SOL    HW220553   2.213   4.885   1.955
 6552SOL     OW20554   3.210   5.132   5.520
 6552SOL    HW120555   3.240   5.173   5.434
 6552SOL    HW220556   3.229   5.196   5.595
 6553SOL     OW20557   0.955   3.353   2.661
 6553SOL    HW120558   0.906   3.267   2.647
 6553SOL    HW220559   0.975   3.365   2.758
 6554SOL     OW20560   6.942   2.674   5.446
 6554SOL    HW120561   0.012   2.637   5.419
 6554SOL    HW220562   6.945   2.699   5.543
 6555SOL     OW20563   0.508   1.010   1.948
 6555SOL    HW120564   0.548   1.071   1.880
 6555SOL    HW220565   0.511   1.053   2.038
 6556SOL     OW20566   3.946   5.947   4.577
 6556SOL    HW120567   3.977   6.030   4.623
 6556SOL    HW220568   3.869   5.968   4.518
 6557SOL     OW20569   6.789   5.244   0.912
 6557SOL    HW120570   6.762   5.333   0.948
 6557SOL    HW220571   6.836   5.192   0.984
 6558SOL     OW20572   6.318   5.664   6.805
 6558SOL    HW120573   6.359   5.702   6.889
 6558SOL    HW220574   6.358   5.574   6.787
 6559SOL     OW20575   4.043   3.802   0.667
 6559SOL    HW120576   4.080   3.836   0.754
 6559SOL    HW220577   3.969   3.861   0.637
 6560SOL     OW20578   3.914   2.253   0.126
 6560SOL    HW120579   3.911   2.168   0.179
 6560SOL    HW220580   3.968   2.321   0.176
 6561SOL     OW20581   4.082   3.214   3.529
 6561SOL    HW120582   4.169   3.171   3.504
 6561SOL    HW220583   4.081   3.233   3.627
 6562SOL     OW20584   6.348   3.708   6.131
 6562SOL    HW120585   6.316   3.747   6.045
 6562SOL    HW220586   6.420   3.766   6.169
 6563SOL     OW20587   0.984   5.330   2.126
 6563SOL    HW120588   1.035   5.319   2.211
 6563SOL    HW220589   0.990   5.426   2.096
 6564SOL     OW20590   0.909   5.161   1.945
 6564SOL    HW120591   0.932   5.210   2.029
 6564SOL    HW220592   0.993   5.130   1.900
 6565SOL     OW20593   6.918   2.782   5.962
 6565SOL    HW120594   6.920   2.870   6.008
 6565SOL    HW220595   6.832   2.735   5.982
 6566SOL     OW20596   3.511   6.604   1.261
 6566SOL    HW120597   3.425   6.624   1.213
 6566SOL    HW220598   3.502   6.631   1.357
 6567SOL     OW20599   5.471   2.641   1.577
 6567SOL    HW120600   5.450   2.705   1.503
 6567SOL    HW220601   5.385   2.604   1.614
 6568SOL     OW20602   4.206   4.261   1.506
 6568SOL    HW120603   4.134   4.199   1.536
 6568SOL    HW220604   4.225   4.245   1.409
 6569SOL     OW20605   0.930   4.536   6.850
 6569SOL    HW120606   1.020   4.527   6.893
 6569SOL    HW220607   0.859   4.514   6.916
 6570SOL     OW20608   6.138   2.410   1.423
 6570SOL    HW120609   6.072   2.408   1.498
 6570SOL    HW220610   6.097   2.453   1.343
 6571SOL     OW20611   2.658   5.600   3.413
 6571SOL    HW120612   2.593   5.560   3.478
 6571SOL    HW220613   2.732   5.644   3.463
 6572SOL     OW20614   0.499   4.189   5.884
 6572SOL    HW120615   0.491   4.092   5.863
 6572SOL    HW220616   0.529   4.238   5.802
 6573SOL     OW20617   1.989   1.331   2.390
 6573SOL    HW120618   1.930   1.391   2.336
 6573SOL    HW220619   2.013   1.377   2.475
 6574SOL     OW20620   3.366   4.865   3.096
 6574SOL    HW120621   3.411   4.777   3.079
 6574SOL    HW220622   3.363   4.882   3.194
 6575SOL     OW20623   0.652   1.571   2.797
 6575SOL    HW120624   0.652   1.481   2.753
 6575SOL    HW220625   0.720   1.572   2.871
 6576SOL     OW20626   1.129   6.134   6.556
 6576SOL    HW120627   1.092   6.218   6.595
 6576SOL    HW220628   1.153   6.149   6.460
 6577SOL     OW20629   6.528   2.415   3.701
 6577SOL    HW120630   6.513   2.347   3.629
 6577SOL    HW220631   6.510   2.373   3.790
 6578SOL     OW20632   6.183   4.891   3.762
 6578SOL    HW120633   6.164   4.800   3.800
 6578SOL    HW220634   6.281   4.910   3.770
 6579SOL     OW20635   0.243   4.020   3.104
 6579SOL    HW120636   0.248   3.961   3.185
 6579SOL    HW220637   0.323   4.081   3.103
 6580SOL     OW20638   6.292   2.147   1.938
 6580SOL    HW120639   6.270   2.189   1.850
 6580SOL    HW220640   6.337   2.059   1.922
 6581SOL     OW20641   2.789   1.602   6.378
 6581SOL    HW120642   2.862   1.642   6.433
 6581SOL    HW220643   2.824   1.580   6.287
 6582SOL     OW20644   6.354   0.127   3.092
 6582SOL    HW120645   6.289   0.131   3.016
 6582SOL    HW220646   6.447   0.139   3.058
 6583SOL     OW20647   5.432   1.354   5.902
 6583SOL    HW120648   5.459   1.338   5.808
 6583SOL    HW220649   5.490   1.301   5.964
 6584SOL     OW20650   6.022   1.565   6.421
 6584SOL    HW120651   6.005   1.574   6.520
 6584SOL    HW220652   6.099   1.624   6.396
 6585SOL     OW20653   1.301   1.231   6.860
 6585SOL    HW120654   1.258   1.304   6.808
 6585SOL    HW220655   1.399   1.230   6.840
 6586SOL     OW20656   6.448   2.194   5.963
 6586SOL    HW120657   6.490   2.106   5.985
 6586SOL    HW220658   6.362   2.203   6.013
 6587SOL     OW20659   2.112   6.673   3.364
 6587SOL    HW120660   2.085   6.589   3.412
 6587SOL    HW220661   2.194   6.655   3.310
 6588SOL     OW20662   1.422   3.160   0.133
 6588SOL    HW120663   1.496   3.135   0.072
 6588SOL    HW220664   1.410   3.088   0.202
 6589SOL     OW20665   4.060   1.877   5.541
 6589SOL    HW120666   4.046   1.802   5.476
 6589SOL    HW220667   3.981   1.882   5.602
 6590SOL     OW20668   0.116   1.202   5.069
 6590SOL    HW120669   0.046   1.226   5.003
 6590SOL    HW220670   0.127   1.276   5.135
 6591SOL     OW20671   5.786   0.880   3.027
 6591SOL    HW120672   5.769   0.953   2.961
 6591SOL    HW220673   5.836   0.806   2.982
 6592SOL     OW20674   4.797   5.520   4.777
 6592SOL    HW120675   4.804   5.430   4.820
 6592SOL    HW220676   4.787   5.590   4.848
 6593SOL     OW20677   3.516   1.151   2.559
 6593SOL    HW120678   3.440   1.207   2.527
 6593SOL    HW220679   3.531   1.168   2.656
 6594SOL     OW20680   5.569   0.157   6.549
 6594SOL    HW120681   5.535   0.209   6.470
 6594SOL    HW220682   5.665   0.132   6.535
 6595SOL     OW20683   1.674   3.773   0.936
 6595SOL    HW120684   1.593   3.759   0.879
 6595SOL    HW220685   1.729   3.848   0.897
 6596SOL     OW20686   4.244   6.976   5.181
 6596SOL    HW120687   4.266   6.883   5.151
 6596SOL    HW220688   4.145   6.991   5.175
 6597SOL     OW20689   0.331   5.018   5.274
 6597SOL    HW120690   0.379   5.005   5.187
 6597SOL    HW220691   0.290   5.109   5.275
 6598SOL     OW20692   1.657   5.795   5.385
 6598SOL    HW120693   1.654   5.863   5.312
 6598SOL    HW220694   1.731   5.816   5.448
 6599SOL     OW20695   4.051   4.513   5.742
 6599SOL    HW120696   4.127   4.449   5.741
 6599SOL    HW220697   4.083   4.603   5.712
 6600SOL     OW20698   4.543   5.959   3.951
 6600SOL    HW120699   4.607   6.015   3.899
 6600SOL    HW220700   4.589   5.877   3.985
 6601SOL     OW20701   0.649   0.171   0.255
 6601SOL    HW120702   0.676   0.228   0.178
 6601SOL    HW220703   0.550   0.178   0.269
 6602SOL     OW20704   6.541   1.565   1.804
 6602SOL    HW120705   6.627   1.524   1.773
 6602SOL    HW220706   6.471   1.494   1.813
 6603SOL     OW20707   2.131   3.625   3.274
 6603SOL    HW120708   2.148   3.647   3.370
 6603SOL    HW220709   2.130   3.710   3.220
 6604SOL     OW20710   3.557   5.511   2.411
 6604SOL    HW120711   3.466   5.531   2.374
 6604SOL    HW220712   3.588   5.588   2.468
 6605SOL     OW20713   5.882   5.784   0.189
 6605SOL    HW120714   5.979   5.774   0.166
 6605SOL    HW220715   5.868   5.870   0.237
 6606SOL     OW20716   5.226   0.634   2.556
 6606SOL    HW120717   5.250   0.580   2.637
 6606SOL    HW220718   5.149   0.694   2.577
 6607SOL     OW20719   1.264   2.050   2.351
 6607SOL    HW120720   1.246   1.953   2.338
 6607SOL    HW220721   1.187   2.104   2.318
 6608SOL     OW20722   5.913   3.556   4.116
 6608SOL    HW120723   5.913   3.616   4.196
 6608SOL    HW220724   5.928   3.611   4.034
 6609SOL     OW20725   5.661   1.724   6.561
 6609SOL    HW120726   5.662   1.647   6.497
 6609SOL    HW220727   5.580   1.780   6.545
 6610SOL     OW20728   2.208   0.637   6.498
 6610SOL    HW120729   2.126   0.694   6.498
 6610SOL    HW220730   2.183   0.542   6.515
 6611SOL     OW20731   5.991   2.524   2.766
 6611SOL    HW120732   5.926   2.596   2.789
 6611SOL    HW220733   5.975   2.445   2.826
 6612SOL     OW20734   1.838   6.309   6.768
 6612SOL    HW120735   1.830   6.330   6.671
 6612SOL    HW220736   1.845   6.394   6.820
 6613SOL     OW20737   4.953   5.138   1.793
 6613SOL    HW120738   4.986   5.055   1.838
 6613SOL    HW220739   4.854   5.144   1.803
 6614SOL     OW20740   4.838   5.822   6.285
 6614SOL    HW120741   4.867   5.872   6.367
 6614SOL    HW220742   4.750   5.779   6.302
 6615SOL     OW20743   0.857   3.853   5.283
 6615SOL    HW120744   0.795   3.824   5.356
 6615SOL    HW220745   0.949   3.819   5.301
 6616SOL     OW20746   4.994   0.424   4.603
 6616SOL    HW120747   5.088   0.446   4.579
 6616SOL    HW220748   4.992   0.341   4.658
 6617SOL     OW20749   4.196   0.377   5.599
 6617SOL    HW120750   4.117   0.331   5.641
 6617SOL    HW220751   4.238   0.438   5.666
 6618SOL     OW20752   0.886   4.400   1.201
 6618SOL    HW120753   0.961   4.341   1.231
 6618SOL    HW220754   0.799   4.355   1.222
 6619SOL     OW20755   4.785   5.596   2.454
 6619SOL    HW120756   4.703   5.621   2.402
 6619SOL    HW220757   4.801   5.498   2.446
 6620SOL     OW20758   1.612   2.631   5.253
 6620SOL    HW120759   1.617   2.610   5.351
 6620SOL    HW220760   1.575   2.723   5.241
 6621SOL     OW20761   2.828   3.883   0.231
 6621SOL    HW120762   2.810   3.972   0.274
 6621SOL    HW220763   2.832   3.894   0.132
 6622SOL     OW20764   6.889   6.119   0.380
 6622SOL    HW120765   6.956   6.185   0.415
 6622SOL    HW220766   6.930   6.028   0.376
 6623SOL     OW20767   3.245   3.261   2.379
 6623SOL    HW120768   3.224   3.347   2.333
 6623SOL    HW220769   3.228   3.271   2.477
 6624SOL     OW20770   4.133   4.829   4.446
 6624SOL    HW120771   4.219   4.841   4.494
 6624SOL    HW220772   4.094   4.740   4.469
 6625SOL     OW20773   6.194   0.565   0.145
 6625SOL    HW120774   6.242   0.647   0.177
 6625SOL    HW220775   6.200   0.559   0.046
 6626SOL     OW20776   3.624   5.179   3.632
 6626SOL    HW120777   3.717   5.212   3.647
 6626SOL    HW220778   3.597   5.196   3.537
 6627SOL     OW20779   2.080   6.584   1.243
 6627SOL    HW120780   2.157   6.595   1.307
 6627SOL    HW220781   1.999   6.555   1.293
 6628SOL     OW20782   4.064   5.751   3.124
 6628SOL    HW120783   3.976   5.797   3.112
 6628SOL    HW220784   4.060   5.693   3.206
 6629SOL     OW20785   3.100   4.988   0.498
 6629SOL    HW120786   3.049   4.914   0.453
 6629SOL    HW220787   3.106   4.969   0.596
 6630SOL     OW20788   3.275   1.948   0.346
 6630SOL    HW120789   3.261   1.849   0.347
 6630SOL    HW220790   3.282   1.981   0.441
 6631SOL     OW20791   5.275   0.814   2.135
 6631SOL    HW120792   5.279   0.717   2.157
 6631SOL    HW220793   5.241   0.826   2.042
 6632SOL     OW20794   0.196   1.599   1.596
 6632SOL    HW120795   0.221   1.524   1.657
 6632SOL    HW220796   0.220   1.574   1.502
 6633SOL     OW20797   1.142   6.774   1.137
 6633SOL    HW120798   1.110   6.694   1.188
 6633SOL    HW220799   1.095   6.856   1.169
 6634SOL     OW20800   0.061   2.801   6.231
 6634SOL    HW120801   0.015   2.841   6.152
 6634SOL    HW220802   0.003   2.731   6.272
 6635SOL     OW20803   4.735   4.424   3.253
 6635SOL    HW120804   4.670   4.455   3.183
 6635SOL    HW220805   4.821   4.398   3.209
 6636SOL     OW20806   2.121   2.658   4.190
 6636SOL    HW120807   2.179   2.731   4.227
 6636SOL    HW220808   2.070   2.692   4.111
 6637SOL     OW20809   6.932   0.342   0.659
 6637SOL    HW120810   6.911   0.420   0.717
 6637SOL    HW220811   6.993   0.280   0.707
 6638SOL     OW20812   2.518   5.943   5.943
 6638SOL    HW120813   2.484   5.938   5.849
 6638SOL    HW220814   2.593   5.878   5.955
 6639SOL     OW20815   5.600   5.416   6.996
 6639SOL    HW120816   5.687   5.367   6.993
 6639SOL    HW220817   5.534   5.363   0.030
 6640SOL     OW20818   6.151   2.788   3.169
 6640SOL    HW120819   6.096   2.752   3.244
 6640SOL    HW220820   6.222   2.848   3.205
 6641SOL     OW20821   1.903   4.593   5.917
 6641SOL    HW120822   1.818   4.584   5.968
 6641SOL    HW220823   1.975   4.540   5.961
 6642SOL     OW20824   0.497   5.886   0.346
 6642SOL    HW120825   0.570   5.908   0.281
 6642SOL    HW220826   0.493   5.787   0.359
 6643SOL     OW20827   5.092   4.872   6.373
 6643SOL    HW120828   5.137   4.841   6.456
 6643SOL    HW220829   4.997   4.842   6.373
 6644SOL     OW20830   3.077   4.801   2.020
 6644SOL    HW120831   3.074   4.812   2.119
 6644SOL    HW220832   3.003   4.740   1.991
 6645SOL     OW20833   0.696   5.136   5.635
 6645SOL    HW120834   0.735   5.098   5.551
 6645SOL    HW220835   0.770   5.149   5.702
 6646SOL     OW20836   2.530   5.714   4.298
 6646SOL    HW120837   2.599   5.759   4.241
 6646SOL    HW220838   2.575   5.670   4.375
 6647SOL     OW20839   3.137   2.179   1.861
 6647SOL    HW120840   3.086   2.093   1.857
 6647SOL    HW220841   3.074   2.255   1.876
 6648SOL     OW20842   5.070   5.783   2.144
 6648SOL    HW120843   5.089   5.882   2.141
 6648SOL    HW220844   4.972   5.768   2.139
 6649SOL     OW20845   3.854   2.276   6.513
 6649SOL    HW120846   3.830   2.184   6.483
 6649SOL    HW220847   3.852   2.338   6.435
 6650SOL     OW20848   3.695   1.967   3.265
 6650SOL    HW120849   3.619   1.987   3.204
 6650SOL    HW220850   3.767   1.919   3.215
 6651SOL     OW20851   0.872   2.550   6.705
 6651SOL    HW120852   0.797   2.592   6.755
 6651SOL    HW220853   0.869   2.580   6.609
 6652SOL     OW20854   6.650   5.556   2.358
 6652SOL    HW120855   6.674   5.488   2.426
 6652SOL    HW220856   6.665   5.648   2.395
 6653SOL     OW20857   3.303   3.734   3.904
 6653SOL    HW120858   3.210   3.771   3.900
 6653SOL    HW220859   3.357   3.773   3.829
 6654SOL     OW20860   2.363   3.256   1.647
 6654SOL    HW120861   2.377   3.333   1.710
 6654SOL    HW220862   2.450   3.209   1.633
 6655SOL     OW20863   2.402   6.487   1.792
 6655SOL    HW120864   2.452   6.429   1.858
 6655SOL    HW220865   2.420   6.583   1.812
 6656SOL     OW20866   6.612   2.400   1.159
 6656SOL    HW120867   6.513   2.391   1.159
 6656SOL    HW220868   6.637   2.493   1.185
 6657SOL     OW20869   2.985   6.248   6.289
 6657SOL    HW120870   2.955   6.295   6.207
 6657SOL    HW220871   3.083   6.264   6.303
 6658SOL     OW20872   5.195   0.783   5.358
 6658SOL    HW120873   5.218   0.754   5.451
 6658SOL    HW220874   5.151   0.873   5.361
 6659SOL     OW20875   2.069   2.680   0.003
 6659SOL    HW120876   2.060   2.749   6.951
 6659SOL    HW220877   2.100   2.724   0.088
 6660SOL     OW20878   6.934   6.770   2.990
 6660SOL    HW120879   6.961   6.682   3.029
 6660SOL    HW220880   6.844   6.795   3.024
 6661SOL     OW20881   0.422   6.114   3.619
 6661SOL    HW120882   0.351   6.043   3.618
 6661SOL    HW220883   0.512   6.070   3.629
 6662SOL     OW20884   1.871   1.842   0.075
 6662SOL    HW120885   1.858   1.935   0.107
 6662SOL    HW220886   1.966   1.830   0.044
 6663SOL     OW20887   0.130   5.767   2.628
 6663SOL    HW120888   0.124   5.845   2.691
 6663SOL    HW220889   0.140   5.682   2.681
 6664SOL     OW20890   1.606   1.172   3.021
 6664SOL    HW120891   1.643   1.123   3.100
 6664SOL    HW220892   1.606   1.270   3.039
 6665SOL     OW20893   2.496   6.655   2.855
 6665SOL    HW120894   2.532   6.690   2.768
 6665SOL    HW220895   2.564   6.668   2.927
 6666SOL     OW20896   6.210   0.555   6.901
 6666SOL    HW120897   6.130   0.496   6.892
 6666SOL    HW220898   6.222   0.608   6.817
 6667SOL     OW20899   6.952   4.428   4.758
 6667SOL    HW120900   6.937   4.378   4.673
 6667SOL    HW220901   6.976   4.364   4.831
 6668SOL     OW20902   0.829   4.809   1.735
 6668SOL    HW120903   0.785   4.831   1.822
 6668SOL    HW220904   0.804   4.716   1.707
 6669SOL     OW20905   1.909   5.961   2.828
 6669SOL    HW120906   1.997   5.991   2.791
 6669SOL    HW220907   1.895   6.001   2.918
 6670SOL     OW20908   3.322   5.030   0.168
 6670SOL    HW120909   3.322   5.038   0.267
 6670SOL    HW220910   3.349   4.937   0.142
 6671SOL     OW20911   6.634   3.119   4.478
 6671SOL    HW120912   6.706   3.144   4.543
 6671SOL    HW220913   6.630   3.187   4.405
 6672SOL     OW20914   1.400   1.232   5.760
 6672SOL    HW120915   1.330   1.217   5.830
 6672SOL    HW220916   1.490   1.231   5.802
 6673SOL     OW20917   4.528   4.552   1.685
 6673SOL    HW120918   4.585   4.480   1.724
 6673SOL    HW220919   4.434   4.518   1.675
 6674SOL     OW20920   0.470   6.883   4.023
 6674SOL    HW120921   0.562   6.846   4.007
 6674SOL    HW220922   0.477   6.969   4.074
 6675SOL     OW20923   5.830   4.707   0.371
 6675SOL    HW120924   5.830   4.662   0.460
 6675SOL    HW220925   5.858   4.641   0.301
 6676SOL     OW20926   0.962   2.344   6.108
 6676SOL    HW120927   0.878   2.372   6.156
 6676SOL    HW220928   0.952   2.364   6.010
 6677SOL     OW20929   0.633   2.998   0.307
 6677SOL    HW120930   0.612   2.948   0.223
 6677SOL    HW220931   0.583   3.084   0.308
 6678SOL     OW20932   0.778   2.809   5.886
 6678SOL    HW120933   0.821   2.897   5.908
 6678SOL    HW220934   0.709   2.822   5.815
 6679SOL     OW20935   2.015   2.115   4.389
 6679SOL    HW120936   2.042   2.192   4.447
 6679SOL    HW220937   2.028   2.140   4.293
 6680SOL     OW20938   3.161   6.697   6.279
 6680SOL    HW120939   3.217   6.626   6.235
 6680SOL    HW220940   3.221   6.770   6.312
 6681SOL     OW20941   5.352   4.964   0.616
 6681SOL    HW120942   5.368   5.061   0.634
 6681SOL    HW220943   5.286   4.928   0.681
 6682SOL     OW20944   0.266   6.124   1.605
 6682SOL    HW120945   0.318   6.207   1.582
 6682SOL    HW220946   0.263   6.114   1.704
 6683SOL     OW20947   5.078   1.603   4.048
 6683SOL    HW120948   5.127   1.538   3.989
 6683SOL    HW220949   4.984   1.572   4.059
 6684SOL     OW20950   2.221   6.736   2.849
 6684SOL    HW120951   2.209   6.700   2.941
 6684SOL    HW220952   2.314   6.719   2.818
 6685SOL     OW20953   5.247   3.450   6.701
 6685SOL    HW120954   5.162   3.405   6.673
 6685SOL    HW220955   5.303   3.385   6.752
 6686SOL     OW20956   6.574   4.094   3.150
 6686SOL    HW120957   6.495   4.032   3.146
 6686SOL    HW220958   6.598   4.124   3.058
 6687SOL     OW20959   1.207   2.489   0.731
 6687SOL    HW120960   1.300   2.518   0.752
 6687SOL    HW220961   1.188   2.503   0.634
 6688SOL     OW20962   0.619   4.830   2.554
 6688SOL    HW120963   0.586   4.737   2.568
 6688SOL    HW220964   0.647   4.841   2.459
 6689SOL     OW20965   4.639   4.764   0.235
 6689SOL    HW120966   4.614   4.728   0.145
 6689SOL    HW220967   4.565   4.820   0.271
 6690SOL     OW20968   1.981   2.625   0.630
 6690SOL    HW120969   2.015   2.548   0.577
 6690SOL    HW220970   1.886   2.644   0.604
 6691SOL     OW20971   2.316   4.477   1.616
 6691SOL    HW120972   2.251   4.401   1.606
 6691SOL    HW220973   2.267   4.563   1.605
 6692SOL     OW20974   3.327   3.809   5.437
 6692SOL    HW120975   3.304   3.820   5.340
 6692SOL    HW220976   3.242   3.806   5.491
 6693SOL     OW20977   4.093   3.545   5.247
 6693SOL    HW120978   4.087   3.451   5.213
 6693SOL    HW220979   4.187   3.565   5.274
 6694SOL     OW20980   3.457   5.784   0.751
 6694SOL    HW120981   3.458   5.825   0.842
 6694SOL    HW220982   3.364   5.755   0.728
 6695SOL     OW20983   1.826   1.582   6.940
 6695SOL    HW120984   1.732   1.592   6.907
 6695SOL    HW220985   1.868   1.672   6.950
 6696SOL     OW20986   1.835   3.008   1.726
 6696SOL    HW120987   1.823   2.932   1.791
 6696SOL    HW220988   1.887   2.975   1.647
 6697SOL     OW20989   4.833   0.833   3.356
 6697SOL    HW120990   4.826   0.820   3.257
 6697SOL    HW220991   4.745   0.812   3.398
 6698SOL     OW20992   4.012   3.656   0.289
 6698SOL    HW120993   3.917   3.626   0.300
 6698SOL    HW220994   4.066   3.625   0.367
 6699SOL     OW20995   1.751   4.216   0.031
 6699SOL    HW120996   1.793   4.213   0.121
 6699SOL    HW220997   1.779   4.135   6.998
 6700SOL     OW20998   6.813   5.752   0.458
 6700SOL    HW120999   6.890   5.800   0.415
 6700SOL    HW221000   6.782   5.678   0.398
 6701SOL     OW21001   0.726   2.021   0.376
 6701SOL    HW121002   0.639   2.051   0.336
 6701SOL    HW221003   0.722   2.030   0.475
 6702SOL     OW21004   2.914   1.900   1.185
 6702SOL    HW121005   2.899   1.971   1.116
 6702SOL    HW221006   2.895   1.811   1.145
 6703SOL     OW21007   0.319   1.674   6.866
 6703SOL    HW121008   0.237   1.728   6.884
 6703SOL    HW221009   0.296   1.596   6.807
 6704SOL     OW21010   5.500   1.895   2.411
 6704SOL    HW121011   5.508   1.928   2.317
 6704SOL    HW221012   5.517   1.796   2.413
 6705SOL     OW21013   5.695   1.702   6.932
 6705SOL    HW121014   5.697   1.763   7.012
 6705SOL    HW221015   5.775   1.720   6.875
 6706SOL     OW21016   0.374   4.459   6.237
 6706SOL    HW121017   0.294   4.515   6.214
 6706SOL    HW221018   0.444   4.471   6.168
 6707SOL     OW21019   1.400   6.151   2.586
 6707SOL    HW121020   1.451   6.122   2.506
 6707SOL    HW221021   1.373   6.071   2.639
 6708SOL     OW21022   2.061   6.204   1.519
 6708SOL    HW121023   2.135   6.232   1.580
 6708SOL    HW221024   1.989   6.159   1.571
 6709SOL     OW21025   4.578   1.376   2.769
 6709SOL    HW121026   4.484   1.357   2.799
 6709SOL    HW221027   4.586   1.358   2.671
 6710SOL     OW21028   3.393   2.369   0.528
 6710SOL    HW121029   3.398   2.463   0.564
 6710SOL    HW221030   3.413   2.370   0.430
 6711SOL     OW21031   3.830   4.357   0.487
 6711SOL    HW121032   3.739   4.358   0.444
 6711SOL    HW221033   3.869   4.265   0.481
 6712SOL     OW21034   4.029   5.563   0.159
 6712SOL    HW121035   3.991   5.626   0.227
 6712SOL    HW221036   3.970   5.563   0.078
 6713SOL     OW21037   1.957   2.074   2.060
 6713SOL    HW121038   1.968   2.032   2.150
 6713SOL    HW221039   2.040   2.124   2.036
 6714SOL     OW21040   6.022   0.947   4.360
 6714SOL    HW121041   6.043   0.967   4.456
 6714SOL    HW221042   5.924   0.935   4.350
 6715SOL     OW21043   0.446   1.379   0.968
 6715SOL    HW121044   0.520   1.323   0.930
 6715SOL    HW221045   0.368   1.378   0.906
 6716SOL     OW21046   2.189   6.244   0.849
 6716SOL    HW121047   2.107   6.294   0.821
 6716SOL    HW221048   2.270   6.296   0.823
 6717SOL     OW21049   3.463   1.690   6.901
 6717SOL    HW121050   3.364   1.677   6.913
 6717SOL    HW221051   3.492   1.651   6.814
 6718SOL     OW21052   3.171   0.129   0.445
 6718SOL    HW121053   3.148   0.167   0.355
 6718SOL    HW221054   3.195   0.203   0.508
 6719SOL     OW21055   0.186   0.050   5.390
 6719SOL    HW121056   0.124   7.003   5.349
 6719SOL    HW221057   0.148   0.142   5.378
 6720SOL     OW21058   2.073   4.744   1.767
 6720SOL    HW121059   2.004   4.688   1.721
 6720SOL    HW221060   2.101   4.700   1.852
 6721SOL     OW21061   5.632   6.023   3.813
 6721SOL    HW121062   5.638   6.100   3.750
 6721SOL    HW221063   5.535   5.999   3.827
 6722SOL     OW21064   4.440   3.361   6.467
 6722SOL    HW121065   4.380   3.433   6.502
 6722SOL    HW221066   4.468   3.383   6.374
 6723SOL     OW21067   4.143   6.092   2.239
 6723SOL    HW121068   4.156   6.189   2.216
 6723SOL    HW221069   4.048   6.078   2.269
 6724SOL     OW21070   3.265   5.160   5.215
 6724SOL    HW121071   3.221   5.147   5.126
 6724SOL    HW221072   3.361   5.184   5.202
 6725SOL     OW21073   0.266   4.315   2.463
 6725SOL    HW121074   0.185   4.312   2.404
 6725SOL    HW221075   0.317   4.399   2.446
 6726SOL     OW21076   2.569   2.237   3.119
 6726SOL    HW121077   2.622   2.156   3.146
 6726SOL    HW221078   2.569   2.303   3.194
 6727SOL     OW21079   3.902   3.873   6.823
 6727SOL    HW121080   3.986   3.890   6.875
 6727SOL    HW221081   3.825   3.917   6.870
 6728SOL     OW21082   4.373   1.587   3.894
 6728SOL    HW121083   4.409   1.671   3.852
 6728SOL    HW221084   4.348   1.522   3.823
 6729SOL     OW21085   5.536   0.400   2.259
 6729SOL    HW121086   5.510   0.442   2.172
 6729SOL    HW221087   5.534   0.470   2.331
 6730SOL     OW21088   2.199   0.897   0.791
 6730SOL    HW121089   2.208   0.823   0.725
 6730SOL    HW221090   2.247   0.978   0.757
 6731SOL     OW21091   2.700   4.706   1.811
 6731SOL    HW121092   2.785   4.678   1.857
 6731SOL    HW221093   2.661   4.785   1.858
 6732SOL     OW21094   2.306   4.754   1.147
 6732SOL    HW121095   2.229   4.801   1.190
 6732SOL    HW221096   2.336   4.805   1.067
 6733SOL     OW21097   5.219   6.009   5.454
 6733SOL    HW121098   5.235   5.919   5.495
 6733SOL    HW221099   5.154   6.059   5.511
 6734SOL     OW21100   2.439   3.449   5.620
 6734SOL    HW121101   2.462   3.493   5.533
 6734SOL    HW221102   2.463   3.352   5.615
 6735SOL     OW21103   6.958   5.417   5.802
 6735SOL    HW121104   6.902   5.374   5.731
 6735SOL    HW221105   6.928   5.386   5.892
 6736SOL     OW21106   2.086   3.715   2.554
 6736SOL    HW121107   2.096   3.801   2.504
 6736SOL    HW221108   2.140   3.644   2.509
 6737SOL     OW21109   2.173   1.074   1.383
 6737SOL    HW121110   2.147   0.999   1.443
 6737SOL    HW221111   2.098   1.095   1.320
 6738SOL     OW21112   3.168   1.580   2.155
 6738SOL    HW121113   3.266   1.561   2.150
 6738SOL    HW221114   3.123   1.509   2.209
 6739SOL     OW21115   3.686   6.017   4.778
 6739SOL    HW121116   3.619   6.062   4.719
 6739SOL    HW221117   3.655   6.022   4.873
 6740SOL     OW21118   6.766   2.154   4.115
 6740SOL    HW121119   6.685   2.211   4.100
 6740SOL    HW221120   6.847   2.213   4.124
 6741SOL     OW21121   6.371   0.196   6.460
 6741SOL    HW121122   6.360   0.096   6.465
 6741SOL    HW221123   6.304   0.240   6.519
 6742SOL     OW21124   6.187   5.958   6.131
 6742SOL    HW121125   6.262   5.917   6.182
 6742SOL    HW221126   6.222   6.031   6.072
 6743SOL     OW21127   4.706   2.909   0.834
 6743SOL    HW121128   4.659   2.826   0.864
 6743SOL    HW221129   4.750   2.952   0.912
 6744SOL     OW21130   4.925   5.146   5.684
 6744SOL    HW121131   4.938   5.090   5.602
 6744SOL    HW221132   4.846   5.111   5.735
 6745SOL     OW21133   0.016   4.377   3.570
 6745SOL    HW121134   7.002   4.471   3.565
 6745SOL    HW221135   7.011   4.328   3.486
 6746SOL     OW21136   0.530   1.623   1.125
 6746SOL    HW121137   0.508   1.526   1.125
 6746SOL    HW221138   0.618   1.638   1.170
 6747SOL     OW21139   5.771   6.566   5.999
 6747SOL    HW121140   5.717   6.587   6.080
 6747SOL    HW221141   5.726   6.494   5.946
 6748SOL     OW21142   0.342   0.305   2.130
 6748SOL    HW121143   0.263   0.324   2.189
 6748SOL    HW221144   0.346   0.207   2.112
 6749SOL     OW21145   3.581   6.395   1.022
 6749SOL    HW121146   3.552   6.440   1.106
 6749SOL    HW221147   3.645   6.455   0.973
 6750SOL     OW21148   2.706   3.248   5.311
 6750SOL    HW121149   2.724   3.218   5.404
 6750SOL    HW221150   2.655   3.178   5.262
 6751SOL     OW21151   3.461   2.032   5.471
 6751SOL    HW121152   3.428   2.092   5.398
 6751SOL    HW221153   3.520   2.084   5.533
 6752SOL     OW21154   6.465   1.814   0.214
 6752SOL    HW121155   6.564   1.826   0.227
 6752SOL    HW221156   6.432   1.883   0.149
 6753SOL     OW21157   5.142   2.062   6.438
 6753SOL    HW121158   5.134   2.101   6.530
 6753SOL    HW221159   5.238   2.062   6.410
 6754SOL     OW21160   5.888   0.509   0.166
 6754SOL    HW121161   5.919   0.446   0.094
 6754SOL    HW221162   5.788   0.503   0.175
 6755SOL     OW21163   5.071   2.185   3.299
 6755SOL    HW121164   5.022   2.235   3.370
 6755SOL    HW221165   5.105   2.098   3.336
 6756SOL     OW21166   5.310   4.503   4.552
 6756SOL    HW121167   5.341   4.415   4.588
 6756SOL    HW221168   5.380   4.572   4.568
 6757SOL     OW21169   5.369   5.080   1.637
 6757SOL    HW121170   5.276   5.060   1.607
 6757SOL    HW221171   5.434   5.043   1.571
 6758SOL     OW21172   5.406   2.395   2.738
 6758SOL    HW121173   5.500   2.379   2.770
 6758SOL    HW221174   5.399   2.488   2.703
 6759SOL     OW21175   0.129   4.848   3.462
 6759SOL    HW121176   0.190   4.778   3.500
 6759SOL    HW221177   0.040   4.843   3.508
 6760SOL     OW21178   0.400   4.039   4.573
 6760SOL    HW121179   0.348   4.101   4.633
 6760SOL    HW221180   0.452   3.975   4.630
 6761SOL     OW21181   5.678   3.427   6.430
 6761SOL    HW121182   5.599   3.488   6.424
 6761SOL    HW221183   5.715   3.412   6.339
 6762SOL     OW21184   5.857   4.829   4.445
 6762SOL    HW121185   5.901   4.850   4.357
 6762SOL    HW221186   5.815   4.912   4.482
 6763SOL     OW21187   5.143   6.160   5.908
 6763SOL    HW121188   5.146   6.091   5.980
 6763SOL    HW221189   5.220   6.145   5.845
 6764SOL     OW21190   2.125   3.428   6.805
 6764SOL    HW121191   2.169   3.433   6.715
 6764SOL    HW221192   2.150   3.341   6.849
 6765SOL     OW21193   5.268   5.308   2.545
 6765SOL    HW121194   5.296   5.369   2.620
 6765SOL    HW221195   5.349   5.260   2.510
 6766SOL     OW21196   1.428   1.252   5.502
 6766SOL    HW121197   1.418   1.257   5.601
 6766SOL    HW221198   1.486   1.174   5.478
 6767SOL     OW21199   0.585   2.089   6.177
 6767SOL    HW121200   0.491   2.121   6.166
 6767SOL    HW221201   0.630   2.144   6.248
 6768SOL     OW21202   0.120   0.335   5.695
 6768SOL    HW121203   0.095   0.239   5.679
 6768SOL    HW221204   0.069   0.370   5.773
 6769SOL     OW21205   2.029   3.075   6.469
 6769SOL    HW121206   1.951   3.015   6.483
 6769SOL    HW221207   2.016   3.128   6.385
 6770SOL     OW21208   0.079   1.763   3.648
 6770SOL    HW121209   0.116   1.670   3.639
 6770SOL    HW221210   0.152   1.829   3.634
 6771SOL     OW21211   4.105   1.180   2.637
 6771SOL    HW121212   4.085   1.276   2.655
 6771SOL    HW221213   4.020   1.128   2.634
 6772SOL     OW21214   0.730   0.834   1.995
 6772SOL    HW121215   0.678   0.876   1.920
 6772SOL    HW221216   0.667   0.794   2.061
 6773SOL     OW21217   0.990   0.155   1.169
 6773SOL    HW121218   1.027   0.081   1.225
 6773SOL    HW221219   1.061   0.189   1.107
 6774SOL     OW21220   2.819   2.058   5.839
 6774SOL    HW121221   2.837   1.981   5.778
 6774SOL    HW221222   2.723   2.059   5.864
 6775SOL     OW21223   0.587   3.028   4.866
 6775SOL    HW121224   0.534   2.948   4.894
 6775SOL    HW221225   0.550   3.064   4.781
 6776SOL     OW21226   3.417   3.811   3.174
 6776SOL    HW121227   3.399   3.883   3.241
 6776SOL    HW221228   3.500   3.761   3.200
 6777SOL     OW21229   0.191   6.312   6.465
 6777SOL    HW121230   0.189   6.360   6.377
 6777SOL    HW221231   0.144   6.367   6.534
 6778SOL     OW21232   5.695   6.101   1.980
 6778SOL    HW121233   5.683   6.189   2.026
 6778SOL    HW221234   5.607   6.054   1.976
 6779SOL     OW21235   5.252   4.431   6.464
 6779SOL    HW121236   5.158   4.444   6.432
 6779SOL    HW221237   5.254   4.436   6.564
 6780SOL     OW21238   3.515   1.734   2.369
 6780SOL    HW121239   3.421   1.750   2.340
 6780SOL    HW221240   3.572   1.811   2.341
 6781SOL     OW21241   5.951   2.205   3.155
 6781SOL    HW121242   6.000   2.254   3.228
 6781SOL    HW221243   5.874   2.155   3.195
 6782SOL     OW21244   6.813   1.962   3.177
 6782SOL    HW121245   6.723   1.919   3.178
 6782SOL    HW221246   6.828   2.010   3.264
 6783SOL     OW21247   0.456   5.824   6.318
 6783SOL    HW121248   0.410   5.863   6.398
 6783SOL    HW221249   0.400   5.838   6.237
 6784SOL     OW21250   1.470   4.133   1.367
 6784SOL    HW121251   1.527   4.051   1.375
 6784SOL    HW221252   1.437   4.160   1.458
 6785SOL     OW21253   5.605   5.130   4.131
 6785SOL    HW121254   5.620   5.200   4.201
 6785SOL    HW221255   5.689   5.118   4.079
 6786SOL     OW21256   5.781   2.068   5.665
 6786SOL    HW121257   5.735   2.074   5.576
 6786SOL    HW221258   5.726   2.014   5.728
 6787SOL     OW21259   3.017   2.015   0.543
 6787SOL    HW121260   2.917   2.015   0.549
 6787SOL    HW221261   3.049   1.921   0.528
 6788SOL     OW21262   0.525   4.230   1.454
 6788SOL    HW121263   0.598   4.194   1.511
 6788SOL    HW221264   0.549   4.220   1.357
 6789SOL     OW21265   5.739   4.505   3.155
 6789SOL    HW121266   5.740   4.417   3.109
 6789SOL    HW221267   5.820   4.514   3.213
 6790SOL     OW21268   0.635   5.079   0.005
 6790SOL    HW121269   0.542   5.103   6.996
 6790SOL    HW221270   0.660   4.990   6.985
 6791SOL     OW21271   2.909   6.683   2.943
 6791SOL    HW121272   2.974   6.625   2.992
 6791SOL    HW221273   2.912   6.661   2.846
 6792SOL     OW21274   3.886   6.914   6.010
 6792SOL    HW121275   3.950   6.965   6.067
 6792SOL    HW221276   3.808   6.885   6.065
 6793SOL     OW21277   2.019   3.468   6.136
 6793SOL    HW121278   2.061   3.557   6.122
 6793SOL    HW221279   1.950   3.452   6.065
 6794SOL     OW21280   6.151   2.358   5.279
 6794SOL    HW121281   6.247   2.379   5.298
 6794SOL    HW221282   6.102   2.346   5.365
 6795SOL     OW21283   0.939   0.954   1.509
 6795SOL    HW121284   1.003   0.925   1.581
 6795SOL    HW221285   0.984   0.948   1.420
 6796SOL     OW21286   6.518   1.639   2.738
 6796SOL    HW121287   6.456   1.713   2.761
 6796SOL    HW221288   6.586   1.628   2.810
 6797SOL     OW21289   1.162   3.220   0.727
 6797SOL    HW121290   1.255   3.252   0.746
 6797SOL    HW221291   1.099   3.298   0.730
 6798SOL     OW21292   5.142   1.108   2.079
 6798SOL    HW121293   5.143   1.185   2.142
 6798SOL    HW221294   5.234   1.068   2.073
 6799SOL     OW21295   6.149   6.821   3.216
 6799SOL    HW121296   6.160   6.908   3.264
 6799SOL    HW221297   6.079   6.830   3.145
 6800SOL     OW21298   6.409   3.158   1.330
 6800SOL    HW121299   6.469   3.079   1.341
 6800SOL    HW221300   6.315   3.128   1.316
 6801SOL     OW21301   0.901   6.423   0.049
 6801SOL    HW121302   0.817   6.380   0.017
 6801SOL    HW221303   0.927   6.383   0.137
 6802SOL     OW21304   3.121   4.497   1.669
 6802SOL    HW121305   3.160   4.581   1.707
 6802SOL    HW221306   3.042   4.469   1.723
 6803SOL     OW21307   5.022   5.694   6.156
 6803SOL    HW121308   5.037   5.738   6.068
 6803SOL    HW221309   4.962   5.752   6.212
 6804SOL     OW21310   3.523   5.188   2.490
 6804SOL    HW121311   3.438   5.240   2.499
 6804SOL    HW221312   3.589   5.221   2.557
 6805SOL     OW21313   0.370   4.350   4.380
 6805SOL    HW121314   0.402   4.397   4.462
 6805SOL    HW221315   0.428   4.271   4.362
 6806SOL     OW21316   6.032   3.153   1.617
 6806SOL    HW121317   6.069   3.060   1.617
 6806SOL    HW221318   6.080   3.208   1.685
 6807SOL     OW21319   3.041   4.007   2.223
 6807SOL    HW121320   3.032   3.935   2.154
 6807SOL    HW221321   2.963   4.069   2.218
 6808SOL     OW21322   3.475   0.643   3.926
 6808SOL    HW121323   3.514   0.685   3.843
 6808SOL    HW221324   3.442   0.715   3.987
 6809SOL     OW21325   6.161   3.052   6.660
 6809SOL    HW121326   6.098   2.978   6.681
 6809SOL    HW221327   6.110   3.131   6.627
 6810SOL     OW21328   3.113   0.579   4.724
 6810SOL    HW121329   3.028   0.592   4.775
 6810SOL    HW221330   3.190   0.607   4.781
 6811SOL     OW21331   6.260   0.628   0.862
 6811SOL    HW121332   6.275   0.544   0.913
 6811SOL    HW221333   6.294   0.706   0.915
 6812SOL     OW21334   3.310   4.773   5.209
 6812SOL    HW121335   3.212   4.772   5.188
 6812SOL    HW221336   3.333   4.690   5.261
 6813SOL     OW21337   0.021   3.877   2.310
 6813SOL    HW121338   6.946   3.885   2.280
 6813SOL    HW221339   0.058   3.788   2.283
 6814SOL     OW21340   5.920   1.306   0.608
 6814SOL    HW121341   6.000   1.343   0.655
 6814SOL    HW221342   5.839   1.320   0.664
 6815SOL     OW21343   0.634   5.750   6.629
 6815SOL    HW121344   0.662   5.727   6.722
 6815SOL    HW221345   0.545   5.709   6.609
 6816SOL     OW21346   6.710   0.243   4.156
 6816SOL    HW121347   6.637   0.198   4.104
 6816SOL    HW221348   6.706   0.342   4.140
 6817SOL     OW21349   4.018   1.818   1.307
 6817SOL    HW121350   4.007   1.819   1.208
 6817SOL    HW221351   4.032   1.912   1.340
 6818SOL     OW21352   1.252   6.946   4.836
 6818SOL    HW121353   1.298   6.857   4.838
 6818SOL    HW221354   1.165   6.937   4.787
 6819SOL     OW21355   4.717   4.382   1.799
 6819SOL    HW121356   4.811   4.351   1.814
 6819SOL    HW221357   4.655   4.331   1.859
 6820SOL     OW21358   2.489   4.965   1.630
 6820SOL    HW121359   2.572   4.967   1.573
 6820SOL    HW221360   2.514   4.947   1.725
 6821SOL     OW21361   3.733   2.880   5.137
 6821SOL    HW121362   3.640   2.886   5.172
 6821SOL    HW221363   3.785   2.813   5.191
 6822SOL     OW21364   5.727   3.376   5.235
 6822SOL    HW121365   5.766   3.396   5.145
 6822SOL    HW221366   5.784   3.308   5.281
 6823SOL     OW21367   0.291   3.085   5.146
 6823SOL    HW121368   0.253   2.994   5.163
 6823SOL    HW221369   0.381   3.092   5.188
 6824SOL     OW21370   0.737   6.980   5.397
 6824SOL    HW121371   0.716   6.883   5.407
 6824SOL    HW221372   0.827   6.999   5.436
 6825SOL     OW21373   4.271   4.189   1.261
 6825SOL    HW121374   4.217   4.217   1.182
 6825SOL    HW221375   4.367   4.211   1.244
 6826SOL     OW21376   6.099   6.804   3.876
 6826SOL    HW121377   6.006   6.826   3.845
 6826SOL    HW221378   6.150   6.888   3.891
 6827SOL     OW21379   4.639   5.806   4.916
 6827SOL    HW121380   4.569   5.761   4.971
 6827SOL    HW221381   4.641   5.903   4.936
 6828SOL     OW21382   3.194   2.091   2.461
 6828SOL    HW121383   3.247   2.110   2.379
 6828SOL    HW221384   3.099   2.072   2.436
 6829SOL     OW21385   3.997   6.840   2.875
 6829SOL    HW121386   4.088   6.883   2.879
 6829SOL    HW221387   3.947   6.877   2.797
 6830SOL     OW21388   4.112   4.818   2.198
 6830SOL    HW121389   4.105   4.870   2.283
 6830SOL    HW221390   4.182   4.747   2.208
 6831SOL     OW21391   1.426   1.724   6.209
 6831SOL    HW121392   1.367   1.803   6.227
 6831SOL    HW221393   1.465   1.691   6.295
 6832SOL     OW21394   2.683   2.263   6.553
 6832SOL    HW121395   2.746   2.230   6.624
 6832SOL    HW221396   2.659   2.358   6.571
 6833SOL     OW21397   3.782   5.099   6.262
 6833SOL    HW121398   3.762   5.146   6.176
 6833SOL    HW221399   3.710   5.033   6.281
 6834SOL     OW21400   6.314   6.528   6.617
 6834SOL    HW121401   6.355   6.441   6.590
 6834SOL    HW221402   6.387   6.593   6.641
 6835SOL     OW21403   2.507   0.785   4.157
 6835SOL    HW121404   2.587   0.774   4.098
 6835SOL    HW221405   2.446   0.707   4.143
 6836SOL     OW21406   1.438   5.107   6.713
 6836SOL    HW121407   1.349   5.151   6.698
 6836SOL    HW221408   1.510   5.176   6.711
 6837SOL     OW21409   5.853   0.696   2.294
 6837SOL    HW121410   5.762   0.728   2.267
 6837SOL    HW221411   5.846   0.606   2.335
 6838SOL     OW21412   2.708   3.866   5.567
 6838SOL    HW121413   2.714   3.809   5.486
 6838SOL    HW221414   2.739   3.958   5.546
 6839SOL     OW21415   6.191   3.209   4.459
 6839SOL    HW121416   6.130   3.255   4.394
 6839SOL    HW221417   6.263   3.272   4.488
 6840SOL     OW21418   2.806   6.598   4.716
 6840SOL    HW121419   2.791   6.671   4.782
 6840SOL    HW221420   2.871   6.532   4.753
 6841SOL     OW21421   4.837   6.940   1.061
 6841SOL    HW121422   4.820   7.001   0.984
 6841SOL    HW221423   4.827   6.845   1.031
 6842SOL     OW21424   0.452   3.862   4.798
 6842SOL    HW121425   0.397   3.784   4.827
 6842SOL    HW221426   0.481   3.914   4.879
 6843SOL     OW21427   4.311   2.215   1.389
 6843SOL    HW121428   4.300   2.125   1.432
 6843SOL    HW221429   4.302   2.287   1.458
 6844SOL     OW21430   3.580   5.506   4.449
 6844SOL    HW121431   3.559   5.413   4.481
 6844SOL    HW221432   3.532   5.572   4.508
 6845SOL     OW21433   3.796   4.552   1.103
 6845SOL    HW121434   3.876   4.507   1.063
 6845SOL    HW221435   3.822   4.642   1.139
 6846SOL     OW21436   3.911   2.982   2.446
 6846SOL    HW121437   3.851   2.903   2.436
 6846SOL    HW221438   3.922   3.028   2.358
 6847SOL     OW21439   6.375   3.912   1.446
 6847SOL    HW121440   6.295   3.871   1.402
 6847SOL    HW221441   6.455   3.856   1.429
 6848SOL     OW21442   6.383   6.539   3.883
 6848SOL    HW121443   6.321   6.461   3.880
 6848SOL    HW221444   6.476   6.508   3.863
 6849SOL     OW21445   3.301   6.620   4.417
 6849SOL    HW121446   3.315   6.540   4.359
 6849SOL    HW221447   3.213   6.663   4.396
 6850SOL     OW21448   5.435   3.234   1.002
 6850SOL    HW121449   5.489   3.298   1.057
 6850SOL    HW221450   5.372   3.184   1.061
 6851SOL     OW21451   1.646   5.966   5.161
 6851SOL    HW121452   1.567   5.989   5.106
 6851SOL    HW221453   1.694   5.889   5.121
 6852SOL     OW21454   0.369   4.861   1.742
 6852SOL    HW121455   0.286   4.810   1.766
 6852SOL    HW221456   0.363   4.890   1.646
 6853SOL     OW21457   6.574   3.678   5.165
 6853SOL    HW121458   6.553   3.612   5.093
 6853SOL    HW221459   6.523   3.653   5.248
 6854SOL     OW21460   0.531   1.820   6.727
 6854SOL    HW121461   0.599   1.859   6.789
 6854SOL    HW221462   0.464   1.768   6.780
 6855SOL     OW21463   3.201   6.079   1.819
 6855SOL    HW121464   3.122   6.109   1.873
 6855SOL    HW221465   3.279   6.065   1.879
 6856SOL     OW21466   0.396   4.415   5.100
 6856SOL    HW121467   0.380   4.513   5.089
 6856SOL    HW221468   0.477   4.401   5.157
 6857SOL     OW21469   4.469   1.521   5.856
 6857SOL    HW121470   4.434   1.431   5.831
 6857SOL    HW221471   4.444   1.588   5.786
 6858SOL     OW21472   3.747   2.601   5.333
 6858SOL    HW121473   3.831   2.578   5.383
 6858SOL    HW221474   3.687   2.522   5.331
 6859SOL     OW21475   3.617   0.556   0.182
 6859SOL    HW121476   3.596   0.653   0.190
 6859SOL    HW221477   3.606   0.512   0.271
 6860SOL     OW21478   4.908   4.475   0.028
 6860SOL    HW121479   4.844   4.450   0.101
 6860SOL    HW221480   4.930   4.393   6.994
 6861SOL     OW21481   5.594   4.405   0.472
 6861SOL    HW121482   5.570   4.458   0.391
 6861SOL    HW221483   5.531   4.328   0.481
 6862SOL     OW21484   3.413   5.739   3.619
 6862SOL    HW121485   3.480   5.766   3.688
 6862SOL    HW221486   3.460   5.695   3.542
 6863SOL     OW21487   0.837   2.798   3.986
 6863SOL    HW121488   0.771   2.756   3.924
 6863SOL    HW221489   0.927   2.757   3.971
 6864SOL     OW21490   4.274   5.517   5.611
 6864SOL    HW121491   4.216   5.598   5.606
 6864SOL    HW221492   4.370   5.544   5.608
 6865SOL     OW21493   5.831   3.411   4.530
 6865SOL    HW121494   5.884   3.495   4.540
 6865SOL    HW221495   5.734   3.433   4.520
 6866SOL     OW21496   0.308   3.698   2.140
 6866SOL    HW121497   0.324   3.599   2.135
 6866SOL    HW221498   0.346   3.734   2.225
 6867SOL     OW21499   2.341   4.738   2.304
 6867SOL    HW121500   2.387   4.803   2.365
 6867SOL    HW221501   2.243   4.739   2.322
 6868SOL     OW21502   1.908   5.125   4.843
 6868SOL    HW121503   1.845   5.088   4.912
 6868SOL    HW221504   1.863   5.199   4.793
 6869SOL     OW21505   6.225   3.636   4.912
 6869SOL    HW121506   6.286   3.708   4.877
 6869SOL    HW221507   6.186   3.665   4.999
 6870SOL     OW21508   5.398   3.716   2.765
 6870SOL    HW121509   5.427   3.697   2.671
 6870SOL    HW221510   5.358   3.808   2.769
 6871SOL     OW21511   5.120   0.795   1.849
 6871SOL    HW121512   5.076   0.728   1.908
 6871SOL    HW221513   5.076   0.884   1.861
 6872SOL     OW21514   3.057   3.672   6.997
 6872SOL    HW121515   3.059   3.719   6.909
 6872SOL    HW221516   3.001   3.590   6.989
 6873SOL     OW21517   5.292   4.389   5.939
 6873SOL    HW121518   5.339   4.476   5.928
 6873SOL    HW221519   5.344   4.317   5.894
 6874SOL     OW21520   0.637   2.687   5.456
 6874SOL    HW121521   0.620   2.631   5.375
 6874SOL    HW221522   0.722   2.738   5.444
 6875SOL     OW21523   2.734   1.628   4.297
 6875SOL    HW121524   2.807   1.686   4.334
 6875SOL    HW221525   2.760   1.595   4.207
 6876SOL     OW21526   3.399   6.357   5.939
 6876SOL    HW121527   3.305   6.337   5.912
 6876SOL    HW221528   3.438   6.277   5.986
 6877SOL     OW21529   2.535   3.999   6.863
 6877SOL    HW121530   2.481   3.915   6.877
 6877SOL    HW221531   2.474   4.074   6.838
 6878SOL     OW21532   1.601   1.869   4.881
 6878SOL    HW121533   1.658   1.801   4.927
 6878SOL    HW221534   1.523   1.893   4.940
 6879SOL     OW21535   0.885   1.491   6.049
 6879SOL    HW121536   0.871   1.393   6.057
 6879SOL    HW221537   0.838   1.538   6.125
 6880SOL     OW21538   1.770   4.582   4.892
 6880SOL    HW121539   1.703   4.611   4.961
 6880SOL    HW221540   1.861   4.582   4.933
 6881SOL     OW21541   6.705   4.871   1.761
 6881SOL    HW121542   6.770   4.941   1.730
 6881SOL    HW221543   6.641   4.850   1.687
 6882SOL     OW21544   1.767   0.306   5.405
 6882SOL    HW121545   1.792   0.391   5.359
 6882SOL    HW221546   1.669   0.290   5.397
 6883SOL     OW21547   3.447   5.647   1.493
 6883SOL    HW121548   3.392   5.730   1.481
 6883SOL    HW221549   3.509   5.636   1.416
 6884SOL     OW21550   2.911   4.815   3.029
 6884SOL    HW121551   2.938   4.831   3.124
 6884SOL    HW221552   2.993   4.817   2.971
 6885SOL     OW21553   3.362   5.549   5.007
 6885SOL    HW121554   3.428   5.588   5.072
 6885SOL    HW221555   3.289   5.503   5.057
 6886SOL     OW21556   5.176   2.257   2.801
 6886SOL    HW121557   5.260   2.311   2.792
 6886SOL    HW221558   5.124   2.262   2.716
 6887SOL     OW21559   5.283   0.450   4.538
 6887SOL    HW121560   5.274   0.550   4.547
 6887SOL    HW221561   5.344   0.417   4.610
 6888SOL     OW21562   5.261   5.962   4.828
 6888SOL    HW121563   5.311   6.011   4.899
 6888SOL    HW221564   5.230   5.873   4.863
 6889SOL     OW21565   1.813   4.087   5.733
 6889SOL    HW121566   1.753   4.167   5.738
 6889SOL    HW221567   1.875   4.098   5.655
 6890SOL     OW21568   2.243   0.673   6.948
 6890SOL    HW121569   2.254   0.634   6.856
 6890SOL    HW221570   2.332   0.695   6.986
 6891SOL     OW21571   3.149   4.896   4.617
 6891SOL    HW121572   3.190   4.920   4.529
 6891SOL    HW221573   3.221   4.889   4.686
 6892SOL     OW21574   3.963   1.076   3.849
 6892SOL    HW121575   4.054   1.117   3.856
 6892SOL    HW221576   3.949   1.042   3.756
 6893SOL     OW21577   6.113   0.180   2.345
 6893SOL    HW121578   6.203   0.147   2.317
 6893SOL    HW221579   6.088   0.260   2.291
 6894SOL     OW21580   6.182   4.330   5.960
 6894SOL    HW121581   6.147   4.237   5.950
 6894SOL    HW221582   6.133   4.378   6.033
 6895SOL     OW21583   4.087   5.085   6.473
 6895SOL    HW121584   3.988   5.081   6.462
 6895SOL    HW221585   4.128   4.999   6.444
 6896SOL     OW21586   4.487   6.583   3.419
 6896SOL    HW121587   4.467   6.666   3.471
 6896SOL    HW221588   4.559   6.531   3.465
 6897SOL     OW21589   3.581   2.055   0.461
 6897SOL    HW121590   3.586   2.154   0.447
 6897SOL    HW221591   3.491   2.031   0.498
 6898SOL     OW21592   4.206   1.458   2.622
 6898SOL    HW121593   4.266   1.485   2.546
 6898SOL    HW221594   4.115   1.495   2.608
 6899SOL     OW21595   5.426   6.544   0.209
 6899SOL    HW121596   5.348   6.588   0.163
 6899SOL    HW221597   5.471   6.482   0.146
 6900SOL     OW21598   4.022   1.643   4.993
 6900SOL    HW121599   3.996   1.564   5.049
 6900SOL    HW221600   3.947   1.668   4.932
 6901SOL     OW21601   1.383   0.564   6.831
 6901SOL    HW121602   1.359   0.658   6.808
 6901SOL    HW221603   1.355   0.545   6.925
 6902SOL     OW21604   6.517   5.331   1.496
 6902SOL    HW121605   6.608   5.298   1.471
 6902SOL    HW221606   6.500   5.419   1.450
 6903SOL     OW21607   4.383   3.620   1.126
 6903SOL    HW121608   4.354   3.617   1.030
 6903SOL    HW221609   4.419   3.710   1.148
 6904SOL     OW21610   7.008   1.559   2.943
 6904SOL    HW121611   6.979   1.495   3.014
 6904SOL    HW221612   0.083   1.588   2.960
 6905SOL     OW21613   4.540   4.929   0.987
 6905SOL    HW121614   4.582   5.019   0.995
 6905SOL    HW221615   4.538   4.885   1.076
 6906SOL     OW21616   4.299   6.193   3.886
 6906SOL    HW121617   4.205   6.226   3.890
 6906SOL    HW221618   4.322   6.170   3.791
 6907SOL     OW21619   3.733   1.591   1.601
 6907SOL    HW121620   3.713   1.504   1.555
 6907SOL    HW221621   3.674   1.663   1.565
 6908SOL     OW21622   0.343   6.782   6.591
 6908SOL    HW121623   0.359   6.876   6.621
 6908SOL    HW221624   0.338   6.779   6.492
 6909SOL     OW21625   4.821   3.133   6.892
 6909SOL    HW121626   4.749   3.183   6.843
 6909SOL    HW221627   4.846   3.182   6.975
 6910SOL     OW21628   6.603   1.589   2.148
 6910SOL    HW121629   6.599   1.579   2.247
 6910SOL    HW221630   6.630   1.502   2.107
 6911SOL     OW21631   4.001   0.834   5.254
 6911SOL    HW121632   4.084   0.799   5.211
 6911SOL    HW221633   3.921   0.803   5.203
 6912SOL     OW21634   4.741   5.179   0.756
 6912SOL    HW121635   4.833   5.142   0.741
 6912SOL    HW221636   4.739   5.228   0.843
 6913SOL     OW21637   5.125   5.645   5.413
 6913SOL    HW121638   5.028   5.653   5.393
 6913SOL    HW221639   5.150   5.711   5.484
 6914SOL     OW21640   6.245   5.089   0.614
 6914SOL    HW121641   6.201   5.003   0.587
 6914SOL    HW221642   6.221   5.160   0.547
 6915SOL     OW21643   0.775   5.529   1.026
 6915SOL    HW121644   0.757   5.627   1.018
 6915SOL    HW221645   0.736   5.481   0.947
 6916SOL     OW21646   0.249   1.316   6.808
 6916SOL    HW121647   0.208   1.358   6.889
 6916SOL    HW221648   0.331   1.366   6.781
 6917SOL     OW21649   4.615   0.006   6.778
 6917SOL    HW121650   4.680   6.997   6.848
 6917SOL    HW221651   4.560   0.082   6.812
 6918SOL     OW21652   2.268   2.912   3.621
 6918SOL    HW121653   2.181   2.916   3.571
 6918SOL    HW221654   2.340   2.880   3.559
 6919SOL     OW21655   1.608   6.549   3.606
 6919SOL    HW121656   1.595   6.488   3.528
 6919SOL    HW221657   1.520   6.566   3.650
 6920SOL     OW21658   4.812   6.282   4.984
 6920SOL    HW121659   4.786   6.278   4.888
 6920SOL    HW221660   4.827   6.377   5.011
 6921SOL     OW21661   0.075   6.985   3.026
 6921SOL    HW121662   0.076   6.995   3.126
 6921SOL    HW221663   0.033   6.898   3.002
 6922SOL     OW21664   1.617   5.390   0.048
 6922SOL    HW121665   1.581   5.445   0.123
 6922SOL    HW221666   1.558   5.399   6.988
 6923SOL     OW21667   4.690   6.610   4.582
 6923SOL    HW121668   4.714   6.518   4.548
 6923SOL    HW221669   4.613   6.602   4.646
 6924SOL     OW21670   6.947   6.297   1.294
 6924SOL    HW121671   6.920   6.280   1.388
 6924SOL    HW221672   6.914   6.388   1.266
 6925SOL     OW21673   5.884   5.718   2.683
 6925SOL    HW121674   5.895   5.783   2.757
 6925SOL    HW221675   5.796   5.732   2.638
 6926SOL     OW21676   2.900   3.709   4.752
 6926SOL    HW121677   2.801   3.719   4.762
 6926SOL    HW221678   2.946   3.786   4.797
 6927SOL     OW21679   4.673   3.696   6.281
 6927SOL    HW121680   4.692   3.613   6.229
 6927SOL    HW221681   4.692   3.777   6.225
 6928SOL     OW21682   5.994   6.812   6.603
 6928SOL    HW121683   6.078   6.782   6.648
 6928SOL    HW221684   5.928   6.737   6.601
 6929SOL     OW21685   3.305   5.399   0.136
 6929SOL    HW121686   3.261   5.470   0.081
 6929SOL    HW221687   3.376   5.354   0.081
 6930SOL     OW21688   1.300   6.278   3.492
 6930SOL    HW121689   1.306   6.179   3.502
 6930SOL    HW221690   1.342   6.322   3.571
 6931SOL     OW21691   1.187   1.236   1.446
 6931SOL    HW121692   1.093   1.201   1.442
 6931SOL    HW221693   1.189   1.318   1.504
 6932SOL     OW21694   3.002   2.455   0.665
 6932SOL    HW121695   3.022   2.552   0.677
 6932SOL    HW221696   2.958   2.441   0.576
 6933SOL     OW21697   3.849   6.719   6.711
 6933SOL    HW121698   3.888   6.777   6.639
 6933SOL    HW221699   3.902   6.731   6.795
 6934SOL     OW21700   6.069   3.706   5.965
 6934SOL    HW121701   6.155   3.733   5.923
 6934SOL    HW221702   6.026   3.785   6.008
 6935SOL     OW21703   4.554   5.663   3.454
 6935SOL    HW121704   4.584   5.572   3.427
 6935SOL    HW221705   4.527   5.663   3.550
 6936SOL     OW21706   1.847   4.231   1.592
 6936SOL    HW121707   1.784   4.241   1.669
 6936SOL    HW221708   1.820   4.152   1.537
 6937SOL     OW21709   4.244   6.857   5.811
 6937SOL    HW121710   4.144   6.858   5.812
 6937SOL    HW221711   4.277   6.899   5.726
 6938SOL     OW21712   5.115   2.035   4.691
 6938SOL    HW121713   5.198   2.091   4.685
 6938SOL    HW221714   5.088   2.025   4.787
 6939SOL     OW21715   0.837   4.849   2.713
 6939SOL    HW121716   0.894   4.768   2.714
 6939SOL    HW221717   0.762   4.837   2.648
 6940SOL     OW21718   4.168   0.784   5.533
 6940SOL    HW121719   4.251   0.838   5.517
 6940SOL    HW221720   4.114   0.781   5.448
 6941SOL     OW21721   3.930   3.043   3.200
 6941SOL    HW121722   3.905   2.993   3.117
 6941SOL    HW221723   3.970   3.131   3.175
 6942SOL     OW21724   6.830   1.417   0.005
 6942SOL    HW121725   6.742   1.376   0.028
 6942SOL    HW221726   6.843   1.500   0.060
 6943SOL     OW21727   4.777   5.966   6.506
 6943SOL    HW121728   4.860   5.965   6.562
 6943SOL    HW221729   4.714   5.896   6.539
 6944SOL     OW21730   1.452   6.518   6.297
 6944SOL    HW121731   1.400   6.441   6.260
 6944SOL    HW221732   1.406   6.552   6.380
 6945SOL     OW21733   5.283   2.365   5.780
 6945SOL    HW121734   5.286   2.265   5.770
 6945SOL    HW221735   5.337   2.392   5.860
 6946SOL     OW21736   6.301   4.220   3.472
 6946SOL    HW121737   6.321   4.129   3.510
 6946SOL    HW221738   6.269   4.280   3.546
 6947SOL     OW21739   3.779   6.768   3.020
 6947SOL    HW121740   3.782   6.779   3.120
 6947SOL    HW221741   3.865   6.800   2.981
 6948SOL     OW21742   3.918   1.748   4.703
 6948SOL    HW121743   3.984   1.769   4.631
 6948SOL    HW221744   3.856   1.677   4.671
 6949SOL     OW21745   5.155   0.465   2.763
 6949SOL    HW121746   5.189   0.390   2.706
 6949SOL    HW221747   5.060   0.447   2.788
 6950SOL     OW21748   2.072   0.796   3.504
 6950SOL    HW121749   2.140   0.825   3.436
 6950SOL    HW221750   2.025   0.714   3.471
 6951SOL     OW21751   5.912   5.212   5.883
 6951SOL    HW121752   5.889   5.182   5.790
 6951SOL    HW221753   5.867   5.300   5.901
 6952SOL     OW21754   0.649   4.854   4.740
 6952SOL    HW121755   0.613   4.941   4.704
 6952SOL    HW221756   0.689   4.870   4.830
 6953SOL     OW21757   5.211   1.544   4.825
 6953SOL    HW121758   5.211   1.561   4.726
 6953SOL    HW221759   5.150   1.467   4.846
 6954SOL     OW21760   0.989   4.535   3.070
 6954SOL    HW121761   0.897   4.569   3.088
 6954SOL    HW221762   0.995   4.438   3.096
 6955SOL     OW21763   6.328   5.354   2.068
 6955SOL    HW121764   6.265   5.401   2.130
 6955SOL    HW221765   6.415   5.403   2.065
 6956SOL     OW21766   3.272   4.714   1.761
 6956SOL    HW121767   3.361   4.678   1.790
 6956SOL    HW221768   3.235   4.773   1.832
 6957SOL     OW21769   0.737   3.829   0.371
 6957SOL    HW121770   0.781   3.850   0.458
 6957SOL    HW221771   0.797   3.855   0.295
 6958SOL     OW21772   2.264   3.658   6.428
 6958SOL    HW121773   2.206   3.713   6.369
 6958SOL    HW221774   2.356   3.697   6.431
 6959SOL     OW21775   3.105   0.917   4.343
 6959SOL    HW121776   3.101   0.882   4.437
 6959SOL    HW221777   3.182   0.981   4.334
 6960SOL     OW21778   7.014   5.124   7.002
 6960SOL    HW121779   6.958   5.042   7.011
 6960SOL    HW221780   0.091   5.099   7.004
 6961SOL     OW21781   6.748   1.615   2.903
 6961SOL    HW121782   6.840   1.637   2.935
 6961SOL    HW221783   6.751   1.530   2.849
 6962SOL     OW21784   4.584   3.595   0.231
 6962SOL    HW121785   4.597   3.526   0.160
 6962SOL    HW221786   4.510   3.566   0.293
 6963SOL     OW21787   6.157   5.625   1.971
 6963SOL    HW121788   6.221   5.702   1.963
 6963SOL    HW221789   6.146   5.602   2.067
 6964SOL     OW21790   3.805   6.540   5.227
 6964SOL    HW121791   3.866   6.466   5.255
 6964SOL    HW221792   3.767   6.585   5.308
 6965SOL     OW21793   6.901   3.012   6.140
 6965SOL    HW121794   6.888   3.039   6.235
 6965SOL    HW221795   6.868   3.085   6.080
 6966SOL     OW21796   4.752   2.736   3.842
 6966SOL    HW121797   4.723   2.713   3.749
 6966SOL    HW221798   4.775   2.833   3.847
 6967SOL     OW21799   2.213   0.969   6.404
 6967SOL    HW121800   2.148   0.944   6.476
 6967SOL    HW221801   2.300   0.921   6.420
 6968SOL     OW21802   5.041   0.251   2.185
 6968SOL    HW121803   4.958   0.257   2.129
 6968SOL    HW221804   5.038   0.321   2.256
 6969SOL     OW21805   3.449   1.733   1.550
 6969SOL    HW121806   3.413   1.823   1.571
 6969SOL    HW221807   3.452   1.720   1.451
 6970SOL     OW21808   4.828   3.569   0.440
 6970SOL    HW121809   4.740   3.579   0.395
 6970SOL    HW221810   4.816   3.516   0.524
 6971SOL     OW21811   5.496   0.635   2.413
 6971SOL    HW121812   5.541   0.716   2.375
 6971SOL    HW221813   5.411   0.662   2.458
 6972SOL     OW21814   5.499   4.585   4.823
 6972SOL    HW121815   5.586   4.537   4.828
 6972SOL    HW221816   5.492   4.632   4.735
 6973SOL     OW21817   2.168   4.569   3.718
 6973SOL    HW121818   2.139   4.603   3.629
 6973SOL    HW221819   2.159   4.469   3.720
 6974SOL     OW21820   3.474   3.894   4.959
 6974SOL    HW121821   3.408   3.861   4.892
 6974SOL    HW221822   3.567   3.880   4.924
 6975SOL     OW21823   3.937   1.505   5.722
 6975SOL    HW121824   3.939   1.411   5.756
 6975SOL    HW221825   4.001   1.561   5.775
 6976SOL     OW21826   2.150   5.109   6.655
 6976SOL    HW121827   2.223   5.081   6.593
 6976SOL    HW221828   2.189   5.132   6.744
 6977SOL     OW21829   3.714   2.059   2.854
 6977SOL    HW121830   3.661   2.069   2.770
 6977SOL    HW221831   3.795   2.117   2.851
 6978SOL     OW21832   6.187   0.588   3.297
 6978SOL    HW121833   6.195   0.523   3.372
 6978SOL    HW221834   6.225   0.548   3.214
 6979SOL     OW21835   0.641   4.875   2.900
 6979SOL    HW121836   0.712   4.892   2.831
 6979SOL    HW221837   0.573   4.948   2.896
 6980SOL     OW21838   3.455   0.791   4.815
 6980SOL    HW121839   3.542   0.839   4.833
 6980SOL    HW221840   3.463   0.696   4.843
 6981SOL     OW21841   2.617   4.640   6.509
 6981SOL    HW121842   2.546   4.700   6.544
 6981SOL    HW221843   2.643   4.669   6.417
 6982SOL     OW21844   0.247   6.666   4.786
 6982SOL    HW121845   0.234   6.711   4.698
 6982SOL    HW221846   0.297   6.581   4.772
 6983SOL     OW21847   6.099   0.803   4.118
 6983SOL    HW121848   6.037   0.731   4.149
 6983SOL    HW221849   6.096   0.879   4.183
 6984SOL     OW21850   2.005   1.463   6.393
 6984SOL    HW121851   2.027   1.376   6.436
 6984SOL    HW221852   1.934   1.510   6.445
 6985SOL     OW21853   5.050   6.158   1.847
 6985SOL    HW121854   5.136   6.115   1.874
 6985SOL    HW221855   5.070   6.241   1.794
 6986SOL     OW21856   1.956   6.744   4.896
 6986SOL    HW121857   1.939   6.669   4.959
 6986SOL    HW221858   2.011   6.711   4.819
 6987SOL     OW21859   0.613   3.350   6.444
 6987SOL    HW121860   0.543   3.421   6.438
 6987SOL    HW221861   0.702   3.389   6.422
 6988SOL     OW21862   5.037   0.437   4.107
 6988SOL    HW121863   5.075   0.481   4.026
 6988SOL    HW221864   5.038   0.501   4.183
 6989SOL     OW21865   1.781   2.709   4.137
 6989SOL    HW121866   1.770   2.618   4.176
 6989SOL    HW221867   1.848   2.706   4.063
 6990SOL     OW21868   4.157   3.260   0.261
 6990SOL    HW121869   4.220   3.245   0.338
 6990SOL    HW221870   4.206   3.305   0.186
 6991SOL     OW21871   3.885   4.441   5.495
 6991SOL    HW121872   3.977   4.410   5.471
 6991SOL    HW221873   3.885   4.476   5.589
 6992SOL     OW21874   5.301   6.909   5.596
 6992SOL    HW121875   5.336   6.981   5.655
 6992SOL    HW221876   5.374   6.844   5.574
 6993SOL     OW21877   0.217   0.157   2.884
 6993SOL    HW121878   0.151   0.113   2.944
 6993SOL    HW221879   0.218   0.110   2.796
 6994SOL     OW21880   1.401   2.388   6.828
 6994SOL    HW121881   1.432   2.473   6.871
 6994SOL    HW221882   1.322   2.352   6.879
 6995SOL     OW21883   0.153   5.813   3.106
 6995SOL    HW121884   0.227   5.759   3.066
 6995SOL    HW221885   0.153   5.904   3.064
 6996SOL     OW21886   2.199   6.841   6.021
 6996SOL    HW121887   2.243   6.836   6.111
 6996SOL    HW221888   2.191   6.748   5.983
 6997SOL     OW21889   4.558   0.319   4.697
 6997SOL    HW121890   4.618   0.370   4.758
 6997SOL    HW221891   4.613   0.269   4.629
 6998SOL     OW21892   1.511   2.828   3.160
 6998SOL    HW121893   1.484   2.899   3.095
 6998SOL    HW221894   1.590   2.858   3.212
 6999SOL     OW21895   3.595   1.670   6.446
 6999SOL    HW121896   3.565   1.691   6.353
 6999SOL    HW221897   3.556   1.737   6.510
 7000SOL     OW21898   0.089   6.386   1.765
 7000SOL    HW121899   0.161   6.317   1.778
 7000SOL    HW221900   0.067   6.428   1.853
 7001SOL     OW21901   2.645   2.181   5.639
 7001SOL    HW121902   2.732   2.203   5.684
 7001SOL    HW221903   2.636   2.234   5.555
 7002SOL     OW21904   1.645   4.912   2.834
 7002SOL    HW121905   1.637   4.837   2.900
 7002SOL    HW221906   1.620   4.880   2.743
 7003SOL     OW21907   3.261   6.065   0.175
 7003SOL    HW121908   3.269   6.138   0.107
 7003SOL    HW221909   3.307   6.092   0.259
 7004SOL     OW21910   1.176   4.835   0.835
 7004SOL    HW121911   1.213   4.792   0.918
 7004SOL    HW221912   1.079   4.810   0.826
 7005SOL     OW21913   5.590   0.041   5.503
 7005SOL    HW121914   5.515   0.095   5.542
 7005SOL    HW221915   5.607   6.982   5.562
 7006SOL     OW21916   4.426   4.815   4.938
 7006SOL    HW121917   4.409   4.718   4.958
 7006SOL    HW221918   4.344   4.856   4.899
 7007SOL     OW21919   4.970   4.975   2.310
 7007SOL    HW121920   5.046   4.974   2.375
 7007SOL    HW221921   4.894   5.027   2.349
 7008SOL     OW21922   0.410   4.715   4.335
 7008SOL    HW121923   0.311   4.703   4.323
 7008SOL    HW221924   0.452   4.626   4.354
 7009SOL     OW21925   0.061   4.845   2.516
 7009SOL    HW121926   0.095   4.776   2.581
 7009SOL    HW221927   0.014   4.799   2.441
 7010SOL     OW21928   4.168   4.842   6.381
 7010SOL    HW121929   4.250   4.845   6.325
 7010SOL    HW221930   4.087   4.838   6.323
 7011SOL     OW21931   2.159   1.673   5.046
 7011SOL    HW121932   2.133   1.650   5.140
 7011SOL    HW221933   2.076   1.692   4.993
 7012SOL     OW21934   1.243   1.132   2.232
 7012SOL    HW121935   1.281   1.054   2.182
 7012SOL    HW221936   1.143   1.132   2.223
 7013SOL     OW21937   1.041   0.512   2.351
 7013SOL    HW121938   1.071   0.582   2.416
 7013SOL    HW221939   0.941   0.507   2.351
 7014SOL     OW21940   2.675   4.962   1.440
 7014SOL    HW121941   2.772   4.984   1.426
 7014SOL    HW221942   2.646   4.894   1.373
 7015SOL     OW21943   4.942   2.681   2.265
 7015SOL    HW121944   5.042   2.682   2.274
 7015SOL    HW221945   4.905   2.769   2.296
 7016SOL     OW21946   3.165   5.341   0.518
 7016SOL    HW121947   3.168   5.440   0.513
 7016SOL    HW221948   3.233   5.309   0.584
 7017SOL     OW21949   3.672   1.557   4.220
 7017SOL    HW121950   3.754   1.613   4.211
 7017SOL    HW221951   3.690   1.464   4.188
 7018SOL     OW21952   0.273   5.394   3.982
 7018SOL    HW121953   0.293   5.433   3.892
 7018SOL    HW221954   0.208   5.318   3.972
 7019SOL     OW21955   2.179   6.243   0.008
 7019SOL    HW121956   2.159   6.305   0.084
 7019SOL    HW221957   2.171   6.292   6.941
 7020SOL     OW21958   6.432   6.762   6.090
 7020SOL    HW121959   6.454   6.858   6.110
 7020SOL    HW221960   6.370   6.758   6.011
 7021SOL     OW21961   2.890   1.408   5.868
 7021SOL    HW121962   2.829   1.349   5.815
 7021SOL    HW221963   2.878   1.503   5.839
 7022SOL     OW21964   5.272   5.346   6.741
 7022SOL    HW121965   5.277   5.269   6.805
 7022SOL    HW221966   5.305   5.429   6.786
 7023SOL     OW21967   6.412   4.015   2.603
 7023SOL    HW121968   6.437   4.058   2.690
 7023SOL    HW221969   6.402   4.086   2.533
 7024SOL     OW21970   0.118   6.226   0.436
 7024SOL    HW121971   0.092   6.311   0.389
 7024SOL    HW221972   0.217   6.214   0.429
 7025SOL     OW21973   2.588   0.794   6.022
 7025SOL    HW121974   2.574   0.758   5.930
 7025SOL    HW221975   2.638   0.727   6.077
 7026SOL     OW21976   3.942   2.394   0.866
 7026SOL    HW121977   3.900   2.334   0.934
 7026SOL    HW221978   4.034   2.361   0.846
 7027SOL     OW21979   4.570   6.983   4.635
 7027SOL    HW121980   4.600   0.019   4.558
 7027SOL    HW221981   4.507   6.912   4.603
 7028SOL     OW21982   3.465   6.878   4.767
 7028SOL    HW121983   3.396   6.884   4.695
 7028SOL    HW221984   3.500   6.784   4.773
 7029SOL     OW21985   2.991   0.760   5.394
 7029SOL    HW121986   3.074   0.808   5.423
 7029SOL    HW221987   3.013   0.666   5.368
 7030SOL     OW21988   1.880   4.088   4.445
 7030SOL    HW121989   1.873   4.179   4.405
 7030SOL    HW221990   1.795   4.038   4.430
 7031SOL     OW21991   2.325   6.270   4.815
 7031SOL    HW121992   2.313   6.254   4.913
 7031SOL    HW221993   2.365   6.189   4.772
 7032SOL     OW21994   6.007   1.289   2.455
 7032SOL    HW121995   6.009   1.267   2.357
 7032SOL    HW221996   5.943   1.365   2.470
 7033SOL     OW21997   6.518   0.483   3.954
 7033SOL    HW121998   6.483   0.390   3.964
 7033SOL    HW221999   6.530   0.504   3.857
 7034SOL     OW22000   6.032   6.105   3.246
 7034SOL    HW122001   5.980   6.160   3.180
 7034SOL    HW222002   6.129   6.110   3.223
 7035SOL     OW22003   6.727   5.507   1.815
 7035SOL    HW122004   6.822   5.480   1.805
 7035SOL    HW222005   6.668   5.431   1.789
 7036SOL     OW22006   6.625   4.443   1.340
 7036SOL    HW122007   6.638   4.418   1.244
 7036SOL    HW222008   6.555   4.384   1.380
 7037SOL     OW22009   1.475   6.897   6.326
 7037SOL    HW122010   1.533   6.976   6.305
 7037SOL    HW222011   1.403   6.890   6.257
 7038SOL     OW22012   1.436   4.480   4.144
 7038SOL    HW122013   1.381   4.464   4.226
 7038SOL    HW222014   1.417   4.409   4.076
 7039SOL     OW22015   4.307   1.261   6.798
 7039SOL    HW122016   4.283   1.260   6.701
 7039SOL    HW222017   4.365   1.340   6.817
 7040SOL     OW22018   4.493   2.652   6.044
 7040SOL    HW122019   4.424   2.581   6.033
 7040SOL    HW222020   4.505   2.672   6.142
 7041SOL     OW22021   2.862   1.324   2.579
 7041SOL    HW122022   2.765   1.317   2.560
 7041SOL    HW222023   2.910   1.245   2.542
 7042SOL     OW22024   2.557   0.326   6.240
 7042SOL    HW122025   2.577   0.381   6.321
 7042SOL    HW222026   2.502   0.246   6.266
 7043SOL     OW22027   1.629   1.850   2.982
 7043SOL    HW122028   1.669   1.863   3.073
 7043SOL    HW222029   1.619   1.939   2.937
 7044SOL     OW22030   4.820   6.114   2.253
 7044SOL    HW122031   4.839   6.126   2.350
 7044SOL    HW222032   4.897   6.069   2.209
 7045SOL     OW22033   5.507   5.578   0.945
 7045SOL    HW122034   5.561   5.653   0.908
 7045SOL    HW222035   5.532   5.493   0.899
 7046SOL     OW22036   2.313   0.644   4.967
 7046SOL    HW122037   2.394   0.601   4.926
 7046SOL    HW222038   2.230   0.604   4.927
 7047SOL     OW22039   1.892   1.283   4.182
 7047SOL    HW122040   1.990   1.305   4.189
 7047SOL    HW222041   1.879   1.185   4.199
 7048SOL     OW22042   6.392   6.365   0.209
 7048SOL    HW122043   6.311   6.423   0.195
 7048SOL    HW222044   6.429   6.382   0.301
 7049SOL     OW22045   2.181   1.234   0.614
 7049SOL    HW122046   2.148   1.307   0.674
 7049SOL    HW222047   2.264   1.194   0.653
 7050SOL     OW22048   3.888   4.186   5.066
 7050SOL    HW122049   3.948   4.151   5.138
 7050SOL    HW222050   3.819   4.245   5.107
 7051SOL     OW22051   6.197   6.713   2.378
 7051SOL    HW122052   6.293   6.739   2.380
 7051SOL    HW222053   6.180   6.638   2.441
 7052SOL     OW22054   6.347   2.002   3.394
 7052SOL    HW122055   6.303   2.028   3.308
 7052SOL    HW222056   6.380   1.908   3.388
 7053SOL     OW22057   0.214   4.699   6.519
 7053SOL    HW122058   0.212   4.709   6.420
 7053SOL    HW222059   0.151   4.765   6.561
 7054SOL     OW22060   6.915   0.099   1.424
 7054SOL    HW122061   6.863   0.027   1.471
 7054SOL    HW222062   6.993   0.125   1.480
 7055SOL     OW22063   3.435   0.042   5.194
 7055SOL    HW122064   3.490   0.064   5.275
 7055SOL    HW222065   3.425   0.125   5.138
 7056SOL     OW22066   4.583   5.056   3.586
 7056SOL    HW122067   4.518   5.003   3.531
 7056SOL    HW222068   4.671   5.059   3.539
 7057SOL     OW22069   0.869   6.011   3.389
 7057SOL    HW122070   0.783   5.982   3.348
 7057SOL    HW222071   0.886   6.107   3.367
 7058SOL     OW22072   0.852   5.121   5.396
 7058SOL    HW122073   0.916   5.185   5.439
 7058SOL    HW222074   0.812   5.164   5.315
 7059SOL     OW22075   1.633   0.344   2.664
 7059SOL    HW122076   1.698   0.367   2.593
 7059SOL    HW222077   1.606   0.248   2.656
 7060SOL     OW22078   3.080   6.874   1.085
 7060SOL    HW122079   3.136   6.898   1.164
 7060SOL    HW222080   2.983   6.871   1.112
 7061SOL     OW22081   0.180   1.061   2.347
 7061SOL    HW122082   0.134   1.063   2.259
 7061SOL    HW222083   0.137   1.127   2.409
 7062SOL     OW22084   5.808   2.252   4.954
 7062SOL    HW122085   5.880   2.263   4.884
 7062SOL    HW222086   5.785   2.155   4.963
 7063SOL     OW22087   2.913   6.172   1.485
 7063SOL    HW122088   2.943   6.137   1.397
 7063SOL    HW222089   2.834   6.233   1.473
 7064SOL     OW22090   4.089   2.393   0.291
 7064SOL    HW122091   4.081   2.342   0.377
 7064SOL    HW222092   4.174   2.445   0.292
 7065SOL     OW22093   4.378   3.971   1.389
 7065SOL    HW122094   4.353   4.052   1.335
 7065SOL    HW222095   4.386   3.997   1.485
 7066SOL     OW22096   3.782   6.296   0.398
 7066SOL    HW122097   3.734   6.225   0.346
 7066SOL    HW222098   3.784   6.272   0.495
 7067SOL     OW22099   0.421   4.143   5.275
 7067SOL    HW122100   0.457   4.236   5.275
 7067SOL    HW222101   0.454   4.095   5.193
 7068SOL     OW22102   1.273   0.527   3.186
 7068SOL    HW122103   1.371   0.525   3.170
 7068SOL    HW222104   1.232   0.441   3.154
 7069SOL     OW22105   1.473   4.372   4.925
 7069SOL    HW122106   1.565   4.354   4.960
 7069SOL    HW222107   1.430   4.444   4.980
 7070SOL     OW22108   6.237   5.528   4.846
 7070SOL    HW122109   6.147   5.484   4.843
 7070SOL    HW222110   6.255   5.560   4.939
 7071SOL     OW22111   1.176   6.634   5.454
 7071SOL    HW122112   1.149   6.682   5.537
 7071SOL    HW222113   1.101   6.577   5.422
 7072SOL     OW22114   0.195   6.427   6.168
 7072SOL    HW122115   0.281   6.376   6.165
 7072SOL    HW222116   0.182   6.477   6.082
 7073SOL     OW22117   0.433   0.850   5.818
 7073SOL    HW122118   0.404   0.935   5.863
 7073SOL    HW222119   0.396   0.772   5.868
 7074SOL     OW22120   3.443   2.293   1.397
 7074SOL    HW122121   3.399   2.264   1.481
 7074SOL    HW222122   3.386   2.363   1.352
 7075SOL     OW22123   1.266   5.599   3.162
 7075SOL    HW122124   1.312   5.521   3.203
 7075SOL    HW222125   1.201   5.568   3.092
 7076SOL     OW22126   2.825   2.509   6.771
 7076SOL    HW122127   2.820   2.498   6.870
 7076SOL    HW222128   2.737   2.539   6.736
 7077SOL     OW22129   2.219   5.445   5.693
 7077SOL    HW122130   2.206   5.448   5.593
 7077SOL    HW222131   2.211   5.351   5.724
 7078SOL     OW22132   5.743   0.705   3.257
 7078SOL    HW122133   5.804   0.778   3.226
 7078SOL    HW222134   5.723   0.643   3.181
 7079SOL     OW22135   5.941   5.870   5.468
 7079SOL    HW122136   5.920   5.935   5.395
 7079SOL    HW222137   5.989   5.917   5.542
 7080SOL     OW22138   4.731   0.165   4.014
 7080SOL    HW122139   4.822   0.147   4.050
 7080SOL    HW222140   4.725   0.132   3.920
 7081SOL     OW22141   3.766   0.927   4.529
 7081SOL    HW122142   3.863   0.946   4.519
 7081SOL    HW222143   3.745   0.837   4.490
 7082SOL     OW22144   5.088   0.627   6.214
 7082SOL    HW122145   5.135   0.569   6.282
 7082SOL    HW222146   4.990   0.619   6.227
 7083SOL     OW22147   3.483   0.132   6.039
 7083SOL    HW122148   3.437   0.216   6.067
 7083SOL    HW222149   3.544   0.101   6.112
 7084SOL     OW22150   6.760   6.156   6.210
 7084SOL    HW122151   6.660   6.166   6.209
 7084SOL    HW222152   6.803   6.246   6.209
 7085SOL     OW22153   2.329   2.239   1.422
 7085SOL    HW122154   2.377   2.173   1.363
 7085SOL    HW222155   2.264   2.191   1.480
 7086SOL     OW22156   6.329   0.749   6.458
 7086SOL    HW122157   6.337   0.768   6.556
 7086SOL    HW222158   6.259   0.680   6.443
 7087SOL     OW22159   1.490   3.186   4.103
 7087SOL    HW122160   1.468   3.122   4.029
 7087SOL    HW222161   1.422   3.177   4.176
 7088SOL     OW22162   6.482   2.201   5.689
 7088SOL    HW122163   6.454   2.223   5.783
 7088SOL    HW222164   6.559   2.259   5.663
 7089SOL     OW22165   2.672   1.636   0.244
 7089SOL    HW122166   2.636   1.586   0.322
 7089SOL    HW222167   2.624   1.724   0.235
 7090SOL     OW22168   2.375   2.254   4.848
 7090SOL    HW122169   2.347   2.223   4.757
 7090SOL    HW222170   2.293   2.279   4.901
 7091SOL     OW22171   0.168   5.741   6.883
 7091SOL    HW122172   0.098   5.724   6.952
 7091SOL    HW222173   0.137   5.813   6.820
 7092SOL     OW22174   3.459   3.758   0.541
 7092SOL    HW122175   3.422   3.725   0.454
 7092SOL    HW222176   3.559   3.748   0.541
 7093SOL     OW22177   3.364   3.234   4.878
 7093SOL    HW122178   3.386   3.329   4.860
 7093SOL    HW222179   3.346   3.187   4.792
 7094SOL     OW22180   0.403   0.597   5.942
 7094SOL    HW122181   0.444   0.533   5.877
 7094SOL    HW222182   0.428   0.571   6.035
 7095SOL     OW22183   1.028   3.032   6.699
 7095SOL    HW122184   0.982   3.103   6.752
 7095SOL    HW222185   1.051   3.068   6.608
 7096SOL     OW22186   4.940   1.677   2.676
 7096SOL    HW122187   4.994   1.685   2.760
 7096SOL    HW222188   4.992   1.628   2.607
 7097SOL     OW22189   0.346   0.415   1.882
 7097SOL    HW122190   0.355   0.385   1.976
 7097SOL    HW222191   0.249   0.429   1.860
 7098SOL     OW22192   1.362   6.632   5.759
 7098SOL    HW122193   1.451   6.675   5.743
 7098SOL    HW222194   1.292   6.678   5.704
 7099SOL     OW22195   0.003   0.794   6.170
 7099SOL    HW122196   6.956   0.835   6.107
 7099SOL    HW222197   0.038   0.865   6.231
 7100SOL     OW22198   5.854   2.956   1.210
 7100SOL    HW122199   5.873   3.023   1.138
 7100SOL    HW222200   5.815   3.003   1.289
 7101SOL     OW22201   2.788   0.150   5.243
 7101SOL    HW122202   2.781   0.224   5.176
 7101SOL    HW222203   2.783   0.062   5.197
 7102SOL     OW22204   4.608   2.253   1.005
 7102SOL    HW122205   4.556   2.279   0.924
 7102SOL    HW222206   4.614   2.332   1.067
 7103SOL     OW22207   3.593   6.993   6.719
 7103SOL    HW122208   3.580   6.949   6.808
 7103SOL    HW222209   3.688   6.982   6.689
 7104SOL     OW22210   1.005   2.325   2.989
 7104SOL    HW122211   0.956   2.361   2.910
 7104SOL    HW222212   0.951   2.339   3.072
 7105SOL     OW22213   3.312   3.859   5.174
 7105SOL    HW122214   3.379   3.868   5.100
 7105SOL    HW222215   3.219   3.866   5.136
 7106SOL     OW22216   3.170   2.683   5.260
 7106SOL    HW122217   3.179   2.590   5.224
 7106SOL    HW222218   3.235   2.743   5.213
 7107SOL     OW22219   2.860   1.678   0.510
 7107SOL    HW122220   2.949   1.718   0.531
 7107SOL    HW222221   2.870   1.609   0.439
 7108SOL     OW22222   4.884   0.408   1.346
 7108SOL    HW122223   4.958   0.467   1.379
 7108SOL    HW222224   4.815   0.464   1.300
 7109SOL     OW22225   3.932   6.376   6.548
 7109SOL    HW122226   3.944   6.309   6.475
 7109SOL    HW222227   3.887   6.458   6.511
 7110SOL     OW22228   4.197   5.244   3.450
 7110SOL    HW122229   4.142   5.163   3.466
 7110SOL    HW222230   4.142   5.326   3.467
 7111SOL     OW22231   2.183   3.645   4.115
 7111SOL    HW122232   2.273   3.689   4.115
 7111SOL    HW222233   2.152   3.631   4.209
 7112SOL     OW22234   1.068   6.407   3.469
 7112SOL    HW122235   1.164   6.385   3.484
 7112SOL    HW222236   1.024   6.333   3.417
 7113SOL     OW22237   4.092   3.771   4.380
 7113SOL    HW122238   4.147   3.693   4.410
 7113SOL    HW222239   4.056   3.754   4.288
 7114SOL     OW22240   3.345   0.860   0.518
 7114SOL    HW122241   3.313   0.789   0.581
 7114SOL    HW222242   3.307   0.843   0.427
 7115SOL     OW22243   4.729   1.726   1.157
 7115SOL    HW122244   4.756   1.753   1.065
 7115SOL    HW222245   4.715   1.808   1.214
 7116SOL     OW22246   5.591   3.927   3.205
 7116SOL    HW122247   5.646   3.965   3.130
 7116SOL    HW222248   5.494   3.935   3.183
 7117SOL     OW22249   5.890   6.576   1.799
 7117SOL    HW122250   5.809   6.623   1.834
 7117SOL    HW222251   5.896   6.589   1.700
 7118SOL     OW22252   6.655   3.210   1.156
 7118SOL    HW122253   6.575   3.253   1.198
 7118SOL    HW222254   6.733   3.217   1.218
 7119SOL     OW22255   6.507   2.264   3.475
 7119SOL    HW122256   6.507   2.322   3.393
 7119SOL    HW222257   6.478   2.171   3.449
 7120SOL     OW22258   5.109   0.498   3.066
 7120SOL    HW122259   5.029   0.556   3.049
 7120SOL    HW222260   5.174   0.508   2.990
 7121SOL     OW22261   3.322   6.563   2.203
 7121SOL    HW122262   3.357   6.478   2.240
 7121SOL    HW222263   3.263   6.544   2.124
 7122SOL     OW22264   5.989   0.980   6.342
 7122SOL    HW122265   5.895   1.011   6.357
 7122SOL    HW222266   6.053   1.046   6.381
 7123SOL     OW22267   2.218   5.309   1.300
 7123SOL    HW122268   2.276   5.387   1.277
 7123SOL    HW222269   2.179   5.271   1.215
 7124SOL     OW22270   0.625   4.778   0.745
 7124SOL    HW122271   0.546   4.751   0.800
 7124SOL    HW222272   0.709   4.760   0.797
 7125SOL     OW22273   5.960   6.312   2.719
 7125SOL    HW122274   6.027   6.250   2.678
 7125SOL    HW222275   5.988   6.406   2.705
 7126SOL     OW22276   1.376   4.628   0.401
 7126SOL    HW122277   1.341   4.545   0.445
 7126SOL    HW222278   1.378   4.703   0.467
 7127SOL     OW22279   3.551   6.601   4.819
 7127SOL    HW122280   3.611   6.538   4.870
 7127SOL    HW222281   3.461   6.559   4.807
 7128SOL     OW22282   3.050   3.899   1.421
 7128SOL    HW122283   3.067   3.804   1.445
 7128SOL    HW222284   2.980   3.904   1.350
 7129SOL     OW22285   2.608   0.186   1.370
 7129SOL    HW122286   2.605   0.090   1.346
 7129SOL    HW222287   2.519   0.228   1.355
 7130SOL     OW22288   2.307   4.834   3.093
 7130SOL    HW122289   2.283   4.894   3.016
 7130SOL    HW222290   2.383   4.775   3.067
 7131SOL     OW22291   2.568   0.753   3.377
 7131SOL    HW122292   2.599   0.677   3.434
 7131SOL    HW222293   2.618   0.752   3.290
 7132SOL     OW22294   3.452   4.155   3.228
 7132SOL    HW122295   3.507   4.223   3.277
 7132SOL    HW222296   3.394   4.106   3.293
 7133SOL     OW22297   5.305   5.188   2.890
 7133SOL    HW122298   5.213   5.150   2.883
 7133SOL    HW222299   5.308   5.276   2.842
 7134SOL     OW22300   5.259   3.950   3.945
 7134SOL    HW122301   5.284   4.038   3.986
 7134SOL    HW222302   5.332   3.884   3.961
 7135SOL     OW22303   0.928   2.160   5.162
 7135SOL    HW122304   0.972   2.236   5.211
 7135SOL    HW222305   0.967   2.152   5.071
 7136SOL     OW22306   2.148   1.641   0.177
 7136SOL    HW122307   2.101   1.559   0.144
 7136SOL    HW222308   2.208   1.618   0.253
 7137SOL     OW22309   4.000   0.661   4.435
 7137SOL    HW122310   3.980   0.725   4.360
 7137SOL    HW222311   4.086   0.614   4.416
 7138SOL     OW22312   2.426   4.310   0.785
 7138SOL    HW122313   2.447   4.225   0.737
 7138SOL    HW222314   2.511   4.347   0.824
 7139SOL     OW22315   3.916   2.558   1.321
 7139SOL    HW122316   3.913   2.458   1.327
 7139SOL    HW222317   3.845   2.597   1.380
 7140SOL     OW22318   6.487   3.496   4.978
 7140SOL    HW122319   6.523   3.404   4.996
 7140SOL    HW222320   6.387   3.493   4.974
 7141SOL     OW22321   2.949   6.645   0.456
 7141SOL    HW122322   2.969   6.584   0.533
 7141SOL    HW222323   2.994   6.733   0.470
 7142SOL     OW22324   4.088   5.731   4.150
 7142SOL    HW122325   4.126   5.746   4.241
 7142SOL    HW222326   4.129   5.795   4.085
 7143SOL     OW22327   2.161   3.627   5.101
 7143SOL    HW122328   2.169   3.552   5.036
 7143SOL    HW222329   2.124   3.708   5.055
 7144SOL     OW22330   0.825   2.364   3.509
 7144SOL    HW122331   0.890   2.407   3.572
 7144SOL    HW222332   0.732   2.377   3.543
 7145SOL     OW22333   4.685   0.297   6.937
 7145SOL    HW122334   4.619   0.370   6.955
 7145SOL    HW222335   4.769   0.337   6.901
 7146SOL     OW22336   3.352   5.088   0.426
 7146SOL    HW122337   3.262   5.081   0.469
 7146SOL    HW222338   3.422   5.062   0.492
 7147SOL     OW22339   0.405   0.432   3.279
 7147SOL    HW122340   0.473   0.385   3.335
 7147SOL    HW222341   0.451   0.485   3.207
 7148SOL     OW22342   0.783   0.648   1.727
 7148SOL    HW122343   0.701   0.635   1.784
 7148SOL    HW222344   0.792   0.570   1.665
 7149SOL     OW22345   6.397   1.672   3.475
 7149SOL    HW122346   6.352   1.613   3.408
 7149SOL    HW222347   6.496   1.662   3.467
 7150SOL     OW22348   6.301   3.354   0.014
 7150SOL    HW122349   6.356   3.322   0.092
 7150SOL    HW222350   6.206   3.369   0.044
 7151SOL     OW22351   2.432   5.893   1.432
 7151SOL    HW122352   2.512   5.867   1.487
 7151SOL    HW222353   2.463   5.925   1.342
 7152SOL     OW22354   1.428   2.700   3.846
 7152SOL    HW122355   1.419   2.601   3.860
 7152SOL    HW222356   1.340   2.739   3.820
 7153SOL     OW22357   3.475   1.415   3.730
 7153SOL    HW122358   3.491   1.492   3.792
 7153SOL    HW222359   3.436   1.338   3.780
 7154SOL     OW22360   5.061   5.806   4.135
 7154SOL    HW122361   5.014   5.780   4.219
 7154SOL    HW222362   5.156   5.828   4.154
 7155SOL     OW22363   2.809   6.876   1.148
 7155SOL    HW122364   2.758   6.838   1.072
 7155SOL    HW222365   2.765   6.850   1.234
 7156SOL     OW22366   0.027   5.861   4.958
 7156SOL    HW122367   6.960   5.829   4.919
 7156SOL    HW222368   0.073   5.921   4.893
 7157SOL     OW22369   4.543   4.544   1.402
 7157SOL    HW122370   4.573   4.516   1.493
 7157SOL    HW222371   4.473   4.615   1.410
 7158SOL     OW22372   6.574   6.670   4.238
 7158SOL    HW122373   6.538   6.596   4.294
 7158SOL    HW222374   6.501   6.707   4.181
 7159SOL     OW22375   0.781   5.352   0.029
 7159SOL    HW122376   0.876   5.347   0.059
 7159SOL    HW222377   0.739   5.261   0.035
 7160SOL     OW22378   5.515   0.587   2.071
 7160SOL    HW122379   5.419   0.594   2.101
 7160SOL    HW222380   5.519   0.588   1.971
 7161SOL     OW22381   3.549   3.103   4.035
 7161SOL    HW122382   3.461   3.057   4.033
 7161SOL    HW222383   3.536   3.201   4.021
 7162SOL     OW22384   3.375   4.902   3.358
 7162SOL    HW122385   3.436   4.902   3.437
 7162SOL    HW222386   3.286   4.939   3.385
 7163SOL     OW22387   2.766   0.524   2.790
 7163SOL    HW122388   2.743   0.613   2.751
 7163SOL    HW222389   2.705   0.454   2.753
 7164SOL     OW22390   2.414   1.124   3.173
 7164SOL    HW122391   2.344   1.053   3.180
 7164SOL    HW222392   2.465   1.112   3.088
 7165SOL     OW22393   4.964   1.206   1.251
 7165SOL    HW122394   4.929   1.221   1.159
 7165SOL    HW222395   4.887   1.193   1.314
 7166SOL     OW22396   4.917   4.507   1.491
 7166SOL    HW122397   4.940   4.433   1.554
 7166SOL    HW222398   4.919   4.472   1.397
 7167SOL     OW22399   4.706   2.733   4.948
 7167SOL    HW122400   4.736   2.827   4.933
 7167SOL    HW222401   4.763   2.691   5.018
 7168SOL     OW22402   1.264   0.710   3.785
 7168SOL    HW122403   1.217   0.664   3.710
 7168SOL    HW222404   1.212   0.696   3.870
 7169SOL     OW22405   1.508   2.332   5.476
 7169SOL    HW122406   1.556   2.420   5.484
 7169SOL    HW222407   1.411   2.349   5.463
 7170SOL     OW22408   6.740   4.743   4.395
 7170SOL    HW122409   6.655   4.779   4.356
 7170SOL    HW222410   6.815   4.757   4.330
 7171SOL     OW22411   4.146   3.295   5.163
 7171SOL    HW122412   4.165   3.305   5.065
 7171SOL    HW222413   4.105   3.205   5.180
 7172SOL     OW22414   1.795   6.957   0.614
 7172SOL    HW122415   1.831   6.922   0.701
 7172SOL    HW222416   1.695   6.964   0.621
 7173SOL     OW22417   6.501   5.895   5.936
 7173SOL    HW122418   6.418   5.886   5.881
 7173SOL    HW222419   6.522   5.992   5.949
 7174SOL     OW22420   1.541   5.187   0.433
 7174SOL    HW122421   1.538   5.195   0.532
 7174SOL    HW222422   1.610   5.250   0.396
 7175SOL     OW22423   6.861   3.838   5.703
 7175SOL    HW122424   6.906   3.829   5.614
 7175SOL    HW222425   6.874   3.754   5.756
 7176SOL     OW22426   6.024   3.741   1.664
 7176SOL    HW122427   5.960   3.665   1.658
 7176SOL    HW222428   6.009   3.803   1.587
 7177SOL     OW22429   0.635   6.320   1.889
 7177SOL    HW122430   0.595   6.398   1.841
 7177SOL    HW222431   0.573   6.242   1.883
 7178SOL     OW22432   0.883   2.601   6.425
 7178SOL    HW122433   0.950   2.659   6.379
 7178SOL    HW222434   0.859   2.524   6.366
 7179SOL     OW22435   2.662   3.528   6.295
 7179SOL    HW122436   2.629   3.466   6.223
 7179SOL    HW222437   2.687   3.475   6.376
 7180SOL     OW22438   0.160   6.238   2.150
 7180SOL    HW122439   0.161   6.338   2.148
 7180SOL    HW222440   0.236   6.204   2.206
 7181SOL     OW22441   5.163   1.211   1.734
 7181SOL    HW122442   5.180   1.308   1.756
 7181SOL    HW222443   5.241   1.174   1.684
 7182SOL     OW22444   2.882   3.776   5.779
 7182SOL    HW122445   2.812   3.801   5.712
 7182SOL    HW222446   2.911   3.682   5.764
 7183SOL     OW22447   1.043   5.691   2.505
 7183SOL    HW122448   1.057   5.662   2.599
 7183SOL    HW222449   1.112   5.648   2.446
 7184SOL     OW22450   2.393   6.478   3.540
 7184SOL    HW122451   2.396   6.535   3.622
 7184SOL    HW222452   2.468   6.504   3.478
 7185SOL     OW22453   4.837   2.415   6.841
 7185SOL    HW122454   4.936   2.406   6.830
 7185SOL    HW222455   4.791   2.389   6.756
 7186SOL     OW22456   0.573   6.680   4.528
 7186SOL    HW122457   0.522   6.605   4.572
 7186SOL    HW222458   0.645   6.641   4.471
 7187SOL     OW22459   2.054   4.509   1.446
 7187SOL    HW122460   2.007   4.506   1.535
 7187SOL    HW222461   1.995   4.552   1.378
 7188SOL     OW22462   5.307   1.436   1.439
 7188SOL    HW122463   5.209   1.454   1.438
 7188SOL    HW222464   5.353   1.500   1.377
 7189SOL     OW22465   5.914   1.165   4.965
 7189SOL    HW122466   5.977   1.148   5.041
 7189SOL    HW222467   5.954   1.232   4.903
 7190SOL     OW22468   4.673   4.788   3.382
 7190SOL    HW122469   4.761   4.833   3.397
 7190SOL    HW222470   4.680   4.692   3.408
 7191SOL     OW22471   1.837   3.350   2.320
 7191SOL    HW122472   1.905   3.409   2.274
 7191SOL    HW222473   1.747   3.394   2.315
 7192SOL     OW22474   2.741   4.545   5.927
 7192SOL    HW122475   2.803   4.568   5.852
 7192SOL    HW222476   2.794   4.528   6.010
 7193SOL     OW22477   4.412   1.818   3.481
 7193SOL    HW122478   4.317   1.791   3.464
 7193SOL    HW222479   4.470   1.787   3.406
 7194SOL     OW22480   2.825   1.526   2.201
 7194SOL    HW122481   2.907   1.513   2.257
 7194SOL    HW222482   2.797   1.622   2.204
 7195SOL     OW22483   0.992   5.674   1.246
 7195SOL    HW122484   1.045   5.754   1.219
 7195SOL    HW222485   1.002   5.602   1.178
 7196SOL     OW22486   3.516   3.125   2.238
 7196SOL    HW122487   3.546   3.205   2.187
 7196SOL    HW222488   3.446   3.152   2.305
 7197SOL     OW22489   0.344   2.228   6.061
 7197SOL    HW122490   0.353   2.239   5.962
 7197SOL    HW222491   0.267   2.169   6.082
 7198SOL     OW22492   1.446   6.363   6.861
 7198SOL    HW122493   1.433   6.267   6.885
 7198SOL    HW222494   1.458   6.371   6.762
 7199SOL     OW22495   6.395   6.511   2.870
 7199SOL    HW122496   6.488   6.474   2.877
 7199SOL    HW222497   6.330   6.444   2.905
 7200SOL     OW22498   1.878   1.008   1.566
 7200SOL    HW122499   1.797   0.973   1.614
 7200SOL    HW222500   1.958   0.954   1.591
 7201SOL     OW22501   2.385   4.375   3.677
 7201SOL    HW122502   2.397   4.313   3.599
 7201SOL    HW222503   2.341   4.459   3.645
 7202SOL     OW22504   3.925   1.108   6.427
 7202SOL    HW122505   3.942   1.130   6.523
 7202SOL    HW222506   3.904   1.193   6.377
 7203SOL     OW22507   5.392   1.040   6.842
 7203SOL    HW122508   5.473   1.080   6.798
 7203SOL    HW222509   5.409   1.031   6.940
 7204SOL     OW22510   6.068   1.644   2.686
 7204SOL    HW122511   6.066   1.722   2.748
 7204SOL    HW222512   6.092   1.676   2.594
 7205SOL     OW22513   2.038   4.821   2.209
 7205SOL    HW122514   1.995   4.801   2.297
 7205SOL    HW222515   2.000   4.905   2.171
 7206SOL     OW22516   6.119   1.197   1.498
 7206SOL    HW122517   6.084   1.241   1.415
 7206SOL    HW222518   6.065   1.227   1.576
 7207SOL     OW22519   3.688   6.987   2.060
 7207SOL    HW122520   3.716   0.054   2.101
 7207SOL    HW222521   3.680   6.917   2.132
 7208SOL     OW22522   3.234   0.378   5.409
 7208SOL    HW122523   3.297   0.452   5.435
 7208SOL    HW222524   3.174   0.358   5.486
 7209SOL     OW22525   4.060   3.783   4.673
 7209SOL    HW122526   4.104   3.799   4.585
 7209SOL    HW222527   4.015   3.867   4.704
 7210SOL     OW22528   4.259   0.452   4.211
 7210SOL    HW122529   4.310   0.511   4.148
 7210SOL    HW222530   4.268   0.487   4.304
 7211SOL     OW22531   1.259   5.304   3.269
 7211SOL    HW122532   1.188   5.251   3.224
 7211SOL    HW222533   1.348   5.263   3.251
 7212SOL     OW22534   5.285   6.433   4.254
 7212SOL    HW122535   5.351   6.473   4.190
 7212SOL    HW222536   5.334   6.393   4.331
 7213SOL     OW22537   5.339   1.010   5.603
 7213SOL    HW122538   5.308   0.946   5.673
 7213SOL    HW222539   5.437   1.000   5.589
 7214SOL     OW22540   1.641   4.867   4.819
 7214SOL    HW122541   1.698   4.794   4.781
 7214SOL    HW222542   1.551   4.865   4.774
 7215SOL     OW22543   1.153   3.615   3.602
 7215SOL    HW122544   1.247   3.638   3.575
 7215SOL    HW222545   1.127   3.528   3.559
 7216SOL     OW22546   2.082   0.838   1.671
 7216SOL    HW122547   2.151   0.773   1.639
 7216SOL    HW222548   2.025   0.794   1.740
 7217SOL     OW22549   0.911   2.982   2.443
 7217SOL    HW122550   0.936   2.901   2.391
 7217SOL    HW222551   0.878   2.954   2.534
 7218SOL     OW22552   5.354   2.630   5.618
 7218SOL    HW122553   5.358   2.684   5.533
 7218SOL    HW222554   5.279   2.565   5.612
 7219SOL     OW22555   3.774   1.185   2.120
 7219SOL    HW122556   3.806   1.143   2.035
 7219SOL    HW222557   3.768   1.284   2.108
 7220SOL     OW22558   6.744   1.036   3.000
 7220SOL    HW122559   6.796   0.971   3.054
 7220SOL    HW222560   6.801   1.115   2.978
 7221SOL     OW22561   5.801   5.762   5.891
 7221SOL    HW122562   5.838   5.693   5.829
 7221SOL    HW222563   5.801   5.727   5.985
 7222SOL     OW22564   0.204   6.144   1.883
 7222SOL    HW122565   0.180   6.190   1.968
 7222SOL    HW222566   0.137   6.072   1.863
 7223SOL     OW22567   3.078   1.151   5.565
 7223SOL    HW122568   2.991   1.106   5.549
 7223SOL    HW222569   3.074   1.246   5.533
 7224SOL     OW22570   4.669   0.192   4.481
 7224SOL    HW122571   4.748   0.135   4.456
 7224SOL    HW222572   4.657   0.264   4.413
 7225SOL     OW22573   2.491   6.252   6.969
 7225SOL    HW122574   2.478   6.324   0.017
 7225SOL    HW222575   2.411   6.192   6.969
 7226SOL     OW22576   6.537   0.055   1.009
 7226SOL    HW122577   6.455   0.089   0.961
 7226SOL    HW222578   6.555   6.980   0.982
 7227SOL     OW22579   6.023   2.524   6.292
 7227SOL    HW122580   5.994   2.539   6.197
 7227SOL    HW222581   6.121   2.543   6.300
 7228SOL     OW22582   1.194   0.819   3.211
 7228SOL    HW122583   1.206   0.720   3.216
 7228SOL    HW222584   1.195   0.848   3.115
 7229SOL     OW22585   0.628   0.655   3.497
 7229SOL    HW122586   0.592   0.571   3.456
 7229SOL    HW222587   0.693   0.632   3.569
 7230SOL     OW22588   5.648   3.623   2.896
 7230SOL    HW122589   5.585   3.546   2.911
 7230SOL    HW222590   5.645   3.650   2.800
 7231SOL     OW22591   5.243   1.038   6.572
 7231SOL    HW122592   5.264   1.020   6.476
 7231SOL    HW222593   5.328   1.032   6.626
 7232SOL     OW22594   3.434   4.317   1.376
 7232SOL    HW122595   3.354   4.372   1.354
 7232SOL    HW222596   3.468   4.342   1.467
 7233SOL     OW22597   6.744   2.133   6.157
 7233SOL    HW122598   6.770   2.127   6.061
 7233SOL    HW222599   6.714   2.226   6.177
 7234SOL     OW22600   5.983   2.131   2.285
 7234SOL    HW122601   6.017   2.147   2.192
 7234SOL    HW222602   5.979   2.032   2.302
 7235SOL     OW22603   5.790   3.465   4.974
 7235SOL    HW122604   5.815   3.561   4.967
 7235SOL    HW222605   5.873   3.409   4.975
 7236SOL     OW22606   3.419   0.726   3.038
 7236SOL    HW122607   3.435   0.665   2.960
 7236SOL    HW222608   3.476   0.698   3.115
 7237SOL     OW22609   5.971   5.953   5.757
 7237SOL    HW122610   5.935   5.869   5.797
 7237SOL    HW222611   5.895   6.014   5.733
 7238SOL     OW22612   1.248   1.072   1.097
 7238SOL    HW122613   1.267   1.114   1.185
 7238SOL    HW222614   1.268   1.138   1.024
 7239SOL     OW22615   3.943   1.400   1.880
 7239SOL    HW122616   4.013   1.329   1.871
 7239SOL    HW222617   3.891   1.384   1.964
 7240SOL     OW22618   3.095   4.405   0.495
 7240SOL    HW122619   3.081   4.312   0.460
 7240SOL    HW222620   3.117   4.466   0.420
 7241SOL     OW22621   3.326   0.323   5.157
 7241SOL    HW122622   3.293   0.334   5.251
 7241SOL    HW222623   3.426   0.328   5.156
 7242SOL     OW22624   4.461   4.494   6.874
 7242SOL    HW122625   4.383   4.433   6.866
 7242SOL    HW222626   4.545   4.445   6.848
 7243SOL     OW22627   0.030   5.708   0.121
 7243SOL    HW122628   0.083   5.631   0.158
 7243SOL    HW222629   0.011   5.773   0.195
 7244SOL     OW22630   5.721   1.359   0.771
 7244SOL    HW122631   5.658   1.366   0.849
 7244SOL    HW222632   5.675   1.393   0.689
 7245SOL     OW22633   0.015   2.110   3.889
 7245SOL    HW122634   6.940   2.080   3.880
 7245SOL    HW222635   0.073   2.034   3.918
 7246SOL     OW22636   0.418   6.000   5.799
 7246SOL    HW122637   0.353   5.934   5.759
 7246SOL    HW222638   0.369   6.083   5.826
 7247SOL     OW22639   3.350   5.411   2.757
 7247SOL    HW122640   3.301   5.379   2.838
 7247SOL    HW222641   3.317   5.363   2.676
 7248SOL     OW22642   3.143   0.819   4.590
 7248SOL    HW122643   3.158   0.875   4.672
 7248SOL    HW222644   3.111   0.729   4.618
 7249SOL     OW22645   6.095   5.537   0.040
 7249SOL    HW122646   6.125   5.625   0.077
 7249SOL    HW222647   6.123   5.530   6.964
 7250SOL     OW22648   2.991   4.472   6.417
 7250SOL    HW122649   3.017   4.465   6.513
 7250SOL    HW222650   2.934   4.394   6.392
 7251SOL     OW22651   5.286   0.339   5.259
 7251SOL    HW122652   5.360   0.402   5.281
 7251SOL    HW222653   5.213   0.349   5.327
 7252SOL     OW22654   3.961   3.828   5.064
 7252SOL    HW122655   3.874   3.832   5.016
 7252SOL    HW222656   4.036   3.821   4.998
 7253SOL     OW22657   5.251   5.573   0.992
 7253SOL    HW122658   5.348   5.598   0.985
 7253SOL    HW222659   5.207   5.587   0.903
 7254SOL     OW22660   4.798   6.347   5.497
 7254SOL    HW122661   4.741   6.273   5.532
 7254SOL    HW222662   4.756   6.435   5.521
 7255SOL     OW22663   3.689   3.711   2.200
 7255SOL    HW122664   3.669   3.803   2.233
 7255SOL    HW222665   3.712   3.652   2.277
 7256SOL     OW22666   5.017   4.775   4.042
 7256SOL    HW122667   5.052   4.868   4.034
 7256SOL    HW222668   4.918   4.778   4.059
 7257SOL     OW22669   5.983   4.223   3.603
 7257SOL    HW122670   6.023   4.157   3.539
 7257SOL    HW222671   5.918   4.281   3.554
 7258SOL     OW22672   3.673   6.960   4.943
 7258SOL    HW122673   3.725   6.878   4.971
 7258SOL    HW222674   3.599   6.932   4.882
 7259SOL     OW22675   2.052   5.502   5.908
 7259SOL    HW122676   2.108   5.501   5.825
 7259SOL    HW222677   1.999   5.587   5.911
 7260SOL     OW22678   3.653   1.934   1.864
 7260SOL    HW122679   3.674   1.974   1.775
 7260SOL    HW222680   3.660   2.005   1.934
 7261SOL     OW22681   1.394   3.878   1.570
 7261SOL    HW122682   1.398   3.977   1.584
 7261SOL    HW222683   1.314   3.841   1.618
 7262SOL     OW22684   6.327   2.009   5.051
 7262SOL    HW122685   6.266   2.088   5.060
 7262SOL    HW222686   6.418   2.033   5.085
 7263SOL     OW22687   4.058   6.667   1.872
 7263SOL    HW122688   3.987   6.602   1.898
 7263SOL    HW222689   4.044   6.753   1.922
 7264SOL     OW22690   1.016   6.745   5.109
 7264SOL    HW122691   0.979   6.657   5.139
 7264SOL    HW222692   1.116   6.741   5.107
 7265SOL     OW22693   4.207   4.078   5.938
 7265SOL    HW122694   4.194   4.005   6.005
 7265SOL    HW222695   4.157   4.159   5.968
 7266SOL     OW22696   5.549   1.697   1.599
 7266SOL    HW122697   5.587   1.756   1.528
 7266SOL    HW222698   5.484   1.748   1.655
 7267SOL     OW22699   0.349   3.163   4.437
 7267SOL    HW122700   0.433   3.109   4.433
 7267SOL    HW222701   0.331   3.204   4.348
 7268SOL     OW22702   3.193   6.999   1.310
 7268SOL    HW122703   3.288   6.971   1.324
 7268SOL    HW222704   3.133   6.948   1.372
 7269SOL     OW22705   1.639   6.963   1.744
 7269SOL    HW122706   1.693   7.009   1.673
 7269SOL    HW222707   1.646   6.864   1.732
 7270SOL     OW22708   3.406   1.454   2.181
 7270SOL    HW122709   3.373   1.416   2.268
 7270SOL    HW222710   3.438   1.380   2.123
 7271SOL     OW22711   6.269   4.437   3.949
 7271SOL    HW122712   6.279   4.371   4.024
 7271SOL    HW222713   6.343   4.503   3.954
 7272SOL     OW22714   5.864   2.148   1.286
 7272SOL    HW122715   5.784   2.208   1.293
 7272SOL    HW222716   5.834   2.053   1.284
 7273SOL     OW22717   5.946   5.937   6.253
 7273SOL    HW122718   6.034   5.928   6.208
 7273SOL    HW222719   5.954   5.998   6.331
 7274SOL     OW22720   0.009   4.246   4.946
 7274SOL    HW122721   0.050   4.293   5.024
 7274SOL    HW222722   6.951   4.192   4.976
 7275SOL     OW22723   5.924   6.956   1.332
 7275SOL    HW122724   5.946   6.987   1.240
 7275SOL    HW222725   5.969   7.015   1.399
 7276SOL     OW22726   2.817   2.369   4.315
 7276SOL    HW122727   2.786   2.404   4.227
 7276SOL    HW222728   2.765   2.413   4.389
 7277SOL     OW22729   5.399   1.891   4.761
 7277SOL    HW122730   5.458   1.858   4.834
 7277SOL    HW222731   5.339   1.964   4.795
 7278SOL     OW22732   2.335   1.367   3.534
 7278SOL    HW122733   2.413   1.401   3.481
 7278SOL    HW222734   2.360   1.281   3.578
 7279SOL     OW22735   4.445   4.560   1.129
 7279SOL    HW122736   4.497   4.518   1.055
 7279SOL    HW222737   4.484   4.532   1.217
 7280SOL     OW22738   6.271   2.110   5.512
 7280SOL    HW122739   6.335   2.080   5.442
 7280SOL    HW222740   6.320   2.154   5.587
 7281SOL     OW22741   3.946   5.613   1.726
 7281SOL    HW122742   4.024   5.636   1.784
 7281SOL    HW222743   3.925   5.516   1.735
 7282SOL     OW22744   6.405   3.824   2.268
 7282SOL    HW122745   6.368   3.887   2.336
 7282SOL    HW222746   6.403   3.730   2.304
 7283SOL     OW22747   4.713   4.775   2.847
 7283SOL    HW122748   4.749   4.865   2.821
 7283SOL    HW222749   4.773   4.733   2.914
 7284SOL     OW22750   0.206   1.770   2.366
 7284SOL    HW122751   0.142   1.693   2.368
 7284SOL    HW222752   0.197   1.818   2.279
 7285SOL     OW22753   4.815   3.098   1.689
 7285SOL    HW122754   4.889   3.093   1.756
 7285SOL    HW222755   4.734   3.051   1.724
 7286SOL     OW22756   6.647   1.612   3.423
 7286SOL    HW122757   6.679   1.519   3.441
 7286SOL    HW222758   6.722   1.676   3.440
 7287SOL     OW22759   2.734   1.357   2.856
 7287SOL    HW122760   2.788   1.416   2.916
 7287SOL    HW222761   2.784   1.339   2.772
 7288SOL     OW22762   2.604   1.319   2.219
 7288SOL    HW122763   2.668   1.395   2.226
 7288SOL    HW222764   2.535   1.339   2.149
 7289SOL     OW22765   6.895   1.853   1.368
 7289SOL    HW122766   6.918   1.890   1.458
 7289SOL    HW222767   6.798   1.868   1.350
 7290SOL     OW22768   4.041   1.059   4.580
 7290SOL    HW122769   4.023   1.072   4.678
 7290SOL    HW222770   4.131   1.017   4.568
 7291SOL     OW22771   2.420   1.127   0.783
 7291SOL    HW122772   2.489   1.190   0.746
 7291SOL    HW222773   2.457   1.081   0.864
 7292SOL     OW22774   2.947   0.337   2.591
 7292SOL    HW122775   2.957   0.315   2.493
 7292SOL    HW222776   2.860   0.384   2.605
 7293SOL     OW22777   6.824   1.745   4.052
 7293SOL    HW122778   6.813   1.666   4.113
 7293SOL    HW222779   6.786   1.826   4.095
 7294SOL     OW22780   3.416   6.106   1.980
 7294SOL    HW122781   3.465   6.155   2.052
 7294SOL    HW222782   3.482   6.066   1.916
 7295SOL     OW22783   5.745   4.251   0.879
 7295SOL    HW122784   5.803   4.173   0.901
 7295SOL    HW222785   5.653   4.235   0.915
 7296SOL     OW22786   4.589   4.856   2.116
 7296SOL    HW122787   4.614   4.800   2.037
 7296SOL    HW222788   4.578   4.951   2.086
 7297SOL     OW22789   4.387   0.134   1.207
 7297SOL    HW122790   4.412   0.231   1.210
 7297SOL    HW222791   4.470   0.079   1.195
 7298SOL     OW22792   3.990   4.904   0.327
 7298SOL    HW122793   3.998   4.941   0.420
 7298SOL    HW222794   4.072   4.927   0.276
 7299SOL     OW22795   1.277   3.092   6.504
 7299SOL    HW122796   1.344   3.133   6.565
 7299SOL    HW222797   1.295   2.994   6.496
 7300SOL     OW22798   0.278   5.215   2.111
 7300SOL    HW122799   0.239   5.268   2.187
 7300SOL    HW222800   0.329   5.276   2.051
 7301SOL     OW22801   4.369   1.988   6.330
 7301SOL    HW122802   4.283   2.037   6.344
 7301SOL    HW222803   4.390   1.985   6.232
 7302SOL     OW22804   5.716   2.048   6.110
 7302SOL    HW122805   5.652   2.125   6.110
 7302SOL    HW222806   5.720   2.008   6.201
 7303SOL     OW22807   2.791   1.822   2.227
 7303SOL    HW122808   2.758   1.884   2.298
 7303SOL    HW222809   2.754   1.850   2.139
 7304SOL     OW22810   2.740   5.717   0.790
 7304SOL    HW122811   2.690   5.631   0.777
 7304SOL    HW222812   2.796   5.710   0.873
 7305SOL     OW22813   6.174   1.038   0.246
 7305SOL    HW122814   6.243   1.082   0.303
 7305SOL    HW222815   6.189   1.065   0.150
 7306SOL     OW22816   0.974   2.938   1.742
 7306SOL    HW122817   0.937   2.903   1.828
 7306SOL    HW222818   1.072   2.919   1.738
 7307SOL     OW22819   1.884   0.236   0.585
 7307SOL    HW122820   1.891   0.142   0.552
 7307SOL    HW222821   1.949   0.251   0.659
 7308SOL     OW22822   4.325   1.306   2.837
 7308SOL    HW122823   4.270   1.312   2.920
 7308SOL    HW222824   4.270   1.332   2.758
 7309SOL     OW22825   2.379   5.122   3.855
 7309SOL    HW122826   2.357   5.027   3.833
 7309SOL    HW222827   2.404   5.128   3.952
 7310SOL     OW22828   2.540   2.684   5.981
 7310SOL    HW122829   2.617   2.646   5.931
 7310SOL    HW222830   2.535   2.783   5.966
 7311SOL     OW22831   0.297   5.790   6.085
 7311SOL    HW122832   0.251   5.823   6.003
 7311SOL    HW222833   0.281   5.692   6.095
 7312SOL     OW22834   6.469   2.034   3.996
 7312SOL    HW122835   6.513   1.964   3.940
 7312SOL    HW222836   6.480   2.123   3.952
 7313SOL     OW22837   2.673   0.759   2.692
 7313SOL    HW122838   2.676   0.734   2.595
 7313SOL    HW222839   2.740   0.831   2.710
 7314SOL     OW22840   1.183   4.418   5.573
 7314SOL    HW122841   1.259   4.476   5.602
 7314SOL    HW222842   1.116   4.412   5.646
 7315SOL     OW22843   1.880   5.049   2.652
 7315SOL    HW122844   1.933   4.997   2.720
 7315SOL    HW222845   1.788   5.010   2.645
 7316SOL     OW22846   3.747   1.693   1.220
 7316SOL    HW122847   3.768   1.791   1.220
 7316SOL    HW222848   3.808   1.646   1.283
 7317SOL     OW22849   3.908   1.997   0.205
 7317SOL    HW122850   3.941   1.939   0.280
 7317SOL    HW222851   3.953   1.970   0.120
 7318SOL     OW22852   5.251   6.328   0.617
 7318SOL    HW122853   5.327   6.263   0.612
 7318SOL    HW222854   5.246   6.366   0.709
 7319SOL     OW22855   5.448   6.287   6.237
 7319SOL    HW122856   5.424   6.229   6.159
 7319SOL    HW222857   5.400   6.375   6.230
 7320SOL     OW22858   0.748   2.771   0.913
 7320SOL    HW122859   0.696   2.854   0.893
 7320SOL    HW222860   0.688   2.704   0.956
 7321SOL     OW22861   1.623   1.494   6.568
 7321SOL    HW122862   1.722   1.510   6.564
 7321SOL    HW222863   1.575   1.572   6.527
 7322SOL     OW22864   1.068   3.063   3.327
 7322SOL    HW122865   1.086   3.160   3.312
 7322SOL    HW222866   1.130   3.028   3.397
 7323SOL     OW22867   0.576   2.626   0.558
 7323SOL    HW122868   0.670   2.592   0.552
 7323SOL    HW222869   0.577   2.725   0.569
 7324SOL     OW22870   5.087   4.222   3.493
 7324SOL    HW122871   5.079   4.123   3.503
 7324SOL    HW222872   5.002   4.266   3.520
 7325SOL     OW22873   4.387   1.284   5.790
 7325SOL    HW122874   4.334   1.212   5.835
 7325SOL    HW222875   4.347   1.305   5.701
 7326SOL     OW22876   3.766   0.896   0.604
 7326SOL    HW122877   3.864   0.911   0.610
 7326SOL    HW222878   3.728   0.883   0.696
 7327SOL     OW22879   1.706   4.408   3.187
 7327SOL    HW122880   1.628   4.361   3.145
 7327SOL    HW222881   1.755   4.461   3.117
 7328SOL     OW22882   4.688   4.877   4.985
 7328SOL    HW122883   4.749   4.857   4.909
 7328SOL    HW222884   4.594   4.878   4.953
 7329SOL     OW22885   3.350   3.271   1.311
 7329SOL    HW122886   3.324   3.304   1.221
 7329SOL    HW222887   3.448   3.288   1.326
 7330SOL     OW22888   2.917   3.391   1.653
 7330SOL    HW122889   2.847   3.413   1.585
 7330SOL    HW222890   3.003   3.371   1.605
 7331SOL     OW22891   5.211   2.746   2.287
 7331SOL    HW122892   5.215   2.844   2.267
 7331SOL    HW222893   5.247   2.729   2.378
 7332SOL     OW22894   2.889   6.376   6.078
 7332SOL    HW122895   2.799   6.341   6.052
 7332SOL    HW222896   2.936   6.411   5.997
 7333SOL     OW22897   0.589   1.120   1.163
 7333SOL    HW122898   0.658   1.193   1.165
 7333SOL    HW222899   0.582   1.078   1.254
 7334SOL     OW22900   2.412   6.261   3.776
 7334SOL    HW122901   2.355   6.304   3.707
 7334SOL    HW222902   2.387   6.164   3.785
 7335SOL     OW22903   0.130   4.049   2.105
 7335SOL    HW122904   0.180   3.979   2.054
 7335SOL    HW222905   0.086   4.007   2.185
 7336SOL     OW22906   2.396   6.222   2.256
 7336SOL    HW122907   2.393   6.142   2.196
 7336SOL    HW222908   2.313   6.276   2.243
 7337SOL     OW22909   2.569   1.443   3.407
 7337SOL    HW122910   2.645   1.409   3.462
 7337SOL    HW222911   2.603   1.473   3.318
 7338SOL     OW22912   5.354   3.632   1.078
 7338SOL    HW122913   5.340   3.618   0.980
 7338SOL    HW222914   5.266   3.651   1.122
 7339SOL     OW22915   6.918   6.212   4.682
 7339SOL    HW122916   7.001   6.231   4.629
 7339SOL    HW222917   6.940   6.216   4.780
 7340SOL     OW22918   3.061   6.886   0.515
 7340SOL    HW122919   3.095   6.974   0.482
 7340SOL    HW222920   3.118   6.855   0.592
 7341SOL     OW22921   6.907   5.097   4.862
 7341SOL    HW122922   6.854   5.075   4.944
 7341SOL    HW222923   6.864   5.055   4.782
 7342SOL     OW22924   1.422   4.985   0.843
 7342SOL    HW122925   1.471   4.928   0.909
 7342SOL    HW222926   1.330   4.950   0.829
 7343SOL     OW22927   5.158   2.742   2.753
 7343SOL    HW122928   5.059   2.754   2.761
 7343SOL    HW222929   5.204   2.812   2.806
 7344SOL     OW22930   2.580   1.154   0.194
 7344SOL    HW122931   2.543   1.238   0.156
 7344SOL    HW222932   2.673   1.140   0.161
 7345SOL     OW22933   3.782   5.426   0.649
 7345SOL    HW122934   3.846   5.437   0.573
 7345SOL    HW222935   3.761   5.329   0.662
 7346SOL     OW22936   3.794   4.688   1.661
 7346SOL    HW122937   3.732   4.652   1.730
 7346SOL    HW222938   3.877   4.723   1.705
 7347SOL     OW22939   6.752   3.023   2.603
 7347SOL    HW122940   6.748   3.111   2.650
 7347SOL    HW222941   6.710   3.031   2.513
 7348SOL     OW22942   0.777   1.963   5.279
 7348SOL    HW122943   0.844   2.034   5.256
 7348SOL    HW222944   0.747   1.975   5.373
 7349SOL     OW22945   3.445   1.122   0.539
 7349SOL    HW122946   3.411   1.032   0.566
 7349SOL    HW222947   3.530   1.111   0.487
 7350SOL     OW22948   1.965   1.203   2.836
 7350SOL    HW122949   1.936   1.185   2.930
 7350SOL    HW222950   1.952   1.300   2.815
 7351SOL     OW22951   4.235   4.302   6.888
 7351SOL    HW122952   4.144   4.323   6.851
 7351SOL    HW222953   4.290   4.255   6.820
 7352SOL     OW22954   6.680   1.284   3.551
 7352SOL    HW122955   6.599   1.331   3.585
 7352SOL    HW222956   6.704   1.209   3.613
 7353SOL     OW22957   4.769   2.162   4.913
 7353SOL    HW122958   4.846   2.101   4.930
 7353SOL    HW222959   4.744   2.158   4.817
 7354SOL     OW22960   6.318   4.450   5.079
 7354SOL    HW122961   6.227   4.416   5.056
 7354SOL    HW222962   6.385   4.376   5.068
 7355SOL     OW22963   0.950   4.461   1.862
 7355SOL    HW122964   0.859   4.423   1.876
 7355SOL    HW222965   0.976   4.450   1.766
 7356SOL     OW22966   6.410   0.955   5.487
 7356SOL    HW122967   6.317   0.925   5.468
 7356SOL    HW222968   6.459   0.881   5.534
 7357SOL     OW22969   6.839   1.481   0.726
 7357SOL    HW122970   6.758   1.513   0.678
 7357SOL    HW222971   6.917   1.482   0.663
 7358SOL     OW22972   2.932   0.576   4.054
 7358SOL    HW122973   2.998   0.629   4.107
 7358SOL    HW222974   2.896   0.502   4.109
 7359SOL     OW22975   3.447   3.170   3.084
 7359SOL    HW122976   3.469   3.253   3.033
 7359SOL    HW222977   3.519   3.103   3.071
 7360SOL     OW22978   0.462   3.082   5.528
 7360SOL    HW122979   0.475   3.093   5.429
 7360SOL    HW222980   0.549   3.059   5.571
 7361SOL     OW22981   5.191   0.011   2.168
 7361SOL    HW122982   5.132   6.955   2.140
 7361SOL    HW222983   5.135   0.088   2.197
 7362SOL     OW22984   1.741   6.791   6.137
 7362SOL    HW122985   1.650   6.810   6.101
 7362SOL    HW222986   1.743   6.701   6.179
 7363SOL     OW22987   5.399   2.925   6.210
 7363SOL    HW122988   5.360   2.938   6.119
 7363SOL    HW222989   5.385   3.008   6.264
 7364SOL     OW22990   5.447   0.835   1.621
 7364SOL    HW122991   5.397   0.917   1.594
 7364SOL    HW222992   5.414   0.757   1.569
 7365SOL     OW22993   3.356   1.051   2.160
 7365SOL    HW122994   3.442   1.015   2.195
 7365SOL    HW222995   3.297   0.975   2.131
 7366SOL     OW22996   0.855   5.321   0.475
 7366SOL    HW122997   0.873   5.241   0.418
 7366SOL    HW222998   0.939   5.349   0.522
 7367SOL     OW22999   5.416   3.280   6.825
 7367SOL    HW123000   5.471   3.320   6.898
 7367SOL    HW223001   5.323   3.263   6.858
 7368SOL     OW23002   3.287   3.395   3.749
 7368SOL    HW123003   3.198   3.426   3.780
 7368SOL    HW223004   3.342   3.366   3.828
 7369SOL     OW23005   4.876   2.455   6.514
 7369SOL    HW123006   4.861   2.458   6.416
 7369SOL    HW223007   4.806   2.396   6.556
 7370SOL     OW23008   1.701   6.549   1.380
 7370SOL    HW123009   1.777   6.487   1.398
 7370SOL    HW223010   1.614   6.502   1.399
 7371SOL     OW23011   2.342   4.842   4.659
 7371SOL    HW123012   2.402   4.764   4.642
 7371SOL    HW223013   2.291   4.827   4.744
 7372SOL     OW23014   3.259   6.718   5.890
 7372SOL    HW123015   3.163   6.745   5.886
 7372SOL    HW223016   3.277   6.669   5.975
 7373SOL     OW23017   4.113   0.770   1.681
 7373SOL    HW123018   4.133   0.868   1.684
 7373SOL    HW223019   4.016   0.756   1.657
 7374SOL     OW23020   1.857   3.353   6.367
 7374SOL    HW123021   1.776   3.321   6.317
 7374SOL    HW223022   1.923   3.391   6.303
 7375SOL     OW23023   1.449   7.000   2.993
 7375SOL    HW123024   1.437   6.952   2.906
 7375SOL    HW223025   1.401   6.952   3.066
 7376SOL     OW23026   2.569   3.545   5.905
 7376SOL    HW123027   2.549   3.598   5.823
 7376SOL    HW223028   2.545   3.598   5.986
 7377SOL     OW23029   4.832   4.781   1.606
 7377SOL    HW123030   4.863   4.808   1.697
 7377SOL    HW223031   4.878   4.696   1.579
 7378SOL     OW23032   6.656   2.392   5.942
 7378SOL    HW123033   6.580   2.327   5.946
 7378SOL    HW223034   6.734   2.348   5.896
 7379SOL     OW23035   4.057   1.215   1.286
 7379SOL    HW123036   4.125   1.281   1.253
 7379SOL    HW223037   3.967   1.240   1.252
 7380SOL     OW23038   0.021   2.743   4.903
 7380SOL    HW123039   7.011   2.830   4.942
 7380SOL    HW223040   7.018   2.741   4.805
 7381SOL     OW23041   5.512   2.535   0.352
 7381SOL    HW123042   5.561   2.532   0.265
 7381SOL    HW223043   5.510   2.444   0.393
 7382SOL     OW23044   6.482   6.073   3.831
 7382SOL    HW123045   6.497   6.066   3.930
 7382SOL    HW223046   6.438   5.989   3.798
 7383SOL     OW23047   6.716   6.225   3.743
 7383SOL    HW123048   6.795   6.166   3.725
 7383SOL    HW223049   6.644   6.172   3.788
 7384SOL     OW23050   5.684   1.375   1.824
 7384SOL    HW123051   5.606   1.353   1.881
 7384SOL    HW223052   5.768   1.349   1.871
 7385SOL     OW23053   4.746   0.183   1.807
 7385SOL    HW123054   4.760   0.093   1.765
 7385SOL    HW223055   4.831   0.214   1.850
 7386SOL     OW23056   0.270   2.690   5.804
 7386SOL    HW123057   0.320   2.695   5.891
 7386SOL    HW223058   0.252   2.782   5.770
 7387SOL     OW23059   3.903   5.643   3.353
 7387SOL    HW123060   3.851   5.569   3.310
 7387SOL    HW223061   3.858   5.730   3.334
 7388SOL     OW23062   6.625   4.554   4.569
 7388SOL    HW123063   6.678   4.621   4.517
 7388SOL    HW223064   6.635   4.571   4.667
 7389SOL     OW23065   0.810   3.945   5.624
 7389SOL    HW123066   0.730   3.980   5.576
 7389SOL    HW223067   0.826   3.850   5.598
 7390SOL     OW23068   2.169   6.573   5.616
 7390SOL    HW123069   2.119   6.498   5.573
 7390SOL    HW223070   2.105   6.648   5.638
 7391SOL     OW23071   6.934   3.492   0.342
 7391SOL    HW123072   6.999   3.416   0.347
 7391SOL    HW223073   6.921   3.529   0.434
 7392SOL     OW23074   2.562   5.052   3.226
 7392SOL    HW123075   2.566   4.958   3.259
 7392SOL    HW223076   2.551   5.052   3.126
 7393SOL     OW23077   0.604   3.659   1.317
 7393SOL    HW123078   0.645   3.573   1.289
 7393SOL    HW223079   0.592   3.660   1.416
 7394SOL     OW23080   2.751   3.374   6.521
 7394SOL    HW123081   2.828   3.315   6.497
 7394SOL    HW223082   2.707   3.340   6.604
 7395SOL     OW23083   1.429   6.498   0.244
 7395SOL    HW123084   1.376   6.414   0.234
 7395SOL    HW223085   1.453   6.511   0.340
 7396SOL     OW23086   1.233   0.096   0.677
 7396SOL    HW123087   1.138   0.105   0.647
 7396SOL    HW223088   1.266   0.183   0.712
 7397SOL     OW23089   6.649   4.581   4.875
 7397SOL    HW123090   6.648   4.484   4.902
 7397SOL    HW223091   6.709   4.632   4.937
 7398SOL     OW23092   3.974   5.867   3.499
 7398SOL    HW123093   3.994   5.773   3.469
 7398SOL    HW223094   4.059   5.913   3.524
 7399SOL     OW23095   5.208   4.251   5.131
 7399SOL    HW123096   5.279   4.321   5.128
 7399SOL    HW223097   5.128   4.283   5.081
 7400SOL     OW23098   2.544   5.200   6.722
 7400SOL    HW123099   2.513   5.105   6.730
 7400SOL    HW223100   2.608   5.221   6.796
 7401SOL     OW23101   5.577   1.512   4.295
 7401SOL    HW123102   5.571   1.525   4.197
 7401SOL    HW223103   5.531   1.427   4.321
 7402SOL     OW23104   2.021   6.795   3.606
 7402SOL    HW123105   2.065   6.753   3.527
 7402SOL    HW223106   2.024   6.732   3.684
 7403SOL     OW23107   1.935   3.781   1.420
 7403SOL    HW123108   1.838   3.798   1.439
 7403SOL    HW223109   1.943   3.720   1.341
 7404SOL     OW23110   1.213   1.364   2.754
 7404SOL    HW123111   1.222   1.414   2.840
 7404SOL    HW223112   1.295   1.379   2.698
 7405SOL     OW23113   2.482   4.612   5.977
 7405SOL    HW123114   2.571   4.613   5.931
 7405SOL    HW223115   2.471   4.526   6.026
 7406SOL     OW23116   0.579   5.347   1.927
 7406SOL    HW123117   0.640   5.396   1.864
 7406SOL    HW223118   0.560   5.256   1.891
 7407SOL     OW23119   1.622   0.560   6.054
 7407SOL    HW123120   1.641   0.632   5.988
 7407SOL    HW223121   1.543   0.587   6.110
 7408SOL     OW23122   1.045   3.523   5.705
 7408SOL    HW123123   1.073   3.596   5.768
 7408SOL    HW223124   1.124   3.495   5.650
 7409SOL     OW23125   2.732   5.589   5.990
 7409SOL    HW123126   2.806   5.541   6.036
 7409SOL    HW223127   2.769   5.669   5.942
 7410SOL     OW23128   5.788   5.412   0.735
 7410SOL    HW123129   5.703   5.378   0.774
 7410SOL    HW223130   5.844   5.335   0.705
 7411SOL     OW23131   4.648   5.917   5.301
 7411SOL    HW123132   4.626   5.886   5.209
 7411SOL    HW223133   4.705   5.998   5.296
 7412SOL     OW23134   1.402   2.006   6.942
 7412SOL    HW123135   1.394   2.054   0.010
 7412SOL    HW223136   1.369   2.064   6.868
 7413SOL     OW23137   6.904   3.429   4.312
 7413SOL    HW123138   6.881   3.502   4.248
 7413SOL    HW223139   6.822   3.376   4.333
 7414SOL     OW23140   6.570   5.612   3.055
 7414SOL    HW123141   6.536   5.668   3.130
 7414SOL    HW223142   6.611   5.671   2.985
 7415SOL     OW23143   2.414   1.541   2.593
 7415SOL    HW123144   2.467   1.499   2.667
 7415SOL    HW223145   2.468   1.614   2.550
 7416SOL     OW23146   5.018   6.553   4.125
 7416SOL    HW123147   5.102   6.603   4.146
 7416SOL    HW223148   5.005   6.478   4.190
 7417SOL     OW23149   0.641   6.090   0.461
 7417SOL    HW123150   0.621   6.184   0.489
 7417SOL    HW223151   0.569   6.029   0.496
 7418SOL     OW23152   1.368   3.427   0.513
 7418SOL    HW123153   1.310   3.434   0.594
 7418SOL    HW223154   1.426   3.507   0.506
 7419SOL     OW23155   5.863   1.120   4.550
 7419SOL    HW123156   5.956   1.106   4.584
 7419SOL    HW223157   5.812   1.178   4.613
 7420SOL     OW23158   0.196   5.539   2.104
 7420SOL    HW123159   0.134   5.604   2.060
 7420SOL    HW223160   0.205   5.561   2.201
 7421SOL     OW23161   4.104   2.966   1.417
 7421SOL    HW123162   4.079   2.921   1.502
 7421SOL    HW223163   4.203   2.983   1.415
 7422SOL     OW23164   0.727   3.100   0.737
 7422SOL    HW123165   0.668   3.048   0.676
 7422SOL    HW223166   0.821   3.100   0.701
 7423SOL     OW23167   2.188   5.964   6.999
 7423SOL    HW123168   2.103   5.921   6.969
 7423SOL    HW223169   2.173   6.062   7.011
 7424SOL     OW23170   6.201   1.355   4.347
 7424SOL    HW123171   6.108   1.320   4.351
 7424SOL    HW223172   6.238   1.341   4.255
 7425SOL     OW23173   4.071   6.248   5.848
 7425SOL    HW123174   3.993   6.266   5.789
 7425SOL    HW223175   4.043   6.250   5.943
 7426SOL     OW23176   0.761   0.859   6.947
 7426SOL    HW123177   0.810   0.927   7.002
 7426SOL    HW223178   0.812   0.773   6.946
 7427SOL     OW23179   4.443   5.803   4.313
 7427SOL    HW123180   4.353   5.779   4.349
 7427SOL    HW223181   4.505   5.825   4.388
 7428SOL     OW23182   3.034   2.083   6.303
 7428SOL    HW123183   3.118   2.076   6.357
 7428SOL    HW223184   2.977   2.157   6.339
 7429SOL     OW23185   6.234   6.716   3.630
 7429SOL    HW123186   6.228   6.803   3.583
 7429SOL    HW223187   6.197   6.725   3.723
 7430SOL     OW23188   0.731   4.113   4.884
 7430SOL    HW123189   0.796   4.185   4.907
 7430SOL    HW223190   0.645   4.154   4.853
 7431SOL     OW23191   0.898   4.488   2.384
 7431SOL    HW123192   0.956   4.409   2.404
 7431SOL    HW223193   0.846   4.471   2.300
 7432SOL     OW23194   0.789   5.981   5.084
 7432SOL    HW123195   0.838   5.895   5.072
 7432SOL    HW223196   0.700   5.964   5.126
 7433SOL     OW23197   6.864   5.661   0.885
 7433SOL    HW123198   6.841   5.742   0.939
 7433SOL    HW223199   6.952   5.625   0.915
 7434SOL     OW23200   4.757   0.293   6.545
 7434SOL    HW123201   4.842   0.259   6.505
 7434SOL    HW223202   4.680   0.237   6.511
 7435SOL     OW23203   1.473   5.915   0.706
 7435SOL    HW123204   1.548   5.965   0.664
 7435SOL    HW223205   1.474   5.929   0.805
 7436SOL     OW23206   5.230   2.876   6.668
 7436SOL    HW123207   5.173   2.922   6.736
 7436SOL    HW223208   5.173   2.822   6.607
 7437SOL     OW23209   0.105   5.879   5.902
 7437SOL    HW123210   0.031   5.813   5.918
 7437SOL    HW223211   0.071   5.972   5.917
 7438SOL     OW23212   6.371   4.232   1.921
 7438SOL    HW123213   6.326   4.310   1.878
 7438SOL    HW223214   6.434   4.190   1.856
 7439SOL     OW23215   1.336   6.521   3.949
 7439SOL    HW123216   1.412   6.584   3.961
 7439SOL    HW223217   1.367   6.427   3.963
 7440SOL     OW23218   0.773   2.169   4.044
 7440SOL    HW123219   0.873   2.169   4.036
 7440SOL    HW223220   0.735   2.106   3.976
 7441SOL     OW23221   4.980   0.176   4.119
 7441SOL    HW123222   5.005   0.267   4.153
 7441SOL    HW223223   5.059   0.115   4.128
 7442SOL     OW23224   1.653   1.074   6.889
 7442SOL    HW123225   1.730   1.028   6.844
 7442SOL    HW223226   1.639   1.164   6.848
 7443SOL     OW23227   6.686   1.283   1.164
 7443SOL    HW123228   6.785   1.267   1.157
 7443SOL    HW223229   6.666   1.324   1.253
 7444SOL     OW23230   0.215   2.510   6.452
 7444SOL    HW123231   0.271   2.517   6.369
 7444SOL    HW223232   0.135   2.453   6.434
 7445SOL     OW23233   5.629   2.779   2.383
 7445SOL    HW123234   5.613   2.859   2.442
 7445SOL    HW223235   5.649   2.700   2.440
 7446SOL     OW23236   6.944   3.356   1.146
 7446SOL    HW123237   6.951   3.350   1.046
 7446SOL    HW223238   6.970   3.268   1.186
 7447SOL     OW23239   0.590   4.398   6.071
 7447SOL    HW123240   0.662   4.381   6.137
 7447SOL    HW223241   0.568   4.313   6.023
 7448SOL     OW23242   6.864   6.483   5.909
 7448SOL    HW123243   6.825   6.575   5.907
 7448SOL    HW223244   6.791   6.416   5.899
 7449SOL     OW23245   5.074   1.346   2.186
 7449SOL    HW123246   5.153   1.377   2.240
 7449SOL    HW223247   5.002   1.416   2.190
 7450SOL     OW23248   3.365   0.365   2.571
 7450SOL    HW123249   3.333   0.445   2.520
 7450SOL    HW223250   3.311   0.356   2.655
 7451SOL     OW23251   1.898   1.023   3.522
 7451SOL    HW123252   1.952   0.941   3.502
 7451SOL    HW223253   1.852   1.013   3.610
 7452SOL     OW23254   1.347   6.783   5.200
 7452SOL    HW123255   1.296   6.847   5.258
 7452SOL    HW223256   1.390   6.714   5.257
 7453SOL     OW23257   5.434   6.075   5.004
 7453SOL    HW123258   5.445   6.053   5.101
 7453SOL    HW223259   5.489   6.155   4.981
 7454SOL     OW23260   0.396   3.514   0.569
 7454SOL    HW123261   0.486   3.536   0.533
 7454SOL    HW223262   0.333   3.499   0.492
 7455SOL     OW23263   5.625   1.835   0.145
 7455SOL    HW123264   5.624   1.819   0.244
 7455SOL    HW223265   5.562   1.908   0.122
 7456SOL     OW23266   1.991   3.433   5.508
 7456SOL    HW123267   1.964   3.491   5.585
 7456SOL    HW223268   2.063   3.371   5.538
 7457SOL     OW23269   5.955   0.269   6.131
 7457SOL    HW123270   5.978   0.296   6.224
 7457SOL    HW223271   5.950   0.170   6.125
 7458SOL     OW23272   2.518   0.975   0.393
 7458SOL    HW123273   2.525   1.058   0.337
 7458SOL    HW223274   2.512   1.001   0.489
 7459SOL     OW23275   4.641   0.827   4.666
 7459SOL    HW123276   4.604   0.753   4.611
 7459SOL    HW223277   4.656   0.908   4.608
 7460SOL     OW23278   0.890   4.786   7.013
 7460SOL    HW123279   0.964   4.720   7.018
 7460SOL    HW223280   0.850   4.786   6.921
 7461SOL     OW23281   4.595   0.490   3.793
 7461SOL    HW123282   4.591   0.458   3.887
 7461SOL    HW223283   4.690   0.509   3.768
 7462SOL     OW23284   1.756   1.238   2.254
 7462SOL    HW123285   1.664   1.218   2.287
 7462SOL    HW223286   1.751   1.305   2.180
 7463SOL     OW23287   3.368   3.711   2.430
 7463SOL    HW123288   3.296   3.723   2.499
 7463SOL    HW223289   3.382   3.796   2.381
 7464SOL     OW23290   5.383   6.081   6.425
 7464SOL    HW123291   5.442   6.060   6.503
 7464SOL    HW223292   5.406   6.172   6.390
 7465SOL     OW23293   3.104   0.431   1.673
 7465SOL    HW123294   3.018   0.468   1.709
 7465SOL    HW223295   3.087   0.346   1.624
 7466SOL     OW23296   1.079   0.634   6.328
 7466SOL    HW123297   1.126   0.558   6.284
 7466SOL    HW223298   1.074   0.618   6.427
 7467SOL     OW23299   6.568   1.762   1.228
 7467SOL    HW123300   6.562   1.739   1.325
 7467SOL    HW223301   6.610   1.852   1.218
 7468SOL     OW23302   6.299   3.545   3.556
 7468SOL    HW123303   6.373   3.480   3.576
 7468SOL    HW223304   6.293   3.559   3.457
 7469SOL     OW23305   0.196   1.329   1.771
 7469SOL    HW123306   0.148   1.393   1.831
 7469SOL    HW223307   0.130   1.270   1.725
 7470SOL     OW23308   6.993   2.778   2.369
 7470SOL    HW123309   6.923   2.762   2.299
 7470SOL    HW223310   6.954   2.759   2.459
 7471SOL     OW23311   6.410   5.810   6.204
 7471SOL    HW123312   6.390   5.713   6.213
 7471SOL    HW223313   6.440   5.830   6.111
 7472SOL     OW23314   3.175   5.769   3.468
 7472SOL    HW123315   3.167   5.851   3.411
 7472SOL    HW223316   3.264   5.768   3.513
 7473SOL     OW23317   0.598   3.498   5.027
 7473SOL    HW123318   0.611   3.483   5.125
 7473SOL    HW223319   0.601   3.410   4.979
 7474SOL     OW23320   4.219   0.910   2.785
 7474SOL    HW123321   4.152   0.984   2.771
 7474SOL    HW223322   4.257   0.883   2.697
 7475SOL     OW23323   4.076   1.654   0.046
 7475SOL    HW123324   4.022   1.633   0.128
 7475SOL    HW223325   4.019   1.639   6.984
 7476SOL     OW23326   3.504   0.106   4.629
 7476SOL    HW123327   3.487   0.016   4.669
 7476SOL    HW223328   3.467   0.177   4.688
 7477SOL     OW23329   4.685   2.188   3.493
 7477SOL    HW123330   4.659   2.278   3.529
 7477SOL    HW223331   4.611   2.152   3.436
 7478SOL     OW23332   2.202   5.156   1.062
 7478SOL    HW123333   2.275   5.093   1.035
 7478SOL    HW223334   2.185   5.220   0.988
 7479SOL     OW23335   4.631   0.536   6.610
 7479SOL    HW123336   4.673   0.555   6.699
 7479SOL    HW223337   4.678   0.461   6.566
 7480SOL     OW23338   7.003   4.806   0.889
 7480SOL    HW123339   0.080   4.800   0.862
 7480SOL    HW223340   6.953   4.727   0.852
 7481SOL     OW23341   6.132   5.444   0.831
 7481SOL    HW123342   6.203   5.391   0.878
 7481SOL    HW223343   6.059   5.466   0.896
 7482SOL     OW23344   4.780   0.568   4.451
 7482SOL    HW123345   4.858   0.507   4.466
 7482SOL    HW223346   4.812   0.651   4.405
 7483SOL     OW23347   3.354   0.737   6.035
 7483SOL    HW123348   3.327   0.819   6.085
 7483SOL    HW223349   3.299   0.728   5.952
 7484SOL     OW23350   2.205   6.965   2.197
 7484SOL    HW123351   2.243   0.031   2.162
 7484SOL    HW223352   2.257   6.936   2.277
 7485SOL     OW23353   1.480   6.404   6.586
 7485SOL    HW123354   1.563   6.457   6.606
 7485SOL    HW223355   1.489   6.361   6.496
 7486SOL     OW23356   1.924   0.247   5.601
 7486SOL    HW123357   1.858   0.289   5.539
 7486SOL    HW223358   2.008   0.227   5.551
 7487SOL     OW23359   4.034   5.449   3.501
 7487SOL    HW123360   4.084   5.510   3.563
 7487SOL    HW223361   3.964   5.500   3.453
 7488SOL     OW23362   3.809   1.224   5.971
 7488SOL    HW123363   3.891   1.282   5.969
 7488SOL    HW223364   3.813   1.164   6.050
 7489SOL     OW23365   6.225   3.525   3.292
 7489SOL    HW123366   6.139   3.571   3.267
 7489SOL    HW223367   6.285   3.520   3.211
 7490SOL     OW23368   5.790   1.652   1.773
 7490SOL    HW123369   5.746   1.583   1.832
 7490SOL    HW223370   5.724   1.684   1.705
 7491SOL     OW23371   6.548   5.392   6.307
 7491SOL    HW123372   6.553   5.468   6.372
 7491SOL    HW223373   6.474   5.330   6.335
 7492SOL     OW23374   2.297   2.657   4.517
 7492SOL    HW123375   2.366   2.638   4.588
 7492SOL    HW223376   2.340   2.650   4.427
 7493SOL     OW23377   5.479   3.631   6.971
 7493SOL    HW123378   5.521   3.710   7.014
 7493SOL    HW223379   5.550   3.573   6.931
 7494SOL     OW23380   5.080   1.848   1.391
 7494SOL    HW123381   5.155   1.844   1.325
 7494SOL    HW223382   5.019   1.924   1.367
 7495SOL     OW23383   0.592   1.980   2.165
 7495SOL    HW123384   0.578   1.900   2.223
 7495SOL    HW223385   0.504   2.016   2.135
 7496SOL     OW23386   1.014   4.415   5.325
 7496SOL    HW123387   1.064   4.367   5.254
 7496SOL    HW223388   1.068   4.418   5.409
 7497SOL     OW23389   2.298   4.774   1.596
 7497SOL    HW123390   2.377   4.819   1.637
 7497SOL    HW223391   2.221   4.774   1.660
 7498SOL     OW23392   4.398   1.587   4.364
 7498SOL    HW123393   4.460   1.661   4.391
 7498SOL    HW223394   4.368   1.601   4.269
 7499SOL     OW23395   5.201   5.516   4.187
 7499SOL    HW123396   5.291   5.474   4.194
 7499SOL    HW223397   5.175   5.524   4.091
 7500SOL     OW23398   5.263   4.375   1.380
 7500SOL    HW123399   5.232   4.470   1.375
 7500SOL    HW223400   5.187   4.313   1.361
 7501SOL     OW23401   0.162   4.487   3.811
 7501SOL    HW123402   0.123   4.425   3.743
 7501SOL    HW223403   0.245   4.446   3.850
 7502SOL     OW23404   1.810   1.390   4.828
 7502SOL    HW123405   1.839   1.395   4.924
 7502SOL    HW223406   1.739   1.459   4.811
 7503SOL     OW23407   2.152   2.471   5.868
 7503SOL    HW123408   2.122   2.564   5.843
 7503SOL    HW223409   2.246   2.457   5.840
 7504SOL     OW23410   4.203   5.588   3.648
 7504SOL    HW123411   4.297   5.613   3.672
 7504SOL    HW223412   4.139   5.650   3.694
 7505SOL     OW23413   1.224   1.603   4.681
 7505SOL    HW123414   1.161   1.667   4.638
 7505SOL    HW223415   1.186   1.573   4.769
 7506SOL     OW23416   3.589   1.425   3.479
 7506SOL    HW123417   3.551   1.410   3.570
 7506SOL    HW223418   3.685   1.397   3.477
 7507SOL     OW23419   0.976   6.092   6.053
 7507SOL    HW123420   0.899   6.054   6.104
 7507SOL    HW223421   0.952   6.096   5.956
 7508SOL     OW23422   4.889   0.236   3.541
 7508SOL    HW123423   4.941   0.153   3.520
 7508SOL    HW223424   4.942   0.295   3.601
 7509SOL     OW23425   4.682   3.962   5.555
 7509SOL    HW123426   4.766   3.964   5.502
 7509SOL    HW223427   4.623   4.038   5.528
 7510SOL     OW23428   3.626   4.285   5.141
 7510SOL    HW123429   3.602   4.342   5.219
 7510SOL    HW223430   3.542   4.252   5.097
 7511SOL     OW23431   1.360   0.574   2.437
 7511SOL    HW123432   1.406   0.626   2.509
 7511SOL    HW223433   1.351   0.631   2.356
 7512SOL     OW23434   1.951   2.902   2.091
 7512SOL    HW123435   1.959   2.883   1.993
 7512SOL    HW223436   1.860   2.938   2.112
 7513SOL     OW23437   1.278   2.798   6.471
 7513SOL    HW123438   1.183   2.791   6.439
 7513SOL    HW223439   1.294   2.728   6.541
 7514SOL     OW23440   2.577   5.851   3.178
 7514SOL    HW123441   2.594   5.753   3.164
 7514SOL    HW223442   2.615   5.902   3.101
 7515SOL     OW23443   6.175   5.496   2.533
 7515SOL    HW123444   6.122   5.426   2.581
 7515SOL    HW223445   6.127   5.584   2.539
 7516SOL     OW23446   0.478   0.961   2.810
 7516SOL    HW123447   0.385   0.995   2.795
 7516SOL    HW223448   0.530   1.028   2.863
 7517SOL     OW23449   0.275   3.751   1.541
 7517SOL    HW123450   0.265   3.744   1.641
 7517SOL    HW223451   0.265   3.846   1.513
 7518SOL     OW23452   5.039   5.539   3.941
 7518SOL    HW123453   5.066   5.449   3.907
 7518SOL    HW223454   4.954   5.532   3.992
 7519SOL     OW23455   2.329   5.827   4.145
 7519SOL    HW123456   2.404   5.817   4.211
 7519SOL    HW223457   2.343   5.763   4.069
 7520SOL     OW23458   2.159   6.776   4.709
 7520SOL    HW123459   2.110   6.863   4.720
 7520SOL    HW223460   2.244   6.779   4.761
 7521SOL     OW23461   5.050   4.307   5.776
 7521SOL    HW123462   5.071   4.354   5.690
 7521SOL    HW223463   5.131   4.307   5.835
 7522SOL     OW23464   1.669   0.878   1.667
 7522SOL    HW123465   1.634   0.910   1.579
 7522SOL    HW223466   1.623   0.927   1.741
 7523SOL     OW23467   6.142   6.457   6.801
 7523SOL    HW123468   6.157   6.524   6.874
 7523SOL    HW223469   6.210   6.471   6.729
 7524SOL     OW23470   6.831   1.438   4.494
 7524SOL    HW123471   6.811   1.350   4.536
 7524SOL    HW223472   6.928   1.459   4.504
 7525SOL     OW23473   1.844   6.919   0.875
 7525SOL    HW123474   1.872   7.004   0.919
 7525SOL    HW223475   1.779   6.871   0.934
 7526SOL     OW23476   3.700   3.230   5.100
 7526SOL    HW123477   3.772   3.300   5.098
 7526SOL    HW223478   3.685   3.196   5.008
 7527SOL     OW23479   5.671   4.614   2.920
 7527SOL    HW123480   5.699   4.578   3.009
 7527SOL    HW223481   5.572   4.631   2.920
 7528SOL     OW23482   6.923   3.663   6.458
 7528SOL    HW123483   6.944   3.707   6.545
 7528SOL    HW223484   6.942   3.727   6.383
 7529SOL     OW23485   3.156   1.400   5.768
 7529SOL    HW123486   3.068   1.409   5.814
 7529SOL    HW223487   3.197   1.311   5.788
 7530SOL     OW23488   0.359   3.274   2.642
 7530SOL    HW123489   0.262   3.279   2.664
 7530SOL    HW223490   0.410   3.335   2.702
 7531SOL     OW23491   3.697   1.911   3.623
 7531SOL    HW123492   3.620   1.894   3.562
 7531SOL    HW223493   3.670   1.973   3.696
 7532SOL     OW23494   5.031   4.735   2.699
 7532SOL    HW123495   5.052   4.722   2.602
 7532SOL    HW223496   4.978   4.657   2.732
 7533SOL     OW23497   3.886   0.261   4.371
 7533SOL    HW123498   3.880   0.347   4.320
 7533SOL    HW223499   3.921   0.278   4.462
 7534SOL     OW23500   5.088   6.859   4.661
 7534SOL    HW123501   5.039   6.806   4.730
 7534SOL    HW223502   5.028   6.876   4.583
 7535SOL     OW23503   3.272   3.558   6.297
 7535SOL    HW123504   3.191   3.560   6.355
 7535SOL    HW223505   3.313   3.467   6.300
 7536SOL     OW23506   3.377   6.401   4.237
 7536SOL    HW123507   3.384   6.450   4.150
 7536SOL    HW223508   3.297   6.340   4.233
 7537SOL     OW23509   2.169   4.896   5.733
 7537SOL    HW123510   2.091   4.842   5.702
 7537SOL    HW223511   2.196   4.865   5.824
 7538SOL     OW23512   3.126   3.008   2.294
 7538SOL    HW123513   3.144   3.098   2.334
 7538SOL    HW223514   3.152   2.937   2.359
 7539SOL     OW23515   1.962   2.972   4.558
 7539SOL    HW123516   1.970   2.881   4.599
 7539SOL    HW223517   2.032   3.032   4.595
 7540SOL     OW23518   2.360   1.603   0.336
 7540SOL    HW123519   2.315   1.522   0.374
 7540SOL    HW223520   2.448   1.615   0.381
 7541SOL     OW23521   6.698   2.658   6.025
 7541SOL    HW123522   6.661   2.567   6.006
 7541SOL    HW223523   6.662   2.692   6.111
 7542SOL     OW23524   1.603   6.896   6.863
 7542SOL    HW123525   1.660   6.977   6.849
 7542SOL    HW223526   1.522   6.902   6.804
 7543SOL     OW23527   3.767   3.295   0.084
 7543SOL    HW123528   3.823   3.227   0.037
 7543SOL    HW223529   3.809   3.385   0.076
 7544SOL     OW23530   2.310   2.331   2.581
 7544SOL    HW123531   2.304   2.368   2.674
 7544SOL    HW223532   2.225   2.352   2.532
 7545SOL     OW23533   5.046   6.338   4.307
 7545SOL    HW123534   5.068   6.251   4.350
 7545SOL    HW223535   5.131   6.384   4.279
 7546SOL     OW23536   5.171   0.490   6.765
 7546SOL    HW123537   5.098   0.423   6.784
 7546SOL    HW223538   5.258   0.442   6.754
 7547SOL     OW23539   3.462   0.215   0.293
 7547SOL    HW123540   3.384   0.154   0.308
 7547SOL    HW223541   3.435   0.309   0.316
 7548SOL     OW23542   1.318   2.732   1.187
 7548SOL    HW123543   1.277   2.679   1.114
 7548SOL    HW223544   1.278   2.705   1.275
 7549SOL     OW23545   6.314   2.202   2.320
 7549SOL    HW123546   6.247   2.132   2.343
 7549SOL    HW223547   6.349   2.244   2.404
 7550SOL     OW23548   2.047   5.549   1.052
 7550SOL    HW123549   2.047   5.484   0.976
 7550SOL    HW223550   2.004   5.635   1.023
 7551SOL     OW23551   4.966   3.562   6.280
 7551SOL    HW123552   5.010   3.483   6.322
 7551SOL    HW223553   4.994   3.645   6.328
 7552SOL     OW23554   3.447   5.074   3.890
 7552SOL    HW123555   3.447   5.172   3.874
 7552SOL    HW223556   3.404   5.027   3.812
 7553SOL     OW23557   4.132   4.796   5.940
 7553SOL    HW123558   4.226   4.771   5.917
 7553SOL    HW223559   4.081   4.813   5.856
 7554SOL     OW23560   6.272   1.202   1.182
 7554SOL    HW123561   6.342   1.265   1.149
 7554SOL    HW223562   6.315   1.131   1.239
 7555SOL     OW23563   0.849   5.501   5.264
 7555SOL    HW123564   0.826   5.552   5.347
 7555SOL    HW223565   0.939   5.457   5.276
 7556SOL     OW23566   0.361   3.244   4.694
 7556SOL    HW123567   0.327   3.337   4.682
 7556SOL    HW223568   0.358   3.196   4.606
 7557SOL     OW23569   4.583   3.415   6.973
 7557SOL    HW123570   4.649   3.487   6.954
 7557SOL    HW223571   4.558   3.369   6.887
 7558SOL     OW23572   1.373   3.302   3.484
 7558SOL    HW123573   1.441   3.368   3.452
 7558SOL    HW223574   1.414   3.210   3.485
 7559SOL     OW23575   0.655   4.166   1.206
 7559SOL    HW123576   0.638   4.071   1.234
 7559SOL    HW223577   0.714   4.166   1.126
 7560SOL     OW23578   4.304   6.733   6.653
 7560SOL    HW123579   4.254   6.649   6.632
 7560SOL    HW223580   4.269   6.772   6.738
 7561SOL     OW23581   0.565   2.983   0.980
 7561SOL    HW123582   0.468   2.961   0.987
 7561SOL    HW223583   0.581   3.076   1.013
 7562SOL     OW23584   4.860   5.685   5.374
 7562SOL    HW123585   4.872   5.772   5.328
 7562SOL    HW223586   4.780   5.638   5.336
 7563SOL     OW23587   2.042   0.783   2.621
 7563SOL    HW123588   2.059   0.845   2.544
 7563SOL    HW223589   2.127   0.739   2.648
 7564SOL     OW23590   4.957   5.967   3.949
 7564SOL    HW123591   4.858   5.980   3.944
 7564SOL    HW223592   4.979   5.911   4.028
 7565SOL     OW23593   5.018   4.664   0.761
 7565SOL    HW123594   5.070   4.687   0.679
 7565SOL    HW223595   4.940   4.606   0.736
 7566SOL     OW23596   1.523   6.202   4.795
 7566SOL    HW123597   1.613   6.230   4.828
 7566SOL    HW223598   1.528   6.186   4.696
 7567SOL     OW23599   3.219   3.614   0.398
 7567SOL    HW123600   3.237   3.630   0.301
 7567SOL    HW223601   3.241   3.519   0.421
 7568SOL     OW23602   5.005   4.385   2.984
 7568SOL    HW123603   5.104   4.374   2.975
 7568SOL    HW223604   4.964   4.301   3.018
 7569SOL     OW23605   4.284   0.207   0.698
 7569SOL    HW123606   4.262   0.213   0.600
 7569SOL    HW223607   4.356   0.139   0.711
 7570SOL     OW23608   6.745   4.952   4.646
 7570SOL    HW123609   6.773   5.002   4.565
 7570SOL    HW223610   6.793   4.864   4.649
 7571SOL     OW23611   5.284   4.109   2.096
 7571SOL    HW123612   5.271   4.011   2.106
 7571SOL    HW223613   5.284   4.133   1.999
 7572SOL     OW23614   2.348   1.587   4.712
 7572SOL    HW123615   2.291   1.507   4.726
 7572SOL    HW223616   2.297   1.670   4.737
 7573SOL     OW23617   2.215   5.786   4.912
 7573SOL    HW123618   2.142   5.849   4.939
 7573SOL    HW223619   2.258   5.819   4.828
 7574SOL     OW23620   5.394   6.589   2.572
 7574SOL    HW123621   5.492   6.608   2.575
 7574SOL    HW223622   5.358   6.613   2.482
 7575SOL     OW23623   4.130   2.221   4.824
 7575SOL    HW123624   4.114   2.293   4.892
 7575SOL    HW223625   4.146   2.134   4.871
 7576SOL     OW23626   6.126   2.955   0.802
 7576SOL    HW123627   6.072   2.993   0.728
 7576SOL    HW223628   6.150   3.027   0.867
 7577SOL     OW23629   4.800   0.581   5.429
 7577SOL    HW123630   4.826   0.616   5.519
 7577SOL    HW223631   4.730   0.509   5.440
 7578SOL     OW23632   2.569   4.732   4.276
 7578SOL    HW123633   2.481   4.779   4.279
 7578SOL    HW223634   2.565   4.659   4.208
 7579SOL     OW23635   3.740   1.395   2.905
 7579SOL    HW123636   3.687   1.328   2.854
 7579SOL    HW223637   3.679   1.457   2.953
 7580SOL     OW23638   1.654   3.944   3.196
 7580SOL    HW123639   1.750   3.972   3.201
 7580SOL    HW223640   1.613   3.951   3.287
 7581SOL     OW23641   5.969   0.363   1.020
 7581SOL    HW123642   6.066   0.341   1.009
 7581SOL    HW223643   5.953   0.458   0.996
 7582SOL     OW23644   2.539   1.000   0.971
 7582SOL    HW123645   2.516   1.013   1.068
 7582SOL    HW223646   2.631   1.035   0.954
 7583SOL     OW23647   0.171   3.599   2.504
 7583SOL    HW123648   0.179   3.609   2.603
 7583SOL    HW223649   0.138   3.507   2.483
 7584SOL     OW23650   2.276   0.680   1.529
 7584SOL    HW123651   2.365   0.722   1.547
 7584SOL    HW223652   2.241   0.713   1.441
 7585SOL     OW23653   1.791   4.873   5.885
 7585SOL    HW123654   1.834   4.784   5.871
 7585SOL    HW223655   1.747   4.875   5.975
 7586SOL     OW23656   2.642   0.924   2.374
 7586SOL    HW123657   2.613   0.968   2.289
 7586SOL    HW223658   2.562   0.891   2.424
 7587SOL     OW23659   1.547   1.313   6.218
 7587SOL    HW123660   1.634   1.344   6.181
 7587SOL    HW223661   1.473   1.364   6.174
 7588SOL     OW23662   0.081   4.224   1.476
 7588SOL    HW123663   0.120   4.316   1.482
 7588SOL    HW223664   0.063   4.201   1.381
 7589SOL     OW23665   5.742   6.052   0.495
 7589SOL    HW123666   5.762   6.135   0.443
 7589SOL    HW223667   5.751   6.072   0.593
 7590SOL     OW23668   1.754   0.910   6.230
 7590SOL    HW123669   1.798   0.998   6.212
 7590SOL    HW223670   1.817   0.835   6.207
 7591SOL     OW23671   6.722   4.988   0.437
 7591SOL    HW123672   6.676   5.060   0.488
 7591SOL    HW223673   6.820   5.007   0.434
 7592SOL     OW23674   5.522   5.424   0.507
 7592SOL    HW123675   5.489   5.467   0.423
 7592SOL    HW223676   5.552   5.494   0.571
 7593SOL     OW23677   5.714   2.356   6.276
 7593SOL    HW123678   5.706   2.399   6.366
 7593SOL    HW223679   5.789   2.291   6.277
 7594SOL     OW23680   1.372   5.900   4.115
 7594SOL    HW123681   1.332   5.974   4.168
 7594SOL    HW223682   1.341   5.812   4.151
 7595SOL     OW23683   6.166   2.737   0.004
 7595SOL    HW123684   6.242   2.694   6.975
 7595SOL    HW223685   6.180   2.836   0.006
 7596SOL     OW23686   5.518   4.476   2.034
 7596SOL    HW123687   5.502   4.575   2.026
 7596SOL    HW223688   5.511   4.449   2.130
 7597SOL     OW23689   3.407   5.089   1.532
 7597SOL    HW123690   3.464   5.168   1.555
 7597SOL    HW223691   3.325   5.089   1.589
 7598SOL     OW23692   6.415   1.178   3.434
 7598SOL    HW123693   6.447   1.236   3.509
 7598SOL    HW223694   6.315   1.179   3.432
 7599SOL     OW23695   6.441   2.291   2.102
 7599SOL    HW123696   6.400   2.255   2.018
 7599SOL    HW223697   6.390   2.255   2.181
 7600SOL     OW23698   1.506   1.751   1.432
 7600SOL    HW123699   1.514   1.805   1.515
 7600SOL    HW223700   1.585   1.691   1.423
 7601SOL     OW23701   2.221   6.578   4.984
 7601SOL    HW123702   2.315   6.549   5.003
 7601SOL    HW223703   2.218   6.678   4.974
 7602SOL     OW23704   1.554   3.737   4.978
 7602SOL    HW123705   1.630   3.677   5.001
 7602SOL    HW223706   1.485   3.734   5.051
 7603SOL     OW23707   0.849   0.050   1.508
 7603SOL    HW123708   0.791   6.998   1.546
 7603SOL    HW223709   0.800   0.137   1.511
 7604SOL     OW23710   4.910   6.559   6.009
 7604SOL    HW123711   4.938   6.508   5.928
 7604SOL    HW223712   4.811   6.573   6.007
 7605SOL     OW23713   6.090   4.422   6.196
 7605SOL    HW123714   6.158   4.360   6.233
 7605SOL    HW223715   6.000   4.400   6.234
 7606SOL     OW23716   5.794   1.950   2.624
 7606SOL    HW123717   5.706   1.997   2.612
 7606SOL    HW223718   5.854   2.006   2.680
 7607SOL     OW23719   4.858   6.669   6.565
 7607SOL    HW123720   4.798   6.704   6.493
 7607SOL    HW223721   4.816   6.590   6.609
 7608SOL     OW23722   3.415   2.988   3.568
 7608SOL    HW123723   3.343   3.047   3.605
 7608SOL    HW223724   3.485   3.045   3.525
 7609SOL     OW23725   1.554   3.034   4.398
 7609SOL    HW123726   1.639   3.036   4.346
 7609SOL    HW223727   1.552   2.952   4.456
 7610SOL     OW23728   5.428   0.165   1.254
 7610SOL    HW123729   5.511   0.146   1.306
 7610SOL    HW223730   5.405   0.085   1.198
 7611SOL     OW23731   1.742   2.055   1.132
 7611SOL    HW123732   1.731   1.958   1.154
 7611SOL    HW223733   1.743   2.067   1.033
 7612SOL     OW23734   4.197   1.692   2.977
 7612SOL    HW123735   4.222   1.783   3.011
 7612SOL    HW223736   4.258   1.667   2.901
 7613SOL     OW23737   4.753   1.379   2.017
 7613SOL    HW123738   4.769   1.423   1.929
 7613SOL    HW223739   4.786   1.439   2.091
 7614SOL     OW23740   4.153   2.198   0.712
 7614SOL    HW123741   4.170   2.233   0.804
 7614SOL    HW223742   4.240   2.191   0.663
 7615SOL     OW23743   3.409   4.995   5.640
 7615SOL    HW123744   3.323   5.030   5.679
 7615SOL    HW223745   3.406   5.000   5.541
 7616SOL     OW23746   6.182   4.371   3.698
 7616SOL    HW123747   6.185   4.381   3.797
 7616SOL    HW223748   6.103   4.315   3.672
 7617SOL     OW23749   3.475   5.822   2.225
 7617SOL    HW123750   3.498   5.796   2.132
 7617SOL    HW223751   3.429   5.746   2.271
 7618SOL     OW23752   1.358   2.795   0.639
 7618SOL    HW123753   1.355   2.716   0.700
 7618SOL    HW223754   1.446   2.841   0.648
 7619SOL     OW23755   5.492   3.452   5.802
 7619SOL    HW123756   5.462   3.369   5.851
 7619SOL    HW223757   5.584   3.437   5.765
 7620SOL     OW23758   3.140   6.798   1.980
 7620SOL    HW123759   3.230   6.840   1.991
 7620SOL    HW223760   3.143   6.703   2.013
 7621SOL     OW23761   2.103   1.414   2.103
 7621SOL    HW123762   2.146   1.446   2.188
 7621SOL    HW223763   2.149   1.330   2.073
 7622SOL     OW23764   4.514   2.275   0.306
 7622SOL    HW123765   4.579   2.350   0.305
 7622SOL    HW223766   4.429   2.303   0.261
 7623SOL     OW23767   5.104   0.466   5.959
 7623SOL    HW123768   5.012   0.427   5.957
 7623SOL    HW223769   5.128   0.490   6.053
 7624SOL     OW23770   0.682   0.793   3.140
 7624SOL    HW123771   0.583   0.797   3.154
 7624SOL    HW223772   0.728   0.831   3.221
 7625SOL     OW23773   4.608   0.368   1.645
 7625SOL    HW123774   4.646   0.293   1.700
 7625SOL    HW223775   4.640   0.455   1.680
 7626SOL     OW23776   1.620   5.548   4.849
 7626SOL    HW123777   1.530   5.505   4.852
 7626SOL    HW223778   1.683   5.491   4.797
 7627SOL     OW23779   0.018   2.532   0.151
 7627SOL    HW123780   0.112   2.499   0.161
 7627SOL    HW223781   6.981   2.492   0.223
 7628SOL     OW23782   3.160   1.732   1.309
 7628SOL    HW123783   3.133   1.812   1.255
 7628SOL    HW223784   3.258   1.718   1.300
 7629SOL     OW23785   6.393   5.524   3.390
 7629SOL    HW123786   6.346   5.478   3.465
 7629SOL    HW223787   6.416   5.617   3.418
 7630SOL     OW23788   6.308   0.685   2.407
 7630SOL    HW123789   6.356   0.602   2.379
 7630SOL    HW223790   6.369   0.740   2.464
 7631SOL     OW23791   0.565   2.093   3.605
 7631SOL    HW123792   0.559   2.192   3.620
 7631SOL    HW223793   0.613   2.075   3.519
 7632SOL     OW23794   4.440   1.497   6.830
 7632SOL    HW123795   4.442   1.564   6.905
 7632SOL    HW223796   4.394   1.537   6.751
 7633SOL     OW23797   5.326   4.155   6.686
 7633SOL    HW123798   5.344   4.253   6.678
 7633SOL    HW223799   5.411   4.105   6.668
 7634SOL     OW23800   0.736   1.533   2.206
 7634SOL    HW123801   0.764   1.576   2.120
 7634SOL    HW223802   0.779   1.443   2.214
 7635SOL     OW23803   2.920   4.617   5.719
 7635SOL    HW123804   3.009   4.602   5.676
 7635SOL    HW223805   2.869   4.686   5.668
 7636SOL     OW23806   1.029   0.315   4.151
 7636SOL    HW123807   0.955   0.323   4.218
 7636SOL    HW223808   1.074   0.404   4.141
 7637SOL     OW23809   1.887   5.831   4.165
 7637SOL    HW123810   1.880   5.732   4.162
 7637SOL    HW223811   1.795   5.871   4.168
 7638SOL     OW23812   5.093   4.984   2.066
 7638SOL    HW123813   5.152   5.065   2.068
 7638SOL    HW223814   5.044   4.978   2.153
 7639SOL     OW23815   0.798   1.790   4.624
 7639SOL    HW123816   0.789   1.690   4.622
 7639SOL    HW223817   0.894   1.815   4.617
 7640SOL     OW23818   2.526   2.119   6.809
 7640SOL    HW123819   2.618   2.109   6.772
 7640SOL    HW223820   2.463   2.146   6.737
 7641SOL     OW23821   6.056   3.548   2.359
 7641SOL    HW123822   6.017   3.595   2.280
 7641SOL    HW223823   6.155   3.557   2.358
 7642SOL     OW23824   2.690   1.845   2.890
 7642SOL    HW123825   2.616   1.787   2.924
 7642SOL    HW223826   2.652   1.924   2.844
 7643SOL     OW23827   4.842   3.120   3.135
 7643SOL    HW123828   4.757   3.084   3.173
 7643SOL    HW223829   4.865   3.206   3.180
 7644SOL     OW23830   0.164   3.500   3.248
 7644SOL    HW123831   0.174   3.595   3.279
 7644SOL    HW223832   0.068   3.474   3.252
 7645SOL     OW23833   4.847   4.099   6.590
 7645SOL    HW123834   4.931   4.116   6.538
 7645SOL    HW223835   4.865   4.030   6.661
 7646SOL     OW23836   1.954   1.956   2.321
 7646SOL    HW123837   1.867   1.909   2.308
 7646SOL    HW223838   2.021   1.892   2.359
 7647SOL     OW23839   2.366   4.179   1.471
 7647SOL    HW123840   2.280   4.202   1.516
 7647SOL    HW223841   2.436   4.160   1.540
 7648SOL     OW23842   4.270   1.050   3.478
 7648SOL    HW123843   4.242   1.070   3.384
 7648SOL    HW223844   4.367   1.023   3.479
 7649SOL     OW23845   3.014   0.937   1.523
 7649SOL    HW123846   3.002   0.889   1.610
 7649SOL    HW223847   3.014   1.036   1.539
 7650SOL     OW23848   6.341   4.857   2.429
 7650SOL    HW123849   6.340   4.951   2.395
 7650SOL    HW223850   6.295   4.798   2.362
 7651SOL     OW23851   3.962   1.629   6.406
 7651SOL    HW123852   3.894   1.620   6.334
 7651SOL    HW223853   3.952   1.717   6.452
 7652SOL     OW23854   1.161   3.154   2.457
 7652SOL    HW123855   1.176   3.155   2.556
 7652SOL    HW223856   1.082   3.096   2.436
 7653SOL     OW23857   3.142   2.177   1.155
 7653SOL    HW123858   3.193   2.119   1.219
 7653SOL    HW223859   3.166   2.273   1.171
 7654SOL     OW23860   4.984   3.973   3.572
 7654SOL    HW123861   4.928   3.891   3.559
 7654SOL    HW223862   4.927   4.046   3.609
 7655SOL     OW23863   4.249   6.516   5.280
 7655SOL    HW123864   4.250   6.608   5.320
 7655SOL    HW223865   4.231   6.449   5.351
 7656SOL     OW23866   0.740   6.194   4.890
 7656SOL    HW123867   0.726   6.099   4.918
 7656SOL    HW223868   0.819   6.232   4.939
 7657SOL     OW23869   3.910   1.384   3.836
 7657SOL    HW123870   3.919   1.286   3.816
 7657SOL    HW223871   3.947   1.437   3.760
 7658SOL     OW23872   4.020   0.586   5.844
 7658SOL    HW123873   3.974   0.658   5.792
 7658SOL    HW223874   4.118   0.588   5.822
 7659SOL     OW23875   5.832   0.150   1.144
 7659SOL    HW123876   5.891   0.081   1.101
 7659SOL    HW223877   5.874   0.240   1.134
 7660SOL     OW23878   6.256   4.904   4.170
 7660SOL    HW123879   6.339   4.851   4.191
 7660SOL    HW223880   6.282   4.991   4.129
 7661SOL     OW23881   6.006   3.105   3.225
 7661SOL    HW123882   5.970   3.028   3.173
 7661SOL    HW223883   5.932   3.169   3.246
 7662SOL     OW23884   0.032   5.086   2.182
 7662SOL    HW123885   0.128   5.110   2.172
 7662SOL    HW223886   7.001   5.116   2.100
 7663SOL     OW23887   6.800   5.601   0.188
 7663SOL    HW123888   6.871   5.628   0.123
 7663SOL    HW223889   6.820   5.509   0.223
 7664SOL     OW23890   2.517   5.266   4.086
 7664SOL    HW123891   2.511   5.336   4.157
 7664SOL    HW223892   2.552   5.181   4.125
 7665SOL     OW23893   2.767   6.901   5.141
 7665SOL    HW123894   2.780   6.851   5.227
 7665SOL    HW223895   2.686   6.865   5.094
 7666SOL     OW23896   0.842   0.778   1.190
 7666SOL    HW123897   0.930   0.825   1.181
 7666SOL    HW223898   0.856   0.687   1.229
 7667SOL     OW23899   4.489   5.737   6.432
 7667SOL    HW123900   4.426   5.812   6.416
 7667SOL    HW223901   4.539   5.717   6.347
 7668SOL     OW23902   3.446   3.848   0.934
 7668SOL    HW123903   3.527   3.866   0.989
 7668SOL    HW223904   3.375   3.807   0.991
 7669SOL     OW23905   4.813   6.374   4.439
 7669SOL    HW123906   4.740   6.319   4.397
 7669SOL    HW223907   4.895   6.370   4.382
 7670SOL     OW23908   1.721   4.864   0.775
 7670SOL    HW123909   1.701   4.812   0.692
 7670SOL    HW223910   1.663   4.832   0.850
 7671SOL     OW23911   6.028   2.181   4.796
 7671SOL    HW123912   6.122   2.168   4.826
 7671SOL    HW223913   6.027   2.242   4.716
 7672SOL     OW23914   5.447   1.031   2.570
 7672SOL    HW123915   5.413   1.015   2.477
 7672SOL    HW223916   5.546   1.044   2.568
 7673SOL     OW23917   1.056   4.629   1.281
 7673SOL    HW123918   1.013   4.650   1.368
 7673SOL    HW223919   0.988   4.596   1.217
 7674SOL     OW23920   5.698   1.271   4.704
 7674SOL    HW123921   5.701   1.355   4.649
 7674SOL    HW223922   5.603   1.250   4.726
 7675SOL     OW23923   4.422   6.170   3.584
 7675SOL    HW123924   4.427   6.191   3.486
 7675SOL    HW223925   4.448   6.251   3.637
 7676SOL     OW23926   1.814   0.157   0.950
 7676SOL    HW123927   1.722   0.195   0.942
 7676SOL    HW223928   1.879   0.218   0.905
 7677SOL     OW23929   2.284   2.890   2.811
 7677SOL    HW123930   2.227   2.969   2.786
 7677SOL    HW223931   2.322   2.849   2.728
 7678SOL     OW23932   5.830   6.682   0.400
 7678SOL    HW123933   5.870   6.602   0.355
 7678SOL    HW223934   5.769   6.652   0.474
 7679SOL     OW23935   1.303   4.858   5.070
 7679SOL    HW123936   1.268   4.934   5.015
 7679SOL    HW223937   1.277   4.870   5.165
 7680SOL     OW23938   4.281   2.602   0.041
 7680SOL    HW123939   4.308   2.692   0.008
 7680SOL    HW223940   4.191   2.607   0.083
 7681SOL     OW23941   2.917   1.550   6.951
 7681SOL    HW123942   2.847   1.479   6.958
 7681SOL    HW223943   2.873   1.639   6.942
 7682SOL     OW23944   3.278   0.033   1.601
 7682SOL    HW123945   3.327   0.009   1.517
 7682SOL    HW223946   3.275   6.973   1.661
 7683SOL     OW23947   5.534   2.083   3.451
 7683SOL    HW123948   5.445   2.124   3.470
 7683SOL    HW223949   5.528   2.027   3.368
 7684SOL     OW23950   4.134   2.124   6.366
 7684SOL    HW123951   4.107   2.199   6.306
 7684SOL    HW223952   4.151   2.159   6.458
 7685SOL     OW23953   3.351   2.781   1.050
 7685SOL    HW123954   3.290   2.783   1.129
 7685SOL    HW223955   3.325   2.705   0.990
 7686SOL     OW23956   3.716   6.883   3.680
 7686SOL    HW123957   3.712   6.971   3.634
 7686SOL    HW223958   3.667   6.815   3.625
 7687SOL     OW23959   5.195   5.371   5.373
 7687SOL    HW123960   5.156   5.455   5.411
 7687SOL    HW223961   5.125   5.321   5.322
 7688SOL     OW23962   6.949   6.484   4.441
 7688SOL    HW123963   6.993   6.572   4.423
 7688SOL    HW223964   7.019   6.413   4.450
 7689SOL     OW23965   3.956   6.204   4.632
 7689SOL    HW123966   4.010   6.281   4.599
 7689SOL    HW223967   3.928   6.221   4.726
 7690SOL     OW23968   0.154   5.822   3.379
 7690SOL    HW123969   0.247   5.813   3.414
 7690SOL    HW223970   0.155   5.817   3.279
 7691SOL     OW23971   4.878   3.489   4.402
 7691SOL    HW123972   4.862   3.405   4.456
 7691SOL    HW223973   4.891   3.465   4.306
 7692SOL     OW23974   2.539   6.271   2.004
 7692SOL    HW123975   2.630   6.263   1.964
 7692SOL    HW223976   2.544   6.253   2.102
 7693SOL     OW23977   5.091   1.613   6.545
 7693SOL    HW123978   5.135   1.524   6.552
 7693SOL    HW223979   5.142   1.680   6.599
 7694SOL     OW23980   0.154   5.231   4.247
 7694SOL    HW123981   0.092   5.270   4.178
 7694SOL    HW223982   0.167   5.134   4.228
 7695SOL     OW23983   3.811   0.535   0.461
 7695SOL    HW123984   3.870   0.526   0.381
 7695SOL    HW223985   3.868   0.546   0.543
 7696SOL     OW23986   0.319   3.253   5.839
 7696SOL    HW123987   0.406   3.204   5.831
 7696SOL    HW223988   0.259   3.228   5.762
 7697SOL     OW23989   3.816   1.796   2.114
 7697SOL    HW123990   3.737   1.762   2.062
 7697SOL    HW223991   3.836   1.890   2.087
 7698SOL     OW23992   6.827   3.203   5.913
 7698SOL    HW123993   6.796   3.273   5.977
 7698SOL    HW223994   6.842   3.244   5.823
 7699SOL     OW23995   2.414   4.911   6.729
 7699SOL    HW123996   2.368   4.838   6.678
 7699SOL    HW223997   2.429   4.880   6.823
 7700SOL     OW23998   5.019   6.451   4.654
 7700SOL    HW123999   4.947   6.421   4.591
 7700SOL    HW224000   4.995   6.540   4.692
 7701SOL     OW24001   5.898   1.996   4.575
 7701SOL    HW124002   5.830   1.969   4.506
 7701SOL    HW224003   5.939   2.083   4.548
 7702SOL     OW24004   2.650   6.827   6.153
 7702SOL    HW124005   2.730   6.768   6.148
 7702SOL    HW224006   2.607   6.832   6.063
 7703SOL     OW24007   0.307   1.501   6.192
 7703SOL    HW124008   0.346   1.423   6.241
 7703SOL    HW224009   0.378   1.544   6.136
 7704SOL     OW24010   4.595   4.279   0.083
 7704SOL    HW124011   4.609   4.341   0.161
 7704SOL    HW224012   4.498   4.258   0.075
 7705SOL     OW24013   3.236   5.118   4.936
 7705SOL    HW124014   3.268   5.186   4.871
 7705SOL    HW224015   3.156   5.071   4.899
 7706SOL     OW24016   0.013   1.138   4.803
 7706SOL    HW124017   0.034   1.235   4.815
 7706SOL    HW224018   0.078   1.083   4.856
 7707SOL     OW24019   0.515   4.881   5.935
 7707SOL    HW124020   0.598   4.829   5.913
 7707SOL    HW224021   0.436   4.820   5.933
 7708SOL     OW24022   4.334   6.429   4.492
 7708SOL    HW124023   4.237   6.408   4.502
 7708SOL    HW224024   4.346   6.506   4.429
 7709SOL     OW24025   3.970   2.012   2.335
 7709SOL    HW124026   3.881   1.991   2.375
 7709SOL    HW224027   3.957   2.069   2.253
 7710SOL     OW24028   2.276   1.551   6.769
 7710SOL    HW124029   2.198   1.493   6.791
 7710SOL    HW224030   2.280   1.564   6.669
 7711SOL     OW24031   5.311   6.527   6.082
 7711SOL    HW124032   5.356   6.588   6.148
 7711SOL    HW224033   5.349   6.543   5.991
 7712SOL     OW24034   5.345   5.372   1.163
 7712SOL    HW124035   5.437   5.387   1.199
 7712SOL    HW224036   5.328   5.435   1.087
 7713SOL     OW24037   1.529   4.457   6.494
 7713SOL    HW124038   1.468   4.535   6.511
 7713SOL    HW224039   1.555   4.455   6.398
 7714SOL     OW24040   5.529   4.282   4.208
 7714SOL    HW124041   5.514   4.361   4.149
 7714SOL    HW224042   5.557   4.204   4.153
 7715SOL     OW24043   4.773   0.971   1.075
 7715SOL    HW124044   4.726   0.951   1.161
 7715SOL    HW224045   4.715   0.945   0.998
 7716SOL     OW24046   4.494   1.853   3.028
 7716SOL    HW124047   4.569   1.862   2.962
 7716SOL    HW224048   4.449   1.941   3.039
 7717SOL     OW24049   3.268   1.554   5.978
 7717SOL    HW124050   3.323   1.637   5.971
 7717SOL    HW224051   3.247   1.520   5.887
 7718SOL     OW24052   3.121   6.392   3.966
 7718SOL    HW124053   3.122   6.326   4.041
 7718SOL    HW224054   3.028   6.426   3.954
 7719SOL     OW24055   6.622   1.952   4.628
 7719SOL    HW124056   6.656   1.878   4.571
 7719SOL    HW224057   6.525   1.937   4.647
 7720SOL     OW24058   5.784   5.605   1.754
 7720SOL    HW124059   5.842   5.645   1.825
 7720SOL    HW224060   5.815   5.634   1.664
 7721SOL     OW24061   1.832   4.084   2.365
 7721SOL    HW124062   1.824   3.984   2.369
 7721SOL    HW224063   1.820   4.122   2.457
 7722SOL     OW24064   0.022   5.650   4.004
 7722SOL    HW124065   0.053   5.737   3.965
 7722SOL    HW224066   0.053   5.574   3.947
 7723SOL     OW24067   6.414   3.008   0.190
 7723SOL    HW124068   6.383   2.968   0.276
 7723SOL    HW224069   6.493   3.067   0.206
 7724SOL     OW24070   1.599   4.844   1.018
 7724SOL    HW124071   1.641   4.908   1.084
 7724SOL    HW224072   1.631   4.751   1.037
 7725SOL     OW24073   4.919   3.216   4.512
 7725SOL    HW124074   5.013   3.186   4.525
 7725SOL    HW224075   4.857   3.153   4.558
 7726SOL     OW24076   0.141   4.324   3.175
 7726SOL    HW124077   0.205   4.251   3.148
 7726SOL    HW224078   0.188   4.412   3.172
 7727SOL     OW24079   6.508   2.605   1.881
 7727SOL    HW124080   6.549   2.592   1.791
 7727SOL    HW224081   6.512   2.520   1.933
 7728SOL     OW24082   3.147   2.149   2.937
 7728SOL    HW124083   3.105   2.120   2.851
 7728SOL    HW224084   3.235   2.102   2.949
 7729SOL     OW24085   5.408   2.398   0.636
 7729SOL    HW124086   5.505   2.423   0.624
 7729SOL    HW224087   5.359   2.476   0.674
 7730SOL     OW24088   5.609   0.803   2.220
 7730SOL    HW124089   5.595   0.888   2.171
 7730SOL    HW224090   5.575   0.726   2.165
 7731SOL     OW24091   5.862   1.298   6.571
 7731SOL    HW124092   5.790   1.361   6.543
 7731SOL    HW224093   5.925   1.283   6.494
 7732SOL     OW24094   4.472   5.274   0.843
 7732SOL    HW124095   4.520   5.327   0.913
 7732SOL    HW224096   4.538   5.228   0.785
 7733SOL     OW24097   3.097   0.452   2.228
 7733SOL    HW124098   3.131   0.472   2.136
 7733SOL    HW224099   3.169   0.468   2.295
 7734SOL     OW24100   1.992   1.935   3.039
 7734SOL    HW124101   1.957   1.854   2.993
 7734SOL    HW224102   2.091   1.939   3.030
 7735SOL     OW24103   4.802   4.155   6.986
 7735SOL    HW124104   4.830   4.077   0.022
 7735SOL    HW224105   4.738   4.212   0.018
 7736SOL     OW24106   6.449   4.786   6.415
 7736SOL    HW124107   6.404   4.821   6.498
 7736SOL    HW224108   6.479   4.692   6.431
 7737SOL     OW24109   4.956   1.120   0.710
 7737SOL    HW124110   4.934   1.036   0.661
 7737SOL    HW224111   5.050   1.115   0.743
 7738SOL     OW24112   2.844   5.224   6.531
 7738SOL    HW124113   2.811   5.268   6.448
 7738SOL    HW224114   2.849   5.291   6.605
 7739SOL     OW24115   6.106   2.877   1.247
 7739SOL    HW124116   6.134   2.894   1.342
 7739SOL    HW224117   6.009   2.897   1.237
 7740SOL     OW24118   0.296   6.616   3.182
 7740SOL    HW124119   0.359   6.555   3.229
 7740SOL    HW224120   0.325   6.711   3.195
 7741SOL     OW24121   2.432   5.517   4.579
 7741SOL    HW124122   2.519   5.544   4.537
 7741SOL    HW224123   2.441   5.426   4.620
 7742SOL     OW24124   6.460   1.521   4.057
 7742SOL    HW124125   6.509   1.451   4.004
 7742SOL    HW224126   6.408   1.579   3.994
 7743SOL     OW24127   4.438   2.430   3.456
 7743SOL    HW124128   4.356   2.374   3.462
 7743SOL    HW224129   4.488   2.427   3.542
 7744SOL     OW24130   6.777   0.237   4.678
 7744SOL    HW124131   6.846   0.192   4.621
 7744SOL    HW224132   6.806   0.330   4.700
 7745SOL     OW24133   4.681   3.909   6.098
 7745SOL    HW124134   4.635   3.954   6.021
 7745SOL    HW224135   4.768   3.955   6.117
 7746SOL     OW24136   1.251   0.791   0.487
 7746SOL    HW124137   1.234   0.863   0.554
 7746SOL    HW224138   1.312   0.722   0.526
 7747SOL     OW24139   5.475   5.955   1.192
 7747SOL    HW124140   5.465   5.998   1.282
 7747SOL    HW224141   5.539   5.879   1.198
 7748SOL     OW24142   3.338   4.075   6.736
 7748SOL    HW124143   3.390   4.158   6.715
 7748SOL    HW224144   3.242   4.089   6.714
 7749SOL     OW24145   5.975   3.307   5.859
 7749SOL    HW124146   5.948   3.221   5.903
 7749SOL    HW224147   6.002   3.373   5.929
 7750SOL     OW24148   5.904   4.764   2.380
 7750SOL    HW124149   5.932   4.860   2.370
 7750SOL    HW224150   5.959   4.721   2.451
 7751SOL     OW24151   0.650   2.607   2.202
 7751SOL    HW124152   0.749   2.622   2.200
 7751SOL    HW224153   0.616   2.626   2.294
 7752SOL     OW24154   4.924   2.276   3.512
 7752SOL    HW124155   4.834   2.242   3.486
 7752SOL    HW224156   4.919   2.318   3.603
 7753SOL     OW24157   3.266   1.713   4.450
 7753SOL    HW124158   3.348   1.655   4.451
 7753SOL    HW224159   3.271   1.776   4.372
 7754SOL     OW24160   4.934   6.386   2.215
 7754SOL    HW124161   4.859   6.319   2.222
 7754SOL    HW224162   4.989   6.382   2.299
 7755SOL     OW24163   0.471   4.682   5.048
 7755SOL    HW124164   0.462   4.776   5.017
 7755SOL    HW224165   0.549   4.674   5.110
 7756SOL     OW24166   2.698   5.057   2.019
 7756SOL    HW124167   2.742   5.124   1.960
 7756SOL    HW224168   2.697   5.090   2.113
 7757SOL     OW24169   0.012   4.498   2.060
 7757SOL    HW124170   6.939   4.466   2.045
 7757SOL    HW224171   0.056   4.517   1.972
 7758SOL     OW24172   1.383   1.594   5.201
 7758SOL    HW124173   1.345   1.528   5.135
 7758SOL    HW224174   1.410   1.677   5.152
 7759SOL     OW24175   2.462   2.174   0.833
 7759SOL    HW124176   2.401   2.143   0.760
 7759SOL    HW224177   2.481   2.272   0.821
 7760SOL     OW24178   4.631   2.634   0.140
 7760SOL    HW124179   4.614   2.692   0.060
 7760SOL    HW224180   4.669   2.690   0.214
 7761SOL     OW24181   4.764   5.377   4.361
 7761SOL    HW124182   4.682   5.407   4.410
 7761SOL    HW224183   4.784   5.441   4.287
 7762SOL     OW24184   6.312   1.843   2.114
 7762SOL    HW124185   6.323   1.752   2.154
 7762SOL    HW224186   6.386   1.902   2.146
 7763SOL     OW24187   2.301   0.253   4.300
 7763SOL    HW124188   2.243   0.268   4.220
 7763SOL    HW224189   2.286   0.161   4.335
 7764SOL     OW24190   2.468   4.114   6.228
 7764SOL    HW124191   2.510   4.131   6.139
 7764SOL    HW224192   2.374   4.082   6.215
 7765SOL     OW24193   5.779   3.076   5.121
 7765SOL    HW124194   5.878   3.064   5.124
 7765SOL    HW224195   5.750   3.138   5.194
 7766SOL     OW24196   5.896   3.635   6.332
 7766SOL    HW124197   5.975   3.618   6.274
 7766SOL    HW224198   5.821   3.573   6.305
 7767SOL     OW24199   3.275   0.403   3.680
 7767SOL    HW124200   3.248   0.497   3.705
 7767SOL    HW224201   3.372   0.401   3.656
 7768SOL     OW24202   4.329   5.104   3.665
 7768SOL    HW124203   4.302   5.169   3.595
 7768SOL    HW224204   4.424   5.077   3.650
 7769SOL     OW24205   3.732   3.092   5.533
 7769SOL    HW124206   3.645   3.141   5.525
 7769SOL    HW224207   3.806   3.158   5.548
 7770SOL     OW24208   1.862   3.225   4.431
 7770SOL    HW124209   1.849   3.132   4.465
 7770SOL    HW224210   1.867   3.223   4.331
 7771SOL     OW24211   2.574   3.032   6.527
 7771SOL    HW124212   2.581   3.093   6.448
 7771SOL    HW224213   2.544   2.942   6.497
 7772SOL     OW24214   5.684   0.051   1.823
 7772SOL    HW124215   5.619   7.007   1.783
 7772SOL    HW224216   5.651   0.082   1.912
 7773SOL     OW24217   3.249   6.016   6.857
 7773SOL    HW124218   3.229   6.106   6.897
 7773SOL    HW224219   3.319   5.971   6.911
 7774SOL     OW24220   4.995   1.179   2.666
 7774SOL    HW124221   4.947   1.208   2.749
 7774SOL    HW224222   5.063   1.110   2.688
 7775SOL     OW24223   2.456   2.033   1.291
 7775SOL    HW124224   2.373   1.980   1.275
 7775SOL    HW224225   2.492   2.065   1.204
 7776SOL     OW24226   1.423   1.501   4.460
 7776SOL    HW124227   1.435   1.540   4.551
 7776SOL    HW224228   1.483   1.421   4.451
 7777SOL     OW24229   6.250   5.514   4.261
 7777SOL    HW124230   6.250   5.568   4.345
 7777SOL    HW224231   6.184   5.439   4.270
 7778SOL     OW24232   6.670   4.691   2.894
 7778SOL    HW124233   6.743   4.628   2.919
 7778SOL    HW224234   6.705   4.760   2.830
 7779SOL     OW24235   4.598   6.127   1.842
 7779SOL    HW124236   4.620   6.056   1.776
 7779SOL    HW224237   4.679   6.149   1.896
 7780SOL     OW24238   6.091   6.787   4.944
 7780SOL    HW124239   6.041   6.843   5.010
 7780SOL    HW224240   6.051   6.798   4.853
 7781SOL     OW24241   1.548   2.919   0.881
 7781SOL    HW124242   1.608   2.974   0.939
 7781SOL    HW224243   1.544   2.825   0.916
 7782SOL     OW24244   5.340   2.774   4.242
 7782SOL    HW124245   5.389   2.853   4.206
 7782SOL    HW224246   5.249   2.803   4.274
 7783SOL     OW24247   1.594   6.506   4.828
 7783SOL    HW124248   1.503   6.474   4.853
 7783SOL    HW224249   1.663   6.457   4.882
 7784SOL     OW24250   1.280   1.745   1.820
 7784SOL    HW124251   1.253   1.834   1.782
 7784SOL    HW224252   1.353   1.759   1.887
 7785SOL     OW24253   0.021   6.541   3.120
 7785SOL    HW124254   0.103   6.575   3.166
 7785SOL    HW224255   7.008   6.459   3.166
 7786SOL     OW24256   4.044   1.063   4.844
 7786SOL    HW124257   4.074   1.153   4.873
 7786SOL    HW224258   4.120   0.998   4.849
 7787SOL     OW24259   2.521   2.631   1.759
 7787SOL    HW124260   2.463   2.603   1.683
 7787SOL    HW224261   2.581   2.555   1.785
 7788SOL     OW24262   6.985   4.615   1.461
 7788SOL    HW124263   6.917   4.557   1.506
 7788SOL    HW224264   6.938   4.684   1.405
 7789SOL     OW24265   3.175   1.881   5.963
 7789SOL    HW124266   3.092   1.876   6.019
 7789SOL    HW224267   3.156   1.846   5.871
 7790SOL     OW24268   4.287   4.413   1.716
 7790SOL    HW124269   4.255   4.394   1.623
 7790SOL    HW224270   4.329   4.331   1.754
 7791SOL     OW24271   2.707   5.566   2.730
 7791SOL    HW124272   2.706   5.666   2.739
 7791SOL    HW224273   2.798   5.531   2.753
 7792SOL     OW24274   0.722   1.875   3.087
 7792SOL    HW124275   0.640   1.842   3.134
 7792SOL    HW224276   0.704   1.966   3.049
 7793SOL     OW24277   4.946   0.594   0.441
 7793SOL    HW124278   4.889   0.610   0.361
 7793SOL    HW224279   4.898   0.626   0.523
 7794SOL     OW24280   0.925   6.773   3.205
 7794SOL    HW124281   0.930   6.813   3.113
 7794SOL    HW224282   0.832   6.784   3.241
 7795SOL     OW24283   2.937   5.323   0.398
 7795SOL    HW124284   3.015   5.306   0.459
 7795SOL    HW224285   2.970   5.342   0.306
 7796SOL     OW24286   3.144   3.102   0.474
 7796SOL    HW124287   3.128   3.048   0.392
 7796SOL    HW224288   3.058   3.116   0.522
 7797SOL     OW24289   0.614   5.889   3.621
 7797SOL    HW124290   0.714   5.893   3.622
 7797SOL    HW224291   0.584   5.795   3.638
 7798SOL     OW24292   1.572   3.252   0.547
 7798SOL    HW124293   1.493   3.310   0.529
 7798SOL    HW224294   1.649   3.308   0.575
 7799SOL     OW24295   2.754   5.965   3.359
 7799SOL    HW124296   2.679   5.953   3.295
 7799SOL    HW224297   2.784   5.876   3.394
 7800SOL     OW24298   0.483   6.451   2.493
 7800SOL    HW124299   0.561   6.425   2.436
 7800SOL    HW224300   0.432   6.369   2.518
 7801SOL     OW24301   1.503   1.821   1.956
 7801SOL    HW124302   1.503   1.763   2.038
 7801SOL    HW224303   1.568   1.896   1.968
 7802SOL     OW24304   6.809   4.008   4.297
 7802SOL    HW124305   6.875   4.009   4.223
 7802SOL    HW224306   6.844   3.951   4.372
 7803SOL     OW24307   2.898   2.369   5.584
 7803SOL    HW124308   2.987   2.347   5.623
 7803SOL    HW224309   2.897   2.343   5.487
 7804SOL     OW24310   3.499   1.911   5.158
 7804SOL    HW124311   3.428   1.852   5.196
 7804SOL    HW224312   3.518   1.884   5.064
 7805SOL     OW24313   5.270   3.468   0.046
 7805SOL    HW124314   5.336   3.529   0.002
 7805SOL    HW224315   5.240   3.508   0.132
 7806SOL     OW24316   6.715   1.219   5.740
 7806SOL    HW124317   6.698   1.133   5.693
 7806SOL    HW224318   6.808   1.221   5.775
 7807SOL     OW24319   1.682   4.850   6.464
 7807SOL    HW124320   1.759   4.911   6.445
 7807SOL    HW224321   1.599   4.887   6.423
 7808SOL     OW24322   6.706   3.638   3.097
 7808SOL    HW124323   6.634   3.571   3.118
 7808SOL    HW224324   6.692   3.720   3.151
 7809SOL     OW24325   4.845   5.347   2.429
 7809SOL    HW124326   4.830   5.350   2.528
 7809SOL    HW224327   4.806   5.262   2.392
 7810SOL     OW24328   3.001   6.828   5.877
 7810SOL    HW124329   3.016   6.914   5.925
 7810SOL    HW224330   2.902   6.814   5.865
 7811SOL     OW24331   1.547   5.909   3.485
 7811SOL    HW124332   1.533   5.908   3.386
 7811SOL    HW224333   1.645   5.900   3.504
 7812SOL     OW24334   3.222   1.685   6.312
 7812SOL    HW124335   3.168   1.752   6.261
 7812SOL    HW224336   3.309   1.669   6.265
 7813SOL     OW24337   5.360   0.378   0.401
 7813SOL    HW124338   5.427   0.385   0.327
 7813SOL    HW224339   5.308   0.463   0.407
 7814SOL     OW24340   6.742   3.298   2.332
 7814SOL    HW124341   6.804   3.220   2.345
 7814SOL    HW224342   6.794   3.383   2.334
 7815SOL     OW24343   6.364   4.335   5.396
 7815SOL    HW124344   6.444   4.373   5.442
 7815SOL    HW224345   6.339   4.393   5.318
 7816SOL     OW24346   0.787   1.442   5.510
 7816SOL    HW124347   0.759   1.379   5.438
 7816SOL    HW224348   0.771   1.400   5.599
 7817SOL     OW24349   3.800   2.612   6.895
 7817SOL    HW124350   3.830   2.685   6.956
 7817SOL    HW224351   3.851   2.528   6.915
 7818SOL     OW24352   5.810   0.067   4.025
 7818SOL    HW124353   5.735   0.110   3.974
 7818SOL    HW224354   5.867   0.014   3.962
 7819SOL     OW24355   1.343   3.213   4.793
 7819SOL    HW124356   1.388   3.233   4.706
 7819SOL    HW224357   1.352   3.292   4.854
 7820SOL     OW24358   0.998   0.012   5.516
 7820SOL    HW124359   1.017   6.955   5.578
 7820SOL    HW224360   0.958   0.087   5.568
 7821SOL     OW24361   4.088   6.915   0.481
 7821SOL    HW124362   4.112   6.966   0.564
 7821SOL    HW224363   4.129   6.960   0.402
 7822SOL     OW24364   0.440   1.492   4.968
 7822SOL    HW124365   0.410   1.398   4.952
 7822SOL    HW224366   0.536   1.502   4.942
 7823SOL     OW24367   2.526   3.483   5.308
 7823SOL    HW124368   2.434   3.462   5.275
 7823SOL    HW224369   2.585   3.404   5.296
 7824SOL     OW24370   5.685   3.006   3.300
 7824SOL    HW124371   5.691   2.988   3.399
 7824SOL    HW224372   5.717   3.099   3.282
 7825SOL     OW24373   3.740   3.555   2.420
 7825SOL    HW124374   3.820   3.591   2.467
 7825SOL    HW224375   3.749   3.457   2.407
 7826SOL     OW24376   6.726   6.990   1.615
 7826SOL    HW124377   6.696   6.978   1.710
 7826SOL    HW224378   6.650   0.008   1.561
 7827SOL     OW24379   4.450   3.436   0.712
 7827SOL    HW124380   4.463   3.357   0.772
 7827SOL    HW224381   4.388   3.410   0.637
 7828SOL     OW24382   0.216   5.815   0.520
 7828SOL    HW124383   0.215   5.823   0.620
 7828SOL    HW224384   0.300   5.857   0.485
 7829SOL     OW24385   3.995   3.297   2.829
 7829SOL    HW124386   4.030   3.216   2.783
 7829SOL    HW224387   4.038   3.379   2.792
 7830SOL     OW24388   6.228   2.992   0.019
 7830SOL    HW124389   6.250   3.045   6.957
 7830SOL    HW224390   6.300   3.003   0.087
 7831SOL     OW24391   1.978   2.342   6.754
 7831SOL    HW124392   1.983   2.272   6.825
 7831SOL    HW224393   1.961   2.300   6.666
 7832SOL     OW24394   2.654   2.643   5.285
 7832SOL    HW124395   2.616   2.569   5.230
 7832SOL    HW224396   2.735   2.609   5.334
 7833SOL     OW24397   1.542   6.667   0.701
 7833SOL    HW124398   1.514   6.763   0.700
 7833SOL    HW224399   1.535   6.632   0.794
 7834SOL     OW24400   0.094   0.510   1.798
 7834SOL    HW124401   0.072   0.578   1.728
 7834SOL    HW224402   0.063   0.420   1.766
 7835SOL     OW24403   2.743   2.020   4.518
 7835SOL    HW124404   2.831   1.999   4.477
 7835SOL    HW224405   2.682   1.942   4.507
 7836SOL     OW24406   1.783   0.798   6.568
 7836SOL    HW124407   1.702   0.796   6.509
 7836SOL    HW224408   1.763   0.748   6.653
 7837SOL     OW24409   5.295   6.439   3.264
 7837SOL    HW124410   5.295   6.393   3.176
 7837SOL    HW224411   5.308   6.537   3.251
 7838SOL     OW24412   3.422   6.875   4.090
 7838SOL    HW124413   3.419   6.928   4.175
 7838SOL    HW224414   3.392   6.781   4.108
 7839SOL     OW24415   0.453   4.932   4.177
 7839SOL    HW124416   0.452   4.859   4.245
 7839SOL    HW224417   0.388   5.003   4.204
 7840SOL     OW24418   5.449   3.210   5.896
 7840SOL    HW124419   5.436   3.118   5.859
 7840SOL    HW224420   5.480   3.205   5.991
 7841SOL     OW24421   1.270   1.949   6.285
 7841SOL    HW124422   1.316   2.037   6.301
 7841SOL    HW224423   1.181   1.965   6.243
 7842SOL     OW24424   2.924   1.217   2.240
 7842SOL    HW124425   3.019   1.221   2.207
 7842SOL    HW224426   2.868   1.277   2.183
 7843SOL     OW24427   6.599   3.307   0.900
 7843SOL    HW124428   6.585   3.400   0.936
 7843SOL    HW224429   6.623   3.246   0.975
 7844SOL     OW24430   3.632   1.128   4.330
 7844SOL    HW124431   3.696   1.192   4.289
 7844SOL    HW224432   3.680   1.071   4.397
 7845SOL     OW24433   0.578   0.826   3.975
 7845SOL    HW124434   0.516   0.896   3.938
 7845SOL    HW224435   0.576   0.829   4.074
 7846SOL     OW24436   3.554   6.637   2.083
 7846SOL    HW124437   3.463   6.608   2.113
 7846SOL    HW224438   3.598   6.690   2.155
 7847SOL     OW24439   6.761   0.476   0.408
 7847SOL    HW124440   6.767   0.573   0.431
 7847SOL    HW224441   6.817   0.423   0.471
 7848SOL     OW24442   4.587   4.296   0.707
 7848SOL    HW124443   4.655   4.223   0.718
 7848SOL    HW224444   4.508   4.261   0.658
 7849SOL     OW24445   5.689   4.163   4.880
 7849SOL    HW124446   5.728   4.146   4.789
 7849SOL    HW224447   5.594   4.131   4.881
 7850SOL     OW24448   0.850   0.971   4.231
 7850SOL    HW124449   0.860   1.024   4.147
 7850SOL    HW224450   0.801   1.026   4.299
 7851SOL     OW24451   4.631   6.579   0.270
 7851SOL    HW124452   4.670   6.648   0.332
 7851SOL    HW224453   4.639   6.489   0.311
 7852SOL     OW24454   1.734   6.646   6.865
 7852SOL    HW124455   1.723   6.727   6.923
 7852SOL    HW224456   1.687   6.661   6.778
 7853SOL     OW24457   2.348   2.977   0.781
 7853SOL    HW124458   2.370   3.062   0.829
 7853SOL    HW224459   2.422   2.910   0.795
 7854SOL     OW24460   3.469   3.972   2.766
 7854SOL    HW124461   3.377   3.996   2.737
 7854SOL    HW224462   3.498   4.032   2.841
 7855SOL     OW24463   3.638   0.209   5.797
 7855SOL    HW124464   3.688   0.295   5.811
 7855SOL    HW224465   3.591   0.184   5.882
 7856SOL     OW24466   4.696   3.414   6.128
 7856SOL    HW124467   4.637   3.339   6.157
 7856SOL    HW224468   4.664   3.451   6.041
 7857SOL     OW24469   0.621   1.979   4.751
 7857SOL    HW124470   0.678   2.041   4.697
 7857SOL    HW224471   0.657   1.886   4.745
 7858SOL     OW24472   5.952   4.523   3.394
 7858SOL    HW124473   6.042   4.493   3.363
 7858SOL    HW224474   5.963   4.591   3.467
 7859SOL     OW24475   0.803   5.930   6.548
 7859SOL    HW124476   0.752   5.849   6.579
 7859SOL    HW224477   0.841   5.977   6.628
 7860SOL     OW24478   3.422   0.122   1.792
 7860SOL    HW124479   3.359   0.121   1.714
 7860SOL    HW224480   3.501   0.179   1.771
 7861SOL     OW24481   5.558   4.058   0.452
 7861SOL    HW124482   5.479   4.112   0.481
 7861SOL    HW224483   5.619   4.044   0.530
 7862SOL     OW24484   3.262   4.254   1.694
 7862SOL    HW124485   3.271   4.352   1.677
 7862SOL    HW224486   3.172   4.235   1.734
 7863SOL     OW24487   6.356   5.820   2.327
 7863SOL    HW124488   6.312   5.766   2.398
 7863SOL    HW224489   6.286   5.857   2.265
 7864SOL     OW24490   0.798   5.780   4.286
 7864SOL    HW124491   0.852   5.727   4.352
 7864SOL    HW224492   0.768   5.865   4.329
 7865SOL     OW24493   3.172   0.492   1.980
 7865SOL    HW124494   3.138   0.426   1.913
 7865SOL    HW224495   3.246   0.546   1.939
 7866SOL     OW24496   2.303   2.902   4.139
 7866SOL    HW124497   2.255   2.956   4.209
 7866SOL    HW224498   2.324   2.961   4.061
 7867SOL     OW24499   5.634   4.397   2.674
 7867SOL    HW124500   5.581   4.316   2.648
 7867SOL    HW224501   5.598   4.434   2.759
 7868SOL     OW24502   5.289   0.107   0.703
 7868SOL    HW124503   5.252   0.022   0.664
 7868SOL    HW224504   5.368   0.137   0.651
 7869SOL     OW24505   0.106   2.401   3.482
 7869SOL    HW124506   0.113   2.500   3.484
 7869SOL    HW224507   0.136   2.364   3.570
 7870SOL     OW24508   7.008   6.283   3.318
 7870SOL    HW124509   0.074   6.308   3.363
 7870SOL    HW224510   6.933   6.336   3.359
 7871SOL     OW24511   5.644   3.648   4.077
 7871SOL    HW124512   5.742   3.633   4.077
 7871SOL    HW224513   5.597   3.562   4.095
 7872SOL     OW24514   6.580   3.370   3.891
 7872SOL    HW124515   6.633   3.293   3.856
 7872SOL    HW224516   6.506   3.336   3.949
 7873SOL     OW24517   6.677   5.086   5.033
 7873SOL    HW124518   6.585   5.125   5.026
 7873SOL    HW224519   6.681   5.021   5.109
 7874SOL     OW24520   6.128   0.823   0.604
 7874SOL    HW124521   6.208   0.772   0.573
 7874SOL    HW224522   6.060   0.826   0.531
 7875SOL     OW24523   4.801   3.537   6.738
 7875SOL    HW124524   4.767   3.568   6.650
 7875SOL    HW224525   4.775   3.603   6.809
 7876SOL     OW24526   6.538   0.834   4.584
 7876SOL    HW124527   6.499   0.841   4.492
 7876SOL    HW224528   6.560   0.925   4.619
 7877SOL     OW24529   6.650   2.608   2.382
 7877SOL    HW124530   6.661   2.519   2.339
 7877SOL    HW224531   6.699   2.677   2.328
 7878SOL     OW24532   4.757   4.175   1.437
 7878SOL    HW124533   4.750   4.078   1.415
 7878SOL    HW224534   4.717   4.192   1.527
 7879SOL     OW24535   5.077   0.821   5.083
 7879SOL    HW124536   4.997   0.762   5.079
 7879SOL    HW224537   5.136   0.792   5.158
 7880SOL     OW24538   0.852   6.526   5.891
 7880SOL    HW124539   0.894   6.612   5.865
 7880SOL    HW224540   0.812   6.534   5.982
 7881SOL     OW24541   0.559   5.284   3.938
 7881SOL    HW124542   0.477   5.328   3.974
 7881SOL    HW224543   0.639   5.341   3.956
 7882SOL     OW24544   0.429   4.198   1.855
 7882SOL    HW124545   0.442   4.257   1.935
 7882SOL    HW224546   0.503   4.130   1.852
 7883SOL     OW24547   3.239   2.155   3.730
 7883SOL    HW124548   3.308   2.207   3.679
 7883SOL    HW224549   3.257   2.163   3.828
 7884SOL     OW24550   0.894   3.762   4.390
 7884SOL    HW124551   0.892   3.722   4.298
 7884SOL    HW224552   0.908   3.861   4.383
 7885SOL     OW24553   5.791   5.347   3.944
 7885SOL    HW124554   5.742   5.402   4.012
 7885SOL    HW224555   5.847   5.407   3.887
 7886SOL     OW24556   4.933   3.696   3.355
 7886SOL    HW124557   5.019   3.746   3.349
 7886SOL    HW224558   4.883   3.705   3.269
 7887SOL     OW24559   2.232   2.943   1.150
 7887SOL    HW124560   2.187   2.875   1.207
 7887SOL    HW224561   2.325   2.958   1.183
 7888SOL     OW24562   5.815   1.993   4.828
 7888SOL    HW124563   5.859   1.967   4.742
 7888SOL    HW224564   5.882   1.990   4.902
 7889SOL     OW24565   5.815   4.555   6.927
 7889SOL    HW124566   5.734   4.613   6.930
 7889SOL    HW224567   5.897   4.612   6.923
 7890SOL     OW24568   1.868   3.773   4.358
 7890SOL    HW124569   1.910   3.831   4.288
 7890SOL    HW224570   1.808   3.707   4.314
 7891SOL     OW24571   6.716   1.933   4.264
 7891SOL    HW124572   6.731   2.021   4.219
 7891SOL    HW224573   6.623   1.930   4.301
 7892SOL     OW24574   0.743   1.979   5.553
 7892SOL    HW124575   0.676   1.911   5.582
 7892SOL    HW224576   0.807   1.997   5.627
 7893SOL     OW24577   5.760   6.944   0.291
 7893SOL    HW124578   5.793   7.008   0.360
 7893SOL    HW224579   5.782   6.851   0.319
 7894SOL     OW24580   3.703   2.042   6.434
 7894SOL    HW124581   3.627   2.000   6.484
 7894SOL    HW224582   3.667   2.109   6.369
 7895SOL     OW24583   5.550   6.484   3.039
 7895SOL    HW124584   5.548   6.401   2.983
 7895SOL    HW224585   5.457   6.518   3.050
 7896SOL     OW24586   2.492   2.979   1.221
 7896SOL    HW124587   2.544   3.051   1.267
 7896SOL    HW224588   2.469   2.908   1.287
 7897SOL     OW24589   3.666   2.789   0.977
 7897SOL    HW124590   3.630   2.754   1.063
 7897SOL    HW224591   3.752   2.744   0.956
 7898SOL     OW24592   5.386   6.165   3.484
 7898SOL    HW124593   5.328   6.185   3.564
 7898SOL    HW224594   5.364   6.228   3.410
 7899SOL     OW24595   6.582   4.783   3.417
 7899SOL    HW124596   6.568   4.793   3.319
 7899SOL    HW224597   6.673   4.816   3.442
 7900SOL     OW24598   0.835   3.960   1.291
 7900SOL    HW124599   0.750   3.950   1.240
 7900SOL    HW224600   0.889   3.876   1.283
 7901SOL     OW24601   0.114   1.084   6.877
 7901SOL    HW124602   0.176   1.018   6.920
 7901SOL    HW224603   0.157   1.175   6.878
 7902SOL     OW24604   1.149   0.024   2.728
 7902SOL    HW124605   1.140   0.083   2.808
 7902SOL    HW224606   1.225   6.981   2.741
 7903SOL     OW24607   2.879   2.209   5.087
 7903SOL    HW124608   2.970   2.244   5.064
 7903SOL    HW224609   2.814   2.235   5.015
 7904SOL     OW24610   5.022   0.849   2.454
 7904SOL    HW124611   4.966   0.842   2.371
 7904SOL    HW224612   5.068   0.938   2.455
 7905SOL     OW24613   5.348   1.338   0.992
 7905SOL    HW124614   5.279   1.407   1.011
 7905SOL    HW224615   5.322   1.252   1.035
 7906SOL     OW24616   1.407   5.423   0.649
 7906SOL    HW124617   1.330   5.430   0.712
 7906SOL    HW224618   1.475   5.359   0.686
 7907SOL     OW24619   6.246   0.072   2.820
 7907SOL    HW124620   6.165   0.031   2.863
 7907SOL    HW224621   6.225   0.097   2.726
 7908SOL     OW24622   0.691   0.236   6.319
 7908SOL    HW124623   0.617   0.178   6.354
 7908SOL    HW224624   0.656   0.298   6.250
 7909SOL     OW24625   5.828   4.028   2.177
 7909SOL    HW124626   5.734   4.057   2.191
 7909SOL    HW224627   5.829   3.941   2.129
 7910SOL     OW24628   0.862   4.078   6.946
 7910SOL    HW124629   0.924   4.155   6.959
 7910SOL    HW224630   0.879   4.036   6.856
 7911SOL     OW24631   0.171   4.375   6.794
 7911SOL    HW124632   0.127   4.300   6.843
 7911SOL    HW224633   0.159   4.361   6.695
 7912SOL     OW24634   6.181   4.806   0.794
 7912SOL    HW124635   6.168   4.836   0.700
 7912SOL    HW224636   6.233   4.876   0.844
 7913SOL     OW24637   1.264   4.456   1.388
 7913SOL    HW124638   1.330   4.416   1.324
 7913SOL    HW224639   1.204   4.518   1.340
 7914SOL     OW24640   6.493   6.686   5.233
 7914SOL    HW124641   6.481   6.595   5.274
 7914SOL    HW224642   6.586   6.694   5.196
 7915SOL     OW24643   3.706   5.731   2.557
 7915SOL    HW124644   3.682   5.646   2.605
 7915SOL    HW224645   3.790   5.769   2.596
 7916SOL     OW24646   1.216   6.995   4.341
 7916SOL    HW124647   1.287   6.999   4.413
 7916SOL    HW224648   1.131   0.014   4.376
 7917SOL     OW24649   4.446   3.195   0.847
 7917SOL    HW124650   4.397   3.118   0.806
 7917SOL    HW224651   4.517   3.161   0.909
 7918SOL     OW24652   2.120   2.067   3.692
 7918SOL    HW124653   2.182   1.988   3.693
 7918SOL    HW224654   2.148   2.133   3.762
 7919SOL     OW24655   1.950   6.312   4.689
 7919SOL    HW124656   1.886   6.384   4.663
 7919SOL    HW224657   2.043   6.347   4.685
 7920SOL     OW24658   5.146   0.304   1.091
 7920SOL    HW124659   5.066   0.336   1.039
 7920SOL    HW224660   5.184   0.223   1.045
 7921SOL     OW24661   5.594   2.334   1.099
 7921SOL    HW124662   5.563   2.422   1.065
 7921SOL    HW224663   5.605   2.339   1.199
 7922SOL     OW24664   1.456   5.858   1.576
 7922SOL    HW124665   1.471   5.813   1.664
 7922SOL    HW224666   1.506   5.809   1.505
 7923SOL     OW24667   5.527   0.815   0.342
 7923SOL    HW124668   5.458   0.872   0.388
 7923SOL    HW224669   5.566   0.865   0.265
 7924SOL     OW24670   6.593   6.082   0.551
 7924SOL    HW124671   6.654   6.074   0.472
 7924SOL    HW224672   6.562   5.992   0.579
 7925SOL     OW24673   1.435   5.712   6.453
 7925SOL    HW124674   1.515   5.758   6.414
 7925SOL    HW224675   1.435   5.722   6.552
 7926SOL     OW24676   5.028   5.273   0.420
 7926SOL    HW124677   5.042   5.287   0.518
 7926SOL    HW224678   4.931   5.263   0.402
 7927SOL     OW24679   4.331   6.746   2.385
 7927SOL    HW124680   4.382   6.822   2.345
 7927SOL    HW224681   4.283   6.777   2.467
 7928SOL     OW24682   5.946   2.204   3.507
 7928SOL    HW124683   6.024   2.233   3.451
 7928SOL    HW224684   5.864   2.251   3.477
 7929SOL     OW24685   4.269   4.481   5.998
 7929SOL    HW124686   4.207   4.403   5.987
 7929SOL    HW224687   4.299   4.487   6.093
 7930SOL     OW24688   4.310   6.401   5.878
 7930SOL    HW124689   4.220   6.388   5.837
 7930SOL    HW224690   4.301   6.424   5.975
 7931SOL     OW24691   4.073   2.282   1.235
 7931SOL    HW124692   4.019   2.291   1.319
 7931SOL    HW224693   4.162   2.243   1.258
 7932SOL     OW24694   1.655   3.965   2.172
 7932SOL    HW124695   1.581   4.029   2.150
 7932SOL    HW224696   1.712   4.003   2.244
 7933SOL     OW24697   0.996   1.216   0.105
 7933SOL    HW124698   0.984   1.119   0.082
 7933SOL    HW224699   1.084   1.229   0.150
 7934SOL     OW24700   0.875   5.290   1.071
 7934SOL    HW124701   0.845   5.370   1.018
 7934SOL    HW224702   0.927   5.321   1.151
 7935SOL     OW24703   4.926   3.230   3.390
 7935SOL    HW124704   4.875   3.234   3.476
 7935SOL    HW224705   4.997   3.159   3.397
 7936SOL     OW24706   3.222   6.085   3.914
 7936SOL    HW124707   3.293   6.071   3.983
 7936SOL    HW224708   3.133   6.060   3.952
 7937SOL     OW24709   3.240   0.936   0.008
 7937SOL    HW124710   3.202   1.002   6.964
 7937SOL    HW224711   3.250   0.978   0.098
 7938SOL     OW24712   3.037   6.694   4.451
 7938SOL    HW124713   3.029   6.792   4.472
 7938SOL    HW224714   2.958   6.645   4.487
 7939SOL     OW24715   0.393   1.676   4.135
 7939SOL    HW124716   0.460   1.717   4.073
 7939SOL    HW224717   0.313   1.735   4.142
 7940SOL     OW24718   5.687   1.040   3.523
 7940SOL    HW124719   5.683   1.103   3.601
 7940SOL    HW224720   5.737   1.083   3.448
 7941SOL     OW24721   3.445   6.987   1.400
 7941SOL    HW124722   3.463   6.897   1.441
 7941SOL    HW224723   3.531   0.018   1.392
 7942SOL     OW24724   1.551   5.193   0.733
 7942SOL    HW124725   1.487   5.123   0.765
 7942SOL    HW224726   1.645   5.158   0.741
 7943SOL     OW24727   1.522   6.237   6.016
 7943SOL    HW124728   1.536   6.149   6.062
 7943SOL    HW224729   1.534   6.226   5.918
 7944SOL     OW24730   1.233   2.530   1.417
 7944SOL    HW124731   1.141   2.496   1.438
 7944SOL    HW224732   1.298   2.455   1.420
 7945SOL     OW24733   6.235   4.590   3.525
 7945SOL    HW124734   6.158   4.654   3.523
 7945SOL    HW224735   6.218   4.521   3.596
 7946SOL     OW24736   3.789   1.335   6.336
 7946SOL    HW124737   3.704   1.295   6.300
 7946SOL    HW224738   3.806   1.423   6.292
 7947SOL     OW24739   0.848   3.857   6.395
 7947SOL    HW124740   0.941   3.878   6.367
 7947SOL    HW224741   0.789   3.854   6.315
 7948SOL     OW24742   1.617   4.938   2.550
 7948SOL    HW124743   1.522   4.924   2.525
 7948SOL    HW224744   1.673   4.949   2.468
 7949SOL     OW24745   3.552   6.407   6.475
 7949SOL    HW124746   3.552   6.409   6.375
 7949SOL    HW224747   3.585   6.317   6.506
 7950SOL     OW24748   6.053   4.271   4.972
 7950SOL    HW124749   6.006   4.347   5.016
 7950SOL    HW224750   5.985   4.209   4.932
 7951SOL     OW24751   4.159   5.815   2.692
 7951SOL    HW124752   4.248   5.852   2.663
 7951SOL    HW224753   4.172   5.761   2.775
 7952SOL     OW24754   6.167   4.073   6.247
 7952SOL    HW124755   6.079   4.034   6.275
 7952SOL    HW224756   6.197   4.139   6.315
 7953SOL     OW24757   2.677   0.552   0.641
 7953SOL    HW124758   2.637   0.644   0.648
 7953SOL    HW224759   2.706   0.536   0.546
 7954SOL     OW24760   4.382   3.780   6.543
 7954SOL    HW124761   4.377   3.812   6.448
 7954SOL    HW224762   4.323   3.837   6.600
 7955SOL     OW24763   1.813   1.812   6.749
 7955SOL    HW124764   1.912   1.823   6.756
 7955SOL    HW224765   1.767   1.886   6.798
 7956SOL     OW24766   6.234   5.981   0.364
 7956SOL    HW124767   6.215   6.038   0.443
 7956SOL    HW224768   6.256   5.888   0.393
 7957SOL     OW24769   4.759   1.026   6.188
 7957SOL    HW124770   4.845   0.981   6.212
 7957SOL    HW224771   4.764   1.123   6.212
 7958SOL     OW24772   6.317   2.453   0.231
 7958SOL    HW124773   6.389   2.487   0.172
 7958SOL    HW224774   6.266   2.531   0.270
 7959SOL     OW24775   6.064   1.016   6.608
 7959SOL    HW124776   5.975   1.054   6.582
 7959SOL    HW224777   6.058   0.916   6.613
 7960SOL     OW24778   0.366   1.206   5.617
 7960SOL    HW124779   0.389   1.287   5.564
 7960SOL    HW224780   0.336   1.133   5.555
 7961SOL     OW24781   6.346   6.089   0.141
 7961SOL    HW124782   6.305   6.049   0.224
 7961SOL    HW224783   6.373   6.183   0.159
 7962SOL     OW24784   5.648   6.868   5.877
 7962SOL    HW124785   5.723   6.807   5.852
 7962SOL    HW224786   5.561   6.825   5.853
 7963SOL     OW24787   6.897   0.083   4.316
 7963SOL    HW124788   6.894   7.014   4.269
 7963SOL    HW224789   6.847   0.151   4.261
 7964SOL     OW24790   6.646   4.123   1.804
 7964SOL    HW124791   6.736   4.165   1.800
 7964SOL    HW224792   6.607   4.119   1.712
 7965SOL     OW24793   3.886   2.939   6.514
 7965SOL    HW124794   3.915   2.954   6.419
 7965SOL    HW224795   3.866   2.842   6.527
 7966SOL     OW24796   4.953   3.592   4.829
 7966SOL    HW124797   5.047   3.626   4.838
 7966SOL    HW224798   4.902   3.616   4.911
 7967SOL     OW24799   1.751   4.426   1.411
 7967SOL    HW124800   1.754   4.351   1.477
 7967SOL    HW224801   1.766   4.390   1.319
 7968SOL     OW24802   0.175   3.108   4.843
 7968SOL    HW124803   0.173   3.172   4.920
 7968SOL    HW224804   0.253   3.128   4.784
 7969SOL     OW24805   4.692   5.106   0.078
 7969SOL    HW124806   4.627   5.169   0.035
 7969SOL    HW224807   4.725   5.041   0.009
 7970SOL     OW24808   6.070   2.870   2.921
 7970SOL    HW124809   6.075   2.841   3.016
 7970SOL    HW224810   6.107   2.963   2.912
 7971SOL     OW24811   2.712   1.367   7.001
 7971SOL    HW124812   2.629   1.400   0.025
 7971SOL    HW224813   2.753   1.295   0.037
 7972SOL     OW24814   4.085   3.797   3.375
 7972SOL    HW124815   4.098   3.716   3.432
 7972SOL    HW224816   4.005   3.848   3.408
 7973SOL     OW24817   6.430   4.212   2.368
 7973SOL    HW124818   6.511   4.188   2.313
 7973SOL    HW224819   6.459   4.268   2.446
 7974SOL     OW24820   6.621   2.833   6.478
 7974SOL    HW124821   6.696   2.896   6.456
 7974SOL    HW224822   6.636   2.795   6.569
 7975SOL     OW24823   5.852   0.766   1.154
 7975SOL    HW124824   5.791   0.818   1.094
 7975SOL    HW224825   5.871   0.819   1.236
 7976SOL     OW24826   0.701   0.161   1.042
 7976SOL    HW124827   0.778   0.207   0.997
 7976SOL    HW224828   0.737   0.088   1.101
 7977SOL     OW24829   5.474   5.442   3.793
 7977SOL    HW124830   5.432   5.388   3.865
 7977SOL    HW224831   5.452   5.403   3.704
 7978SOL     OW24832   0.088   4.469   1.784
 7978SOL    HW124833   0.095   4.456   1.685
 7978SOL    HW224834   0.177   4.499   1.819
 7979SOL     OW24835   1.713   2.418   4.181
 7979SOL    HW124836   1.682   2.326   4.201
 7979SOL    HW224837   1.784   2.445   4.247
 7980SOL     OW24838   4.222   5.342   0.215
 7980SOL    HW124839   4.285   5.384   0.280
 7980SOL    HW224840   4.138   5.395   0.211
 7981SOL     OW24841   1.947   4.256   3.207
 7981SOL    HW124842   1.925   4.158   3.219
 7981SOL    HW224843   1.865   4.310   3.226
 7982SOL     OW24844   6.239   1.763   5.521
 7982SOL    HW124845   6.265   1.812   5.438
 7982SOL    HW224846   6.320   1.736   5.572
 7983SOL     OW24847   4.864   1.120   1.994
 7983SOL    HW124848   4.813   1.206   2.000
 7983SOL    HW224849   4.949   1.129   2.047
 7984SOL     OW24850   0.647   2.458   3.104
 7984SOL    HW124851   0.595   2.378   3.073
 7984SOL    HW224852   0.661   2.520   3.028
 7985SOL     OW24853   2.673   2.884   5.376
 7985SOL    HW124854   2.694   2.798   5.331
 7985SOL    HW224855   2.616   2.940   5.316
 7986SOL     OW24856   3.354   0.844   4.030
 7986SOL    HW124857   3.353   0.902   4.112
 7986SOL    HW224858   3.328   0.899   3.951
 7987SOL     OW24859   0.989   3.893   0.090
 7987SOL    HW124860   0.947   3.970   0.042
 7987SOL    HW224861   1.031   3.925   0.175
 7988SOL     OW24862   6.924   1.417   1.933
 7988SOL    HW124863   6.963   1.417   2.025
 7988SOL    HW224864   6.980   1.475   1.874
 7989SOL     OW24865   0.572   4.471   0.634
 7989SOL    HW124866   0.506   4.499   0.565
 7989SOL    HW224867   0.637   4.545   0.650
 7990SOL     OW24868   3.898   5.702   5.269
 7990SOL    HW124869   3.919   5.763   5.346
 7990SOL    HW224870   3.939   5.612   5.286
 7991SOL     OW24871   5.643   1.507   5.312
 7991SOL    HW124872   5.662   1.434   5.377
 7991SOL    HW224873   5.544   1.523   5.309
 7992SOL     OW24874   2.718   6.856   6.691
 7992SOL    HW124875   2.771   6.936   6.721
 7992SOL    HW224876   2.710   6.856   6.591
 7993SOL     OW24877   6.373   5.940   1.042
 7993SOL    HW124878   6.358   6.026   0.992
 7993SOL    HW224879   6.463   5.904   1.020
 7994SOL     OW24880   5.720   6.680   4.098
 7994SOL    HW124881   5.749   6.754   4.159
 7994SOL    HW224882   5.795   6.615   4.086
 7995SOL     OW24883   0.904   5.044   1.354
 7995SOL    HW124884   0.976   5.039   1.423
 7995SOL    HW224885   0.821   4.999   1.388
 7996SOL     OW24886   3.164   0.639   2.804
 7996SOL    HW124887   3.163   0.554   2.750
 7996SOL    HW224888   3.237   0.699   2.772
 7997SOL     OW24889   1.742   1.817   6.330
 7997SOL    HW124890   1.760   1.798   6.234
 7997SOL    HW224891   1.643   1.817   6.346
 7998SOL     OW24892   1.951   1.198   0.910
 7998SOL    HW124893   1.887   1.221   0.836
 7998SOL    HW224894   2.042   1.231   0.886
 7999SOL     OW24895   0.845   0.400   4.360
 7999SOL    HW124896   0.809   0.317   4.403
 7999SOL    HW224897   0.789   0.479   4.386
 8000SOL     OW24898   4.444   5.171   7.001
 8000SOL    HW124899   4.464   5.073   6.989
 8000SOL    HW224900   4.346   5.183   7.016
 8001SOL     OW24901   4.567   5.978   1.216
 8001SOL    HW124902   4.552   6.072   1.244
 8001SOL    HW224903   4.637   5.976   1.143
 8002SOL     OW24904   0.747   0.386   5.443
 8002SOL    HW124905   0.738   0.480   5.477
 8002SOL    HW224906   0.775   0.388   5.347
 8003SOL     OW24907   2.248   5.358   2.247
 8003SOL    HW124908   2.330   5.415   2.236
 8003SOL    HW224909   2.266   5.266   2.214
 8004SOL     OW24910   1.522   2.780   4.111
 8004SOL    HW124911   1.496   2.826   4.026
 8004SOL    HW224912   1.622   2.769   4.113
 8005SOL     OW24913   2.294   0.011   3.266
 8005SOL    HW124914   2.288   6.967   3.189
 8005SOL    HW224915   2.352   6.991   3.337
 8006SOL     OW24916   3.839   4.684   5.330
 8006SOL    HW124917   3.848   4.594   5.372
 8006SOL    HW224918   3.810   4.750   5.400
 8007SOL     OW24919   6.222   0.253   0.001
 8007SOL    HW124920   6.321   0.243   0.015
 8007SOL    HW224921   6.175   0.245   0.088
 8008SOL     OW24922   5.516   6.392   0.008
 8008SOL    HW124923   5.543   6.393   6.931
 8008SOL    HW224924   5.588   6.347   0.061
 8009SOL     OW24925   5.278   1.609   6.918
 8009SOL    HW124926   5.250   1.520   6.953
 8009SOL    HW224927   5.227   1.682   6.965
 8010SOL     OW24928   3.257   1.582   5.569
 8010SOL    HW124929   3.257   1.671   5.615
 8010SOL    HW224930   3.243   1.510   5.636
 8011SOL     OW24931   3.920   1.682   2.947
 8011SOL    HW124932   4.015   1.699   2.972
 8011SOL    HW224933   3.911   1.589   2.910
 8012SOL     OW24934   6.658   1.650   4.598
 8012SOL    HW124935   6.722   1.575   4.587
 8012SOL    HW224936   6.570   1.615   4.630
 8013SOL     OW24937   3.250   1.789   2.325
 8013SOL    HW124938   3.218   1.727   2.253
 8013SOL    HW224939   3.172   1.839   2.363
 8014SOL     OW24940   2.138   1.774   2.454
 8014SOL    HW124941   2.173   1.825   2.533
 8014SOL    HW224942   2.203   1.780   2.379
 8015SOL     OW24943   3.404   0.084   5.538
 8015SOL    HW124944   3.324   0.106   5.593
 8015SOL    HW224945   3.455   0.168   5.518
 8016SOL     OW24946   3.127   1.449   4.916
 8016SOL    HW124947   3.115   1.520   4.986
 8016SOL    HW224948   3.099   1.485   4.827
 8017SOL     OW24949   6.647   6.102   1.097
 8017SOL    HW124950   6.580   6.160   1.052
 8017SOL    HW224951   6.723   6.085   1.034
 8018SOL     OW24952   4.057   1.928   7.001
 8018SOL    HW124953   4.077   1.945   6.905
 8018SOL    HW224954   4.101   1.843   0.010
 8019SOL     OW24955   2.887   3.516   0.928
 8019SOL    HW124956   2.978   3.484   0.901
 8019SOL    HW224957   2.829   3.437   0.947
 8020SOL     OW24958   6.872   0.972   5.453
 8020SOL    HW124959   6.899   1.067   5.468
 8020SOL    HW224960   6.831   0.964   5.362
 8021SOL     OW24961   1.427   2.134   1.245
 8021SOL    HW124962   1.462   2.227   1.248
 8021SOL    HW224963   1.342   2.132   1.193
 8022SOL     OW24964   5.266   1.494   2.329
 8022SOL    HW124965   5.259   1.547   2.245
 8022SOL    HW224966   5.320   1.544   2.397
 8023SOL     OW24967   5.285   6.054   1.971
 8023SOL    HW124968   5.302   5.956   1.958
 8023SOL    HW224969   5.360   6.106   1.932
 8024SOL     OW24970   2.467   0.819   6.456
 8024SOL    HW124971   2.505   0.881   6.387
 8024SOL    HW224972   2.483   0.725   6.427
 8025SOL     OW24973   1.214   6.031   2.191
 8025SOL    HW124974   1.189   5.948   2.141
 8025SOL    HW224975   1.244   6.101   2.126
 8026SOL     OW24976   0.593   5.456   6.737
 8026SOL    HW124977   0.624   5.361   6.726
 8026SOL    HW224978   0.631   5.493   6.822
 8027SOL     OW24979   3.320   1.048   6.475
 8027SOL    HW124980   3.393   1.096   6.522
 8027SOL    HW224981   3.339   0.950   6.475
 8028SOL     OW24982   3.187   5.432   5.209
 8028SOL    HW124983   3.163   5.469   5.299
 8028SOL    HW224984   3.172   5.333   5.208
 8029SOL     OW24985   0.426   6.953   0.086
 8029SOL    HW124986   0.335   6.996   0.086
 8029SOL    HW224987   0.490   7.012   0.038
 8030SOL     OW24988   0.727   3.827   0.823
 8030SOL    HW124989   0.643   3.864   0.784
 8030SOL    HW224990   0.796   3.817   0.752
 8031SOL     OW24991   0.176   0.585   3.213
 8031SOL    HW124992   0.230   0.502   3.227
 8031SOL    HW224993   0.235   0.658   3.180
 8032SOL     OW24994   6.726   2.946   1.109
 8032SOL    HW124995   6.699   2.906   1.021
 8032SOL    HW224996   6.695   3.042   1.112
 8033SOL     OW24997   4.657   3.614   1.272
 8033SOL    HW124998   4.569   3.641   1.233
 8033SOL    HW224999   4.683   3.524   1.237
 8034SOL     OW25000   6.072   0.642   5.940
 8034SOL    HW125001   6.064   0.702   6.020
 8034SOL    HW225002   6.168   0.622   5.923
 8035SOL     OW25003   5.774   1.713   3.162
 8035SOL    HW125004   5.775   1.754   3.254
 8035SOL    HW225005   5.845   1.643   3.156
 8036SOL     OW25006   5.805   2.554   4.051
 8036SOL    HW125007   5.889   2.500   4.040
 8036SOL    HW225008   5.751   2.549   3.967
 8037SOL     OW25009   1.536   1.541   5.475
 8037SOL    HW125010   1.512   1.611   5.542
 8037SOL    HW225011   1.535   1.581   5.383
 8038SOL     OW25012   6.885   4.885   2.275
 8038SOL    HW125013   6.791   4.919   2.286
 8038SOL    HW225014   6.942   4.958   2.237
 8039SOL     OW25015   1.301   2.607   5.724
 8039SOL    HW125016   1.287   2.508   5.732
 8039SOL    HW225017   1.224   2.655   5.766
 8040SOL     OW25018   1.824   5.020   6.898
 8040SOL    HW125019   1.884   4.941   6.883
 8040SOL    HW225020   1.814   5.071   6.813
 8041SOL     OW25021   3.311   1.471   3.091
 8041SOL    HW125022   3.399   1.505   3.058
 8041SOL    HW225023   3.244   1.545   3.092
 8042SOL     OW25024   4.259   4.280   5.525
 8042SOL    HW125025   4.207   4.330   5.456
 8042SOL    HW225026   4.304   4.344   5.587
 8043SOL     OW25027   5.000   5.706   6.841
 8043SOL    HW125028   5.059   5.642   6.792
 8043SOL    HW225029   4.974   5.781   6.780
 8044SOL     OW25030   2.608   3.499   1.724
 8044SOL    HW125031   2.519   3.498   1.770
 8044SOL    HW225032   2.659   3.580   1.754
 8045SOL     OW25033   6.602   2.670   3.638
 8045SOL    HW125034   6.588   2.579   3.677
 8045SOL    HW225035   6.700   2.692   3.641
 8046SOL     OW25036   6.658   4.938   2.456
 8046SOL    HW125037   6.587   4.870   2.436
 8046SOL    HW225038   6.622   5.030   2.438
 8047SOL     OW25039   3.380   6.599   6.636
 8047SOL    HW125040   3.433   6.518   6.610
 8047SOL    HW225041   3.285   6.572   6.654
 8048SOL     OW25042   3.883   2.557   5.940
 8048SOL    HW125043   3.805   2.495   5.936
 8048SOL    HW225044   3.878   2.611   6.024
 8049SOL     OW25045   1.754   1.891   0.422
 8049SOL    HW125046   1.730   1.988   0.420
 8049SOL    HW225047   1.728   1.852   0.511
 8050SOL     OW25048   0.583   4.799   5.560
 8050SOL    HW125049   0.528   4.717   5.550
 8050SOL    HW225050   0.669   4.776   5.605
 8051SOL     OW25051   4.224   6.003   3.495
 8051SOL    HW125052   4.281   5.943   3.438
 8051SOL    HW225053   4.282   6.061   3.552
 8052SOL     OW25054   2.724   1.992   2.408
 8052SOL    HW125055   2.738   2.082   2.366
 8052SOL    HW225056   2.775   1.987   2.494
 8053SOL     OW25057   2.078   2.639   6.529
 8053SOL    HW125058   2.058   2.608   6.436
 8053SOL    HW225059   2.141   2.717   6.525
 8054SOL     OW25060   4.696   3.338   5.268
 8054SOL    HW125061   4.686   3.437   5.257
 8054SOL    HW225062   4.792   3.316   5.286
 8055SOL     OW25063   5.919   0.531   6.782
 8055SOL    HW125064   5.897   0.442   6.742
 8055SOL    HW225065   5.866   0.544   6.866
 8056SOL     OW25066   2.025   0.775   4.609
 8056SOL    HW125067   2.120   0.745   4.622
 8056SOL    HW225068   1.992   0.743   4.521
 8057SOL     OW25069   2.672   2.349   1.826
 8057SOL    HW125070   2.719   2.365   1.913
 8057SOL    HW225071   2.739   2.346   1.753
 8058SOL     OW25072   3.386   0.065   2.266
 8058SOL    HW125073   3.352   0.033   2.355
 8058SOL    HW225074   3.369   7.016   2.196
 8059SOL     OW25075   2.761   2.604   5.842
 8059SOL    HW125076   2.708   2.575   5.762
 8059SOL    HW225077   2.776   2.525   5.902
 8060SOL     OW25078   5.876   0.762   6.236
 8060SOL    HW125079   5.823   0.801   6.161
 8060SOL    HW225080   5.912   0.836   6.294
 8061SOL     OW25081   0.161   0.377   2.735
 8061SOL    HW125082   0.209   0.458   2.704
 8061SOL    HW225083   0.207   0.338   2.815
 8062SOL     OW25084   3.843   5.377   5.600
 8062SOL    HW125085   3.823   5.465   5.642
 8062SOL    HW225086   3.907   5.326   5.658
 8063SOL     OW25087   3.625   5.201   3.358
 8063SOL    HW125088   3.711   5.154   3.338
 8063SOL    HW225089   3.609   5.273   3.290
 8064SOL     OW25090   6.273   1.743   0.388
 8064SOL    HW125091   6.338   1.780   0.322
 8064SOL    HW225092   6.242   1.653   0.356
 8065SOL     OW25093   4.137   5.832   6.559
 8065SOL    HW125094   4.062   5.792   6.611
 8065SOL    HW225095   4.108   5.845   6.464
 8066SOL     OW25096   0.071   0.064   5.648
 8066SOL    HW125097   6.999   0.036   5.621
 8066SOL    HW225098   0.137   0.030   5.581
 8067SOL     OW25099   4.983   2.702   3.646
 8067SOL    HW125100   4.944   2.767   3.581
 8067SOL    HW225101   5.045   2.750   3.708
 8068SOL     OW25102   5.950   4.030   1.241
 8068SOL    HW125103   6.040   4.042   1.200
 8068SOL    HW225104   5.910   4.120   1.260
 8069SOL     OW25105   2.464   5.303   3.309
 8069SOL    HW125106   2.421   5.334   3.394
 8069SOL    HW225107   2.469   5.203   3.308
 8070SOL     OW25108   4.432   4.696   0.619
 8070SOL    HW125109   4.503   4.655   0.676
 8070SOL    HW225110   4.374   4.625   0.580
 8071SOL     OW25111   2.420   0.113   6.308
 8071SOL    HW125112   2.435   0.016   6.289
 8071SOL    HW225113   2.337   0.123   6.363
 8072SOL     OW25114   1.596   1.771   5.675
 8072SOL    HW125115   1.639   1.812   5.755
 8072SOL    HW225116   1.511   1.821   5.654
 8073SOL     OW25117   4.205   0.582   6.614
 8073SOL    HW125118   4.169   0.614   6.527
 8073SOL    HW225119   4.263   0.502   6.599
 8074SOL     OW25120   1.468   0.924   5.844
 8074SOL    HW125121   1.443   0.979   5.924
 8074SOL    HW225122   1.431   0.966   5.761
 8075SOL     OW25123   0.101   6.778   0.672
 8075SOL    HW125124   0.116   6.801   0.576
 8075SOL    HW225125   0.007   6.749   0.685
 8076SOL     OW25126   6.855   6.163   0.910
 8076SOL    HW125127   6.803   6.240   0.872
 8076SOL    HW225128   6.904   6.117   0.836
 8077SOL     OW25129   4.873   4.405   0.664
 8077SOL    HW125130   4.791   4.423   0.718
 8077SOL    HW225131   4.847   4.366   0.576
 8078SOL     OW25132   0.790   0.803   2.330
 8078SOL    HW125133   0.838   0.796   2.418
 8078SOL    HW225134   0.732   0.884   2.331
 8079SOL     OW25135   1.147   1.709   6.135
 8079SOL    HW125136   1.239   1.693   6.169
 8079SOL    HW225137   1.085   1.639   6.171
 8080SOL     OW25138   1.489   3.188   3.149
 8080SOL    HW125139   1.423   3.212   3.078
 8080SOL    HW225140   1.579   3.225   3.125
 8081SOL     OW25141   5.857   6.376   5.019
 8081SOL    HW125142   5.953   6.405   5.024
 8081SOL    HW225143   5.850   6.297   4.958
 8082SOL     OW25144   4.000   1.718   2.321
 8082SOL    HW125145   4.092   1.724   2.281
 8082SOL    HW225146   3.941   1.786   2.278
 8083SOL     OW25147   5.692   1.988   4.403
 8083SOL    HW125148   5.600   1.991   4.443
 8083SOL    HW225149   5.708   2.071   4.348
 8084SOL     OW25150   3.669   1.926   5.921
 8084SOL    HW125151   3.595   1.870   5.882
 8084SOL    HW225152   3.684   1.897   6.016
 8085SOL     OW25153   1.458   6.369   4.420
 8085SOL    HW125154   1.430   6.317   4.340
 8085SOL    HW225155   1.443   6.466   4.403
 8086SOL     OW25156   6.694   0.698   2.328
 8086SOL    HW125157   6.787   0.661   2.330
 8086SOL    HW225158   6.628   0.624   2.315
 8087SOL     OW25159   0.567   0.474   0.206
 8087SOL    HW125160   0.515   0.391   0.182
 8087SOL    HW225161   0.613   0.509   0.124
 8088SOL     OW25162   6.273   0.291   4.604
 8088SOL    HW125163   6.369   0.267   4.586
 8088SOL    HW225164   6.255   0.285   4.702
 8089SOL     OW25165   6.170   1.915   6.126
 8089SOL    HW125166   6.150   1.863   6.209
 8089SOL    HW225167   6.268   1.911   6.107
 8090SOL     OW25168   4.156   1.808   5.180
 8090SOL    HW125169   4.113   1.728   5.136
 8090SOL    HW225170   4.249   1.784   5.207
 8091SOL     OW25171   1.990   5.129   4.285
 8091SOL    HW125172   2.076   5.159   4.244
 8091SOL    HW225173   2.009   5.064   4.358
 8092SOL     OW25174   4.650   1.850   5.760
 8092SOL    HW125175   4.744   1.865   5.791
 8092SOL    HW225176   4.648   1.851   5.660
 8093SOL     OW25177   3.570   6.221   2.176
 8093SOL    HW125178   3.583   6.152   2.247
 8093SOL    HW225179   3.631   6.299   2.193
 8094SOL     OW25180   2.023   4.508   4.079
 8094SOL    HW125181   1.949   4.445   4.055
 8094SOL    HW225182   1.988   4.602   4.077
 8095SOL     OW25183   1.347   4.663   5.529
 8095SOL    HW125184   1.255   4.701   5.519
 8095SOL    HW225185   1.414   4.721   5.483
 8096SOL     OW25186   1.228   6.015   1.583
 8096SOL    HW125187   1.190   5.988   1.494
 8096SOL    HW225188   1.320   5.978   1.592
 8097SOL     OW25189   4.060   6.074   5.375
 8097SOL    HW125190   4.139   6.019   5.349
 8097SOL    HW225191   4.027   6.126   5.296
 8098SOL     OW25192   1.807   5.794   5.035
 8098SOL    HW125193   1.775   5.741   4.956
 8098SOL    HW225194   1.877   5.859   5.005
 8099SOL     OW25195   2.543   5.043   2.952
 8099SOL    HW125196   2.598   4.985   2.892
 8099SOL    HW225197   2.473   5.090   2.898
 8100SOL     OW25198   0.063   0.646   6.928
 8100SOL    HW125199   0.141   0.686   6.978
 8100SOL    HW225200   0.022   0.573   6.983
 8101SOL     OW25201   2.603   6.250   1.258
 8101SOL    HW125202   2.505   6.232   1.257
 8101SOL    HW225203   2.652   6.167   1.284
 8102SOL     OW25204   1.743   3.254   5.059
 8102SOL    HW125205   1.697   3.321   5.001
 8102SOL    HW225206   1.737   3.284   5.155
 8103SOL     OW25207   3.333   1.055   1.530
 8103SOL    HW125208   3.248   1.003   1.518
 8103SOL    HW225209   3.380   1.061   1.442
 8104SOL     OW25210   2.245   6.341   0.324
 8104SOL    HW125211   2.262   6.363   0.420
 8104SOL    HW225212   2.298   6.261   0.298
 8105SOL     OW25213   6.936   0.449   3.299
 8105SOL    HW125214   6.862   0.517   3.300
 8105SOL    HW225215   7.013   0.485   3.246
 8106SOL     OW25216   1.921   6.860   5.954
 8106SOL    HW125217   2.011   6.844   5.994
 8106SOL    HW225218   1.850   6.827   6.017
 8107SOL     OW25219   1.813   6.174   6.016
 8107SOL    HW125220   1.754   6.131   6.083
 8107SOL    HW225221   1.768   6.254   5.977
 8108SOL     OW25222   0.564   1.056   6.867
 8108SOL    HW125223   0.617   0.972   6.882
 8108SOL    HW225224   0.626   1.129   6.837
 8109SOL     OW25225   6.396   2.898   0.803
 8109SOL    HW125226   6.427   2.983   0.761
 8109SOL    HW225227   6.297   2.889   0.789
 8110SOL     OW25228   4.099   5.001   1.084
 8110SOL    HW125229   4.039   5.069   1.125
 8110SOL    HW225230   4.115   5.024   0.988
 8111SOL     OW25231   6.398   1.281   2.798
 8111SOL    HW125232   6.341   1.327   2.730
 8111SOL    HW225233   6.368   1.186   2.808
 8112SOL     OW25234   1.392   3.724   6.109
 8112SOL    HW125235   1.451   3.735   6.189
 8112SOL    HW225236   1.343   3.809   6.092
 8113SOL     OW25237   5.686   2.933   6.283
 8113SOL    HW125238   5.740   2.973   6.357
 8113SOL    HW225239   5.589   2.955   6.296
 8114SOL     OW25240   2.122   4.293   1.278
 8114SOL    HW125241   2.185   4.307   1.201
 8114SOL    HW225242   2.121   4.375   1.336
 8115SOL     OW25243   2.203   1.808   6.251
 8115SOL    HW125244   2.124   1.857   6.216
 8115SOL    HW225245   2.282   1.869   6.253
 8116SOL     OW25246   3.855   3.702   0.987
 8116SOL    HW125247   3.787   3.680   0.917
 8116SOL    HW225248   3.911   3.621   1.007
 8117SOL     OW25249   2.692   6.793   3.033
 8117SOL    HW125250   2.769   6.747   2.991
 8117SOL    HW225251   2.671   6.877   2.983
 8118SOL     OW25252   6.776   3.042   0.520
 8118SOL    HW125253   6.711   2.984   0.472
 8118SOL    HW225254   6.750   3.049   0.616
 8119SOL     OW25255   6.170   5.790   0.125
 8119SOL    HW125256   6.196   5.765   0.218
 8119SOL    HW225257   6.251   5.818   0.074
 8120SOL     OW25258   2.873   6.610   1.328
 8120SOL    HW125259   2.973   6.606   1.323
 8120SOL    HW225260   2.834   6.572   1.245
 8121SOL     OW25261   0.924   3.657   3.011
 8121SOL    HW125262   0.934   3.684   3.107
 8121SOL    HW225263   0.856   3.716   2.967
 8122SOL     OW25264   0.996   4.763   1.946
 8122SOL    HW125265   1.018   4.666   1.933
 8122SOL    HW225266   0.990   4.808   1.856
 8123SOL     OW25267   0.537   1.815   6.457
 8123SOL    HW125268   0.557   1.720   6.431
 8123SOL    HW225269   0.525   1.822   6.556
 8124SOL     OW25270   5.281   4.588   4.982
 8124SOL    HW125271   5.305   4.557   5.074
 8124SOL    HW225272   5.364   4.595   4.927
 8125SOL     OW25273   1.590   6.338   3.394
 8125SOL    HW125274   1.554   6.291   3.314
 8125SOL    HW225275   1.560   6.291   3.477
 8126SOL     OW25276   3.826   5.099   4.080
 8126SOL    HW125277   3.900   5.060   4.135
 8126SOL    HW225278   3.765   5.152   4.139
 8127SOL     OW25279   3.330   2.788   6.720
 8127SOL    HW125280   3.309   2.766   6.815
 8127SOL    HW225281   3.385   2.716   6.680
 8128SOL     OW25282   3.685   3.058   1.604
 8128SOL    HW125283   3.720   3.015   1.687
 8128SOL    HW225284   3.587   3.075   1.615
 8129SOL     OW25285   1.233   2.892   1.817
 8129SOL    HW125286   1.320   2.858   1.780
 8129SOL    HW225287   1.213   2.846   1.904
 8130SOL     OW25288   1.389   5.416   6.400
 8130SOL    HW125289   1.292   5.391   6.409
 8130SOL    HW225290   1.401   5.512   6.423
 8131SOL     OW25291   1.871   3.238   7.013
 8131SOL    HW125292   1.880   3.333   0.025
 8131SOL    HW225293   1.859   3.237   6.914
 8132SOL     OW25294   0.025   0.001   4.973
 8132SOL    HW125295   0.059   6.933   5.007
 8132SOL    HW225296   6.951   7.009   4.940
 8133SOL     OW25297   3.647   4.599   0.568
 8133SOL    HW125298   3.591   4.524   0.535
 8133SOL    HW225299   3.599   4.648   0.641
 8134SOL     OW25300   5.283   0.852   5.813
 8134SOL    HW125301   5.200   0.882   5.860
 8134SOL    HW225302   5.346   0.811   5.879
 8135SOL     OW25303   1.987   0.013   1.937
 8135SOL    HW125304   2.050   0.088   1.956
 8135SOL    HW225305   1.959   6.989   2.022
 8136SOL     OW25306   4.499   4.537   2.017
 8136SOL    HW125307   4.528   4.589   1.937
 8136SOL    HW225308   4.529   4.442   2.008
 8137SOL     OW25309   4.027   1.379   4.697
 8137SOL    HW125310   4.070   1.378   4.787
 8137SOL    HW225311   4.097   1.376   4.626
 8138SOL     OW25312   4.640   1.346   1.375
 8138SOL    HW125313   4.570   1.315   1.311
 8138SOL    HW225314   4.689   1.268   1.412
 8139SOL     OW25315   1.075   2.195   3.611
 8139SOL    HW125316   1.169   2.165   3.600
 8139SOL    HW225317   1.063   2.285   3.568
 8140SOL     OW25318   3.857   0.959   3.512
 8140SOL    HW125319   3.912   0.916   3.584
 8140SOL    HW225320   3.916   0.983   3.435
 8141SOL     OW25321   4.382   4.854   4.541
 8141SOL    HW125322   4.400   4.941   4.586
 8141SOL    HW225323   4.342   4.789   4.606
 8142SOL     OW25324   6.293   5.688   0.407
 8142SOL    HW125325   6.369   5.694   0.472
 8142SOL    HW225326   6.222   5.628   0.443
 8143SOL     OW25327   6.039   3.947   4.532
 8143SOL    HW125328   6.082   4.016   4.590
 8143SOL    HW225329   5.988   3.993   4.459
 8144SOL     OW25330   6.165   6.232   6.319
 8144SOL    HW125331   6.143   6.212   6.223
 8144SOL    HW225332   6.124   6.162   6.377
 8145SOL     OW25333   6.093   5.810   2.526
 8145SOL    HW125334   6.012   5.760   2.557
 8145SOL    HW225335   6.129   5.864   2.602
 8146SOL     OW25336   2.807   1.333   4.536
 8146SOL    HW125337   2.884   1.376   4.489
 8146SOL    HW225338   2.840   1.281   4.614
 8147SOL     OW25339   4.856   0.912   4.045
 8147SOL    HW125340   4.847   0.851   3.967
 8147SOL    HW225341   4.864   1.007   4.013
 8148SOL     OW25342   5.527   4.097   3.546
 8148SOL    HW125343   5.456   4.070   3.611
 8148SOL    HW225344   5.551   4.193   3.560
 8149SOL     OW25345   4.366   4.665   3.257
 8149SOL    HW125346   4.352   4.643   3.161
 8149SOL    HW225347   4.419   4.592   3.301
 8150SOL     OW25348   0.555   5.295   0.516
 8150SOL    HW125349   0.651   5.317   0.499
 8150SOL    HW225350   0.526   5.339   0.601
 8151SOL     OW25351   1.041   1.827   5.298
 8151SOL    HW125352   0.954   1.876   5.295
 8151SOL    HW225353   1.116   1.892   5.284
 8152SOL     OW25354   1.148   1.374   3.260
 8152SOL    HW125355   1.205   1.370   3.342
 8152SOL    HW225356   1.097   1.289   3.250
 8153SOL     OW25357   2.152   6.708   0.555
 8153SOL    HW125358   2.214   6.763   0.499
 8153SOL    HW225359   2.066   6.696   0.507
 8154SOL     OW25360   1.969   6.656   4.257
 8154SOL    HW125361   2.031   6.628   4.183
 8154SOL    HW225362   1.911   6.578   4.283
 8155SOL     OW25363   3.226   3.148   3.654
 8155SOL    HW125364   3.154   3.130   3.588
 8155SOL    HW225365   3.246   3.246   3.656
 8156SOL     OW25366   6.184   0.793   6.174
 8156SOL    HW125367   6.146   0.871   6.223
 8156SOL    HW225368   6.271   0.819   6.133
 8157SOL     OW25369   6.477   3.617   6.419
 8157SOL    HW125370   6.521   3.668   6.345
 8157SOL    HW225371   6.378   3.629   6.414
 8158SOL     OW25372   1.887   5.213   2.317
 8158SOL    HW125373   1.906   5.177   2.226
 8158SOL    HW225374   1.968   5.201   2.375
 8159SOL     OW25375   1.928   5.947   2.067
 8159SOL    HW125376   1.876   6.031   2.054
 8159SOL    HW225377   1.950   5.936   2.164
 8160SOL     OW25378   4.502   1.938   2.099
 8160SOL    HW125379   4.551   1.851   2.099
 8160SOL    HW225380   4.451   1.948   2.013
 8161SOL     OW25381   5.036   1.416   0.754
 8161SOL    HW125382   5.034   1.416   0.854
 8161SOL    HW225383   4.984   1.494   0.720
 8162SOL     OW25384   5.815   0.333   1.983
 8162SOL    HW125385   5.769   0.336   1.894
 8162SOL    HW225386   5.910   0.303   1.969
 8163SOL     OW25387   2.434   4.205   5.346
 8163SOL    HW125388   2.434   4.117   5.299
 8163SOL    HW225389   2.509   4.208   5.412
 8164SOL     OW25390   4.085   2.123   1.865
 8164SOL    HW125391   4.089   2.023   1.859
 8164SOL    HW225392   4.178   2.159   1.876
 8165SOL     OW25393   2.274   5.072   1.463
 8165SOL    HW125394   2.354   5.043   1.515
 8165SOL    HW225395   2.287   5.167   1.433
 8166SOL     OW25396   2.525   6.686   2.095
 8166SOL    HW125397   2.564   6.776   2.115
 8166SOL    HW225398   2.451   6.666   2.160
 8167SOL     OW25399   5.402   2.640   3.603
 8167SOL    HW125400   5.462   2.620   3.681
 8167SOL    HW225401   5.324   2.578   3.605
 8168SOL     OW25402   3.139   1.026   2.917
 8168SOL    HW125403   3.174   1.113   2.951
 8168SOL    HW225404   3.196   0.996   2.840
 8169SOL     OW25405   4.970   3.696   6.028
 8169SOL    HW125406   4.964   3.654   6.119
 8169SOL    HW225407   4.991   3.793   6.038
 8170SOL     OW25408   0.558   5.822   4.084
 8170SOL    HW125409   0.628   5.773   4.137
 8170SOL    HW225410   0.468   5.807   4.125
 8171SOL     OW25411   0.944   1.832   5.979
 8171SOL    HW125412   0.918   1.772   5.903
 8171SOL    HW225413   1.022   1.794   6.028
 8172SOL     OW25414   6.736   6.450   0.875
 8172SOL    HW125415   6.741   6.460   0.775
 8172SOL    HW225416   6.646   6.480   0.907
 8173SOL     OW25417   5.100   2.852   6.403
 8173SOL    HW125418   5.122   2.947   6.379
 8173SOL    HW225419   5.125   2.792   6.327
 8174SOL     OW25420   5.833   0.427   2.334
 8174SOL    HW125421   5.751   0.404   2.281
 8174SOL    HW225422   5.914   0.416   2.276
 8175SOL     OW25423   1.115   3.270   6.352
 8175SOL    HW125424   1.187   3.213   6.392
 8175SOL    HW225425   1.147   3.365   6.345
 8176SOL     OW25426   2.503   5.912   2.529
 8176SOL    HW125427   2.542   5.961   2.451
 8176SOL    HW225428   2.450   5.834   2.497
 8177SOL     OW25429   0.598   6.723   5.858
 8177SOL    HW125430   0.663   6.646   5.856
 8177SOL    HW225431   0.525   6.707   5.791
 8178SOL     OW25432   2.116   6.805   6.382
 8178SOL    HW125433   2.205   6.852   6.377
 8178SOL    HW225434   2.063   6.843   6.457
 8179SOL     OW25435   3.157   1.426   0.389
 8179SOL    HW125436   3.136   1.402   0.484
 8179SOL    HW225437   3.235   1.372   0.357
 8180SOL     OW25438   5.315   5.684   5.227
 8180SOL    HW125439   5.355   5.597   5.198
 8180SOL    HW225440   5.251   5.669   5.302
 8181SOL     OW25441   2.556   2.291   2.444
 8181SOL    HW125442   2.479   2.324   2.498
 8181SOL    HW225443   2.559   2.191   2.449
 8182SOL     OW25444   3.707   2.736   5.790
 8182SOL    HW125445   3.724   2.766   5.696
 8182SOL    HW225446   3.774   2.667   5.816
 8183SOL     OW25447   1.667   3.462   4.914
 8183SOL    HW125448   1.702   3.514   4.836
 8183SOL    HW225449   1.570   3.443   4.901
 8184SOL     OW25450   5.821   6.116   5.602
 8184SOL    HW125451   5.875   6.200   5.598
 8184SOL    HW225452   5.747   6.120   5.535
 8185SOL     OW25453   1.441   1.447   3.235
 8185SOL    HW125454   1.354   1.445   3.187
 8185SOL    HW225455   1.469   1.542   3.250
 8186SOL     OW25456   3.392   4.727   6.102
 8186SOL    HW125457   3.347   4.816   6.093
 8186SOL    HW225458   3.365   4.685   6.188
 8187SOL     OW25459   1.065   2.039   5.655
 8187SOL    HW125460   1.114   1.956   5.682
 8187SOL    HW225461   0.994   2.059   5.722
 8188SOL     OW25462   5.874   4.082   2.531
 8188SOL    HW125463   5.846   4.173   2.501
 8188SOL    HW225464   5.958   4.056   2.484
 8189SOL     OW25465   6.246   4.496   2.291
 8189SOL    HW125466   6.319   4.449   2.241
 8189SOL    HW225467   6.158   4.478   2.247
 8190SOL     OW25468   5.424   3.445   2.947
 8190SOL    HW125469   5.349   3.499   2.908
 8190SOL    HW225470   5.427   3.458   3.046
 8191SOL     OW25471   0.922   5.384   2.562
 8191SOL    HW125472   0.936   5.321   2.639
 8191SOL    HW225473   0.842   5.356   2.510
 8192SOL     OW25474   1.819   4.043   1.391
 8192SOL    HW125475   1.901   3.989   1.409
 8192SOL    HW225476   1.738   3.985   1.404
 8193SOL     OW25477   3.568   1.018   5.893
 8193SOL    HW125478   3.629   1.093   5.920
 8193SOL    HW225479   3.484   1.022   5.947
 8194SOL     OW25480   1.548   0.347   0.667
 8194SOL    HW125481   1.638   0.378   0.636
 8194SOL    HW225482   1.559   0.281   0.741
 8195SOL     OW25483   5.984   6.997   1.005
 8195SOL    HW125484   6.011   0.050   0.942
 8195SOL    HW225485   6.059   6.932   1.016
 8196SOL     OW25486   2.595   0.511   6.037
 8196SOL    HW125487   2.573   0.457   5.956
 8196SOL    HW225488   2.562   0.464   6.119
 8197SOL     OW25489   0.903   6.885   6.872
 8197SOL    HW125490   0.825   6.863   6.931
 8197SOL    HW225491   0.937   6.976   6.894
 8198SOL     OW25492   3.983   6.174   2.636
 8198SOL    HW125493   4.066   6.178   2.691
 8198SOL    HW225494   3.915   6.237   2.672
 8199SOL     OW25495   5.935   3.921   0.312
 8199SOL    HW125496   5.927   4.019   0.293
 8199SOL    HW225497   5.861   3.893   0.373
 8200SOL     OW25498   5.153   3.785   1.223
 8200SOL    HW125499   5.139   3.868   1.169
 8200SOL    HW225500   5.166   3.808   1.319
 8201SOL     OW25501   6.487   1.174   4.670
 8201SOL    HW125502   6.515   1.168   4.574
 8201SOL    HW225503   6.389   1.193   4.675
 8202SOL     OW25504   1.896   4.281   3.925
 8202SOL    HW125505   1.970   4.298   3.861
 8202SOL    HW225506   1.813   4.327   3.894
 8203SOL     OW25507   6.363   3.379   1.159
 8203SOL    HW125508   6.265   3.373   1.178
 8203SOL    HW225509   6.414   3.337   1.234
 8204SOL     OW25510   3.625   6.861   0.740
 8204SOL    HW125511   3.610   6.908   0.653
 8204SOL    HW225512   3.723   6.859   0.760
 8205SOL     OW25513   5.753   5.176   2.941
 8205SOL    HW125514   5.715   5.265   2.968
 8205SOL    HW225515   5.853   5.180   2.946
 8206SOL     OW25516   4.686   2.095   3.998
 8206SOL    HW125517   4.754   2.056   4.061
 8206SOL    HW225518   4.713   2.189   3.976
 8207SOL     OW25519   3.053   6.373   6.929
 8207SOL    HW125520   2.973   6.353   6.872
 8207SOL    HW225521   3.056   6.472   6.948
 8208SOL     OW25522   1.624   4.968   6.117
 8208SOL    HW125523   1.547   5.014   6.162
 8208SOL    HW225524   1.607   4.869   6.115
 8209SOL     OW25525   0.812   6.513   5.554
 8209SOL    HW125526   0.776   6.483   5.641
 8209SOL    HW225527   0.782   6.451   5.481
 8210SOL     OW25528   3.069   1.838   0.155
 8210SOL    HW125529   3.108   1.895   0.227
 8210SOL    HW225530   3.052   1.746   0.190
 8211SOL     OW25531   2.888   3.452   4.907
 8211SOL    HW125532   2.822   3.495   4.846
 8211SOL    HW225533   2.955   3.400   4.853
 8212SOL     OW25534   3.841   6.341   1.318
 8212SOL    HW125535   3.931   6.301   1.334
 8212SOL    HW225536   3.826   6.416   1.383
 8213SOL     OW25537   4.379   4.011   1.680
 8213SOL    HW125538   4.307   3.981   1.743
 8213SOL    HW225539   4.422   4.094   1.717
 8214SOL     OW25540   4.003   5.328   4.415
 8214SOL    HW125541   4.103   5.318   4.416
 8214SOL    HW225542   3.979   5.422   4.394
 8215SOL     OW25543   3.305   5.918   6.087
 8215SOL    HW125544   3.269   5.887   6.175
 8215SOL    HW225545   3.378   5.857   6.057
 8216SOL     OW25546   6.341   4.597   1.499
 8216SOL    HW125547   6.270   4.597   1.429
 8216SOL    HW225548   6.310   4.650   1.578
 8217SOL     OW25549   2.639   6.342   3.630
 8217SOL    HW125550   2.632   6.358   3.531
 8217SOL    HW225551   2.564   6.283   3.660
 8218SOL     OW25552   2.687   6.839   5.495
 8218SOL    HW125553   2.605   6.783   5.484
 8218SOL    HW225554   2.768   6.781   5.496
 8219SOL     OW25555   4.060   3.056   1.697
 8219SOL    HW125556   4.117   3.108   1.761
 8219SOL    HW225557   4.058   2.960   1.725
 8220SOL     OW25558   3.000   3.862   4.440
 8220SOL    HW125559   3.063   3.883   4.365
 8220SOL    HW225560   3.051   3.831   4.519
 8221SOL     OW25561   5.667   4.183   3.339
 8221SOL    HW125562   5.580   4.228   3.324
 8221SOL    HW225563   5.655   4.084   3.337
 8222SOL     OW25564   6.493   2.723   0.626
 8222SOL    HW125565   6.568   2.673   0.671
 8222SOL    HW225566   6.463   2.798   0.686
 8223SOL     OW25567   1.854   6.508   5.997
 8223SOL    HW125568   1.774   6.511   5.937
 8223SOL    HW225569   1.823   6.508   6.092
 8224SOL     OW25570   5.026   1.079   0.114
 8224SOL    HW125571   5.105   1.070   0.053
 8224SOL    HW225572   4.990   1.173   0.108
 8225SOL     OW25573   5.949   2.229   0.225
 8225SOL    HW125574   5.960   2.217   0.324
 8225SOL    HW225575   5.951   2.139   0.180
 8226SOL     OW25576   4.016   1.122   0.535
 8226SOL    HW125577   4.003   1.059   0.459
 8226SOL    HW225578   4.002   1.216   0.505
 8227SOL     OW25579   3.996   2.117   2.794
 8227SOL    HW125580   4.037   2.208   2.781
 8227SOL    HW225581   3.993   2.069   2.707
 8228SOL     OW25582   2.262   0.454   4.694
 8228SOL    HW125583   2.324   0.405   4.755
 8228SOL    HW225584   2.179   0.479   4.743
 8229SOL     OW25585   4.567   4.362   0.378
 8229SOL    HW125586   4.478   4.367   0.422
 8229SOL    HW225587   4.630   4.310   0.436
 8230SOL     OW25588   5.623   0.330   6.105
 8230SOL    HW125589   5.694   0.380   6.155
 8230SOL    HW225590   5.666   0.260   6.048
 8231SOL     OW25591   3.015   1.475   2.396
 8231SOL    HW125592   3.035   1.570   2.419
 8231SOL    HW225593   2.954   1.436   2.465
 8232SOL     OW25594   3.427   5.677   3.126
 8232SOL    HW125595   3.429   5.774   3.152
 8232SOL    HW225596   3.397   5.670   3.030
 8233SOL     OW25597   1.287   1.177   6.005
 8233SOL    HW125598   1.340   1.126   6.072
 8233SOL    HW225599   1.228   1.243   6.052
 8234SOL     OW25600   1.016   2.273   0.688
 8234SOL    HW125601   1.080   2.232   0.623
 8234SOL    HW225602   1.046   2.365   0.713
 8235SOL     OW25603   0.694   0.396   1.560
 8235SOL    HW125604   0.728   0.361   1.473
 8235SOL    HW225605   0.625   0.466   1.544
 8236SOL     OW25606   0.984   6.861   1.695
 8236SOL    HW125607   0.999   6.892   1.789
 8236SOL    HW225608   1.072   6.838   1.653
 8237SOL     OW25609   3.762   4.762   5.983
 8237SOL    HW125610   3.711   4.700   6.043
 8237SOL    HW225611   3.852   4.779   6.021
 8238SOL     OW25612   0.879   4.753   0.881
 8238SOL    HW125613   0.908   4.664   0.916
 8238SOL    HW225614   0.882   4.821   0.954
 8239SOL     OW25615   1.830   1.691   6.013
 8239SOL    HW125616   1.754   1.627   6.002
 8239SOL    HW225617   1.901   1.649   6.070
 8240SOL     OW25618   3.742   3.826   4.854
 8240SOL    HW125619   3.784   3.878   4.781
 8240SOL    HW225620   3.765   3.729   4.844
 8241SOL     OW25621   1.794   3.865   5.379
 8241SOL    HW125622   1.861   3.936   5.400
 8241SOL    HW225623   1.790   3.799   5.455
 8242SOL     OW25624   0.723   3.554   2.754
 8242SOL    HW125625   0.654   3.482   2.764
 8242SOL    HW225626   0.806   3.516   2.714
 8243SOL     OW25627   1.683   5.085   3.949
 8243SOL    HW125628   1.722   5.172   3.979
 8243SOL    HW225629   1.583   5.092   3.948
 8244SOL     OW25630   6.584   1.329   3.896
 8244SOL    HW125631   6.640   1.258   3.938
 8244SOL    HW225632   6.642   1.404   3.866
 8245SOL     OW25633   5.708   2.279   2.468
 8245SOL    HW125634   5.653   2.217   2.524
 8245SOL    HW225635   5.804   2.254   2.475
 8246SOL     OW25636   1.873   5.156   6.674
 8246SOL    HW125637   1.852   5.126   6.581
 8246SOL    HW225638   1.966   5.129   6.698
 8247SOL     OW25639   3.186   5.334   2.961
 8247SOL    HW125640   3.246   5.258   2.982
 8247SOL    HW225641   3.098   5.321   3.008
 8248SOL     OW25642   6.432   5.168   3.994
 8248SOL    HW125643   6.481   5.112   4.060
 8248SOL    HW225644   6.424   5.262   4.030
 8249SOL     OW25645   3.233   1.481   6.660
 8249SOL    HW125646   3.193   1.447   6.745
 8249SOL    HW225647   3.161   1.524   6.604
 8250SOL     OW25648   0.765   2.198   6.887
 8250SOL    HW125649   0.712   2.181   6.804
 8250SOL    HW225650   0.861   2.210   6.863
 8251SOL     OW25651   0.871   2.414   4.957
 8251SOL    HW125652   0.894   2.364   5.041
 8251SOL    HW225653   0.811   2.490   4.979
 8252SOL     OW25654   0.755   2.142   6.607
 8252SOL    HW125655   0.674   2.175   6.560
 8252SOL    HW225656   0.774   2.048   6.580
 8253SOL     OW25657   4.196   5.999   6.909
 8253SOL    HW125658   4.124   6.061   6.939
 8253SOL    HW225659   4.253   5.973   6.988
 8254SOL     OW25660   5.805   5.192   0.128
 8254SOL    HW125661   5.771   5.222   0.217
 8254SOL    HW225662   5.819   5.093   0.129
 8255SOL     OW25663   2.215   0.479   5.556
 8255SOL    HW125664   2.175   0.490   5.647
 8255SOL    HW225665   2.179   0.550   5.495
 8256SOL     OW25666   1.250   5.138   4.953
 8256SOL    HW125667   1.163   5.157   4.999
 8256SOL    HW225668   1.316   5.209   4.973
 8257SOL     OW25669   5.090   3.969   3.046
 8257SOL    HW125670   5.019   3.954   2.977
 8257SOL    HW225671   5.104   3.885   3.098
 8258SOL     OW25672   0.467   3.052   2.565
 8258SOL    HW125673   0.463   3.072   2.467
 8258SOL    HW225674   0.425   3.127   2.616
 8259SOL     OW25675   5.460   1.784   4.321
 8259SOL    HW125676   5.467   1.836   4.236
 8259SOL    HW225677   5.528   1.711   4.321
 8260SOL     OW25678   4.936   2.667   1.214
 8260SOL    HW125679   4.993   2.667   1.296
 8260SOL    HW225680   4.872   2.744   1.218
 8261SOL     OW25681   5.584   1.359   2.365
 8261SOL    HW125682   5.639   1.389   2.443
 8261SOL    HW225683   5.644   1.312   2.299
 8262SOL     OW25684   5.438   3.554   2.013
 8262SOL    HW125685   5.371   3.611   2.062
 8262SOL    HW225686   5.458   3.596   1.924
 8263SOL     OW25687   5.939   1.372   5.242
 8263SOL    HW125688   5.841   1.363   5.260
 8263SOL    HW225689   5.961   1.468   5.229
 8264SOL     OW25690   3.615   0.315   2.574
 8264SOL    HW125691   3.520   0.347   2.566
 8264SOL    HW225692   3.657   0.357   2.655
 8265SOL     OW25693   5.021   6.224   0.459
 8265SOL    HW125694   4.937   6.214   0.513
 8265SOL    HW225695   5.081   6.290   0.503
 8266SOL     OW25696   2.916   1.014   4.158
 8266SOL    HW125697   2.958   0.950   4.222
 8266SOL    HW225698   2.853   1.074   4.207
 8267SOL     OW25699   2.101   3.440   2.446
 8267SOL    HW125700   2.099   3.460   2.348
 8267SOL    HW225701   2.125   3.344   2.460
 8268SOL     OW25702   3.134   4.216   6.473
 8268SOL    HW125703   3.135   4.292   6.407
 8268SOL    HW225704   3.183   4.138   6.435
 8269SOL     OW25705   6.411   3.327   4.571
 8269SOL    HW125706   6.502   3.367   4.576
 8269SOL    HW225707   6.419   3.231   4.543
 8270SOL     OW25708   4.052   5.921   6.301
 8270SOL    HW125709   3.967   5.869   6.299
 8270SOL    HW225710   4.075   5.951   6.208
 8271SOL     OW25711   3.340   6.575   6.109
 8271SOL    HW125712   3.335   6.488   6.059
 8271SOL    HW225713   3.435   6.603   6.119
 8272SOL     OW25714   1.193   0.684   2.175
 8272SOL    HW125715   1.101   0.671   2.139
 8272SOL    HW225716   1.231   0.596   2.203
 8273SOL     OW25717   3.947   0.930   0.098
 8273SOL    HW125718   4.019   0.955   0.033
 8273SOL    HW225719   3.861   0.973   0.070
 8274SOL     OW25720   5.420   6.509   5.596
 8274SOL    HW125721   5.357   6.547   5.528
 8274SOL    HW225722   5.408   6.410   5.601
 8275SOL     OW25723   5.629   0.584   4.380
 8275SOL    HW125724   5.570   0.560   4.456
 8275SOL    HW225725   5.710   0.525   4.380
 8276SOL     OW25726   6.863   2.052   6.800
 8276SOL    HW125727   6.787   1.992   6.823
 8276SOL    HW225728   6.922   2.008   6.732
 8277SOL     OW25729   1.335   0.143   0.228
 8277SOL    HW125730   1.355   0.049   0.258
 8277SOL    HW225731   1.354   0.206   0.302
 8278SOL     OW25732   2.874   1.289   1.373
 8278SOL    HW125733   2.942   1.266   1.443
 8278SOL    HW225734   2.919   1.295   1.284
 8279SOL     OW25735   3.530   5.639   5.222
 8279SOL    HW125736   3.594   5.571   5.258
 8279SOL    HW225737   3.546   5.727   5.266
 8280SOL     OW25738   5.260   4.120   6.946
 8280SOL    HW125739   5.279   4.102   6.850
 8280SOL    HW225740   5.328   4.184   6.982
 8281SOL     OW25741   2.875   5.420   6.748
 8281SOL    HW125742   2.908   5.514   6.745
 8281SOL    HW225743   2.794   5.415   6.807
 8282SOL     OW25744   2.909   3.190   1.874
 8282SOL    HW125745   2.863   3.105   1.848
 8282SOL    HW225746   2.904   3.255   1.798
 8283SOL     OW25747   0.375   0.154   3.784
 8283SOL    HW125748   0.375   0.223   3.712
 8283SOL    HW225749   0.361   0.198   3.872
 8284SOL     OW25750   3.829   1.486   2.359
 8284SOL    HW125751   3.745   1.496   2.412
 8284SOL    HW225752   3.867   1.576   2.341
 8285SOL     OW25753   2.008   4.570   6.754
 8285SOL    HW125754   1.988   4.554   6.657
 8285SOL    HW225755   1.938   4.526   6.810
 8286SOL     OW25756   5.754   2.414   5.462
 8286SOL    HW125757   5.670   2.451   5.502
 8286SOL    HW225758   5.765   2.450   5.370
 8287SOL     OW25759   1.919   0.137   3.541
 8287SOL    HW125760   1.846   0.069   3.550
 8287SOL    HW225761   1.949   0.142   3.446
 8288SOL     OW25762   2.002   6.942   2.882
 8288SOL    HW125763   1.922   6.883   2.890
 8288SOL    HW225764   2.084   6.885   2.872
 8289SOL     OW25765   6.361   0.834   6.719
 8289SOL    HW125766   6.437   0.822   6.782
 8289SOL    HW225767   6.274   0.820   6.767
 8290SOL     OW25768   4.601   2.646   1.790
 8290SOL    HW125769   4.650   2.699   1.859
 8290SOL    HW225770   4.613   2.689   1.700
 8291SOL     OW25771   4.698   5.731   6.600
 8291SOL    HW125772   4.746   5.647   6.625
 8291SOL    HW225773   4.614   5.708   6.551
 8292SOL     OW25774   0.739   2.657   5.017
 8292SOL    HW125775   0.653   2.684   4.974
 8292SOL    HW225776   0.726   2.648   5.116
 8293SOL     OW25777   2.854   5.534   3.903
 8293SOL    HW125778   2.864   5.478   3.821
 8293SOL    HW225779   2.913   5.498   3.975
 8294SOL     OW25780   5.433   3.921   5.639
 8294SOL    HW125781   5.345   3.888   5.604
 8294SOL    HW225782   5.508   3.877   5.589
 8295SOL     OW25783   5.214   4.503   2.226
 8295SOL    HW125784   5.238   4.598   2.205
 8295SOL    HW225785   5.114   4.493   2.223
 8296SOL     OW25786   3.686   6.781   2.255
 8296SOL    HW125787   3.768   6.731   2.281
 8296SOL    HW225788   3.647   6.826   2.335
 8297SOL     OW25789   5.255   4.611   3.448
 8297SOL    HW125790   5.309   4.664   3.514
 8297SOL    HW225791   5.315   4.546   3.401
 8298SOL     OW25792   6.980   6.749   0.005
 8298SOL    HW125793   6.987   6.818   0.077
 8298SOL    HW225794   0.036   6.685   0.012
 8299SOL     OW25795   0.443   3.174   0.219
 8299SOL    HW125796   0.408   3.149   0.129
 8299SOL    HW225797   0.375   3.151   0.289
 8300SOL     OW25798   6.136   5.118   3.883
 8300SOL    HW125799   6.232   5.135   3.904
 8300SOL    HW225800   6.125   5.023   3.852
 8301SOL     OW25801   5.615   6.365   0.725
 8301SOL    HW125802   5.538   6.353   0.788
 8301SOL    HW225803   5.605   6.452   0.677
 8302SOL     OW25804   3.639   0.131   5.402
 8302SOL    HW125805   3.654   0.227   5.426
 8302SOL    HW225806   3.721   0.093   5.359
 8303SOL     OW25807   0.307   5.436   2.349
 8303SOL    HW125808   0.256   5.517   2.376
 8303SOL    HW225809   0.377   5.461   2.282
 8304SOL     OW25810   5.778   4.357   3.508
 8304SOL    HW125811   5.733   4.283   3.457
 8304SOL    HW225812   5.828   4.415   3.444
 8305SOL     OW25813   5.476   6.579   5.852
 8305SOL    HW125814   5.530   6.504   5.892
 8305SOL    HW225815   5.466   6.563   5.753
 8306SOL     OW25816   6.436   1.614   3.167
 8306SOL    HW125817   6.510   1.550   3.185
 8306SOL    HW225818   6.369   1.571   3.106
 8307SOL     OW25819   1.719   3.172   2.790
 8307SOL    HW125820   1.801   3.140   2.742
 8307SOL    HW225821   1.657   3.216   2.725
 8308SOL     OW25822   1.047   5.633   0.870
 8308SOL    HW125823   0.958   5.640   0.825
 8308SOL    HW225824   1.078   5.724   0.897
 8309SOL     OW25825   6.370   5.133   4.413
 8309SOL    HW125826   6.296   5.160   4.474
 8309SOL    HW225827   6.343   5.052   4.361
 8310SOL     OW25828   1.906   0.684   1.202
 8310SOL    HW125829   1.824   0.682   1.259
 8310SOL    HW225830   1.879   0.700   1.107
 8311SOL     OW25831   5.009   5.920   3.320
 8311SOL    HW125832   5.036   5.867   3.400
 8311SOL    HW225833   5.005   5.861   3.239
 8312SOL     OW25834   6.046   1.509   0.177
 8312SOL    HW125835   5.970   1.444   0.186
 8312SOL    HW225836   6.116   1.488   0.245
 8313SOL     OW25837   5.542   2.105   5.391
 8313SOL    HW125838   5.611   2.177   5.384
 8313SOL    HW225839   5.470   2.121   5.324
 8314SOL     OW25840   4.715   5.979   4.313
 8314SOL    HW125841   4.744   5.897   4.263
 8314SOL    HW225842   4.750   6.061   4.267
 8315SOL     OW25843   3.688   3.156   4.841
 8315SOL    HW125844   3.706   3.058   4.841
 8315SOL    HW225845   3.659   3.184   4.749
 8316SOL     OW25846   2.605   2.258   5.370
 8316SOL    HW125847   2.521   2.229   5.325
 8316SOL    HW225848   2.684   2.219   5.322
 8317SOL     OW25849   1.421   1.623   4.168
 8317SOL    HW125850   1.365   1.658   4.243
 8317SOL    HW225851   1.506   1.585   4.205
 8318SOL     OW25852   4.207   6.461   6.107
 8318SOL    HW125853   4.252   6.492   6.192
 8318SOL    HW225854   4.132   6.523   6.085
 8319SOL     OW25855   2.225   5.690   6.295
 8319SOL    HW125856   2.263   5.612   6.245
 8319SOL    HW225857   2.295   5.762   6.303
 8320SOL     OW25858   3.739   3.451   5.299
 8320SOL    HW125859   3.715   3.360   5.267
 8320SOL    HW225860   3.656   3.507   5.304
 8321SOL     OW25861   6.979   6.962   0.232
 8321SOL    HW125862   6.984   0.038   0.203
 8321SOL    HW225863   6.917   6.954   0.310
 8322SOL     OW25864   0.678   6.925   0.303
 8322SOL    HW125865   0.685   6.913   0.402
 8322SOL    HW225866   0.695   0.001   0.280
 8323SOL     OW25867   5.843   4.488   0.170
 8323SOL    HW125868   5.836   4.515   0.074
 8323SOL    HW225869   5.761   4.517   0.219
 8324SOL     OW25870   5.479   6.142   0.268
 8324SOL    HW125871   5.425   6.225   0.257
 8324SOL    HW225872   5.461   6.080   0.192
 8325SOL     OW25873   1.441   6.574   5.450
 8325SOL    HW125874   1.349   6.609   5.468
 8325SOL    HW225875   1.507   6.625   5.505
 8326SOL     OW25876   1.728   2.842   6.907
 8326SOL    HW125877   1.734   2.801   6.997
 8326SOL    HW225878   1.784   2.790   6.842
 8327SOL     OW25879   1.137   5.864   5.017
 8327SOL    HW125880   1.198   5.821   4.951
 8327SOL    HW225881   1.168   5.958   5.034
 8328SOL     OW25882   0.596   6.631   6.910
 8328SOL    HW125883   0.624   6.684   6.989
 8328SOL    HW225884   0.630   6.537   6.919
 8329SOL     OW25885   1.050   2.720   4.695
 8329SOL    HW125886   1.074   2.757   4.605
 8329SOL    HW225887   1.045   2.620   4.689
 8330SOL     OW25888   2.854   0.979   6.930
 8330SOL    HW125889   2.947   0.997   6.898
 8330SOL    HW225890   2.821   0.894   6.889
 8331SOL     OW25891   1.878   2.187   6.228
 8331SOL    HW125892   1.791   2.212   6.186
 8331SOL    HW225893   1.951   2.243   6.189
 8332SOL     OW25894   6.535   4.119   1.525
 8332SOL    HW125895   6.459   4.060   1.497
 8332SOL    HW225896   6.507   4.215   1.519
 8333SOL     OW25897   2.068   3.659   6.958
 8333SOL    HW125898   2.093   3.568   6.924
 8333SOL    HW225899   2.034   3.715   6.883
 8334SOL     OW25900   2.893   1.848   5.410
 8334SOL    HW125901   2.846   1.925   5.368
 8334SOL    HW225902   2.886   1.769   5.349
 8335SOL     OW25903   5.422   4.633   5.867
 8335SOL    HW125904   5.495   4.650   5.801
 8335SOL    HW225905   5.390   4.720   5.904
 8336SOL     OW25906   0.951   4.292   3.599
 8336SOL    HW125907   0.911   4.200   3.597
 8336SOL    HW225908   0.965   4.320   3.694
 8337SOL     OW25909   0.114   1.295   3.943
 8337SOL    HW125910   0.173   1.368   3.910
 8337SOL    HW225911   0.077   1.320   4.032
 8338SOL     OW25912   3.209   5.367   1.109
 8338SOL    HW125913   3.195   5.302   1.184
 8338SOL    HW225914   3.305   5.396   1.107
 8339SOL     OW25915   5.936   0.476   1.283
 8339SOL    HW125916   5.925   0.537   1.205
 8339SOL    HW225917   5.962   0.529   1.364
 8340SOL     OW25918   6.260   2.043   6.803
 8340SOL    HW125919   6.310   2.124   6.832
 8340SOL    HW225920   6.264   2.034   6.703
 8341SOL     OW25921   3.743   1.292   0.926
 8341SOL    HW125922   3.806   1.301   1.004
 8341SOL    HW225923   3.649   1.298   0.959
 8342SOL     OW25924   4.555   0.496   0.069
 8342SOL    HW125925   4.491   0.573   0.067
 8342SOL    HW225926   4.649   0.530   0.071
 8343SOL     OW25927   6.120   4.687   3.917
 8343SOL    HW125928   6.126   4.712   4.013
 8343SOL    HW225929   6.147   4.591   3.906
 8344SOL     OW25930   1.535   5.089   6.436
 8344SOL    HW125931   1.508   5.103   6.531
 8344SOL    HW225932   1.505   5.166   6.380
 8345SOL     OW25933   5.306   6.917   3.632
 8345SOL    HW125934   5.342   6.849   3.695
 8345SOL    HW225935   5.224   6.959   3.671
 8346SOL     OW25936   5.887   2.841   4.360
 8346SOL    HW125937   5.847   2.852   4.451
 8346SOL    HW225938   5.814   2.837   4.291
 8347SOL     OW25939   2.305   1.922   6.626
 8347SOL    HW125940   2.333   2.013   6.596
 8347SOL    HW225941   2.383   1.874   6.666
 8348SOL     OW25942   2.606   6.008   2.299
 8348SOL    HW125943   2.524   5.998   2.243
 8348SOL    HW225944   2.640   6.102   2.293
 8349SOL     OW25945   5.939   5.992   2.011
 8349SOL    HW125946   5.848   6.033   2.013
 8349SOL    HW225947   5.996   6.042   1.946
 8350SOL     OW25948   2.076   1.229   6.511
 8350SOL    HW125949   2.123   1.167   6.448
 8350SOL    HW225950   2.016   1.176   6.571
 8351SOL     OW25951   0.323   2.947   2.826
 8351SOL    HW125952   0.365   2.878   2.886
 8351SOL    HW225953   0.388   2.974   2.755
 8352SOL     OW25954   3.103   5.742   0.730
 8352SOL    HW125955   3.154   5.681   0.670
 8352SOL    HW225956   3.059   5.688   0.803
 8353SOL     OW25957   1.019   5.207   1.661
 8353SOL    HW125958   1.080   5.149   1.714
 8353SOL    HW225959   1.069   5.286   1.625
 8354SOL     OW25960   3.309   1.093   3.545
 8354SOL    HW125961   3.236   1.031   3.515
 8354SOL    HW225962   3.398   1.052   3.526
 8355SOL     OW25963   3.126   5.982   6.610
 8355SOL    HW125964   3.152   5.972   6.706
 8355SOL    HW225965   3.052   6.049   6.603
 8356SOL     OW25966   2.598   5.254   0.458
 8356SOL    HW125967   2.641   5.344   0.456
 8356SOL    HW225968   2.576   5.226   0.364
 8357SOL     OW25969   4.789   6.641   5.452
 8357SOL    HW125970   4.869   6.662   5.397
 8357SOL    HW225971   4.775   6.713   5.521
 8358SOL     OW25972   1.323   1.034   5.137
 8358SOL    HW125973   1.370   0.946   5.125
 8358SOL    HW225974   1.226   1.017   5.158
 8359SOL     OW25975   4.101   1.922   6.146
 8359SOL    HW125976   4.135   1.966   6.062
 8359SOL    HW225977   4.108   1.987   6.222
 8360SOL     OW25978   4.559   0.456   0.835
 8360SOL    HW125979   4.622   0.514   0.886
 8360SOL    HW225980   4.593   0.442   0.742
 8361SOL     OW25981   3.909   1.625   6.874
 8361SOL    HW125982   3.881   1.720   6.858
 8361SOL    HW225983   3.928   1.581   6.786
 8362SOL     OW25984   0.317   4.016   1.533
 8362SOL    HW125985   0.292   4.019   1.630
 8362SOL    HW225986   0.325   4.110   1.499
 8363SOL     OW25987   2.004   3.122   1.057
 8363SOL    HW125988   2.089   3.107   1.108
 8363SOL    HW225989   1.983   3.041   1.002
 8364SOL     OW25990   0.031   3.009   4.222
 8364SOL    HW125991   7.014   3.057   4.142
 8364SOL    HW225992   0.046   3.076   4.295
 8365SOL     OW25993   1.467   2.382   2.037
 8365SOL    HW125994   1.521   2.323   1.977
 8365SOL    HW225995   1.450   2.334   2.124
 8366SOL     OW25996   5.210   4.986   2.429
 8366SOL    HW125997   5.209   5.083   2.452
 8366SOL    HW225998   5.288   4.942   2.474
 8367SOL     OW25999   2.386   4.904   4.221
 8367SOL    HW126000   2.304   4.847   4.225
 8367SOL    HW226001   2.397   4.951   4.308
 8368SOL     OW26002   6.225   6.422   5.874
 8368SOL    HW126003   6.218   6.462   5.783
 8368SOL    HW226004   6.135   6.421   5.918
 8369SOL     OW26005   2.526   6.216   0.744
 8369SOL    HW126006   2.561   6.123   0.743
 8369SOL    HW226007   2.591   6.278   0.700
 8370SOL     OW26008   3.068   4.130   6.709
 8370SOL    HW126009   3.079   4.169   6.618
 8370SOL    HW226010   3.052   4.204   6.776
 8371SOL     OW26011   2.154   4.545   5.455
 8371SOL    HW126012   2.070   4.543   5.401
 8371SOL    HW226013   2.205   4.460   5.438
 8372SOL     OW26014   2.229   6.765   0.964
 8372SOL    HW126015   2.277   6.749   1.051
 8372SOL    HW226016   2.131   6.753   0.978
 8373SOL     OW26017   6.514   1.890   3.758
 8373SOL    HW126018   6.586   1.824   3.735
 8373SOL    HW226019   6.440   1.883   3.692
 8374SOL     OW26020   6.767   1.133   4.266
 8374SOL    HW126021   6.742   1.092   4.179
 8374SOL    HW226022   6.762   1.065   4.339
 8375SOL     OW26023   2.576   1.546   4.845
 8375SOL    HW126024   2.503   1.562   4.779
 8375SOL    HW226025   2.615   1.633   4.874
 8376SOL     OW26026   0.915   1.958   3.524
 8376SOL    HW126027   0.917   1.982   3.427
 8376SOL    HW226028   0.977   2.018   3.575
 8377SOL     OW26029   4.837   4.688   0.427
 8377SOL    HW126030   4.766   4.711   0.361
 8377SOL    HW226031   4.818   4.735   0.514
 8378SOL     OW26032   4.960   5.709   4.370
 8378SOL    HW126033   5.009   5.621   4.373
 8378SOL    HW226034   4.927   5.731   4.462
 8379SOL     OW26035   6.125   2.134   1.389
 8379SOL    HW126036   6.032   2.134   1.351
 8379SOL    HW226037   6.155   2.228   1.402
 8380SOL     OW26038   0.030   6.083   1.111
 8380SOL    HW126039   0.015   6.118   1.203
 8380SOL    HW226040   6.994   6.134   1.046
 8381SOL     OW26041   0.241   1.336   2.885
 8381SOL    HW126042   0.262   1.428   2.921
 8381SOL    HW226043   0.213   1.343   2.789
 8382SOL     OW26044   1.590   0.517   1.046
 8382SOL    HW126045   1.634   0.516   1.136
 8382SOL    HW226046   1.534   0.599   1.036
 8383SOL     OW26047   3.019   0.260   6.503
 8383SOL    HW126048   3.012   0.184   6.439
 8383SOL    HW226049   2.950   0.251   6.574
 8384SOL     OW26050   0.730   3.812   2.887
 8384SOL    HW126051   0.716   3.902   2.845
 8384SOL    HW226052   0.702   3.741   2.822
 8385SOL     OW26053   4.460   2.965   1.169
 8385SOL    HW126054   4.418   3.000   1.253
 8385SOL    HW226055   4.390   2.923   1.112
 8386SOL     OW26056   2.296   5.750   1.900
 8386SOL    HW126057   2.242   5.693   1.838
 8386SOL    HW226058   2.380   5.779   1.854
 8387SOL     OW26059   0.920   1.528   3.198
 8387SOL    HW126060   1.014   1.499   3.216
 8387SOL    HW226061   0.884   1.573   3.279
 8388SOL     OW26062   4.502   5.779   0.812
 8388SOL    HW126063   4.404   5.774   0.791
 8388SOL    HW226064   4.552   5.715   0.753
 8389SOL     OW26065   0.505   2.951   4.021
 8389SOL    HW126066   0.599   2.943   4.056
 8389SOL    HW226067   0.505   3.010   3.940
 8390SOL     OW26068   2.609   0.030   5.795
 8390SOL    HW126069   2.615   7.004   5.706
 8390SOL    HW226070   2.528   0.088   5.798
 8391SOL     OW26071   5.720   6.110   0.770
 8391SOL    HW126072   5.688   6.202   0.793
 8391SOL    HW226073   5.802   6.089   0.824
 8392SOL     OW26074   5.656   6.529   5.415
 8392SOL    HW126075   5.625   6.537   5.321
 8392SOL    HW226076   5.577   6.510   5.475
 8393SOL     OW26077   0.082   5.522   2.717
 8393SOL    HW126078   0.145   5.447   2.738
 8393SOL    HW226079   0.028   5.545   2.798
 8394SOL     OW26080   0.469   1.862   3.202
 8394SOL    HW126081   0.429   1.827   3.117
 8394SOL    HW226082   0.427   1.816   3.280
 8395SOL     OW26083   0.655   6.093   5.596
 8395SOL    HW126084   0.569   6.080   5.645
 8395SOL    HW226085   0.645   6.062   5.502
 8396SOL     OW26086   4.341   3.705   0.791
 8396SOL    HW126087   4.371   3.610   0.788
 8396SOL    HW226088   4.246   3.708   0.822
 8397SOL     OW26089   1.948   4.980   3.301
 8397SOL    HW126090   1.980   4.994   3.395
 8397SOL    HW226091   1.942   4.882   3.282
 8398SOL     OW26092   5.170   1.610   0.414
 8398SOL    HW126093   5.128   1.542   0.474
 8398SOL    HW226094   5.165   1.578   0.319
 8399SOL     OW26095   5.734   5.284   0.380
 8399SOL    HW126096   5.647   5.306   0.425
 8399SOL    HW226097   5.806   5.346   0.413
 8400SOL     OW26098   6.008   0.627   4.740
 8400SOL    HW126099   6.040   0.545   4.691
 8400SOL    HW226100   6.084   0.690   4.752
 8401SOL     OW26101   3.054   4.741   6.294
 8401SOL    HW126102   3.141   4.734   6.344
 8401SOL    HW226103   2.996   4.663   6.318
 8402SOL     OW26104   4.635   1.745   0.010
 8402SOL    HW126105   4.542   1.707   0.006
 8402SOL    HW226106   4.662   1.777   6.939
 8403SOL     OW26107   1.117   2.233   4.448
 8403SOL    HW126108   1.185   2.211   4.519
 8403SOL    HW226109   1.128   2.171   4.371
 8404SOL     OW26110   4.273   5.041   5.357
 8404SOL    HW126111   4.193   5.021   5.413
 8404SOL    HW226112   4.299   5.137   5.370
 8405SOL     OW26113   1.040   2.662   5.186
 8405SOL    HW126114   1.106   2.711   5.130
 8405SOL    HW226115   0.976   2.728   5.227
 8406SOL     OW26116   5.106   3.437   0.988
 8406SOL    HW126117   5.035   3.383   0.943
 8406SOL    HW226118   5.195   3.412   0.950
 8407SOL     OW26119   5.312   3.483   2.499
 8407SOL    HW126120   5.383   3.506   2.433
 8407SOL    HW226121   5.255   3.409   2.463
 8408SOL     OW26122   4.801   2.996   3.813
 8408SOL    HW126123   4.796   2.995   3.714
 8408SOL    HW226124   4.832   3.086   3.844
 8409SOL     OW26125   1.231   2.131   3.910
 8409SOL    HW126126   1.329   2.127   3.929
 8409SOL    HW226127   1.216   2.153   3.814
 8410SOL     OW26128   3.145   6.485   2.000
 8410SOL    HW126129   3.060   6.433   2.002
 8410SOL    HW226130   3.193   6.468   1.914
 8411SOL     OW26131   2.019   2.957   3.531
 8411SOL    HW126132   2.011   3.024   3.457
 8411SOL    HW226133   1.992   2.867   3.497
 8412SOL     OW26134   6.503   3.295   2.478
 8412SOL    HW126135   6.586   3.259   2.435
 8412SOL    HW226136   6.423   3.264   2.425
 8413SOL     OW26137   2.507   4.385   1.364
 8413SOL    HW126138   2.502   4.449   1.441
 8413SOL    HW226139   2.456   4.302   1.385
 8414SOL     OW26140   5.187   6.689   2.347
 8414SOL    HW126141   5.138   6.735   2.421
 8414SOL    HW226142   5.180   6.742   2.263
 8415SOL     OW26143   6.561   3.292   2.137
 8415SOL    HW126144   6.624   3.296   2.214
 8415SOL    HW226145   6.468   3.307   2.169
 8416SOL     OW26146   5.155   3.851   2.356
 8416SOL    HW126147   5.089   3.906   2.305
 8416SOL    HW226148   5.106   3.794   2.422
 8417SOL     OW26149   2.407   5.879   6.310
 8417SOL    HW126150   2.347   5.940   6.259
 8417SOL    HW226151   2.492   5.865   6.258
 8418SOL     OW26152   5.754   5.265   2.394
 8418SOL    HW126153   5.747   5.362   2.369
 8418SOL    HW226154   5.832   5.252   2.456
 8419SOL     OW26155   4.205   6.697   3.639
 8419SOL    HW126156   4.219   6.610   3.592
 8419SOL    HW226157   4.108   6.707   3.662
 8420SOL     OW26158   3.751   2.166   6.003
 8420SOL    HW126159   3.748   2.250   5.948
 8420SOL    HW226160   3.721   2.089   5.947
 8421SOL     OW26161   1.906   6.786   1.782
 8421SOL    HW126162   1.821   6.766   1.733
 8421SOL    HW226163   1.924   6.884   1.777
 8422SOL     OW26164   4.026   6.732   1.319
 8422SOL    HW126165   4.121   6.752   1.341
 8422SOL    HW226166   3.991   6.663   1.382
 8423SOL     OW26167   2.367   4.040   1.219
 8423SOL    HW126168   2.455   4.026   1.172
 8423SOL    HW226169   2.382   4.095   1.301
 8424SOL     OW26170   2.994   2.174   2.699
 8424SOL    HW126171   2.924   2.239   2.668
 8424SOL    HW226172   3.080   2.193   2.652
 8425SOL     OW26173   6.142   4.881   0.234
 8425SOL    HW126174   6.148   4.791   0.276
 8425SOL    HW226175   6.082   4.878   0.155
 8426SOL     OW26176   4.092   3.418   2.270
 8426SOL    HW126177   4.107   3.406   2.172
 8426SOL    HW226178   4.070   3.514   2.289
 8427SOL     OW26179   2.328   3.235   6.461
 8427SOL    HW126180   2.253   3.298   6.483
 8427SOL    HW226181   2.358   3.188   6.544
 8428SOL     OW26182   6.020   4.429   2.170
 8428SOL    HW126183   5.971   4.516   2.172
 8428SOL    HW226184   5.958   4.356   2.142
 8429SOL     OW26185   2.120   6.579   3.047
 8429SOL    HW126186   2.045   6.593   3.112
 8429SOL    HW226187   2.106   6.493   2.998
 8430SOL     OW26188   4.826   4.158   2.917
 8430SOL    HW126189   4.799   4.064   2.896
 8430SOL    HW226190   4.773   4.221   2.860
 8431SOL     OW26191   2.990   3.809   1.065
 8431SOL    HW126192   2.970   3.734   1.002
 8431SOL    HW226193   2.979   3.896   1.017
 8432SOL     OW26194   4.530   6.598   0.013
 8432SOL    HW126195   4.436   6.562   0.009
 8432SOL    HW226196   4.565   6.586   0.106
 8433SOL     OW26197   1.030   1.079   5.117
 8433SOL    HW126198   1.049   1.108   5.211
 8433SOL    HW226199   1.003   1.158   5.063
 8434SOL     OW26200   5.627   6.349   5.956
 8434SOL    HW126201   5.533   6.324   5.981
 8434SOL    HW226202   5.686   6.269   5.968
 8435SOL     OW26203   4.752   2.439   1.283
 8435SOL    HW126204   4.799   2.512   1.234
 8435SOL    HW226205   4.819   2.375   1.320
 8436SOL     OW26206   3.753   4.385   1.346
 8436SOL    HW126207   3.751   4.287   1.328
 8436SOL    HW226208   3.755   4.435   1.260
 8437SOL     OW26209   0.190   2.012   1.293
 8437SOL    HW126210   0.235   2.033   1.380
 8437SOL    HW226211   0.259   1.994   1.223
 8438SOL     OW26212   1.829   6.438   1.955
 8438SOL    HW126213   1.916   6.412   1.913
 8438SOL    HW226214   1.784   6.509   1.900
 8439SOL     OW26215   6.259   6.162   2.207
 8439SOL    HW126216   6.321   6.169   2.285
 8439SOL    HW226217   6.191   6.235   2.211
 8440SOL     OW26218   0.323   1.874   3.483
 8440SOL    HW126219   0.350   1.828   3.567
 8440SOL    HW226220   0.305   1.971   3.502
 8441SOL     OW26221   4.697   4.704   1.198
 8441SOL    HW126222   4.619   4.767   1.198
 8441SOL    HW226223   4.691   4.645   1.279
 8442SOL     OW26224   1.952   3.451   0.150
 8442SOL    HW126225   1.923   3.469   0.244
 8442SOL    HW226226   1.956   3.538   0.100
 8443SOL     OW26227   1.464   1.686   2.184
 8443SOL    HW126228   1.383   1.724   2.229
 8443SOL    HW226229   1.528   1.652   2.253
 8444SOL     OW26230   4.328   6.812   3.151
 8444SOL    HW126231   4.328   6.712   3.145
 8444SOL    HW226232   4.283   6.841   3.236
 8445SOL     OW26233   3.776   5.144   1.843
 8445SOL    HW126234   3.867   5.116   1.874
 8445SOL    HW226235   3.709   5.078   1.875
 8446SOL     OW26236   6.816   4.914   3.505
 8446SOL    HW126237   6.838   4.979   3.432
 8446SOL    HW226238   6.881   4.925   3.580
 8447SOL     OW26239   4.724   3.007   1.451
 8447SOL    HW126240   4.750   3.053   1.536
 8447SOL    HW226241   4.759   3.059   1.373
 8448SOL     OW26242   0.822   2.907   6.467
 8448SOL    HW126243   0.773   2.821   6.454
 8448SOL    HW226244   0.812   2.937   6.562
 8449SOL     OW26245   1.470   1.850   5.146
 8449SOL    HW126246   1.530   1.809   5.215
 8449SOL    HW226247   1.405   1.912   5.190
 8450SOL     OW26248   2.312   5.169   2.528
 8450SOL    HW126249   2.360   5.248   2.568
 8450SOL    HW226250   2.334   5.163   2.431
 8451SOL     OW26251   4.098   3.096   0.587
 8451SOL    HW126252   4.033   3.067   0.657
 8451SOL    HW226253   4.064   3.067   0.497
 8452SOL     OW26254   6.678   5.804   1.164
 8452SOL    HW126255   6.633   5.882   1.209
 8452SOL    HW226256   6.777   5.814   1.171
 8453SOL     OW26257   0.997   4.899   5.456
 8453SOL    HW126258   0.973   4.856   5.543
 8453SOL    HW226259   0.934   4.974   5.437
 8454SOL     OW26260   1.800   6.520   4.638
 8454SOL    HW126261   1.831   6.612   4.617
 8454SOL    HW226262   1.716   6.524   4.692
 8455SOL     OW26263   6.334   2.335   1.125
 8455SOL    HW126264   6.376   2.258   1.174
 8455SOL    HW226265   6.236   2.318   1.113
 8456SOL     OW26266   5.314   5.369   3.116
 8456SOL    HW126267   5.276   5.326   3.034
 8456SOL    HW226268   5.412   5.352   3.121
 8457SOL     OW26269   0.093   6.469   6.681
 8457SOL    HW126270   0.176   6.520   6.705
 8457SOL    HW226271   0.020   6.534   6.660
 8458SOL     OW26272   1.138   1.579   1.480
 8458SOL    HW126273   1.148   1.517   1.558
 8458SOL    HW226274   1.077   1.654   1.505
 8459SOL     OW26275   2.721   5.493   2.285
 8459SOL    HW126276   2.792   5.423   2.275
 8459SOL    HW226277   2.740   5.548   2.366
 8460SOL     OW26278   3.984   1.269   0.287
 8460SOL    HW126279   3.907   1.254   0.225
 8460SOL    HW226280   4.067   1.288   0.233
 8461SOL     OW26281   5.208   3.958   2.720
 8461SOL    HW126282   5.151   4.009   2.656
 8461SOL    HW226283   5.152   3.925   2.796
 8462SOL     OW26284   2.803   4.611   0.021
 8462SOL    HW126285   2.893   4.568   0.021
 8462SOL    HW226286   2.766   4.612   0.113
 8463SOL     OW26287   6.552   0.771   6.888
 8463SOL    HW126288   6.550   0.743   6.984
 8463SOL    HW226289   6.621   0.718   6.838
 8464SOL     OW26290   0.372   3.533   6.494
 8464SOL    HW126291   0.342   3.619   6.453
 8464SOL    HW226292   0.319   3.516   6.577
 8465SOL     OW26293   4.836   3.122   0.982
 8465SOL    HW126294   4.901   3.173   0.926
 8465SOL    HW226295   4.749   3.172   0.986
 8466SOL     OW26296   5.712   1.321   5.510
 8466SOL    HW126297   5.801   1.360   5.533
 8466SOL    HW226298   5.708   1.226   5.542
 8467SOL     OW26299   3.278   1.527   0.733
 8467SOL    HW126300   3.214   1.514   0.809
 8467SOL    HW226301   3.335   1.445   0.724
 8468SOL     OW26302   6.074   3.099   0.219
 8468SOL    HW126303   5.982   3.063   0.237
 8468SOL    HW226304   6.112   3.054   0.138
 8469SOL     OW26305   4.517   3.194   6.238
 8469SOL    HW126306   4.538   3.196   6.140
 8469SOL    HW226307   4.418   3.186   6.250
 8470SOL     OW26308   1.578   5.193   1.438
 8470SOL    HW126309   1.669   5.225   1.411
 8470SOL    HW226310   1.563   5.101   1.402
 8471SOL     OW26311   3.450   2.116   4.376
 8471SOL    HW126312   3.395   2.159   4.447
 8471SOL    HW226313   3.529   2.070   4.418
 8472SOL     OW26314   6.094   1.477   5.832
 8472SOL    HW126315   6.000   1.489   5.865
 8472SOL    HW226316   6.138   1.403   5.884
 8473SOL     OW26317   4.542   4.514   6.456
 8473SOL    HW126318   4.584   4.447   6.517
 8473SOL    HW226319   4.504   4.589   6.510
 8474SOL     OW26320   3.965   3.861   3.097
 8474SOL    HW126321   3.984   3.792   3.027
 8474SOL    HW226322   4.050   3.886   3.143
 8475SOL     OW26323   0.092   3.002   2.678
 8475SOL    HW126324   0.041   2.917   2.662
 8475SOL    HW226325   0.181   2.980   2.716
 8476SOL     OW26326   6.190   0.295   1.674
 8476SOL    HW126327   6.265   0.359   1.691
 8476SOL    HW226328   6.211   0.240   1.593
 8477SOL     OW26329   5.473   6.896   1.748
 8477SOL    HW126330   5.453   6.945   1.833
 8477SOL    HW226331   5.436   6.948   1.671
 8478SOL     OW26332   6.407   0.877   6.033
 8478SOL    HW126333   6.506   0.880   6.043
 8478SOL    HW226334   6.380   0.917   5.946
 8479SOL     OW26335   0.836   2.521   0.555
 8479SOL    HW126336   0.918   2.500   0.501
 8479SOL    HW226337   0.852   2.605   0.608
 8480SOL     OW26338   4.099   3.726   0.059
 8480SOL    HW126339   4.087   3.717   0.158
 8480SOL    HW226340   4.183   3.777   0.040
 8481SOL     OW26341   4.463   1.689   3.254
 8481SOL    HW126342   4.461   1.748   3.173
 8481SOL    HW226343   4.445   1.595   3.227
 8482SOL     OW26344   4.645   0.813   1.276
 8482SOL    HW126345   4.646   0.767   1.365
 8482SOL    HW226346   4.562   0.869   1.269
 8483SOL     OW26347   3.654   4.873   2.985
 8483SOL    HW126348   3.672   4.968   2.960
 8483SOL    HW226349   3.587   4.834   2.922
 8484SOL     OW26350   5.749   5.474   4.676
 8484SOL    HW126351   5.752   5.567   4.713
 8484SOL    HW226352   5.798   5.472   4.589
 8485SOL     OW26353   3.520   2.432   0.288
 8485SOL    HW126354   3.546   2.469   0.199
 8485SOL    HW226355   3.600   2.389   0.330
 8486SOL     OW26356   0.244   2.065   3.215
 8486SOL    HW126357   0.267   2.075   3.312
 8486SOL    HW226358   0.295   1.989   3.176
 8487SOL     OW26359   6.546   1.411   5.885
 8487SOL    HW126360   6.580   1.338   5.826
 8487SOL    HW226361   6.477   1.463   5.837
 8488SOL     OW26362   4.680   4.752   1.886
 8488SOL    HW126363   4.722   4.810   1.816
 8488SOL    HW226364   4.737   4.671   1.900
 8489SOL     OW26365   5.696   2.282   1.624
 8489SOL    HW126366   5.713   2.293   1.526
 8489SOL    HW226367   5.704   2.185   1.648
 8490SOL     OW26368   3.225   0.460   6.414
 8490SOL    HW126369   3.178   0.480   6.328
 8490SOL    HW226370   3.180   0.384   6.460
 8491SOL     OW26371   3.175   5.819   1.970
 8491SOL    HW126372   3.260   5.826   1.917
 8491SOL    HW226373   3.098   5.849   1.913
 8492SOL     OW26374   6.260   6.286   4.423
 8492SOL    HW126375   6.253   6.195   4.464
 8492SOL    HW226376   6.179   6.304   4.368
 8493SOL     OW26377   4.673   1.378   6.901
 8493SOL    HW126378   4.580   1.416   6.910
 8493SOL    HW226379   4.687   1.347   6.807
 8494SOL     OW26380   6.507   4.615   2.357
 8494SOL    HW126381   6.420   4.578   2.388
 8494SOL    HW226382   6.582   4.564   2.398
 8495SOL     OW26383   6.275   5.505   6.185
 8495SOL    HW126384   6.335   5.529   6.261
 8495SOL    HW226385   6.188   5.471   6.220
 8496SOL     OW26386   5.867   3.264   2.323
 8496SOL    HW126387   5.768   3.265   2.334
 8496SOL    HW226388   5.900   3.170   2.335
 8497SOL     OW26389   6.744   0.800   3.744
 8497SOL    HW126390   6.777   0.707   3.731
 8497SOL    HW226391   6.766   0.831   3.836
 8498SOL     OW26392   4.708   6.819   3.915
 8498SOL    HW126393   4.703   6.852   4.010
 8498SOL    HW226394   4.616   6.799   3.881
 8499SOL     OW26395   5.964   6.350   5.664
 8499SOL    HW126396   5.945   6.344   5.762
 8499SOL    HW226397   6.063   6.349   5.649
 8500SOL     OW26398   0.583   0.972   5.615
 8500SOL    HW126399   0.516   1.013   5.553
 8500SOL    HW226400   0.539   0.897   5.666
 8501SOL     OW26401   0.894   1.772   6.582
 8501SOL    HW126402   0.987   1.739   6.573
 8501SOL    HW226403   0.891   1.870   6.563
 8502SOL     OW26404   0.738   4.453   7.003
 8502SOL    HW126405   0.712   4.357   7.007
 8502SOL    HW226406   0.661   4.510   0.011
 8503SOL     OW26407   5.223   0.732   4.556
 8503SOL    HW126408   5.241   0.826   4.529
 8503SOL    HW226409   5.186   0.731   4.649
 8504SOL     OW26410   1.148   6.947   1.920
 8504SOL    HW126411   1.246   6.965   1.917
 8504SOL    HW226412   1.114   6.963   2.013
 8505SOL     OW26413   5.202   3.185   2.745
 8505SOL    HW126414   5.109   3.148   2.756
 8505SOL    HW226415   5.246   3.188   2.835
 8506SOL     OW26416   1.307   0.421   5.995
 8506SOL    HW126417   1.374   0.420   5.920
 8506SOL    HW226418   1.216   0.439   5.958
 8507SOL     OW26419   3.391   6.215   5.244
 8507SOL    HW126420   3.476   6.170   5.270
 8507SOL    HW226421   3.360   6.180   5.156
 8508SOL     OW26422   3.017   1.640   6.562
 8508SOL    HW126423   3.065   1.665   6.478
 8508SOL    HW226424   2.989   1.723   6.610
 8509SOL     OW26425   5.771   1.769   2.908
 8509SOL    HW126426   5.680   1.811   2.910
 8509SOL    HW226427   5.803   1.753   3.002
 8510SOL     OW26428   6.824   2.336   4.427
 8510SOL    HW126429   6.893   2.271   4.397
 8510SOL    HW226430   6.788   2.307   4.516
 8511SOL     OW26431   5.321   2.679   2.524
 8511SOL    HW126432   5.405   2.679   2.578
 8511SOL    HW226433   5.243   2.701   2.584
 8512SOL     OW26434   1.667   6.442   5.818
 8512SOL    HW126435   1.708   6.497   5.745
 8512SOL    HW226436   1.597   6.382   5.780
 8513SOL     OW26437   4.802   7.019   6.296
 8513SOL    HW126438   4.789   6.923   6.273
 8513SOL    HW226439   4.717   0.036   6.334
 8514SOL     OW26440   3.030   5.984   4.210
 8514SOL    HW126441   2.993   5.918   4.145
 8514SOL    HW226442   3.057   5.937   4.294
 8515SOL     OW26443   5.939   1.743   0.687
 8515SOL    HW126444   5.843   1.772   0.696
 8515SOL    HW226445   5.950   1.690   0.603
 8516SOL     OW26446   0.306   2.117   2.384
 8516SOL    HW126447   0.336   2.199   2.334
 8516SOL    HW226448   0.284   2.045   2.318
 8517SOL     OW26449   0.886   3.819   0.602
 8517SOL    HW126450   0.951   3.753   0.565
 8517SOL    HW226451   0.922   3.911   0.590
 8518SOL     OW26452   3.238   5.597   0.524
 8518SOL    HW126453   3.230   5.678   0.465
 8518SOL    HW226454   3.334   5.571   0.532
 8519SOL     OW26455   1.586   5.166   2.869
 8519SOL    HW126456   1.609   5.072   2.841
 8519SOL    HW226457   1.501   5.193   2.824
 8520SOL     OW26458   2.991   0.484   6.831
 8520SOL    HW126459   3.067   0.505   6.769
 8520SOL    HW226460   3.028   0.450   6.917
 8521SOL     OW26461   1.018   0.108   6.858
 8521SOL    HW126462   1.041   0.148   6.947
 8521SOL    HW226463   1.045   0.172   6.786
 8522SOL     OW26464   1.802   5.947   4.690
 8522SOL    HW126465   1.768   6.014   4.624
 8522SOL    HW226466   1.892   5.976   4.724
 8523SOL     OW26467   1.249   6.930   0.008
 8523SOL    HW126468   1.304   6.856   0.045
 8523SOL    HW226469   1.308   7.006   7.001
 8524SOL     OW26470   1.630   2.560   6.159
 8524SOL    HW126471   1.574   2.641   6.178
 8524SOL    HW226472   1.712   2.562   6.216
 8525SOL     OW26473   5.278   3.171   3.254
 8525SOL    HW126474   5.272   3.110   3.333
 8525SOL    HW226475   5.313   3.260   3.283
 8526SOL     OW26476   2.243   3.056   1.792
 8526SOL    HW126477   2.186   3.085   1.868
 8526SOL    HW226478   2.280   3.136   1.745
 8527SOL     OW26479   4.249   6.795   4.132
 8527SOL    HW126480   4.216   6.831   4.045
 8527SOL    HW226481   4.288   6.870   4.186
 8528SOL     OW26482   5.113   2.668   0.038
 8528SOL    HW126483   5.170   2.637   0.113
 8528SOL    HW226484   5.078   2.588   7.008
 8529SOL     OW26485   0.248   5.015   7.000
 8529SOL    HW126486   0.232   4.932   6.947
 8529SOL    HW226487   0.281   4.990   0.072
 8530SOL     OW26488   1.748   3.280   5.691
 8530SOL    HW126489   1.716   3.359   5.638
 8530SOL    HW226490   1.675   3.249   5.752
 8531SOL     OW26491   3.900   4.848   1.992
 8531SOL    HW126492   3.970   4.803   2.047
 8531SOL    HW226493   3.818   4.862   2.047
 8532SOL     OW26494   1.705   4.296   6.602
 8532SOL    HW126495   1.697   4.246   6.688
 8532SOL    HW226496   1.620   4.346   6.585
 8533SOL     OW26497   3.941   0.818   5.726
 8533SOL    HW126498   4.029   0.830   5.679
 8533SOL    HW226499   3.888   0.902   5.721
 8534SOL     OW26500   2.139   2.755   2.984
 8534SOL    HW126501   2.206   2.804   2.928
 8534SOL    HW226502   2.149   2.656   2.968
 8535SOL     OW26503   6.401   3.313   4.101
 8535SOL    HW126504   6.378   3.404   4.137
 8535SOL    HW226505   6.321   3.275   4.054
 8536SOL     OW26506   0.240   0.860   4.268
 8536SOL    HW126507   0.192   0.774   4.250
 8536SOL    HW226508   0.181   0.937   4.242
 8537SOL     OW26509   5.977   6.892   2.574
 8537SOL    HW126510   6.001   6.804   2.534
 8537SOL    HW226511   5.900   6.931   2.525
 8538SOL     OW26512   5.460   0.949   4.973
 8538SOL    HW126513   5.386   1.014   4.988
 8538SOL    HW226514   5.428   0.875   4.914
 8539SOL     OW26515   6.938   3.297   3.023
 8539SOL    HW126516   6.866   3.261   2.963
 8539SOL    HW226517   0.004   3.250   3.003
 8540SOL     OW26518   3.883   0.651   0.178
 8540SOL    HW126519   3.796   0.604   0.163
 8540SOL    HW226520   3.872   0.749   0.159
 8541SOL     OW26521   3.196   6.984   5.074
 8541SOL    HW126522   3.128   0.005   5.135
 8541SOL    HW226523   3.288   7.006   5.108
 8542SOL     OW26524   1.190   5.921   6.002
 8542SOL    HW126525   1.130   6.001   6.000
 8542SOL    HW226526   1.141   5.842   5.966
 8543SOL     OW26527   2.356   2.721   5.736
 8543SOL    HW126528   2.404   2.787   5.679
 8543SOL    HW226529   2.292   2.769   5.796
 8544SOL     OW26530   5.601   4.886   5.771
 8544SOL    HW126531   5.688   4.836   5.774
 8544SOL    HW226532   5.601   4.957   5.841
 8545SOL     OW26533   2.771   0.138   6.381
 8545SOL    HW126534   2.699   0.162   6.445
 8545SOL    HW226535   2.784   0.212   6.315
 8546SOL     OW26536   4.685   1.116   2.811
 8546SOL    HW126537   4.637   1.201   2.830
 8546SOL    HW226538   4.776   1.118   2.854
 8547SOL     OW26539   5.438   6.143   6.009
 8547SOL    HW126540   5.420   6.120   5.913
 8547SOL    HW226541   5.513   6.086   6.043
 8548SOL     OW26542   0.935   3.530   5.302
 8548SOL    HW126543   1.019   3.583   5.316
 8548SOL    HW226544   0.914   3.526   5.204
 8549SOL     OW26545   1.960   0.237   4.176
 8549SOL    HW126546   1.993   0.148   4.145
 8549SOL    HW226547   2.026   0.308   4.150
 8550SOL     OW26548   6.675   4.945   5.819
 8550SOL    HW126549   6.753   5.001   5.849
 8550SOL    HW226550   6.594   5.004   5.808
 8551SOL     OW26551   2.201   0.352   5.940
 8551SOL    HW126552   2.174   0.412   6.015
 8551SOL    HW226553   2.154   0.380   5.856
 8552SOL     OW26554   2.947   1.734   2.499
 8552SOL    HW126555   2.877   1.765   2.435
 8552SOL    HW226556   2.944   1.790   2.582
 8553SOL     OW26557   5.154   3.922   6.695
 8553SOL    HW126558   5.212   4.003   6.693
 8553SOL    HW226559   5.208   3.843   6.724
 8554SOL     OW26560   2.240   1.359   0.367
 8554SOL    HW126561   2.169   1.337   0.299
 8554SOL    HW226562   2.220   1.311   0.452
 8555SOL     OW26563   3.568   1.864   4.011
 8555SOL    HW126564   3.526   1.950   4.039
 8555SOL    HW226565   3.665   1.864   4.035
 8556SOL     OW26566   1.054   5.625   6.588
 8556SOL    HW126567   1.092   5.699   6.532
 8556SOL    HW226568   0.957   5.643   6.604
 8557SOL     OW26569   6.636   0.861   6.517
 8557SOL    HW126570   6.595   0.785   6.466
 8557SOL    HW226571   6.603   0.861   6.611
 8558SOL     OW26572   2.868   6.284   4.211
 8558SOL    HW126573   2.943   6.242   4.262
 8558SOL    HW226574   2.899   6.370   4.170
 8559SOL     OW26575   2.011   4.671   2.817
 8559SOL    HW126576   2.108   4.653   2.802
 8559SOL    HW226577   2.001   4.737   2.891
 8560SOL     OW26578   2.456   4.551   0.587
 8560SOL    HW126579   2.441   4.615   0.512
 8560SOL    HW226580   2.400   4.469   0.573
 8561SOL     OW26581   3.929   0.742   3.006
 8561SOL    HW126582   4.017   0.764   3.048
 8561SOL    HW226583   3.872   0.824   3.003
 8562SOL     OW26584   5.653   2.161   0.511
 8562SOL    HW126585   5.717   2.235   0.531
 8562SOL    HW226586   5.602   2.183   0.427
 8563SOL     OW26587   2.750   5.173   2.553
 8563SOL    HW126588   2.715   5.082   2.576
 8563SOL    HW226589   2.845   5.181   2.585
 8564SOL     OW26590   3.873   0.130   0.403
 8564SOL    HW126591   3.820   0.122   0.319
 8564SOL    HW226592   3.815   0.106   0.481
 8565SOL     OW26593   1.903   4.686   1.275
 8565SOL    HW126594   1.998   4.713   1.260
 8565SOL    HW226595   1.860   4.750   1.339
 8566SOL     OW26596   3.096   1.124   1.816
 8566SOL    HW126597   3.157   1.045   1.817
 8566SOL    HW226598   3.149   1.206   1.841
 8567SOL     OW26599   1.917   3.085   2.372
 8567SOL    HW126600   1.962   3.062   2.285
 8567SOL    HW226601   1.905   3.184   2.378
 8568SOL     OW26602   6.102   0.360   6.356
 8568SOL    HW126603   6.099   0.457   6.379
 8568SOL    HW226604   6.188   0.339   6.311
 8569SOL     OW26605   4.409   2.124   0.580
 8569SOL    HW126606   4.368   2.056   0.519
 8569SOL    HW226607   4.488   2.166   0.535
 8570SOL     OW26608   1.815   2.766   1.858
 8570SOL    HW126609   1.743   2.724   1.913
 8570SOL    HW226610   1.887   2.699   1.841
 8571SOL     OW26611   1.534   0.832   3.116
 8571SOL    HW126612   1.452   0.888   3.109
 8571SOL    HW226613   1.558   0.819   3.213
 8572SOL     OW26614   2.619   4.237   5.555
 8572SOL    HW126615   2.630   4.277   5.646
 8572SOL    HW226616   2.683   4.281   5.492
 8573SOL     OW26617   3.297   6.702   0.424
 8573SOL    HW126618   3.265   6.716   0.517
 8573SOL    HW226619   3.363   6.626   0.422
 8574SOL     OW26620   4.503   0.837   5.290
 8574SOL    HW126621   4.600   0.864   5.294
 8574SOL    HW226622   4.495   0.740   5.313
 8575SOL     OW26623   3.342   6.105   3.329
 8575SOL    HW126624   3.289   6.152   3.258
 8575SOL    HW226625   3.292   6.110   3.416
 8576SOL     OW26626   1.804   4.715   4.070
 8576SOL    HW126627   1.755   4.640   4.114
 8576SOL    HW226628   1.798   4.797   4.127
 8577SOL     OW26629   1.758   1.267   0.698
 8577SOL    HW126630   1.742   1.357   0.740
 8577SOL    HW226631   1.744   1.273   0.599
 8578SOL     OW26632   0.162   0.235   6.312
 8578SOL    HW126633   0.253   0.211   6.278
 8578SOL    HW226634   0.101   0.254   6.235
 8579SOL     OW26635   2.857   6.383   2.468
 8579SOL    HW126636   2.891   6.452   2.403
 8579SOL    HW226637   2.920   6.377   2.546
 8580SOL     OW26638   1.475   0.655   1.428
 8580SOL    HW126639   1.495   0.607   1.513
 8580SOL    HW226640   1.414   0.732   1.446
 8581SOL     OW26641   3.217   4.756   1.306
 8581SOL    HW126642   3.273   4.788   1.382
 8581SOL    HW226643   3.214   4.656   1.306
 8582SOL     OW26644   3.544   5.285   5.656
 8582SOL    HW126645   3.617   5.233   5.612
 8582SOL    HW226646   3.473   5.222   5.688
 8583SOL     OW26647   3.891   0.001   2.405
 8583SOL    HW126648   3.824   0.046   2.346
 8583SOL    HW226649   3.978   7.014   2.357
 8584SOL     OW26650   6.397   1.567   4.720
 8584SOL    HW126651   6.372   1.650   4.770
 8584SOL    HW226652   6.364   1.574   4.626
 8585SOL     OW26653   5.142   2.521   2.896
 8585SOL    HW126654   5.210   2.448   2.902
 8585SOL    HW226655   5.188   2.607   2.872
 8586SOL     OW26656   6.687   6.299   0.311
 8586SOL    HW126657   6.740   6.216   0.325
 8586SOL    HW226658   6.608   6.299   0.371
 8587SOL     OW26659   0.369   1.784   0.210
 8587SOL    HW126660   0.402   1.696   0.177
 8587SOL    HW226661   0.381   1.853   0.138
 8588SOL     OW26662   2.628   1.454   6.083
 8588SOL    HW126663   2.587   1.417   6.000
 8588SOL    HW226664   2.582   1.416   6.163
 8589SOL     OW26665   6.745   3.598   6.852
 8589SOL    HW126666   6.713   3.572   6.761
 8589SOL    HW226667   6.708   3.535   6.919
 8590SOL     OW26668   0.461   0.567   3.942
 8590SOL    HW126669   0.497   0.659   3.957
 8590SOL    HW226670   0.484   0.537   3.849
 8591SOL     OW26671   6.785   4.693   6.589
 8591SOL    HW126672   6.735   4.620   6.543
 8591SOL    HW226673   6.826   4.658   6.673
 8592SOL     OW26674   0.231   1.554   4.809
 8592SOL    HW126675   0.264   1.486   4.743
 8592SOL    HW226676   0.296   1.561   4.884
 8593SOL     OW26677   4.905   1.537   6.852
 8593SOL    HW126678   4.809   1.512   6.841
 8593SOL    HW226679   4.916   1.635   6.836
 8594SOL     OW26680   6.511   2.971   6.018
 8594SOL    HW126681   6.569   3.007   6.092
 8594SOL    HW226682   6.415   2.982   6.043
 8595SOL     OW26683   6.206   6.357   2.996
 8595SOL    HW126684   6.199   6.436   3.057
 8595SOL    HW226685   6.116   6.313   2.989
 8596SOL     OW26686   0.863   1.473   4.041
 8596SOL    HW126687   0.960   1.450   4.049
 8596SOL    HW226688   0.853   1.572   4.027
 8597SOL     OW26689   6.124   3.281   5.623
 8597SOL    HW126690   6.162   3.370   5.600
 8597SOL    HW226691   6.081   3.284   5.713
 8598SOL     OW26692   6.391   6.977   5.005
 8598SOL    HW126693   6.427   0.030   4.947
 8598SOL    HW226694   6.420   6.888   4.968
 8599SOL     OW26695   0.046   3.768   4.116
 8599SOL    HW126696   6.985   3.709   4.114
 8599SOL    HW226697   0.020   3.861   4.091
 8600SOL     OW26698   4.717   2.297   0.715
 8600SOL    HW126699   4.708   2.254   0.804
 8600SOL    HW226700   4.732   2.227   0.645
 8601SOL     OW26701   6.948   6.082   3.688
 8601SOL    HW126702   7.020   6.013   3.702
 8601SOL    HW226703   6.978   6.169   3.728
 8602SOL     OW26704   2.097   6.053   5.701
 8602SOL    HW126705   2.052   6.002   5.628
 8602SOL    HW226706   2.038   6.129   5.730
 8603SOL     OW26707   0.377   0.242   0.230
 8603SOL    HW126708   0.317   0.309   0.273
 8603SOL    HW226709   0.322   0.169   0.188
 8604SOL     OW26710   0.605   4.754   6.402
 8604SOL    HW126711   0.603   4.795   6.494
 8604SOL    HW226712   0.596   4.654   6.410
 8605SOL     OW26713   0.225   4.756   4.846
 8605SOL    HW126714   0.260   4.760   4.752
 8605SOL    HW226715   0.255   4.838   4.896
 8606SOL     OW26716   1.640   2.147   0.469
 8606SOL    HW126717   1.717   2.192   0.513
 8606SOL    HW226718   1.554   2.182   0.508
 8607SOL     OW26719   2.155   3.910   1.624
 8607SOL    HW126720   2.163   3.958   1.537
 8607SOL    HW226721   2.215   3.954   1.691
 8608SOL     OW26722   1.932   5.368   2.973
 8608SOL    HW126723   1.892   5.366   2.882
 8608SOL    HW226724   1.865   5.402   3.039
 8609SOL     OW26725   3.824   1.855   4.068
 8609SOL    HW126726   3.834   1.873   4.166
 8609SOL    HW226727   3.895   1.792   4.038
 8610SOL     OW26728   6.652   6.366   3.149
 8610SOL    HW126729   6.691   6.378   3.058
 8610SOL    HW226730   6.600   6.281   3.152
 8611SOL     OW26731   2.492   1.002   5.129
 8611SOL    HW126732   2.477   1.094   5.165
 8611SOL    HW226733   2.512   0.939   5.205
 8612SOL     OW26734   3.015   3.242   4.417
 8612SOL    HW126735   2.977   3.325   4.375
 8612SOL    HW226736   3.018   3.169   4.349
 8613SOL     OW26737   4.106   3.288   2.535
 8613SOL    HW126738   4.078   3.331   2.450
 8613SOL    HW226739   4.201   3.258   2.527
 8614SOL     OW26740   1.366   2.000   3.037
 8614SOL    HW126741   1.315   2.082   3.060
 8614SOL    HW226742   1.443   2.024   2.977
 8615SOL     OW26743   3.590   1.327   4.596
 8615SOL    HW126744   3.540   1.281   4.670
 8615SOL    HW226745   3.583   1.273   4.512
 8616SOL     OW26746   5.792   4.551   4.135
 8616SOL    HW126747   5.766   4.621   4.068
 8616SOL    HW226748   5.887   4.564   4.162
 8617SOL     OW26749   2.403   0.193   3.611
 8617SOL    HW126750   2.307   0.192   3.580
 8617SOL    HW226751   2.421   0.112   3.666
 8618SOL     OW26752   5.774   3.767   1.152
 8618SOL    HW126753   5.837   3.698   1.116
 8618SOL    HW226754   5.825   3.836   1.202
 8619SOL     OW26755   5.096   4.801   0.299
 8619SOL    HW126756   5.024   4.779   0.365
 8619SOL    HW226757   5.179   4.827   0.348
 8620SOL     OW26758   2.376   0.491   4.455
 8620SOL    HW126759   2.335   0.435   4.383
 8620SOL    HW226760   2.322   0.483   4.539
 8621SOL     OW26761   5.639   2.878   1.807
 8621SOL    HW126762   5.581   2.845   1.881
 8621SOL    HW226763   5.704   2.807   1.781
 8622SOL     OW26764   6.929   5.212   2.411
 8622SOL    HW126765   6.841   5.166   2.422
 8622SOL    HW226766   6.992   5.153   2.362
 8623SOL     OW26767   1.105   3.388   4.492
 8623SOL    HW126768   1.023   3.446   4.487
 8623SOL    HW226769   1.170   3.428   4.557
 8624SOL     OW26770   3.279   3.908   4.775
 8624SOL    HW126771   3.241   3.962   4.699
 8624SOL    HW226772   3.207   3.850   4.814
 8625SOL     OW26773   3.778   2.806   5.528
 8625SOL    HW126774   3.743   2.769   5.442
 8625SOL    HW226775   3.765   2.905   5.529
 8626SOL     OW26776   3.842   3.245   0.850
 8626SOL    HW126777   3.788   3.183   0.793
 8626SOL    HW226778   3.781   3.296   0.911
 8627SOL     OW26779   1.820   1.032   2.420
 8627SOL    HW126780   1.916   1.013   2.439
 8627SOL    HW226781   1.813   1.102   2.348
 8628SOL     OW26782   0.045   6.186   0.695
 8628SOL    HW126783   0.121   6.177   0.759
 8628SOL    HW226784   0.081   6.199   0.602
 8629SOL     OW26785   6.858   6.466   5.427
 8629SOL    HW126786   6.825   6.442   5.336
 8629SOL    HW226787   6.947   6.424   5.442
 8630SOL     OW26788   4.834   2.954   2.292
 8630SOL    HW126789   4.882   3.041   2.305
 8630SOL    HW226790   4.784   2.956   2.205
 8631SOL     OW26791   2.873   6.683   6.190
 8631SOL    HW126792   2.838   6.630   6.267
 8631SOL    HW226793   2.973   6.682   6.191
 8632SOL     OW26794   5.406   5.272   4.871
 8632SOL    HW126795   5.321   5.293   4.822
 8632SOL    HW226796   5.467   5.351   4.866
 8633SOL     OW26797   5.971   4.159   5.365
 8633SOL    HW126798   6.043   4.218   5.330
 8633SOL    HW226799   5.884   4.184   5.322
 8634SOL     OW26800   4.352   2.899   0.370
 8634SOL    HW126801   4.420   2.930   0.436
 8634SOL    HW226802   4.386   2.912   0.277
 8635SOL     OW26803   4.900   2.662   5.917
 8635SOL    HW126804   4.810   2.682   5.956
 8635SOL    HW226805   4.932   2.573   5.949
 8636SOL     OW26806   4.320   6.748   1.823
 8636SOL    HW126807   4.319   6.799   1.737
 8636SOL    HW226808   4.229   6.710   1.840
 8637SOL     OW26809   2.194   2.320   6.389
 8637SOL    HW126810   2.117   2.269   6.427
 8637SOL    HW226811   2.206   2.405   6.440
 8638SOL     OW26812   4.834   2.952   3.541
 8638SOL    HW126813   4.904   3.022   3.530
 8638SOL    HW226814   4.802   2.922   3.451
 8639SOL     OW26815   3.707   3.707   0.286
 8639SOL    HW126816   3.715   3.710   0.386
 8639SOL    HW226817   3.739   3.794   0.248
 8640SOL     OW26818   3.084   2.744   0.707
 8640SOL    HW126819   3.171   2.736   0.658
 8640SOL    HW226820   3.098   2.797   0.791
 8641SOL     OW26821   4.668   5.171   1.791
 8641SOL    HW126822   4.598   5.141   1.856
 8641SOL    HW226823   4.632   5.162   1.698
 8642SOL     OW26824   1.215   5.389   3.519
 8642SOL    HW126825   1.266   5.475   3.516
 8642SOL    HW226826   1.214   5.347   3.428
 8643SOL     OW26827   3.818   6.214   1.074
 8643SOL    HW126828   3.838   6.257   1.162
 8643SOL    HW226829   3.747   6.267   1.027
 8644SOL     OW26830   6.118   2.028   6.440
 8644SOL    HW126831   6.020   2.006   6.443
 8644SOL    HW226832   6.170   1.945   6.424
 8645SOL     OW26833   5.908   4.502   2.787
 8645SOL    HW126834   5.936   4.584   2.737
 8645SOL    HW226835   5.815   4.514   2.821
 8646SOL     OW26836   6.571   2.187   5.129
 8646SOL    HW126837   6.525   2.258   5.182
 8646SOL    HW226838   6.652   2.226   5.085
 8647SOL     OW26839   2.180   5.367   1.949
 8647SOL    HW126840   2.264   5.413   1.923
 8647SOL    HW226841   2.179   5.352   2.048
 8648SOL     OW26842   5.171   4.679   0.539
 8648SOL    HW126843   5.265   4.649   0.554
 8648SOL    HW226844   5.123   4.612   0.482
 8649SOL     OW26845   5.022   0.610   0.810
 8649SOL    HW126846   4.967   0.647   0.736
 8649SOL    HW226847   5.070   0.528   0.778
 8650SOL     OW26848   2.315   6.579   5.360
 8650SOL    HW126849   2.292   6.597   5.455
 8650SOL    HW226850   2.319   6.665   5.310
 8651SOL     OW26851   4.356   2.207   1.815
 8651SOL    HW126852   4.412   2.255   1.882
 8651SOL    HW226853   4.349   2.262   1.731
 8652SOL     OW26854   1.426   3.034   3.856
 8652SOL    HW126855   1.393   3.121   3.821
 8652SOL    HW226856   1.375   2.959   3.814
 8653SOL     OW26857   6.434   1.748   6.525
 8653SOL    HW126858   6.383   1.747   6.611
 8653SOL    HW226859   6.485   1.663   6.516
 8654SOL     OW26860   0.289   4.547   2.292
 8654SOL    HW126861   0.357   4.620   2.291
 8654SOL    HW226862   0.197   4.587   2.295
 8655SOL     OW26863   0.281   0.885   4.547
 8655SOL    HW126864   0.256   0.870   4.452
 8655SOL    HW226865   0.345   0.815   4.577
 8656SOL     OW26866   5.058   0.043   1.229
 8656SOL    HW126867   4.992   0.001   1.167
 8656SOL    HW226868   5.094   0.127   1.188
 8657SOL     OW26869   4.176   0.825   3.101
 8657SOL    HW126870   4.220   0.753   3.156
 8657SOL    HW226871   4.230   0.842   3.019
 8658SOL     OW26872   5.785   4.238   0.590
 8658SOL    HW126873   5.781   4.226   0.689
 8658SOL    HW226874   5.722   4.310   0.562
 8659SOL     OW26875   3.201   1.064   2.396
 8659SOL    HW126876   3.167   1.150   2.435
 8659SOL    HW226877   3.243   1.082   2.307
 8660SOL     OW26878   0.345   4.572   1.814
 8660SOL    HW126879   0.388   4.548   1.901
 8660SOL    HW226880   0.414   4.575   1.742
 8661SOL     OW26881   6.715   3.910   2.269
 8661SOL    HW126882   6.734   3.828   2.215
 8661SOL    HW226883   6.622   3.904   2.307
 8662SOL     OW26884   1.586   4.136   3.634
 8662SOL    HW126885   1.559   4.199   3.706
 8662SOL    HW226886   1.656   4.073   3.668
 8663SOL     OW26887   4.394   5.312   2.316
 8663SOL    HW126888   4.458   5.359   2.255
 8663SOL    HW226889   4.329   5.377   2.355
 8664SOL     OW26890   3.743   5.994   3.376
 8664SOL    HW126891   3.673   6.024   3.441
 8664SOL    HW226892   3.824   5.962   3.426
 8665SOL     OW26893   5.627   3.381   6.946
 8665SOL    HW126894   5.670   3.425   6.867
 8665SOL    HW226895   5.668   3.292   6.962
 8666SOL     OW26896   4.612   0.001   2.414
 8666SOL    HW126897   4.519   0.016   2.448
 8666SOL    HW226898   4.614   0.017   2.315
 8667SOL     OW26899   4.952   2.280   3.074
 8667SOL    HW126900   5.007   2.231   3.141
 8667SOL    HW226901   5.010   2.310   2.998
 8668SOL     OW26902   4.877   2.512   4.857
 8668SOL    HW126903   4.913   2.465   4.938
 8668SOL    HW226904   4.787   2.551   4.878
 8669SOL     OW26905   6.303   6.125   6.672
 8669SOL    HW126906   6.339   6.033   6.683
 8669SOL    HW226907   6.365   6.179   6.616
 8670SOL     OW26908   6.651   4.409   5.941
 8670SOL    HW126909   6.659   4.507   5.959
 8670SOL    HW226910   6.578   4.393   5.875
 8671SOL     OW26911   0.866   3.197   3.147
 8671SOL    HW126912   0.814   3.150   3.076
 8671SOL    HW226913   0.880   3.136   3.225
 8672SOL     OW26914   0.137   0.978   2.646
 8672SOL    HW126915   0.140   0.912   2.572
 8672SOL    HW226916   0.148   0.931   2.734
 8673SOL     OW26917   0.727   2.097   1.111
 8673SOL    HW126918   0.780   2.049   1.181
 8673SOL    HW226919   0.684   2.178   1.150
 8674SOL     OW26920   0.009   3.990   3.706
 8674SOL    HW126921   0.034   3.938   3.624
 8674SOL    HW226922   6.990   4.078   3.679
 8675SOL     OW26923   3.599   2.103   4.881
 8675SOL    HW126924   3.618   2.193   4.920
 8675SOL    HW226925   3.685   2.062   4.850
 8676SOL     OW26926   5.310   1.070   0.886
 8676SOL    HW126927   5.379   1.051   0.816
 8676SOL    HW226928   5.295   0.989   0.942
 8677SOL     OW26929   1.942   0.057   6.212
 8677SOL    HW126930   2.025   0.071   6.159
 8677SOL    HW226931   1.879   7.019   6.160
 8678SOL     OW26932   1.366   2.040   0.395
 8678SOL    HW126933   1.433   2.088   0.338
 8678SOL    HW226934   1.371   1.941   0.376
 8679SOL     OW26935   1.642   2.358   5.831
 8679SOL    HW126936   1.605   2.282   5.778
 8679SOL    HW226937   1.732   2.382   5.795
 8680SOL     OW26938   6.525   0.677   0.131
 8680SOL    HW126939   6.601   0.676   0.197
 8680SOL    HW226940   6.449   0.729   0.169
 8681SOL     OW26941   5.759   6.513   1.559
 8681SOL    HW126942   5.663   6.532   1.542
 8681SOL    HW226943   5.813   6.531   1.477
 8682SOL     OW26944   1.846   0.737   1.805
 8682SOL    HW126945   1.765   0.791   1.784
 8682SOL    HW226946   1.831   0.683   1.887
 8683SOL     OW26947   2.203   4.558   4.582
 8683SOL    HW126948   2.299   4.557   4.608
 8683SOL    HW226949   2.188   4.497   4.505
 8684SOL     OW26950   2.329   4.297   4.187
 8684SOL    HW126951   2.297   4.203   4.199
 8684SOL    HW226952   2.305   4.330   4.096
 8685SOL     OW26953   4.837   2.477   4.578
 8685SOL    HW126954   4.858   2.486   4.676
 8685SOL    HW226955   4.797   2.387   4.561
 8686SOL     OW26956   0.835   5.008   3.520
 8686SOL    HW126957   0.880   5.075   3.461
 8686SOL    HW226958   0.744   4.989   3.484
 8687SOL     OW26959   5.114   4.307   6.094
 8687SOL    HW126960   5.181   4.355   6.038
 8687SOL    HW226961   5.159   4.230   6.141
 8688SOL     OW26962   1.191   3.853   4.730
 8688SOL    HW126963   1.289   3.832   4.729
 8688SOL    HW226964   1.178   3.950   4.708
 8689SOL     OW26965   3.814   3.593   6.808
 8689SOL    HW126966   3.842   3.689   6.815
 8689SOL    HW226967   3.714   3.587   6.813
 8690SOL     OW26968   1.810   2.219   2.731
 8690SOL    HW126969   1.735   2.170   2.775
 8690SOL    HW226970   1.782   2.247   2.639
 8691SOL     OW26971   3.546   2.430   5.347
 8691SOL    HW126972   3.478   2.459   5.414
 8691SOL    HW226973   3.532   2.333   5.324
 8692SOL     OW26974   4.442   1.798   5.272
 8692SOL    HW126975   4.416   1.820   5.366
 8692SOL    HW226976   4.511   1.862   5.240
 8693SOL     OW26977   6.560   7.005   6.181
 8693SOL    HW126978   6.623   0.021   6.250
 8693SOL    HW226979   6.550   0.052   6.107
 8694SOL     OW26980   5.062   2.967   5.159
 8694SOL    HW126981   5.154   2.982   5.196
 8694SOL    HW226982   5.066   2.898   5.086
 8695SOL     OW26983   3.602   4.492   6.508
 8695SOL    HW126984   3.592   4.455   6.416
 8695SOL    HW226985   3.513   4.526   6.539
 8696SOL     OW26986   3.201   5.566   5.725
 8696SOL    HW126987   3.216   5.639   5.658
 8696SOL    HW226988   3.159   5.603   5.807
 8697SOL     OW26989   2.018   3.661   5.757
 8697SOL    HW126990   1.992   3.742   5.811
 8697SOL    HW226991   2.118   3.651   5.760
 8698SOL     OW26992   4.651   5.633   5.886
 8698SOL    HW126993   4.704   5.616   5.803
 8698SOL    HW226994   4.601   5.719   5.876
 8699SOL     OW26995   1.704   2.695   6.545
 8699SOL    HW126996   1.630   2.730   6.603
 8699SOL    HW226997   1.714   2.596   6.561
 8700SOL     OW26998   1.131   0.574   3.582
 8700SOL    HW126999   1.192   0.514   3.530
 8700SOL    HW227000   1.087   0.639   3.519
 8701SOL     OW27001   1.045   2.146   6.907
 8701SOL    HW127002   1.057   2.152   6.808
 8701SOL    HW227003   1.113   2.204   6.953
 8702SOL     OW27004   5.327   4.496   1.018
 8702SOL    HW127005   5.258   4.533   1.079
 8702SOL    HW227006   5.382   4.570   0.980
 8703SOL     OW27007   2.444   5.965   0.545
 8703SOL    HW127008   2.409   5.966   0.639
 8703SOL    HW227009   2.543   5.951   0.546
 8704SOL     OW27010   0.805   0.916   5.150
 8704SOL    HW127011   0.879   0.970   5.111
 8704SOL    HW227012   0.737   0.978   5.190
 8705SOL     OW27013   4.213   2.406   6.805
 8705SOL    HW127014   4.298   2.355   6.813
 8705SOL    HW227015   4.224   2.496   6.846
 8706SOL     OW27016   4.995   3.358   5.999
 8706SOL    HW127017   4.982   3.457   6.002
 8706SOL    HW227018   4.929   3.314   6.060
 8707SOL     OW27019   1.780   1.682   5.138
 8707SOL    HW127020   1.789   1.765   5.193
 8707SOL    HW227021   1.843   1.687   5.061
 8708SOL     OW27022   5.794   3.043   0.216
 8708SOL    HW127023   5.739   2.962   0.233
 8708SOL    HW227024   5.795   3.063   0.118
 8709SOL     OW27025   6.040   6.931   5.489
 8709SOL    HW127026   5.960   6.922   5.548
 8709SOL    HW227027   6.055   0.008   5.468
 8710SOL     OW27028   2.006   1.324   3.780
 8710SOL    HW127029   2.086   1.383   3.769
 8710SOL    HW227030   2.034   1.237   3.822
 8711SOL     OW27031   1.420   1.577   1.657
 8711SOL    HW127032   1.363   1.622   1.725
 8711SOL    HW227033   1.429   1.636   1.576
 8712SOL     OW27034   1.164   3.854   5.677
 8712SOL    HW127035   1.153   3.866   5.776
 8712SOL    HW227036   1.176   3.943   5.634
 8713SOL     OW27037   0.011   3.614   1.107
 8713SOL    HW127038   0.105   3.629   1.138
 8713SOL    HW227039   7.004   3.520   1.127
 8714SOL     OW27040   6.898   5.470   6.422
 8714SOL    HW127041   6.979   5.494   6.476
 8714SOL    HW227042   6.867   5.379   6.448
 8715SOL     OW27043   1.830   3.627   1.768
 8715SOL    HW127044   1.925   3.610   1.792
 8715SOL    HW227045   1.807   3.577   1.685
 8716SOL     OW27046   6.564   0.255   1.731
 8716SOL    HW127047   6.610   0.191   1.793
 8716SOL    HW227048   6.631   0.320   1.696
 8717SOL     OW27049   2.641   3.154   0.316
 8717SOL    HW127050   2.630   3.140   0.217
 8717SOL    HW227051   2.692   3.239   0.331
 8718SOL     OW27052   2.359   5.019   6.182
 8718SOL    HW127053   2.393   4.959   6.254
 8718SOL    HW227054   2.281   5.072   6.217
 8719SOL     OW27055   3.468   0.975   4.590
 8719SOL    HW127056   3.468   0.885   4.634
 8719SOL    HW227057   3.466   1.046   4.660
 8720SOL     OW27058   0.135   5.015   4.986
 8720SOL    HW127059   0.080   4.948   5.037
 8720SOL    HW227060   0.077   5.060   4.918
 8721SOL     OW27061   0.344   0.175   6.714
 8721SOL    HW127062   0.303   0.263   6.738
 8721SOL    HW227063   0.317   0.150   6.621
 8722SOL     OW27064   3.289   1.132   0.958
 8722SOL    HW127065   3.264   1.153   1.052
 8722SOL    HW227066   3.263   1.038   0.937
 8723SOL     OW27067   4.126   6.980   2.583
 8723SOL    HW127068   4.035   6.988   2.543
 8723SOL    HW227069   4.133   6.894   2.635
 8724SOL     OW27070   3.853   1.329   4.244
 8724SOL    HW127071   3.932   1.388   4.226
 8724SOL    HW227072   3.860   1.291   4.337
 8725SOL     OW27073   6.523   6.958   3.475
 8725SOL    HW127074   6.574   6.961   3.561
 8725SOL    HW227075   6.429   6.988   3.491
 8726SOL     OW27076   6.962   1.180   1.139
 8726SOL    HW127077   0.007   1.103   1.145
 8726SOL    HW227078   7.002   1.253   1.085
 8727SOL     OW27079   4.971   6.735   6.213
 8727SOL    HW127080   5.060   6.767   6.244
 8727SOL    HW227081   4.982   6.673   6.136
 8728SOL     OW27082   6.683   0.492   4.432
 8728SOL    HW127083   6.614   0.500   4.503
 8728SOL    HW227084   6.685   0.577   4.378
 8729SOL     OW27085   4.984   5.924   6.684
 8729SOL    HW127086   5.011   5.909   6.590
 8729SOL    HW227087   5.065   5.942   6.741
 8730SOL     OW27088   4.636   5.165   1.110
 8730SOL    HW127089   4.675   5.258   1.105
 8730SOL    HW227090   4.695   5.107   1.166
 8731SOL     OW27091   6.812   1.793   3.789
 8731SOL    HW127092   6.891   1.811   3.731
 8731SOL    HW227093   6.843   1.764   3.879
 8732SOL     OW27094   5.876   6.487   0.189
 8732SOL    HW127095   5.832   6.397   0.180
 8732SOL    HW227096   5.832   6.552   0.127
 8733SOL     OW27097   6.171   4.562   2.892
 8733SOL    HW127098   6.074   4.565   2.868
 8733SOL    HW227099   6.181   4.544   2.989
 8734SOL     OW27100   0.356   3.911   1.992
 8734SOL    HW127101   0.431   3.963   2.032
 8734SOL    HW227102   0.348   3.822   2.039
 8735SOL     OW27103   6.901   3.207   4.981
 8735SOL    HW127104   6.994   3.245   4.987
 8735SOL    HW227105   6.905   3.109   4.998
 8736SOL     OW27106   1.161   6.165   3.765
 8736SOL    HW127107   1.230   6.100   3.798
 8736SOL    HW227108   1.112   6.125   3.687
 8737SOL     OW27109   1.684   5.920   0.351
 8737SOL    HW127110   1.689   5.976   0.434
 8737SOL    HW227111   1.740   5.838   0.364
 8738SOL     OW27112   1.476   3.070   3.403
 8738SOL    HW127113   1.559   3.015   3.401
 8738SOL    HW227114   1.467   3.119   3.317
 8739SOL     OW27115   5.807   4.578   5.356
 8739SOL    HW127116   5.877   4.620   5.414
 8739SOL    HW227117   5.739   4.647   5.331
 8740SOL     OW27118   2.911   0.682   4.916
 8740SOL    HW127119   2.826   0.687   4.864
 8740SOL    HW227120   2.939   0.775   4.942
 8741SOL     OW27121   1.364   1.054   3.067
 8741SOL    HW127122   1.450   1.103   3.052
 8741SOL    HW227123   1.293   1.092   3.009
 8742SOL     OW27124   2.694   1.879   1.975
 8742SOL    HW127125   2.645   1.964   1.955
 8742SOL    HW227126   2.693   1.819   1.895
 8743SOL     OW27127   0.676   2.844   1.513
 8743SOL    HW127128   0.775   2.835   1.501
 8743SOL    HW227129   0.657   2.878   1.605
 8744SOL     OW27130   3.266   4.229   5.634
 8744SOL    HW127131   3.171   4.245   5.607
 8744SOL    HW227132   3.316   4.187   5.558
 8745SOL     OW27133   6.159   1.334   6.065
 8745SOL    HW127134   6.067   1.326   6.104
 8745SOL    HW227135   6.209   1.249   6.081
 8746SOL     OW27136   4.488   5.067   5.795
 8746SOL    HW127137   4.425   5.002   5.753
 8746SOL    HW227138   4.460   5.160   5.773
 8747SOL     OW27139   0.576   0.118   2.628
 8747SOL    HW127140   0.574   0.207   2.673
 8747SOL    HW227141   0.668   0.080   2.633
 8748SOL     OW27142   6.095   1.829   3.786
 8748SOL    HW127143   6.010   1.859   3.829
 8748SOL    HW227144   6.132   1.903   3.730
 8749SOL     OW27145   2.369   1.034   3.986
 8749SOL    HW127146   2.455   1.085   3.980
 8749SOL    HW227147   2.293   1.097   4.000
 8750SOL     OW27148   3.747   3.726   0.561
 8750SOL    HW127149   3.776   3.797   0.625
 8750SOL    HW227150   3.779   3.637   0.593
 8751SOL     OW27151   2.302   6.593   0.757
 8751SOL    HW127152   2.272   6.650   0.681
 8751SOL    HW227153   2.290   6.643   0.843
 8752SOL     OW27154   6.569   2.792   5.333
 8752SOL    HW127155   6.557   2.817   5.430
 8752SOL    HW227156   6.485   2.750   5.299
 8753SOL     OW27157   2.570   2.425   0.816
 8753SOL    HW127158   2.660   2.431   0.859
 8753SOL    HW227159   2.529   2.516   0.813
 8754SOL     OW27160   1.760   4.846   0.102
 8754SOL    HW127161   1.697   4.898   0.045
 8754SOL    HW227162   1.852   4.851   0.062
 8755SOL     OW27163   0.500   2.967   1.725
 8755SOL    HW127164   0.434   2.895   1.704
 8755SOL    HW227165   0.465   3.024   1.800
 8756SOL     OW27166   1.733   1.827   2.188
 8756SOL    HW127167   1.681   1.813   2.273
 8756SOL    HW227168   1.751   1.738   2.145
 8757SOL     OW27169   5.042   6.128   5.610
 8757SOL    HW127170   4.992   6.185   5.544
 8757SOL    HW227171   5.055   6.179   5.695
 8758SOL     OW27172   3.728   5.720   5.020
 8758SOL    HW127173   3.778   5.727   5.106
 8758SOL    HW227174   3.631   5.707   5.040
 8759SOL     OW27175   5.882   0.546   0.657
 8759SOL    HW127176   5.928   0.576   0.741
 8759SOL    HW227177   5.935   0.576   0.578
 8760SOL     OW27178   2.443   2.657   4.256
 8760SOL    HW127179   2.498   2.595   4.200
 8760SOL    HW227180   2.428   2.742   4.206
 8761SOL     OW27181   5.335   1.704   2.985
 8761SOL    HW127182   5.328   1.665   2.893
 8761SOL    HW227183   5.395   1.647   3.041
 8762SOL     OW27184   3.146   4.982   3.501
 8762SOL    HW127185   3.084   4.917   3.456
 8762SOL    HW227186   3.101   5.020   3.582
 8763SOL     OW27187   0.556   0.388   6.578
 8763SOL    HW127188   0.467   0.390   6.532
 8763SOL    HW227189   0.599   0.299   6.562
 8764SOL     OW27190   2.833   5.167   5.354
 8764SOL    HW127191   2.933   5.160   5.354
 8764SOL    HW227192   2.793   5.079   5.331
 8765SOL     OW27193   4.062   6.427   4.495
 8765SOL    HW127194   4.060   6.525   4.516
 8765SOL    HW227195   4.021   6.411   4.405
 8766SOL     OW27196   4.549   6.661   6.079
 8766SOL    HW127197   4.576   6.739   6.023
 8766SOL    HW227198   4.536   6.581   6.020
 8767SOL     OW27199   1.784   0.747   3.863
 8767SOL    HW127200   1.697   0.703   3.882
 8767SOL    HW227201   1.770   0.824   3.800
 8768SOL     OW27202   6.657   1.877   6.547
 8768SOL    HW127203   6.572   1.827   6.531
 8768SOL    HW227204   6.677   1.878   6.645
 8769SOL     OW27205   6.114   0.139   0.218
 8769SOL    HW127206   6.016   0.118   0.216
 8769SOL    HW227207   6.137   0.183   0.305
 8770SOL     OW27208   5.235   2.565   0.261
 8770SOL    HW127209   5.189   2.477   0.274
 8770SOL    HW227210   5.327   2.560   0.299
 8771SOL     OW27211   0.355   2.695   7.011
 8771SOL    HW127212   0.283   2.649   0.042
 8771SOL    HW227213   0.398   2.765   0.049
 8772SOL     OW27214   6.980   0.427   4.307
 8772SOL    HW127215   6.985   0.333   4.273
 8772SOL    HW227216   6.885   0.450   4.327
 8773SOL     OW27217   0.422   0.616   4.535
 8773SOL    HW127218   0.479   0.611   4.454
 8773SOL    HW227219   0.417   0.526   4.578
 8774SOL     OW27220   0.802   1.102   0.346
 8774SOL    HW127221   0.837   1.194   0.324
 8774SOL    HW227222   0.878   1.036   0.341
 8775SOL     OW27223   6.045   2.874   3.690
 8775SOL    HW127224   6.086   2.873   3.782
 8775SOL    HW227225   6.106   2.826   3.626
 8776SOL     OW27226   4.552   2.724   0.532
 8776SOL    HW127227   4.577   2.627   0.535
 8776SOL    HW227228   4.470   2.739   0.587
 8777SOL     OW27229   6.643   2.367   2.786
 8777SOL    HW127230   6.679   2.351   2.694
 8777SOL    HW227231   6.646   2.282   2.838
 8778SOL     OW27232   3.159   5.059   6.967
 8778SOL    HW127233   3.156   5.155   6.939
 8778SOL    HW227234   3.211   5.051   0.032
 8779SOL     OW27235   4.182   4.814   3.026
 8779SOL    HW127236   4.214   4.840   3.117
 8779SOL    HW227237   4.087   4.843   3.014
 8780SOL     OW27238   0.273   4.651   3.578
 8780SOL    HW127239   0.206   4.614   3.643
 8780SOL    HW227240   0.346   4.697   3.628
 8781SOL     OW27241   3.244   0.874   1.840
 8781SOL    HW127242   3.239   0.866   1.940
 8781SOL    HW227243   3.329   0.920   1.815
 8782SOL     OW27244   5.339   2.266   0.917
 8782SOL    HW127245   5.403   2.289   0.990
 8782SOL    HW227246   5.386   2.269   0.829
 8783SOL     OW27247   5.321   3.675   4.815
 8783SOL    HW127248   5.244   3.739   4.811
 8783SOL    HW227249   5.360   3.675   4.907
 8784SOL     OW27250   4.623   0.982   0.573
 8784SOL    HW127251   4.682   1.052   0.532
 8784SOL    HW227252   4.533   0.985   0.530
 8785SOL     OW27253   0.182   5.659   5.076
 8785SOL    HW127254   0.159   5.751   5.046
 8785SOL    HW227255   0.110   5.596   5.049
 8786SOL     OW27256   5.115   1.413   2.578
 8786SOL    HW127257   5.070   1.326   2.600
 8786SOL    HW227258   5.165   1.403   2.492
 8787SOL     OW27259   3.688   5.711   0.623
 8787SOL    HW127260   3.732   5.648   0.687
 8787SOL    HW227261   3.611   5.756   0.668
 8788SOL     OW27262   0.124   0.069   3.518
 8788SOL    HW127263   0.096   0.165   3.523
 8788SOL    HW227264   0.118   0.027   3.609
 8789SOL     OW27265   0.573   2.584   6.204
 8789SOL    HW127266   0.565   2.544   6.113
 8789SOL    HW227267   0.484   2.617   6.234
 8790SOL     OW27268   4.444   2.883   5.412
 8790SOL    HW127269   4.414   2.940   5.489
 8790SOL    HW227270   4.400   2.794   5.417
 8791SOL     OW27271   3.135   6.177   4.762
 8791SOL    HW127272   3.101   6.085   4.780
 8791SOL    HW227273   3.234   6.176   4.754
 8792SOL     OW27274   5.374   4.423   1.793
 8792SOL    HW127275   5.380   4.496   1.725
 8792SOL    HW227276   5.427   4.449   1.874
 8793SOL     OW27277   0.177   6.077   4.856
 8793SOL    HW127278   0.273   6.070   4.885
 8793SOL    HW227279   0.155   6.172   4.835
 8794SOL     OW27280   6.538   1.255   2.400
 8794SOL    HW127281   6.607   1.205   2.347
 8794SOL    HW227282   6.481   1.190   2.450
 8795SOL     OW27283   1.800   6.051   6.759
 8795SOL    HW127284   1.870   5.996   6.805
 8795SOL    HW227285   1.813   6.147   6.782
 8796SOL     OW27286   6.403   3.633   4.203
 8796SOL    HW127287   6.360   3.721   4.222
 8796SOL    HW227288   6.446   3.598   4.287
 8797SOL     OW27289   4.589   6.343   3.711
 8797SOL    HW127290   4.624   6.391   3.791
 8797SOL    HW227291   4.611   6.394   3.628
 8798SOL     OW27292   3.198   0.112   5.737
 8798SOL    HW127293   3.157   0.167   5.810
 8798SOL    HW227294   3.270   0.055   5.775
 8799SOL     OW27295   1.426   5.739   2.136
 8799SOL    HW127296   1.490   5.805   2.177
 8799SOL    HW227297   1.358   5.788   2.082
 8800SOL     OW27298   6.631   5.771   5.050
 8800SOL    HW127299   6.631   5.680   5.009
 8800SOL    HW227300   6.725   5.798   5.070
 8801SOL     OW27301   6.159   3.572   5.607
 8801SOL    HW127302   6.072   3.565   5.559
 8801SOL    HW227303   6.171   3.666   5.639
 8802SOL     OW27304   1.237   6.549   6.586
 8802SOL    HW127305   1.289   6.465   6.596
 8802SOL    HW227306   1.266   6.615   6.655
 8803SOL     OW27307   6.665   6.301   5.955
 8803SOL    HW127308   6.604   6.378   5.976
 8803SOL    HW227309   6.662   6.234   6.029
 8804SOL     OW27310   2.105   6.265   2.691
 8804SOL    HW127311   2.142   6.245   2.600
 8804SOL    HW227312   2.178   6.302   2.749
 8805SOL     OW27313   5.411   4.779   3.566
 8805SOL    HW127314   5.388   4.862   3.617
 8805SOL    HW227315   5.510   4.768   3.562
 8806SOL     OW27316   1.689   0.489   1.292
 8806SOL    HW127317   1.634   0.564   1.329
 8806SOL    HW227318   1.697   0.416   1.360
 8807SOL     OW27319   5.314   2.792   1.358
 8807SOL    HW127320   5.224   2.837   1.362
 8807SOL    HW227321   5.380   2.854   1.315
 8808SOL     OW27322   1.367   2.133   6.725
 8808SOL    HW127323   1.443   2.128   6.659
 8808SOL    HW227324   1.352   2.228   6.751
 8809SOL     OW27325   0.429   3.661   3.069
 8809SOL    HW127326   0.503   3.695   3.127
 8809SOL    HW227327   0.359   3.618   3.125
 8810SOL     OW27328   0.686   1.021   5.891
 8810SOL    HW127329   0.685   0.948   5.958
 8810SOL    HW227330   0.629   0.996   5.813
 8811SOL     OW27331   4.217   4.929   2.455
 8811SOL    HW127332   4.174   4.883   2.533
 8811SOL    HW227333   4.308   4.891   2.439
 8812SOL     OW27334   4.913   1.228   6.442
 8812SOL    HW127335   4.888   1.181   6.527
 8812SOL    HW227336   4.926   1.325   6.460
 8813SOL     OW27337   1.924   3.971   3.257
 8813SOL    HW127338   1.891   3.919   3.337
 8813SOL    HW227339   2.015   3.940   3.232
 8814SOL     OW27340   4.768   0.051   5.467
 8814SOL    HW127341   4.805   0.083   5.380
 8814SOL    HW227342   4.785   0.119   5.538
 8815SOL     OW27343   5.310   0.827   0.600
 8815SOL    HW127344   5.263   0.804   0.685
 8815SOL    HW227345   5.393   0.880   0.621
 8816SOL     OW27346   0.720   5.918   4.530
 8816SOL    HW127347   0.756   5.830   4.562
 8816SOL    HW227348   0.786   5.961   4.468
 8817SOL     OW27349   1.665   2.767   3.690
 8817SOL    HW127350   1.609   2.753   3.772
 8817SOL    HW227351   1.637   2.702   3.619
 8818SOL     OW27352   0.594   0.091   5.932
 8818SOL    HW127353   0.643   0.032   5.868
 8818SOL    HW227354   0.609   0.187   5.907
 8819SOL     OW27355   5.233   4.957   6.679
 8819SOL    HW127356   5.286   4.942   6.596
 8819SOL    HW227357   5.196   5.049   6.680
 8820SOL     OW27358   3.814   0.293   5.545
 8820SOL    HW127359   3.826   0.269   5.642
 8820SOL    HW227360   3.857   0.381   5.527
 8821SOL     OW27361   0.104   4.492   6.085
 8821SOL    HW127362   0.007   4.472   6.099
 8821SOL    HW227363   0.145   4.420   6.030
 8822SOL     OW27364   6.506   0.554   4.614
 8822SOL    HW127365   6.533   0.650   4.620
 8822SOL    HW227366   6.540   0.504   4.693
 8823SOL     OW27367   3.499   1.052   3.091
 8823SOL    HW127368   3.446   0.969   3.107
 8823SOL    HW227369   3.471   1.123   3.156
 8824SOL     OW27370   1.519   0.731   2.619
 8824SOL    HW127371   1.581   0.728   2.697
 8824SOL    HW227372   1.570   0.759   2.537
 8825SOL     OW27373   0.152   6.845   0.382
 8825SOL    HW127374   0.076   6.882   0.328
 8825SOL    HW227375   0.226   6.818   0.321
 8826SOL     OW27376   1.216   4.114   0.881
 8826SOL    HW127377   1.194   4.132   0.977
 8826SOL    HW227378   1.313   4.133   0.865
 8827SOL     OW27379   4.575   6.911   2.808
 8827SOL    HW127380   4.625   6.949   2.886
 8827SOL    HW227381   4.499   6.971   2.784
 8828SOL     OW27382   4.820   2.483   6.243
 8828SOL    HW127383   4.826   2.444   6.151
 8828SOL    HW227384   4.727   2.518   6.258
 8829SOL     OW27385   6.580   1.271   1.783
 8829SOL    HW127386   6.642   1.284   1.706
 8829SOL    HW227387   6.543   1.178   1.780
 8830SOL     OW27388   3.169   0.880   3.439
 8830SOL    HW127389   3.157   0.827   3.354
 8830SOL    HW227390   3.212   0.822   3.508
 8831SOL     OW27391   0.482   2.758   2.049
 8831SOL    HW127392   0.513   2.850   2.074
 8831SOL    HW227393   0.542   2.690   2.091
 8832SOL     OW27394   5.368   0.640   5.200
 8832SOL    HW127395   5.294   0.682   5.252
 8832SOL    HW227396   5.338   0.624   5.106
 8833SOL     OW27397   5.312   2.702   1.879
 8833SOL    HW127398   5.328   2.744   1.789
 8833SOL    HW227399   5.230   2.741   1.920
 8834SOL     OW27400   6.139   3.860   5.349
 8834SOL    HW127401   6.091   3.947   5.338
 8834SOL    HW227402   6.233   3.870   5.316
 8835SOL     OW27403   6.720   0.484   5.660
 8835SOL    HW127404   6.803   0.518   5.705
 8835SOL    HW227405   6.718   0.516   5.565
 8836SOL     OW27406   4.532   1.452   1.591
 8836SOL    HW127407   4.587   1.512   1.649
 8836SOL    HW227408   4.586   1.423   1.512
 8837SOL     OW27409   3.498   6.508   0.398
 8837SOL    HW127410   3.569   6.577   0.407
 8837SOL    HW227411   3.500   6.446   0.476
 8838SOL     OW27412   1.416   3.702   3.553
 8838SOL    HW127413   1.475   3.622   3.557
 8838SOL    HW227414   1.472   3.784   3.544
 8839SOL     OW27415   5.465   5.583   2.548
 8839SOL    HW127416   5.526   5.661   2.560
 8839SOL    HW227417   5.371   5.614   2.535
 8840SOL     OW27418   6.699   0.394   1.279
 8840SOL    HW127419   6.717   0.335   1.200
 8840SOL    HW227420   6.657   0.479   1.247
 8841SOL     OW27421   3.605   0.503   1.005
 8841SOL    HW127422   3.609   0.472   0.910
 8841SOL    HW227423   3.635   0.430   1.066
 8842SOL     OW27424   3.899   3.998   4.404
 8842SOL    HW127425   3.940   4.069   4.347
 8842SOL    HW227426   3.949   3.912   4.392
 8843SOL     OW27427   2.907   6.136   6.610
 8843SOL    HW127428   2.894   6.226   6.651
 8843SOL    HW227429   2.853   6.068   6.661
 8844SOL     OW27430   3.457   2.617   6.522
 8844SOL    HW127431   3.429   2.685   6.454
 8844SOL    HW227432   3.550   2.639   6.553
 8845SOL     OW27433   6.651   4.196   2.206
 8845SOL    HW127434   6.693   4.105   2.199
 8845SOL    HW227435   6.689   4.255   2.134
 8846SOL     OW27436   5.433   4.284   4.659
 8846SOL    HW127437   5.409   4.188   4.646
 8846SOL    HW227438   5.496   4.313   4.587
 8847SOL     OW27439   1.800   1.935   3.739
 8847SOL    HW127440   1.791   1.870   3.814
 8847SOL    HW227441   1.715   1.937   3.686
 8848SOL     OW27442   5.446   1.216   0.302
 8848SOL    HW127443   5.347   1.210   0.318
 8848SOL    HW227444   5.466   1.301   0.254
 8849SOL     OW27445   2.878   4.875   4.558
 8849SOL    HW127446   2.970   4.906   4.581
 8849SOL    HW227447   2.833   4.840   4.640
 8850SOL     OW27448   3.199   1.191   1.199
 8850SOL    HW127449   3.121   1.129   1.188
 8850SOL    HW227450   3.165   1.282   1.221
 8851SOL     OW27451   6.724   4.678   2.104
 8851SOL    HW127452   6.761   4.630   2.184
 8851SOL    HW227453   6.795   4.686   2.035
 8852SOL     OW27454   4.585   2.692   4.699
 8852SOL    HW127455   4.614   2.709   4.793
 8852SOL    HW227456   4.503   2.633   4.699
 8853SOL     OW27457   4.125   1.280   5.638
 8853SOL    HW127458   4.055   1.303   5.570
 8853SOL    HW227459   4.120   1.345   5.714
 8854SOL     OW27460   1.334   1.803   6.706
 8854SOL    HW127461   1.335   1.758   6.795
 8854SOL    HW227462   1.343   1.902   6.719
 8855SOL     OW27463   6.342   5.060   0.304
 8855SOL    HW127464   6.421   5.014   0.266
 8855SOL    HW227465   6.263   4.998   0.303
 8856SOL     OW27466   5.501   0.986   4.352
 8856SOL    HW127467   5.476   0.909   4.293
 8856SOL    HW227468   5.600   0.997   4.353
 8857SOL     OW27469   6.988   2.477   4.901
 8857SOL    HW127470   0.010   2.568   4.900
 8857SOL    HW227471   0.010   2.421   4.829
 8858SOL     OW27472   0.173   4.407   6.516
 8858SOL    HW127473   0.199   4.502   6.500
 8858SOL    HW227474   0.219   4.348   6.450
 8859SOL     OW27475   2.903   5.265   5.059
 8859SOL    HW127476   2.952   5.319   4.992
 8859SOL    HW227477   2.929   5.169   5.050
 8860SOL     OW27478   1.360   2.806   1.513
 8860SOL    HW127479   1.273   2.820   1.465
 8860SOL    HW227480   1.366   2.711   1.544
 8861SOL     OW27481   2.869   2.850   0.561
 8861SOL    HW127482   2.949   2.830   0.617
 8861SOL    HW227483   2.837   2.943   0.580
 8862SOL     OW27484   6.679   2.236   4.653
 8862SOL    HW127485   6.676   2.247   4.752
 8862SOL    HW227486   6.666   2.139   4.630
 8863SOL     OW27487   1.824   5.529   5.230
 8863SOL    HW127488   1.830   5.625   5.203
 8863SOL    HW227489   1.814   5.472   5.148
 8864SOL     OW27490   0.923   3.097   6.257
 8864SOL    HW127491   0.868   3.037   6.316
 8864SOL    HW227492   0.992   3.144   6.313
 8865SOL     OW27493   2.436   2.326   6.036
 8865SOL    HW127494   2.428   2.373   5.948
 8865SOL    HW227495   2.515   2.361   6.085
 8866SOL     OW27496   4.009   0.163   5.429
 8866SOL    HW127497   3.945   0.200   5.497
 8866SOL    HW227498   4.072   0.235   5.400
 8867SOL     OW27499   6.896   2.470   3.706
 8867SOL    HW127500   6.839   2.389   3.692
 8867SOL    HW227501   6.989   2.450   3.676
 8868SOL     OW27502   4.491   3.894   1.146
 8868SOL    HW127503   4.434   3.929   1.221
 8868SOL    HW227504   4.578   3.944   1.144
 8869SOL     OW27505   5.320   3.052   3.835
 8869SOL    HW127506   5.265   2.969   3.838
 8869SOL    HW227507   5.260   3.132   3.831
 8870SOL     OW27508   3.875   1.623   0.844
 8870SOL    HW127509   3.779   1.624   0.872
 8870SOL    HW227510   3.880   1.628   0.744
 8871SOL     OW27511   1.744   1.913   4.382
 8871SOL    HW127512   1.781   1.992   4.431
 8871SOL    HW227513   1.769   1.920   4.285
 8872SOL     OW27514   2.060   3.284   3.617
 8872SOL    HW127515   1.964   3.294   3.644
 8872SOL    HW227516   2.114   3.257   3.696
 8873SOL     OW27517   6.628   6.276   4.827
 8873SOL    HW127518   6.695   6.349   4.842
 8873SOL    HW227519   6.659   6.193   4.872
 8874SOL     OW27520   1.742   1.160   0.291
 8874SOL    HW127521   1.821   1.185   0.348
 8874SOL    HW227522   1.719   1.237   0.231
 8875SOL     OW27523   1.753   1.732   3.938
 8875SOL    HW127524   1.656   1.729   3.913
 8875SOL    HW227525   1.791   1.640   3.935
 8876SOL     OW27526   1.995   0.048   4.370
 8876SOL    HW127527   1.929   7.017   4.314
 8876SOL    HW227528   1.974   0.146   4.366
 8877SOL     OW27529   2.489   6.548   5.026
 8877SOL    HW127530   2.493   6.521   4.930
 8877SOL    HW227531   2.514   6.471   5.084
 8878SOL     OW27532   6.243   4.287   6.409
 8878SOL    HW127533   6.176   4.336   6.464
 8878SOL    HW227534   6.316   4.252   6.467
 8879SOL     OW27535   4.528   5.711   4.679
 8879SOL    HW127536   4.576   5.723   4.767
 8879SOL    HW227537   4.518   5.801   4.635
 8880SOL     OW27538   6.943   5.577   5.261
 8880SOL    HW127539   6.985   5.544   5.345
 8880SOL    HW227540   6.986   5.534   5.182
 8881SOL     OW27541   6.950   0.564   2.296
 8881SOL    HW127542   6.984   0.577   2.203
 8881SOL    HW227543   6.890   0.485   2.299
 8882SOL     OW27544   5.862   2.040   6.567
 8882SOL    HW127545   5.878   2.119   6.625
 8882SOL    HW227546   5.881   1.956   6.619
 8883SOL     OW27547   6.486   1.082   5.238
 8883SOL    HW127548   6.434   1.168   5.237
 8883SOL    HW227549   6.475   1.038   5.327
 8884SOL     OW27550   6.165   0.443   5.610
 8884SOL    HW127551   6.242   0.488   5.655
 8884SOL    HW227552   6.079   0.483   5.643
 8885SOL     OW27553   4.956   3.570   1.526
 8885SOL    HW127554   4.893   3.505   1.568
 8885SOL    HW227555   4.968   3.547   1.429
 8886SOL     OW27556   3.133   6.943   6.714
 8886SOL    HW127557   3.092   6.892   6.638
 8886SOL    HW227558   3.177   0.005   6.678
 8887SOL     OW27559   2.160   0.717   1.293
 8887SOL    HW127560   2.207   0.751   1.212
 8887SOL    HW227561   2.063   0.705   1.272
 8888SOL     OW27562   2.921   1.138   3.042
 8888SOL    HW127563   2.921   1.233   3.010
 8888SOL    HW227564   3.012   1.098   3.028
 8889SOL     OW27565   3.750   0.133   5.145
 8889SOL    HW127566   3.696   0.215   5.162
 8889SOL    HW227567   3.698   0.069   5.089
 8890SOL     OW27568   1.071   4.902   4.477
 8890SOL    HW127569   1.121   4.832   4.427
 8890SOL    HW227570   1.088   4.892   4.575
 8891SOL     OW27571   3.189   1.701   6.861
 8891SOL    HW127572   3.111   1.649   6.826
 8891SOL    HW227573   3.155   1.777   6.917
 8892SOL     OW27574   1.154   6.584   2.496
 8892SOL    HW127575   1.235   6.526   2.483
 8892SOL    HW227576   1.093   6.575   2.417
 8893SOL     OW27577   0.788   1.599   1.695
 8893SOL    HW127578   0.731   1.538   1.640
 8893SOL    HW227579   0.829   1.669   1.637
 8894SOL     OW27580   3.833   3.412   6.585
 8894SOL    HW127581   3.813   3.495   6.636
 8894SOL    HW227582   3.912   3.426   6.526
 8895SOL     OW27583   0.487   6.835   1.773
 8895SOL    HW127584   0.424   6.883   1.711
 8895SOL    HW227585   0.490   6.883   1.861
 8896SOL     OW27586   2.142   4.001   5.250
 8896SOL    HW127587   2.202   4.015   5.172
 8896SOL    HW227588   2.175   3.924   5.305
 8897SOL     OW27589   1.333   2.284   1.575
 8897SOL    HW127590   1.362   2.188   1.583
 8897SOL    HW227591   1.412   2.344   1.593
 8898SOL     OW27592   6.288   3.317   4.801
 8898SOL    HW127593   6.294   3.223   4.835
 8898SOL    HW227594   6.342   3.325   4.717
 8899SOL     OW27595   2.476   4.358   0.161
 8899SOL    HW127596   2.415   4.411   0.219
 8899SOL    HW227597   2.500   4.412   0.080
 8900SOL     OW27598   5.754   2.042   3.241
 8900SOL    HW127599   5.712   1.975   3.180
 8900SOL    HW227600   5.788   1.996   3.323
 8901SOL     OW27601   2.206   6.856   2.539
 8901SOL    HW127602   2.186   6.799   2.618
 8901SOL    HW227603   2.202   6.952   2.565
 8902SOL     OW27604   1.832   5.483   6.235
 8902SOL    HW127605   1.865   5.568   6.195
 8902SOL    HW227606   1.811   5.497   6.332
 8903SOL     OW27607   1.265   1.618   3.548
 8903SOL    HW127608   1.253   1.656   3.456
 8903SOL    HW227609   1.294   1.523   3.542
 8904SOL     OW27610   1.313   5.661   3.501
 8904SOL    HW127611   1.412   5.651   3.503
 8904SOL    HW227612   1.282   5.703   3.586
 8905SOL     OW27613   2.740   4.050   5.273
 8905SOL    HW127614   2.640   4.056   5.266
 8905SOL    HW227615   2.773   3.981   5.207
 8906SOL     OW27616   1.691   5.275   5.163
 8906SOL    HW127617   1.709   5.269   5.261
 8906SOL    HW227618   1.693   5.184   5.123
 8907SOL     OW27619   3.503   2.753   5.378
 8907SOL    HW127620   3.452   2.776   5.295
 8907SOL    HW227621   3.569   2.681   5.358
 8908SOL     OW27622   0.083   2.595   1.498
 8908SOL    HW127623   7.019   2.616   1.548
 8908SOL    HW227624   0.074   2.624   1.403
 8909SOL     OW27625   3.062   0.280   5.919
 8909SOL    HW127626   2.966   0.253   5.912
 8909SOL    HW227627   3.096   0.260   6.011
 8910SOL     OW27628   3.701   4.276   6.924
 8910SOL    HW127629   3.675   4.248   6.832
 8910SOL    HW227630   3.783   4.226   6.952
 8911SOL     OW27631   3.456   2.067   4.101
 8911SOL    HW127632   3.375   2.109   4.060
 8911SOL    HW227633   3.463   2.096   4.197
 8912SOL     OW27634   4.869   2.553   5.585
 8912SOL    HW127635   4.810   2.474   5.597
 8912SOL    HW227636   4.840   2.627   5.646
 8913SOL     OW27637   5.021   3.723   0.784
 8913SOL    HW127638   4.943   3.666   0.809
 8913SOL    HW227639   5.005   3.764   0.694
 8914SOL     OW27640   4.181   1.948   3.982
 8914SOL    HW127641   4.138   2.038   3.984
 8914SOL    HW227642   4.279   1.957   3.999
 8915SOL     OW27643   1.428   5.243   1.823
 8915SOL    HW127644   1.470   5.152   1.822
 8915SOL    HW227645   1.355   5.245   1.890
 8916SOL     OW27646   6.749   3.959   1.491
 8916SOL    HW127647   6.748   3.991   1.396
 8916SOL    HW227648   6.676   4.006   1.542
 8917SOL     OW27649   5.820   5.678   6.155
 8917SOL    HW127650   5.897   5.739   6.173
 8917SOL    HW227651   5.735   5.722   6.184
 8918SOL     OW27652   4.386   4.538   6.233
 8918SOL    HW127653   4.439   4.512   6.314
 8918SOL    HW227654   4.387   4.638   6.223
 8919SOL     OW27655   2.229   4.227   1.019
 8919SOL    HW127656   2.284   4.253   0.940
 8919SOL    HW227657   2.275   4.153   1.068
 8920SOL     OW27658   6.299   5.907   5.773
 8920SOL    HW127659   6.341   5.893   5.683
 8920SOL    HW227660   6.204   5.933   5.761
 8921SOL     OW27661   1.254   6.731   3.661
 8921SOL    HW127662   1.195   6.741   3.581
 8921SOL    HW227663   1.311   6.813   3.670
 8922SOL     OW27664   6.236   4.363   0.022
 8922SOL    HW127665   6.307   4.297   0.044
 8922SOL    HW227666   6.178   4.328   6.968
 8923SOL     OW27667   1.952   4.139   5.421
 8923SOL    HW127668   2.003   4.148   5.336
 8923SOL    HW227669   1.935   4.230   5.459
 8924SOL     OW27670   2.542   5.985   5.482
 8924SOL    HW127671   2.519   5.979   5.385
 8924SOL    HW227672   2.545   6.081   5.510
 8925SOL     OW27673   6.074   6.945   2.261
 8925SOL    HW127674   6.063   6.875   2.331
 8925SOL    HW227675   6.073   0.016   2.303
 8926SOL     OW27676   5.903   1.562   0.459
 8926SOL    HW127677   5.843   1.483   0.475
 8926SOL    HW227678   5.957   1.548   0.376
 8927SOL     OW27679   2.613   1.790   5.129
 8927SOL    HW127680   2.679   1.738   5.183
 8927SOL    HW227681   2.633   1.778   5.031
 8928SOL     OW27682   0.376   0.149   5.188
 8928SOL    HW127683   0.377   0.070   5.127
 8928SOL    HW227684   0.333   0.124   5.275
 8929SOL     OW27685   5.932   3.684   4.599
 8929SOL    HW127686   5.962   3.778   4.581
 8929SOL    HW227687   6.011   3.628   4.622
 8930SOL     OW27688   1.118   4.640   4.813
 8930SOL    HW127689   1.151   4.573   4.880
 8930SOL    HW227690   1.064   4.710   4.861
 8931SOL     OW27691   5.442   0.872   1.128
 8931SOL    HW127692   5.511   0.882   1.056
 8931SOL    HW227693   5.469   0.799   1.191
 8932SOL     OW27694   6.777   0.489   6.946
 8932SOL    HW127695   6.693   0.454   6.987
 8932SOL    HW227696   6.770   0.484   6.846
 8933SOL     OW27697   1.933   6.752   5.683
 8933SOL    HW127698   1.913   6.834   5.629
 8933SOL    HW227699   1.928   6.774   5.780
 8934SOL     OW27700   4.542   6.629   2.898
 8934SOL    HW127701   4.633   6.639   2.858
 8934SOL    HW227702   4.497   6.719   2.902
 8935SOL     OW27703   5.729   2.754   3.463
 8935SOL    HW127704   5.679   2.758   3.376
 8935SOL    HW227705   5.725   2.661   3.499
 8936SOL     OW27706   1.967   4.751   2.474
 8936SOL    HW127707   1.948   4.691   2.553
 8936SOL    HW227708   1.886   4.805   2.452
 8937SOL     OW27709   5.081   6.843   5.731
 8937SOL    HW127710   5.098   6.871   5.825
 8937SOL    HW227711   5.161   6.863   5.675
 8938SOL     OW27712   5.756   6.910   2.090
 8938SOL    HW127713   5.702   6.994   2.100
 8938SOL    HW227714   5.697   6.831   2.102
 8939SOL     OW27715   0.346   2.853   3.754
 8939SOL    HW127716   0.383   2.944   3.769
 8939SOL    HW227717   0.381   2.791   3.824
 8940SOL     OW27718   6.477   2.739   1.004
 8940SOL    HW127719   6.440   2.650   0.980
 8940SOL    HW227720   6.447   2.807   0.938
 8941SOL     OW27721   4.507   2.403   1.916
 8941SOL    HW127722   4.536   2.497   1.899
 8941SOL    HW227723   4.467   2.397   2.008
 8942SOL     OW27724   5.931   4.109   4.340
 8942SOL    HW127725   5.853   4.047   4.326
 8942SOL    HW227726   5.989   4.109   4.259
 8943SOL     OW27727   4.778   3.626   0.929
 8943SOL    HW127728   4.828   3.638   1.014
 8943SOL    HW227729   4.714   3.702   0.917
 8944SOL     OW27730   5.426   5.471   5.097
 8944SOL    HW127731   5.342   5.424   5.070
 8944SOL    HW227732   5.500   5.445   5.035
 8945SOL     OW27733   5.053   4.185   3.219
 8945SOL    HW127734   5.080   4.216   3.311
 8945SOL    HW227735   5.099   4.099   3.199
 8946SOL     OW27736   4.784   1.132   5.127
 8946SOL    HW127737   4.783   1.133   5.027
 8946SOL    HW227738   4.764   1.039   5.159
 8947SOL     OW27739   2.351   5.032   6.483
 8947SOL    HW127740   2.415   4.985   6.542
 8947SOL    HW227741   2.398   5.104   6.433
 8948SOL     OW27742   5.239   1.114   3.058
 8948SOL    HW127743   5.232   1.026   3.105
 8948SOL    HW227744   5.239   1.099   2.959
 8949SOL     OW27745   3.789   6.041   0.870
 8949SOL    HW127746   3.793   6.093   0.955
 8949SOL    HW227747   3.816   5.946   0.887
 8950SOL     OW27748   4.055   3.542   1.083
 8950SOL    HW127749   4.124   3.479   1.049
 8950SOL    HW227750   4.096   3.604   1.150
 8951SOL     OW27751   1.478   0.590   4.504
 8951SOL    HW127752   1.398   0.627   4.455
 8951SOL    HW227753   1.448   0.547   4.589
 8952SOL     OW27754   2.131   4.809   3.826
 8952SOL    HW127755   2.206   4.867   3.795
 8952SOL    HW227756   2.148   4.715   3.797
 8953SOL     OW27757   1.144   5.006   1.108
 8953SOL    HW127758   1.240   5.026   1.090
 8953SOL    HW227759   1.132   4.986   1.206
 8954SOL     OW27760   2.598   4.308   5.840
 8954SOL    HW127761   2.515   4.342   5.797
 8954SOL    HW227762   2.649   4.384   5.880
 8955SOL     OW27763   5.334   2.489   4.761
 8955SOL    HW127764   5.382   2.502   4.674
 8955SOL    HW227765   5.246   2.535   4.758
 8956SOL     OW27766   0.804   6.235   0.255
 8956SOL    HW127767   0.766   6.152   0.295
 8956SOL    HW227768   0.826   6.300   0.328
 8957SOL     OW27769   6.982   6.366   2.904
 8957SOL    HW127770   7.008   6.382   2.809
 8957SOL    HW227771   0.014   6.428   2.963
 8958SOL     OW27772   1.905   3.115   4.816
 8958SOL    HW127773   1.866   3.200   4.850
 8958SOL    HW227774   1.832   3.048   4.801
 8959SOL     OW27775   6.435   2.665   3.395
 8959SOL    HW127776   6.499   2.670   3.472
 8959SOL    HW227777   6.452   2.580   3.344
 8960SOL     OW27778   5.412   4.667   2.922
 8960SOL    HW127779   5.354   4.745   2.898
 8960SOL    HW227780   5.416   4.659   3.022
 8961SOL     OW27781   1.869   1.435   5.096
 8961SOL    HW127782   1.943   1.412   5.158
 8961SOL    HW227783   1.822   1.517   5.128
 8962SOL     OW27784   6.772   5.838   1.962
 8962SOL    HW127785   6.719   5.847   2.046
 8962SOL    HW227786   6.710   5.826   1.885
 8963SOL     OW27787   4.414   6.433   5.616
 8963SOL    HW127788   4.377   6.402   5.704
 8963SOL    HW227789   4.492   6.376   5.591
 8964SOL     OW27790   1.726   2.851   4.561
 8964SOL    HW127791   1.679   2.898   4.635
 8964SOL    HW227792   1.808   2.903   4.535
 8965SOL     OW27793   3.704   5.779   6.107
 8965SOL    HW127794   3.613   5.775   6.064
 8965SOL    HW227795   3.736   5.686   6.125
 8966SOL     OW27796   4.254   6.115   4.621
 8966SOL    HW127797   4.156   6.137   4.630
 8966SOL    HW227798   4.276   6.102   4.525
 8967SOL     OW27799   3.318   0.183   3.275
 8967SOL    HW127800   3.321   0.262   3.214
 8967SOL    HW227801   3.347   0.211   3.367
 8968SOL     OW27802   3.343   4.982   2.420
 8968SOL    HW127803   3.338   4.959   2.322
 8968SOL    HW227804   3.411   5.054   2.434
 8969SOL     OW27805   1.122   1.009   2.517
 8969SOL    HW127806   1.183   0.953   2.573
 8969SOL    HW227807   1.048   0.952   2.482
 8970SOL     OW27808   1.890   0.009   3.883
 8970SOL    HW127809   1.935   6.945   3.915
 8970SOL    HW227810   1.953   0.086   3.896
 8971SOL     OW27811   3.218   4.561   0.270
 8971SOL    HW127812   3.287   4.490   0.255
 8971SOL    HW227813   3.260   4.637   0.321
 8972SOL     OW27814   5.984   4.032   6.712
 8972SOL    HW127815   6.037   3.965   6.660
 8972SOL    HW227816   5.923   3.984   6.775
 8973SOL     OW27817   1.763   2.588   2.852
 8973SOL    HW127818   1.707   2.642   2.789
 8973SOL    HW227819   1.785   2.642   2.933
 8974SOL     OW27820   2.424   4.513   4.880
 8974SOL    HW127821   2.485   4.557   4.946
 8974SOL    HW227822   2.373   4.440   4.925
 8975SOL     OW27823   0.283   5.268   5.591
 8975SOL    HW127824   0.289   5.328   5.671
 8975SOL    HW227825   0.349   5.193   5.600
 8976SOL     OW27826   6.084   0.361   2.592
 8976SOL    HW127827   6.166   0.410   2.624
 8976SOL    HW227828   6.111   0.286   2.532
 8977SOL     OW27829   6.400   4.334   6.180
 8977SOL    HW127830   6.365   4.313   6.271
 8977SOL    HW227831   6.336   4.300   6.111
 8978SOL     OW27832   6.051   5.952   6.934
 8978SOL    HW127833   6.107   5.901   6.999
 8978SOL    HW227834   6.075   6.049   6.937
 8979SOL     OW27835   1.503   5.150   4.772
 8979SOL    HW127836   1.455   5.065   4.751
 8979SOL    HW227837   1.561   5.175   4.694
 8980SOL     OW27838   3.673   0.886   6.789
 8980SOL    HW127839   3.726   0.808   6.824
 8980SOL    HW227840   3.582   0.884   6.829
 8981SOL     OW27841   4.763   3.742   6.549
 8981SOL    HW127842   4.747   3.718   6.453
 8981SOL    HW227843   4.860   3.765   6.561
 8982SOL     OW27844   0.353   2.123   2.059
 8982SOL    HW127845   0.363   2.091   1.965
 8982SOL    HW227846   0.288   2.199   2.061
 8983SOL     OW27847   1.928   6.186   2.257
 8983SOL    HW127848   1.898   6.281   2.244
 8983SOL    HW227849   1.851   6.132   2.292
 8984SOL     OW27850   6.870   0.892   4.059
 8984SOL    HW127851   6.958   0.908   4.013
 8984SOL    HW227852   6.881   0.818   4.125
 8985SOL     OW27853   5.044   1.726   1.870
 8985SOL    HW127854   5.074   1.771   1.786
 8985SOL    HW227855   5.059   1.627   1.861
 8986SOL     OW27856   6.986   4.824   0.077
 8986SOL    HW127857   0.013   4.749   0.029
 8986SOL    HW227858   0.013   4.842   0.163
 8987SOL     OW27859   2.237   6.042   1.724
 8987SOL    HW127860   2.292   6.120   1.695
 8987SOL    HW227861   2.296   5.976   1.771
 8988SOL     OW27862   2.379   6.691   1.184
 8988SOL    HW127863   2.337   6.621   1.241
 8988SOL    HW227864   2.377   6.779   1.233
 8989SOL     OW27865   5.417   1.407   3.428
 8989SOL    HW127866   5.452   1.356   3.350
 8989SOL    HW227867   5.397   1.344   3.503
 8990SOL     OW27868   2.822   0.469   2.219
 8990SOL    HW127869   2.920   0.448   2.225
 8990SOL    HW227870   2.806   0.562   2.252
 8991SOL     OW27871   1.129   1.605   0.586
 8991SOL    HW127872   1.102   1.694   0.621
 8991SOL    HW227873   1.048   1.548   0.573
 8992SOL     OW27874   0.578   4.006   6.229
 8992SOL    HW127875   0.565   4.004   6.328
 8992SOL    HW227876   0.493   3.977   6.183
 8993SOL     OW27877   5.425   3.621   5.087
 8993SOL    HW127878   5.388   3.532   5.058
 8993SOL    HW227879   5.373   3.654   5.166
 8994SOL     OW27880   1.130   5.659   2.770
 8994SOL    HW127881   1.093   5.572   2.801
 8994SOL    HW227882   1.218   5.645   2.726
 8995SOL     OW27883   2.056   3.845   4.911
 8995SOL    HW127884   2.111   3.915   4.956
 8995SOL    HW227885   1.982   3.889   4.859
 8996SOL     OW27886   1.483   3.979   1.915
 8996SOL    HW127887   1.517   3.921   1.841
 8996SOL    HW227888   1.391   4.012   1.893
 8997SOL     OW27889   4.298   1.961   5.480
 8997SOL    HW127890   4.215   1.926   5.524
 8997SOL    HW227891   4.363   1.991   5.550
 8998SOL     OW27892   0.831   1.691   6.321
 8998SOL    HW127893   0.849   1.753   6.398
 8998SOL    HW227894   0.884   1.607   6.333
 8999SOL     OW27895   5.212   1.045   5.015
 8999SOL    HW127896   5.181   1.122   5.071
 8999SOL    HW227897   5.150   0.967   5.027
 9000SOL     OW27898   2.434   4.131   0.275
 9000SOL    HW127899   2.453   4.209   0.216
 9000SOL    HW227900   2.399   4.055   0.219
 9001SOL     OW27901   1.748   4.488   3.799
 9001SOL    HW127902   1.797   4.574   3.793
 9001SOL    HW227903   1.766   4.432   3.718
 9002SOL     OW27904   5.226   4.649   5.673
 9002SOL    HW127905   5.287   4.638   5.751
 9002SOL    HW227906   5.183   4.561   5.652
 9003SOL     OW27907   6.246   3.313   6.155
 9003SOL    HW127908   6.259   3.230   6.100
 9003SOL    HW227909   6.271   3.294   6.250
 9004SOL     OW27910   4.738   5.428   0.568
 9004SOL    HW127911   4.767   5.346   0.519
 9004SOL    HW227912   4.706   5.403   0.659
 9005SOL     OW27913   4.359   2.431   3.009
 9005SOL    HW127914   4.438   2.376   2.982
 9005SOL    HW227915   4.389   2.502   3.073
 9006SOL     OW27916   1.990   6.447   0.808
 9006SOL    HW127917   1.935   6.448   0.891
 9006SOL    HW227918   2.037   6.535   0.798
 9007SOL     OW27919   2.504   6.599   4.035
 9007SOL    HW127920   2.559   6.573   3.956
 9007SOL    HW227921   2.481   6.517   4.088
 9008SOL     OW27922   6.396   4.536   2.761
 9008SOL    HW127923   6.471   4.551   2.825
 9008SOL    HW227924   6.309   4.554   2.807
 9009SOL     OW27925   4.096   6.068   1.118
 9009SOL    HW127926   4.143   6.149   1.150
 9009SOL    HW227927   4.000   6.090   1.101
 9010SOL     OW27928   0.997   5.529   4.866
 9010SOL    HW127929   1.095   5.525   4.844
 9010SOL    HW227930   0.980   5.607   4.927
 9011SOL     OW27931   4.078   1.857   1.822
 9011SOL    HW127932   4.059   1.783   1.887
 9011SOL    HW227933   4.059   1.825   1.729
 9012SOL     OW27934   6.221   5.432   1.776
 9012SOL    HW127935   6.228   5.343   1.822
 9012SOL    HW227936   6.210   5.504   1.844
 9013SOL     OW27937   4.947   5.942   2.853
 9013SOL    HW127938   4.917   5.865   2.798
 9013SOL    HW227939   4.971   5.911   2.944
 9014SOL     OW27940   2.507   0.787   0.746
 9014SOL    HW127941   2.427   0.771   0.805
 9014SOL    HW227942   2.548   0.875   0.770
 9015SOL     OW27943   6.527   1.518   5.203
 9015SOL    HW127944   6.444   1.554   5.159
 9015SOL    HW227945   6.574   1.456   5.140
 9016SOL     OW27946   6.819   6.070   6.476
 9016SOL    HW127947   6.781   6.138   6.539
 9016SOL    HW227948   6.801   6.098   6.381
 9017SOL     OW27949   0.338   4.323   3.934
 9017SOL    HW127950   0.434   4.311   3.961
 9017SOL    HW227951   0.311   4.246   3.875
 9018SOL     OW27952   3.409   1.780   5.911
 9018SOL    HW127953   3.325   1.831   5.930
 9018SOL    HW227954   3.427   1.781   5.812
 9019SOL     OW27955   1.865   6.260   0.085
 9019SOL    HW127956   1.789   6.325   0.090
 9019SOL    HW227957   1.915   6.273   7.019
 9020SOL     OW27958   0.173   4.684   2.736
 9020SOL    HW127959   0.256   4.687   2.791
 9020SOL    HW227960   0.112   4.612   2.771
 9021SOL     OW27961   6.521   5.981   4.904
 9021SOL    HW127962   6.585   5.984   4.827
 9021SOL    HW227963   6.555   5.919   4.974
 9022SOL     OW27964   3.326   1.337   6.192
 9022SOL    HW127965   3.280   1.341   6.281
 9022SOL    HW227966   3.269   1.382   6.123
 9023SOL     OW27967   3.249   2.978   3.061
 9023SOL    HW127968   3.230   2.924   3.143
 9023SOL    HW227969   3.307   3.056   3.084
 9024SOL     OW27970   1.777   0.350   6.392
 9024SOL    HW127971   1.840   0.404   6.447
 9024SOL    HW227972   1.804   0.355   6.296
 9025SOL     OW27973   0.110   4.288   1.130
 9025SOL    HW127974   0.073   4.198   1.151
 9025SOL    HW227975   0.209   4.289   1.147
 9026SOL     OW27976   3.081   3.424   5.399
 9026SOL    HW127977   3.015   3.485   5.442
 9026SOL    HW227978   3.036   3.373   5.325
 9027SOL     OW27979   2.572   2.326   2.857
 9027SOL    HW127980   2.561   2.425   2.856
 9027SOL    HW227981   2.558   2.292   2.950
 9028SOL     OW27982   2.193   4.804   5.268
 9028SOL    HW127983   2.235   4.731   5.323
 9028SOL    HW227984   2.218   4.792   5.172
 9029SOL     OW27985   4.720   5.066   2.825
 9029SOL    HW127986   4.776   5.103   2.899
 9029SOL    HW227987   4.629   5.042   2.860
 9030SOL     OW27988   3.014   1.619   1.546
 9030SOL    HW127989   3.059   1.695   1.499
 9030SOL    HW227990   3.058   1.605   1.635
 9031SOL     OW27991   1.745   0.959   0.639
 9031SOL    HW127992   1.729   1.039   0.697
 9031SOL    HW227993   1.795   0.987   0.557
 9032SOL     OW27994   1.282   1.809   2.784
 9032SOL    HW127995   1.317   1.853   2.866
 9032SOL    HW227996   1.216   1.870   2.739
 9033SOL     OW27997   1.590   3.641   2.735
 9033SOL    HW127998   1.672   3.592   2.705
 9033SOL    HW227999   1.519   3.575   2.759
 9034SOL     OW28000   1.585   0.297   5.718
 9034SOL    HW128001   1.657   0.242   5.674
 9034SOL    HW228002   1.496   0.270   5.680
 9035SOL     OW28003   6.689   0.713   4.290
 9035SOL    HW128004   6.598   0.754   4.281
 9035SOL    HW228005   6.748   0.775   4.342
 9036SOL     OW28006   0.992   1.527   5.290
 9036SOL    HW128007   0.979   1.618   5.329
 9036SOL    HW228008   1.090   1.509   5.282
 9037SOL     OW28009   2.651   3.782   6.167
 9037SOL    HW128010   2.742   3.806   6.135
 9037SOL    HW228011   2.654   3.692   6.211
 9038SOL     OW28012   5.627   6.781   5.585
 9038SOL    HW128013   5.716   6.778   5.630
 9038SOL    HW228014   5.623   6.711   5.514
 9039SOL     OW28015   2.106   5.058   6.278
 9039SOL    HW128016   2.065   5.028   6.192
 9039SOL    HW228017   2.099   5.158   6.285
 9040SOL     OW28018   2.404   1.675   1.918
 9040SOL    HW128019   2.318   1.695   1.871
 9040SOL    HW228020   2.481   1.694   1.857
 9041SOL     OW28021   1.636   3.071   7.011
 9041SOL    HW128022   1.716   3.130   7.011
 9041SOL    HW228023   1.656   2.986   6.962
 9042SOL     OW28024   2.545   5.430   3.604
 9042SOL    HW128025   2.545   5.436   3.704
 9042SOL    HW228026   2.451   5.423   3.571
 9043SOL     OW28027   6.983   2.430   0.667
 9043SOL    HW128028   6.953   2.487   0.743
 9043SOL    HW228029   6.904   2.398   0.615
 9044SOL     OW28030   6.506   4.804   0.534
 9044SOL    HW128031   6.594   4.851   0.532
 9044SOL    HW228032   6.499   4.743   0.454
 9045SOL     OW28033   3.444   6.014   4.063
 9045SOL    HW128034   3.523   5.958   4.087
 9045SOL    HW228035   3.476   6.104   4.031
 9046SOL     OW28036   3.551   4.291   6.016
 9046SOL    HW128037   3.508   4.378   5.993
 9046SOL    HW228038   3.591   4.250   5.934
 9047SOL     OW28039   1.407   4.580   4.760
 9047SOL    HW128040   1.440   4.499   4.807
 9047SOL    HW228041   1.342   4.628   4.818
 9048SOL     OW28042   1.398   2.469   5.058
 9048SOL    HW128043   1.340   2.468   4.976
 9048SOL    HW228044   1.491   2.442   5.033
 9049SOL     OW28045   5.049   6.001   6.434
 9049SOL    HW128046   5.020   6.096   6.423
 9049SOL    HW228047   5.098   5.972   6.352
 9050SOL     OW28048   0.158   6.086   5.566
 9050SOL    HW128049   0.194   6.001   5.604
 9050SOL    HW228050   0.233   6.138   5.525
 9051SOL     OW28051   5.058   6.420   6.206
 9051SOL    HW128052   4.988   6.458   6.145
 9051SOL    HW228053   5.107   6.346   6.159
 9052SOL     OW28054   2.175   5.173   4.814
 9052SOL    HW128055   2.079   5.151   4.833
 9052SOL    HW228056   2.233   5.133   4.884
 9053SOL     OW28057   2.471   1.479   3.992
 9053SOL    HW128058   2.568   1.458   4.000
 9053SOL    HW228059   2.450   1.561   4.044
 9054SOL     OW28060   3.827   0.342   1.147
 9054SOL    HW128061   3.915   0.350   1.099
 9054SOL    HW228062   3.843   0.319   1.243
 9055SOL     OW28063   0.833   1.531   4.337
 9055SOL    HW128064   0.910   1.594   4.332
 9055SOL    HW228065   0.763   1.558   4.270
 9056SOL     OW28066   5.793   1.430   2.542
 9056SOL    HW128067   5.764   1.526   2.545
 9056SOL    HW228068   5.832   1.405   2.631
 9057SOL     OW28069   4.234   6.838   6.907
 9057SOL    HW128070   4.318   6.857   6.958
 9057SOL    HW228071   4.157   6.828   6.970
 9058SOL     OW28072   2.016   2.464   4.733
 9058SOL    HW128073   2.011   2.426   4.826
 9058SOL    HW228074   2.030   2.563   4.738
 9059SOL     OW28075   6.456   0.788   3.213
 9059SOL    HW128076   6.399   0.773   3.294
 9059SOL    HW228077   6.444   0.712   3.149
 9060SOL     OW28078   1.010   5.535   1.968
 9060SOL    HW128079   0.948   5.513   1.892
 9060SOL    HW228080   1.103   5.541   1.934
 9061SOL     OW28081   5.898   4.054   2.812
 9061SOL    HW128082   5.819   4.058   2.873
 9061SOL    HW228083   5.867   4.057   2.717
 9062SOL     OW28084   0.570   5.865   2.871
 9062SOL    HW128085   0.559   5.766   2.863
 9062SOL    HW228086   0.661   5.886   2.906
 9063SOL     OW28087   4.584   1.813   1.720
 9063SOL    HW128088   4.522   1.875   1.767
 9063SOL    HW228089   4.651   1.866   1.667
 9064SOL     OW28090   0.582   5.614   2.972
 9064SOL    HW128091   0.485   5.594   2.961
 9064SOL    HW228092   0.603   5.624   3.070
 9065SOL     OW28093   2.906   4.357   5.638
 9065SOL    HW128094   2.879   4.358   5.542
 9065SOL    HW228095   2.914   4.451   5.672
 9066SOL     OW28096   4.889   4.725   4.482
 9066SOL    HW128097   4.841   4.679   4.407
 9066SOL    HW228098   4.973   4.676   4.504
 9067SOL     OW28099   0.957   5.992   4.455
 9067SOL    HW128100   1.030   5.968   4.391
 9067SOL    HW228101   0.995   6.000   4.547
 9068SOL     OW28102   4.616   0.123   6.051
 9068SOL    HW128103   4.619   0.159   5.958
 9068SOL    HW228104   4.642   0.195   6.116
 9069SOL     OW28105   5.110   2.182   1.011
 9069SOL    HW128106   5.105   2.095   0.961
 9069SOL    HW228107   5.197   2.227   0.989
 9070SOL     OW28108   1.651   1.500   5.842
 9070SOL    HW128109   1.690   1.532   5.756
 9070SOL    HW228110   1.565   1.549   5.860
 9071SOL     OW28111   5.124   2.697   6.164
 9071SOL    HW128112   5.092   2.608   6.130
 9071SOL    HW228113   5.182   2.740   6.095
 9072SOL     OW28114   4.837   0.563   3.071
 9072SOL    HW128115   4.790   0.648   3.094
 9072SOL    HW228116   4.845   0.506   3.153
 9073SOL     OW28117   4.614   2.009   5.225
 9073SOL    HW128118   4.608   2.095   5.173
 9073SOL    HW228119   4.650   2.028   5.316
 9074SOL     OW28120   1.597   0.859   2.133
 9074SOL    HW128121   1.501   0.890   2.134
 9074SOL    HW228122   1.609   0.790   2.062
 9075SOL     OW28123   6.215   6.262   0.615
 9075SOL    HW128124   6.206   6.169   0.652
 9075SOL    HW228125   6.309   6.294   0.627
 9076SOL     OW28126   6.404   0.352   2.587
 9076SOL    HW128127   6.470   0.400   2.645
 9076SOL    HW228128   6.436   0.258   2.572
 9077SOL     OW28129   6.735   1.499   6.272
 9077SOL    HW128130   6.822   1.458   6.300
 9077SOL    HW228131   6.679   1.431   6.226
 9078SOL     OW28132   5.018   6.188   7.000
 9078SOL    HW128133   4.984   6.127   0.052
 9078SOL    HW228134   5.004   6.283   0.008
 9079SOL     OW28135   1.521   1.554   6.988
 9079SOL    HW128136   1.460   1.626   6.955
 9079SOL    HW228137   1.509   1.541   0.067
 9080SOL     OW28138   6.247   3.288   1.779
 9080SOL    HW128139   6.331   3.243   1.809
 9080SOL    HW228140   6.203   3.333   1.857
 9081SOL     OW28141   5.232   1.366   7.009
 9081SOL    HW128142   5.179   1.351   0.073
 9081SOL    HW228143   5.321   1.323   7.018
 9082SOL     OW28144   3.487   5.733   5.998
 9082SOL    HW128145   3.481   5.766   5.903
 9082SOL    HW228146   3.508   5.636   5.998
 9083SOL     OW28147   4.351   5.119   6.557
 9083SOL    HW128148   4.253   5.120   6.537
 9083SOL    HW228149   4.372   5.043   6.618
 9084SOL     OW28150   0.050   2.558   6.037
 9084SOL    HW128151   0.010   2.560   6.129
 9084SOL    HW228152   0.022   2.639   5.986
 9085SOL     OW28153   2.306   4.867   6.977
 9085SOL    HW128154   2.263   4.793   0.009
 9085SOL    HW228155   2.251   4.950   6.983
 9086SOL     OW28156   0.206   4.529   0.980
 9086SOL    HW128157   0.112   4.546   1.011
 9086SOL    HW228158   0.221   4.576   0.893
 9087SOL     OW28159   5.685   0.902   1.547
 9087SOL    HW128160   5.674   0.981   1.486
 9087SOL    HW228161   5.595   0.870   1.576
 9088SOL     OW28162   6.313   6.600   0.738
 9088SOL    HW128163   6.219   6.591   0.706
 9088SOL    HW228164   6.365   6.658   0.676
 9089SOL     OW28165   5.341   5.306   4.022
 9089SOL    HW128166   5.242   5.290   4.020
 9089SOL    HW228167   5.387   5.226   4.060
 9090SOL     OW28168   5.051   6.472   5.424
 9090SOL    HW128169   4.977   6.474   5.491
 9090SOL    HW228170   5.022   6.417   5.345
 9091SOL     OW28171   1.941   1.399   1.459
 9091SOL    HW128172   1.902   1.337   1.528
 9091SOL    HW228173   2.040   1.403   1.470
 9092SOL     OW28174   1.668   1.181   5.788
 9092SOL    HW128175   1.691   1.242   5.712
 9092SOL    HW228176   1.731   1.103   5.788
 9093SOL     OW28177   2.041   4.183   0.590
 9093SOL    HW128178   2.047   4.101   0.533
 9093SOL    HW228179   1.946   4.209   0.601
 9094SOL     OW28180   6.771   4.463   1.584
 9094SOL    HW128181   6.702   4.448   1.513
 9094SOL    HW228182   6.811   4.375   1.609
 9095SOL     OW28183   3.285   2.877   0.033
 9095SOL    HW128184   3.380   2.899   0.009
 9095SOL    HW228185   3.269   2.779   0.021
 9096SOL     OW28186   5.064   2.899   3.109
 9096SOL    HW128187   5.006   2.980   3.122
 9096SOL    HW228188   5.006   2.818   3.102
 9097SOL     OW28189   0.958   5.193   6.453
 9097SOL    HW128190   0.900   5.273   6.467
 9097SOL    HW228191   0.918   5.134   6.383
 9098SOL     OW28192   4.020   3.704   2.884
 9098SOL    HW128193   4.007   3.778   2.818
 9098SOL    HW228194   4.036   3.618   2.836
 9099SOL     OW28195   2.144   3.449   0.745
 9099SOL    HW128196   2.201   3.488   0.818
 9099SOL    HW228197   2.067   3.400   0.785
 9100SOL     OW28198   0.394   2.979   1.276
 9100SOL    HW128199   0.422   3.049   1.342
 9100SOL    HW228200   0.452   2.898   1.286
 9101SOL     OW28201   1.766   2.895   1.206
 9101SOL    HW128202   1.715   2.818   1.168
 9101SOL    HW228203   1.724   2.923   1.293
 9102SOL     OW28204   3.837   5.467   2.010
 9102SOL    HW128205   3.746   5.430   1.991
 9102SOL    HW228206   3.829   5.562   2.040
 9103SOL     OW28207   0.563   3.919   0.015
 9103SOL    HW128208   0.561   4.019   0.007
 9103SOL    HW228209   0.524   3.892   0.103
 9104SOL     OW28210   4.651   7.009   1.256
 9104SOL    HW128211   4.701   6.999   1.170
 9104SOL    HW228212   4.693   0.061   1.312
 9105SOL     OW28213   1.784   2.082   5.657
 9105SOL    HW128214   1.867   2.131   5.683
 9105SOL    HW228215   1.748   2.119   5.571
 9106SOL     OW28216   6.727   5.254   0.636
 9106SOL    HW128217   6.773   5.272   0.723
 9106SOL    HW228218   6.648   5.196   0.652
 9107SOL     OW28219   4.330   0.357   1.556
 9107SOL    HW128220   4.285   0.272   1.585
 9107SOL    HW228221   4.429   0.349   1.571
 9108SOL     OW28222   4.518   5.575   5.533
 9108SOL    HW128223   4.612   5.560   5.565
 9108SOL    HW228224   4.502   5.519   5.452
 9109SOL     OW28225   2.834   1.904   3.824
 9109SOL    HW128226   2.899   1.932   3.894
 9109SOL    HW228227   2.862   1.943   3.736
 9110SOL     OW28228   1.853   3.996   3.672
 9110SOL    HW128229   1.870   3.933   3.596
 9110SOL    HW228230   1.865   3.947   3.758
 9111SOL     OW28231   3.964   4.130   1.607
 9111SOL    HW128232   3.893   4.170   1.665
 9111SOL    HW228233   3.923   4.097   1.522
 9112SOL     OW28234   0.059   4.702   2.237
 9112SOL    HW128235   0.060   4.645   2.155
 9112SOL    HW228236   6.993   4.754   2.241
 9113SOL     OW28237   4.433   7.010   0.611
 9113SOL    HW128238   4.436   7.002   0.511
 9113SOL    HW228239   4.479   6.932   0.652
 9114SOL     OW28240   2.812   4.400   1.577
 9114SOL    HW128241   2.847   4.426   1.668
 9114SOL    HW228242   2.737   4.462   1.552
 9115SOL     OW28243   1.572   4.718   5.075
 9115SOL    HW128244   1.587   4.794   5.012
 9115SOL    HW228245   1.474   4.701   5.084
 9116SOL     OW28246   0.219   1.330   6.015
 9116SOL    HW128247   0.136   1.357   5.966
 9116SOL    HW228248   0.242   1.399   6.082
 9117SOL     OW28249   6.686   2.235   0.048
 9117SOL    HW128250   6.634   2.311   0.009
 9117SOL    HW228251   6.784   2.258   0.048
 9118SOL     OW28252   6.407   6.798   1.918
 9118SOL    HW128253   6.451   6.715   1.884
 9118SOL    HW228254   6.340   6.831   1.851
 9119SOL     OW28255   6.479   0.641   1.534
 9119SOL    HW128256   6.447   0.575   1.602
 9119SOL    HW228257   6.531   0.713   1.578
 9120SOL     OW28258   5.569   1.142   6.113
 9120SOL    HW128259   5.548   1.050   6.148
 9120SOL    HW228260   5.668   1.150   6.098
 9121SOL     OW28261   0.536   0.946   6.396
 9121SOL    HW128262   0.594   1.023   6.368
 9121SOL    HW228263   0.535   0.939   6.495
 9122SOL     OW28264   1.691   2.932   2.454
 9122SOL    HW128265   1.781   2.968   2.432
 9122SOL    HW228266   1.687   2.835   2.427
 9123SOL     OW28267   2.413   5.966   6.842
 9123SOL    HW128268   2.483   5.896   6.854
 9123SOL    HW228269   2.326   5.933   6.880
 9124SOL     OW28270   6.480   5.774   5.262
 9124SOL    HW128271   6.389   5.750   5.228
 9124SOL    HW228272   6.547   5.765   5.188
 9125SOL     OW28273   4.803   4.154   3.654
 9125SOL    HW128274   4.751   4.225   3.606
 9125SOL    HW228275   4.819   4.183   3.749
 9126SOL     OW28276   6.206   0.755   1.507
 9126SOL    HW128277   6.204   0.762   1.407
 9126SOL    HW228278   6.300   0.739   1.538
 9127SOL     OW28279   5.125   0.424   0.075
 9127SOL    HW128280   5.152   0.328   0.078
 9127SOL    HW228281   5.144   0.462   7.004
 9128SOL     OW28282   3.850   1.998   4.788
 9128SOL    HW128283   3.895   1.976   4.874
 9128SOL    HW228284   3.877   1.932   4.718
 9129SOL     OW28285   2.065   1.852   6.782
 9129SOL    HW128286   2.076   1.828   6.878
 9129SOL    HW228287   2.155   1.850   6.737
 9130SOL     OW28288   5.848   4.763   0.706
 9130SOL    HW128289   5.922   4.706   0.744
 9130SOL    HW228290   5.851   4.853   0.748
 9131SOL     OW28291   0.953   4.027   4.355
 9131SOL    HW128292   1.033   4.087   4.343
 9131SOL    HW228293   0.872   4.071   4.317
 9132SOL     OW28294   6.828   3.735   4.379
 9132SOL    HW128295   6.851   3.710   4.285
 9132SOL    HW228296   6.755   3.676   4.412
 9133SOL     OW28297   2.914   4.283   0.939
 9133SOL    HW128298   2.907   4.333   0.852
 9133SOL    HW228299   2.930   4.186   0.920
 9134SOL     OW28300   2.722   6.176   6.379
 9134SOL    HW128301   2.798   6.194   6.316
 9134SOL    HW228302   2.758   6.150   6.468
 9135SOL     OW28303   6.363   5.819   3.863
 9135SOL    HW128304   6.414   5.743   3.823
 9135SOL    HW228305   6.313   5.788   3.943
 9136SOL     OW28306   4.986   5.409   5.779
 9136SOL    HW128307   5.024   5.387   5.868
 9136SOL    HW228308   4.940   5.329   5.741
 9137SOL     OW28309   4.350   1.282   1.704
 9137SOL    HW128310   4.416   1.339   1.655
 9137SOL    HW228311   4.380   1.186   1.700
 9138SOL     OW28312   4.845   5.258   6.255
 9138SOL    HW128313   4.889   5.289   6.170
 9138SOL    HW228314   4.755   5.301   6.262
 9139SOL     OW28315   3.647   1.456   5.409
 9139SOL    HW128316   3.647   1.465   5.508
 9139SOL    HW228317   3.556   1.475   5.373
 9140SOL     OW28318   6.953   2.443   2.733
 9140SOL    HW128319   6.964   2.516   2.664
 9140SOL    HW228320   0.010   2.446   2.797
 9141SOL     OW28321   5.411   0.116   5.731
 9141SOL    HW128322   5.431   0.133   5.827
 9141SOL    HW228323   5.397   0.203   5.684
 9142SOL     OW28324   0.514   2.970   6.137
 9142SOL    HW128325   0.419   2.981   6.163
 9142SOL    HW228326   0.520   2.908   6.058
 9143SOL     OW28327   4.556   3.097   0.369
 9143SOL    HW128328   4.654   3.076   0.371
 9143SOL    HW228329   4.521   3.088   0.276
 9144SOL     OW28330   2.352   5.673   5.791
 9144SOL    HW128331   2.301   5.601   5.744
 9144SOL    HW228332   2.379   5.641   5.882
 9145SOL     OW28333   0.129   4.560   6.984
 9145SOL    HW128334   0.124   4.513   0.053
 9145SOL    HW228335   0.165   4.497   6.916
 9146SOL     OW28336   6.121   2.739   0.984
 9146SOL    HW128337   6.125   2.758   1.082
 9146SOL    HW228338   6.137   2.823   0.933
 9147SOL     OW28339   4.542   5.605   4.159
 9147SOL    HW128340   4.505   5.670   4.224
 9147SOL    HW228341   4.469   5.544   4.127
 9148SOL     OW28342   5.025   5.471   3.327
 9148SOL    HW128343   4.960   5.410   3.282
 9148SOL    HW228344   5.070   5.528   3.259
 9149SOL     OW28345   4.780   2.821   4.563
 9149SOL    HW128346   4.694   2.772   4.583
 9149SOL    HW228347   4.769   2.917   4.586
 9150SOL     OW28348   4.783   0.334   3.279
 9150SOL    HW128349   4.838   0.289   3.349
 9150SOL    HW228350   4.778   0.276   3.198
 9151SOL     OW28351   1.488   4.204   2.107
 9151SOL    HW128352   1.478   4.131   2.039
 9151SOL    HW228353   1.490   4.293   2.061
 9152SOL     OW28354   2.409   6.272   3.345
 9152SOL    HW128355   2.410   6.339   3.419
 9152SOL    HW228356   2.465   6.305   3.269
 9153SOL     OW28357   1.854   2.573   6.350
 9153SOL    HW128358   1.872   2.490   6.402
 9153SOL    HW228359   1.814   2.642   6.410
 9154SOL     OW28360   2.748   5.967   6.740
 9154SOL    HW128361   2.743   6.020   6.825
 9154SOL    HW228362   2.656   5.936   6.715
 9155SOL     OW28363   1.939   4.174   6.473
 9155SOL    HW128364   1.955   4.083   6.511
 9155SOL    HW228365   1.845   4.203   6.492
 9156SOL     OW28366   4.276   2.405   1.560
 9156SOL    HW128367   4.325   2.483   1.601
 9156SOL    HW228368   4.181   2.431   1.542
 9157SOL     OW28369   5.650   3.818   5.504
 9157SOL    HW128370   5.639   3.747   5.434
 9157SOL    HW228371   5.742   3.857   5.497
 9158SOL     OW28372   0.532   3.567   4.129
 9158SOL    HW128373   0.562   3.651   4.083
 9158SOL    HW228374   0.432   3.562   4.128
 9159SOL     OW28375   6.582   5.471   2.098
 9159SOL    HW128376   6.610   5.516   2.182
 9159SOL    HW228377   6.625   5.515   2.020
 9160SOL     OW28378   0.630   6.823   6.259
 9160SOL    HW128379   0.633   6.743   6.319
 9160SOL    HW228380   0.536   6.859   6.256
 9161SOL     OW28381   4.921   3.317   4.821
 9161SOL    HW128382   4.947   3.412   4.807
 9161SOL    HW228383   4.843   3.294   4.763
 9162SOL     OW28384   4.723   2.780   2.462
 9162SOL    HW128385   4.782   2.848   2.418
 9162SOL    HW228386   4.662   2.740   2.394
 9163SOL     OW28387   2.896   2.216   3.907
 9163SOL    HW128388   2.956   2.230   3.986
 9163SOL    HW228389   2.801   2.227   3.936
 9164SOL     OW28390   2.613   0.499   6.831
 9164SOL    HW128391   2.695   0.555   6.823
 9164SOL    HW228392   2.539   0.540   6.779
 9165SOL     OW28393   5.569   0.819   6.462
 9165SOL    HW128394   5.513   0.835   6.544
 9165SOL    HW228395   5.637   0.749   6.482
 9166SOL     OW28396   3.509   5.407   0.891
 9166SOL    HW128397   3.606   5.426   0.906
 9166SOL    HW228398   3.477   5.457   0.811
 9167SOL     OW28399   1.519   3.632   5.735
 9167SOL    HW128400   1.476   3.543   5.752
 9167SOL    HW228401   1.570   3.661   5.816
 9168SOL     OW28402   2.215   0.031   5.812
 9168SOL    HW128403   2.211   6.988   5.890
 9168SOL    HW228404   2.158   0.111   5.831
 9169SOL     OW28405   0.508   0.878   4.275
 9169SOL    HW128406   0.408   0.879   4.273
 9169SOL    HW228407   0.542   0.970   4.295
 9170SOL     OW28408   6.844   5.362   0.341
 9170SOL    HW128409   6.944   5.362   0.342
 9170SOL    HW228410   6.810   5.335   0.431
 9171SOL     OW28411   3.064   5.814   6.959
 9171SOL    HW128412   3.002   5.784   6.887
 9171SOL    HW228413   3.117   5.892   6.926
 9172SOL     OW28414   3.417   0.945   4.296
 9172SOL    HW128415   3.477   1.022   4.276
 9172SOL    HW228416   3.411   0.932   4.395
 9173SOL     OW28417   6.446   4.842   5.087
 9173SOL    HW128418   6.402   4.781   5.021
 9173SOL    HW228419   6.424   4.937   5.066
 9174SOL     OW28420   0.164   4.802   6.851
 9174SOL    HW128421   0.106   4.816   6.771
 9174SOL    HW228422   0.145   4.713   6.892
 9175SOL     OW28423   2.228   6.004   5.978
 9175SOL    HW128424   2.180   6.010   5.890
 9175SOL    HW228425   2.326   5.993   5.962
 9176SOL     OW28426   2.090   0.688   5.445
 9176SOL    HW128427   1.995   0.683   5.475
 9176SOL    HW228428   2.110   0.782   5.415
 9177SOL     OW28429   1.310   4.023   4.314
 9177SOL    HW128430   1.269   4.113   4.301
 9177SOL    HW228431   1.290   3.991   4.407
 9178SOL     OW28432   2.406   5.400   0.926
 9178SOL    HW128433   2.468   5.422   0.850
 9178SOL    HW228434   2.319   5.369   0.889
 9179SOL     OW28435   3.076   5.345   3.992
 9179SOL    HW128436   3.097   5.403   4.071
 9179SOL    HW228437   3.161   5.320   3.945
 9180SOL     OW28438   5.999   2.295   4.015
 9180SOL    HW128439   5.927   2.288   3.946
 9180SOL    HW228440   6.047   2.207   4.024
 9181SOL     OW28441   4.257   1.762   2.228
 9181SOL    HW128442   4.339   1.706   2.235
 9181SOL    HW228443   4.270   1.847   2.280
 9182SOL     OW28444   1.159   6.227   2.388
 9182SOL    HW128445   1.230   6.221   2.459
 9182SOL    HW228446   1.162   6.145   2.331
 9183SOL     OW28447   5.058   6.160   0.964
 9183SOL    HW128448   5.102   6.183   1.051
 9183SOL    HW228449   5.094   6.073   0.930
 9184SOL     OW28450   4.918   6.984   0.771
 9184SOL    HW128451   4.923   0.030   0.697
 9184SOL    HW228452   5.006   6.982   0.819
 9185SOL     OW28453   3.471   0.923   5.267
 9185SOL    HW128454   3.384   0.952   5.227
 9185SOL    HW228455   3.512   0.853   5.209
 9186SOL     OW28456   6.203   0.926   5.174
 9186SOL    HW128457   6.161   1.016   5.164
 9186SOL    HW228458   6.156   0.874   5.245
 9187SOL     OW28459   2.165   6.345   2.265
 9187SOL    HW128460   2.108   6.404   2.323
 9187SOL    HW228461   2.107   6.279   2.218
 9188SOL     OW28462   3.211   6.716   0.716
 9188SOL    HW128463   3.125   6.735   0.764
 9188SOL    HW228464   3.219   6.618   0.700
 9189SOL     OW28465   5.258   5.458   2.814
 9189SOL    HW128466   5.335   5.506   2.855
 9189SOL    HW228467   5.173   5.502   2.843
 9190SOL     OW28468   1.995   5.725   0.393
 9190SOL    HW128469   2.063   5.653   0.408
 9190SOL    HW228470   2.039   5.815   0.399
 9191SOL     OW28471   6.333   0.531   5.842
 9191SOL    HW128472   6.423   0.553   5.879
 9191SOL    HW228473   6.302   0.443   5.879
 9192SOL     OW28474   0.570   4.052   4.361
 9192SOL    HW128475   0.540   3.999   4.282
 9192SOL    HW228476   0.512   4.030   4.440
 9193SOL     OW28477   3.670   3.223   6.829
 9193SOL    HW128478   3.658   3.246   6.926
 9193SOL    HW228479   3.618   3.287   6.773
 9194SOL     OW28480   3.149   0.652   3.707
 9194SOL    HW128481   3.202   0.735   3.723
 9194SOL    HW228482   3.057   0.663   3.746
 9195SOL     OW28483   2.101   2.365   4.487
 9195SOL    HW128484   2.077   2.391   4.581
 9195SOL    HW228485   2.196   2.390   4.469
 9196SOL     OW28486   4.754   1.442   5.229
 9196SOL    HW128487   4.824   1.473   5.165
 9196SOL    HW228488   4.664   1.471   5.197
 9197SOL     OW28489   2.335   3.767   1.388
 9197SOL    HW128490   2.297   3.721   1.308
 9197SOL    HW228491   2.428   3.797   1.368
 9198SOL     OW28492   6.455   5.568   5.596
 9198SOL    HW128493   6.363   5.532   5.582
 9198SOL    HW228494   6.461   5.610   5.687
 9199SOL     OW28495   0.160   4.134   5.484
 9199SOL    HW128496   0.248   4.178   5.467
 9199SOL    HW228497   0.122   4.100   5.399
 9200SOL     OW28498   3.069   0.646   0.893
 9200SOL    HW128499   3.075   0.546   0.886
 9200SOL    HW228500   3.006   0.671   0.967
 9201SOL     OW28501   1.697   3.539   6.988
 9201SOL    HW128502   1.721   3.513   0.062
 9201SOL    HW228503   1.623   3.607   6.991
 9202SOL     OW28504   1.716   6.775   3.543
 9202SOL    HW128505   1.814   6.760   3.559
 9202SOL    HW228506   1.665   6.694   3.569
 9203SOL     OW28507   0.044   5.160   0.718
 9203SOL    HW128508   0.027   5.247   0.673
 9203SOL    HW228509   6.993   5.143   0.787
 9204SOL     OW28510   4.994   1.415   6.145
 9204SOL    HW128511   4.918   1.409   6.080
 9204SOL    HW228512   5.074   1.454   6.100
 9205SOL     OW28513   6.737   3.693   2.842
 9205SOL    HW128514   6.733   3.644   2.929
 9205SOL    HW228515   6.706   3.787   2.854
 9206SOL     OW28516   4.221   5.947   0.461
 9206SOL    HW128517   4.154   5.892   0.412
 9206SOL    HW228518   4.311   5.938   0.417
 9207SOL     OW28519   4.721   5.685   0.252
 9207SOL    HW128520   4.818   5.707   0.259
 9207SOL    HW228521   4.709   5.586   0.245
 9208SOL     OW28522   6.927   3.868   4.707
 9208SOL    HW128523   6.850   3.915   4.751
 9208SOL    HW228524   6.937   3.777   4.746
 9209SOL     OW28525   2.901   1.256   6.479
 9209SOL    HW128526   2.863   1.298   6.561
 9209SOL    HW228527   2.966   1.318   6.436
 9210SOL     OW28528   6.624   1.329   2.933
 9210SOL    HW128529   6.602   1.293   3.024
 9210SOL    HW228530   6.539   1.341   2.881
 9211SOL     OW28531   0.132   2.329   3.741
 9211SOL    HW128532   0.081   2.265   3.798
 9211SOL    HW228533   0.212   2.361   3.791
 9212SOL     OW28534   3.041   5.446   4.852
 9212SOL    HW128535   2.973   5.468   4.782
 9212SOL    HW228536   3.071   5.529   4.897
 9213SOL     OW28537   5.752   3.421   5.712
 9213SOL    HW128538   5.833   3.368   5.738
 9213SOL    HW228539   5.725   3.398   5.619
 9214SOL     OW28540   0.235   5.566   0.389
 9214SOL    HW128541   0.332   5.556   0.365
 9214SOL    HW228542   0.218   5.661   0.416
 9215SOL     OW28543   1.219   0.558   0.038
 9215SOL    HW128544   1.140   0.587   7.003
 9215SOL    HW228545   1.211   0.596   0.130
 9216SOL     OW28546   2.211   0.210   2.443
 9216SOL    HW128547   2.198   0.201   2.542
 9216SOL    HW228548   2.300   0.172   2.417
 9217SOL     OW28549   0.234   2.103   6.587
 9217SOL    HW128550   0.141   2.069   6.572
 9217SOL    HW228551   0.290   2.083   6.507
 9218SOL     OW28552   3.490   0.172   0.683
 9218SOL    HW128553   3.523   0.114   0.609
 9218SOL    HW228554   3.480   0.118   0.767
 9219SOL     OW28555   1.150   2.575   1.022
 9219SOL    HW128556   1.153   2.568   0.922
 9219SOL    HW228557   1.057   2.598   1.051
 9220SOL     OW28558   3.445   6.709   1.523
 9220SOL    HW128559   3.536   6.709   1.565
 9220SOL    HW228560   3.375   6.705   1.595
 9221SOL     OW28561   3.152   6.422   3.655
 9221SOL    HW128562   3.061   6.397   3.687
 9221SOL    HW228563   3.215   6.423   3.732
 9222SOL     OW28564   2.322   1.354   6.521
 9222SOL    HW128565   2.234   1.306   6.521
 9222SOL    HW228566   2.306   1.452   6.511
 9223SOL     OW28567   2.035   2.727   5.431
 9223SOL    HW128568   2.032   2.749   5.528
 9223SOL    HW228569   2.060   2.808   5.378
 9224SOL     OW28570   2.177   5.432   4.359
 9224SOL    HW128571   2.141   5.377   4.435
 9224SOL    HW228572   2.187   5.374   4.278
 9225SOL     OW28573   3.268   6.232   6.638
 9225SOL    HW128574   3.213   6.149   6.629
 9225SOL    HW228575   3.208   6.311   6.649
 9226SOL     OW28576   5.196   6.195   1.192
 9226SOL    HW128577   5.129   6.211   1.264
 9226SOL    HW228578   5.288   6.200   1.230
 9227SOL     OW28579   1.213   5.410   2.546
 9227SOL    HW128580   1.267   5.494   2.542
 9227SOL    HW228581   1.119   5.429   2.518
 9228SOL     OW28582   1.517   1.045   6.144
 9228SOL    HW128583   1.598   0.991   6.165
 9228SOL    HW228584   1.532   1.140   6.172
 9229SOL     OW28585   1.353   6.003   3.867
 9229SOL    HW128586   1.357   5.976   3.963
 9229SOL    HW228587   1.416   5.946   3.814
 9230SOL     OW28588   5.411   0.205   3.960
 9230SOL    HW128589   5.476   0.222   4.034
 9230SOL    HW228590   5.427   0.114   3.923
 9231SOL     OW28591   1.147   2.489   4.357
 9231SOL    HW128592   1.067   2.537   4.392
 9231SOL    HW228593   1.143   2.392   4.383
 9232SOL     OW28594   3.490   5.486   0.582
 9232SOL    HW128595   3.472   5.422   0.507
 9232SOL    HW228596   3.588   5.502   0.589
 9233SOL     OW28597   5.763   4.716   1.367
 9233SOL    HW128598   5.809   4.800   1.338
 9233SOL    HW228599   5.670   4.715   1.331
 9234SOL     OW28600   2.826   5.333   3.714
 9234SOL    HW128601   2.755   5.265   3.733
 9234SOL    HW228602   2.802   5.382   3.630
 9235SOL     OW28603   0.928   2.032   3.249
 9235SOL    HW128604   0.946   1.972   3.172
 9235SOL    HW228605   0.966   2.122   3.232
 9236SOL     OW28606   3.159   3.670   4.843
 9236SOL    HW128607   3.078   3.687   4.787
 9236SOL    HW228608   3.130   3.633   4.932
 9237SOL     OW28609   1.368   3.725   4.337
 9237SOL    HW128610   1.443   3.748   4.399
 9237SOL    HW228611   1.287   3.779   4.361
 9238SOL     OW28612   4.915   2.814   6.940
 9238SOL    HW128613   4.982   2.771   7.001
 9238SOL    HW228614   4.908   2.761   6.856
 9239SOL     OW28615   0.918   3.747   0.977
 9239SOL    HW128616   0.840   3.772   0.920
 9239SOL    HW228617   0.949   3.655   0.953
 9240SOL     OW28618   5.114   1.862   1.663
 9240SOL    HW128619   5.080   1.953   1.685
 9240SOL    HW228620   5.106   1.846   1.565
 9241SOL     OW28621   6.670   5.155   6.843
 9241SOL    HW128622   6.687   5.066   6.887
 9241SOL    HW228623   6.657   5.225   6.914
 9242SOL     OW28624   6.705   6.155   1.723
 9242SOL    HW128625   6.763   6.155   1.804
 9242SOL    HW228626   6.637   6.082   1.731
 9243SOL     OW28627   6.662   6.241   4.521
 9243SOL    HW128628   6.717   6.281   4.595
 9243SOL    HW228629   6.609   6.164   4.557
 9244SOL     OW28630   4.236   5.360   6.744
 9244SOL    HW128631   4.316   5.301   6.744
 9244SOL    HW228632   4.260   5.449   6.704
 9245SOL     OW28633   0.581   5.672   2.275
 9245SOL    HW128634   0.587   5.716   2.186
 9245SOL    HW228635   0.674   5.650   2.307
 9246SOL     OW28636   6.485   5.345   3.746
 9246SOL    HW128637   6.436   5.302   3.670
 9246SOL    HW228638   6.461   5.299   3.831
 9247SOL     OW28639   0.662   6.762   2.766
 9247SOL    HW128640   0.696   6.799   2.680
 9247SOL    HW228641   0.596   6.689   2.748
 9248SOL     OW28642   2.844   2.385   5.992
 9248SOL    HW128643   2.875   2.454   6.057
 9248SOL    HW228644   2.839   2.296   6.037
 9249SOL     OW28645   5.308   1.139   4.107
 9249SOL    HW128646   5.294   1.070   4.178
 9249SOL    HW228647   5.250   1.119   4.029
 9250SOL     OW28648   4.837   3.883   3.909
 9250SOL    HW128649   4.761   3.890   3.973
 9250SOL    HW228650   4.896   3.963   3.918
 9251SOL     OW28651   3.566   1.588   3.030
 9251SOL    HW128652   3.604   1.673   2.992
 9251SOL    HW228653   3.574   1.590   3.129
 9252SOL     OW28654   0.087   6.754   5.003
 9252SOL    HW128655   0.164   6.742   4.941
 9252SOL    HW228656   0.079   6.673   5.061
 9253SOL     OW28657   2.180   6.947   5.512
 9253SOL    HW128658   2.170   6.994   5.600
 9253SOL    HW228659   2.098   6.964   5.456
 9254SOL     OW28660   5.735   3.675   1.454
 9254SOL    HW128661   5.698   3.633   1.371
 9254SOL    HW228662   5.694   3.631   1.534
 9255SOL     OW28663   5.279   3.622   0.810
 9255SOL    HW128664   5.181   3.640   0.808
 9255SOL    HW228665   5.296   3.527   0.785
 9256SOL     OW28666   4.313   4.599   2.210
 9256SOL    HW128667   4.240   4.532   2.192
 9256SOL    HW228668   4.392   4.578   2.153
 9257SOL     OW28669   0.896   4.000   2.019
 9257SOL    HW128670   0.921   3.999   2.115
 9257SOL    HW228671   0.878   3.907   1.988
 9258SOL     OW28672   3.324   2.926   3.988
 9258SOL    HW128673   3.386   2.887   3.919
 9258SOL    HW228674   3.244   2.965   3.942
 9259SOL     OW28675   0.970   2.145   1.550
 9259SOL    HW128676   0.968   2.215   1.479
 9259SOL    HW228677   1.053   2.091   1.541
 9260SOL     OW28678   4.941   3.131   6.452
 9260SOL    HW128679   4.893   3.065   6.508
 9260SOL    HW228680   5.035   3.100   6.436
 9261SOL     OW28681   3.882   0.290   6.783
 9261SOL    HW128682   3.911   0.222   6.851
 9261SOL    HW228683   3.931   0.376   6.800
 9262SOL     OW28684   5.385   1.292   5.043
 9262SOL    HW128685   5.328   1.274   4.963
 9262SOL    HW228686   5.383   1.389   5.066
 9263SOL     OW28687   5.515   3.849   1.130
 9263SOL    HW128688   5.466   3.762   1.121
 9263SOL    HW228689   5.605   3.832   1.170
 9264SOL     OW28690   6.223   3.697   6.457
 9264SOL    HW128691   6.165   3.646   6.520
 9264SOL    HW228692   6.188   3.790   6.446
 9265SOL     OW28693   2.700   1.930   0.481
 9265SOL    HW128694   2.761   1.850   0.483
 9265SOL    HW228695   2.684   1.963   0.574
 9266SOL     OW28696   2.578   6.292   2.817
 9266SOL    HW128697   2.558   6.283   2.720
 9266SOL    HW228698   2.504   6.341   2.862
 9267SOL     OW28699   0.769   4.277   4.525
 9267SOL    HW128700   0.783   4.179   4.515
 9267SOL    HW228701   0.833   4.326   4.465
 9268SOL     OW28702   0.486   6.578   2.744
 9268SOL    HW128703   0.480   6.519   2.664
 9268SOL    HW228704   0.417   6.551   2.811
 9269SOL     OW28705   3.046   1.950   6.933
 9269SOL    HW128706   3.055   2.048   6.919
 9269SOL    HW228707   3.037   1.930   0.011
 9270SOL     OW28708   6.758   6.732   5.891
 9270SOL    HW128709   6.725   6.741   5.985
 9270SOL    HW228710   6.681   6.742   5.827
 9271SOL     OW28711   1.705   6.458   1.111
 9271SOL    HW128712   1.623   6.462   1.053
 9271SOL    HW228713   1.682   6.488   1.203
 9272SOL     OW28714   2.707   4.218   6.615
 9272SOL    HW128715   2.720   4.169   6.701
 9272SOL    HW228716   2.632   4.176   6.564
 9273SOL     OW28717   4.469   5.075   4.139
 9273SOL    HW128718   4.393   5.048   4.080
 9273SOL    HW228719   4.479   5.009   4.213
 9274SOL     OW28720   5.353   2.363   6.154
 9274SOL    HW128721   5.307   2.410   6.229
 9274SOL    HW228722   5.409   2.429   6.102
 9275SOL     OW28723   0.737   0.655   6.645
 9275SOL    HW128724   0.648   0.664   6.689
 9275SOL    HW228725   0.736   0.578   6.581
 9276SOL     OW28726   3.592   5.769   4.632
 9276SOL    HW128727   3.602   5.804   4.538
 9276SOL    HW228728   3.651   5.822   4.693
 9277SOL     OW28729   3.911   3.505   0.043
 9277SOL    HW128730   3.977   3.575   0.070
 9277SOL    HW228731   3.866   3.533   6.978
 9278SOL     OW28732   1.483   2.209   3.830
 9278SOL    HW128733   1.550   2.225   3.758
 9278SOL    HW228734   1.517   2.138   3.892
 9279SOL     OW28735   3.027   0.838   2.338
 9279SOL    HW128736   3.024   0.795   2.428
 9279SOL    HW228737   3.069   0.928   2.345
 9280SOL     OW28738   1.694   0.012   3.618
 9280SOL    HW128739   1.729   0.036   3.709
 9280SOL    HW228740   1.704   6.933   3.604
 9281SOL     OW28741   1.958   2.796   0.970
 9281SOL    HW128742   2.049   2.757   0.981
 9281SOL    HW228743   1.911   2.796   1.058
 9282SOL     OW28744   4.191   1.250   4.259
 9282SOL    HW128745   4.199   1.323   4.192
 9282SOL    HW228746   4.260   1.180   4.240
 9283SOL     OW28747   6.123   2.541   2.514
 9283SOL    HW128748   6.089   2.542   2.608
 9283SOL    HW228749   6.127   2.634   2.479
 9284SOL     OW28750   3.835   3.784   1.262
 9284SOL    HW128751   3.831   3.747   1.169
 9284SOL    HW228752   3.757   3.750   1.314
 9285SOL     OW28753   6.758   2.721   6.680
 9285SOL    HW128754   6.854   2.714   6.651
 9285SOL    HW228755   6.715   2.631   6.677
 9286SOL     OW28756   5.690   0.077   5.173
 9286SOL    HW128757   5.679   0.045   5.267
 9286SOL    HW228758   5.638   0.018   5.112
 9287SOL     OW28759   2.641   5.775   1.604
 9287SOL    HW128760   2.674   5.689   1.643
 9287SOL    HW228761   2.718   5.826   1.566
 9288SOL     OW28762   4.126   2.089   5.877
 9288SOL    HW128763   4.066   2.124   5.805
 9288SOL    HW228764   4.158   1.997   5.851
 9289SOL     OW28765   5.106   2.316   2.506
 9289SOL    HW128766   5.022   2.371   2.499
 9289SOL    HW228767   5.181   2.363   2.460
 9290SOL     OW28768   4.411   1.870   4.935
 9290SOL    HW128769   4.458   1.804   4.992
 9290SOL    HW228770   4.335   1.826   4.887
 9291SOL     OW28771   1.420   0.503   5.027
 9291SOL    HW128772   1.335   0.451   5.033
 9291SOL    HW228773   1.498   0.440   5.035
 9292SOL     OW28774   0.236   3.399   6.103
 9292SOL    HW128775   0.331   3.425   6.117
 9292SOL    HW228776   0.232   3.309   6.058
 9293SOL     OW28777   5.215   4.338   0.246
 9293SOL    HW128778   5.202   4.427   0.201
 9293SOL    HW228779   5.165   4.338   0.332
 9294SOL     OW28780   5.225   5.797   0.331
 9294SOL    HW128781   5.232   5.832   0.425
 9294SOL    HW228782   5.181   5.866   0.273
 9295SOL     OW28783   4.412   1.452   3.156
 9295SOL    HW128784   4.372   1.395   3.228
 9295SOL    HW228785   4.432   1.394   3.077
 9296SOL     OW28786   6.260   6.173   5.975
 9296SOL    HW128787   6.218   6.100   5.921
 9296SOL    HW228788   6.253   6.259   5.925
 9297SOL     OW28789   0.344   0.714   1.135
 9297SOL    HW128790   0.251   0.733   1.167
 9297SOL    HW228791   0.410   0.755   1.199
 9298SOL     OW28792   1.633   6.148   5.611
 9298SOL    HW128793   1.646   6.071   5.673
 9298SOL    HW228794   1.539   6.182   5.618
 9299SOL     OW28795   1.554   3.423   3.948
 9299SOL    HW128796   1.514   3.499   3.999
 9299SOL    HW228797   1.546   3.339   4.001
 9300SOL     OW28798   6.055   4.658   4.946
 9300SOL    HW128799   6.081   4.690   4.855
 9300SOL    HW228800   6.061   4.733   5.012
 9301SOL     OW28801   5.140   4.372   2.629
 9301SOL    HW128802   5.058   4.412   2.670
 9301SOL    HW228803   5.119   4.280   2.595
 9302SOL     OW28804   2.610   2.424   3.312
 9302SOL    HW128805   2.583   2.408   3.407
 9302SOL    HW228806   2.538   2.473   3.263
 9303SOL     OW28807   4.089   6.060   0.170
 9303SOL    HW128808   4.178   6.028   0.137
 9303SOL    HW228809   4.070   6.151   0.131
 9304SOL     OW28810   3.292   3.704   0.746
 9304SOL    HW128811   3.306   3.788   0.799
 9304SOL    HW228812   3.322   3.718   0.652
 9305SOL     OW28813   5.998   2.511   2.268
 9305SOL    HW128814   6.067   2.517   2.340
 9305SOL    HW228815   5.974   2.415   2.253
 9306SOL     OW28816   0.219   5.055   3.826
 9306SOL    HW128817   0.303   5.107   3.811
 9306SOL    HW228818   0.241   4.960   3.848
 9307SOL     OW28819   1.491   2.235   0.690
 9307SOL    HW128820   1.500   2.275   0.781
 9307SOL    HW228821   1.439   2.150   0.695
 9308SOL     OW28822   0.593   3.363   1.030
 9308SOL    HW128823   0.546   3.430   0.972
 9308SOL    HW228824   0.531   3.286   1.049
 9309SOL     OW28825   4.248   4.033   5.643
 9309SOL    HW128826   4.242   4.030   5.743
 9309SOL    HW228827   4.277   4.124   5.613
 9310SOL     OW28828   4.025   6.250   6.122
 9310SOL    HW128829   3.997   6.229   6.216
 9310SOL    HW228830   4.081   6.333   6.121
 9311SOL     OW28831   5.737   3.950   0.624
 9311SOL    HW128832   5.795   4.031   0.619
 9311SOL    HW228833   5.727   3.921   0.720
 9312SOL     OW28834   1.351   4.248   6.661
 9312SOL    HW128835   1.413   4.281   6.590
 9312SOL    HW228836   1.402   4.228   6.744
 9313SOL     OW28837   0.184   0.092   2.436
 9313SOL    HW128838   0.101   0.039   2.458
 9313SOL    HW228839   0.264   0.045   2.474
 9314SOL     OW28840   4.453   5.742   7.001
 9314SOL    HW128841   4.462   5.649   0.017
 9314SOL    HW228842   4.500   5.749   6.914
 9315SOL     OW28843   0.144   0.719   5.696
 9315SOL    HW128844   0.205   0.640   5.685
 9315SOL    HW228845   0.161   0.762   5.785
 9316SOL     OW28846   3.604   5.760   3.828
 9316SOL    HW128847   3.659   5.682   3.858
 9316SOL    HW228848   3.611   5.833   3.896
 9317SOL     OW28849   6.280   4.908   3.220
 9317SOL    HW128850   6.374   4.893   3.188
 9317SOL    HW228851   6.226   4.826   3.203
 9318SOL     OW28852   6.924   0.732   6.736
 9318SOL    HW128853   6.997   0.691   6.790
 9318SOL    HW228854   6.910   0.826   6.765
 9319SOL     OW28855   0.974   3.246   6.876
 9319SOL    HW128856   0.934   3.307   6.944
 9319SOL    HW228857   1.074   3.256   6.876
 9320SOL     OW28858   4.333   2.436   6.130
 9320SOL    HW128859   4.358   2.387   6.214
 9320SOL    HW228860   4.262   2.504   6.151
 9321SOL     OW28861   6.430   6.160   2.912
 9321SOL    HW128862   6.353   6.190   2.967
 9321SOL    HW228863   6.397   6.114   2.829
 9322SOL     OW28864   0.445   6.284   5.665
 9322SOL    HW128865   0.383   6.264   5.741
 9322SOL    HW228866   0.524   6.334   5.699
 9323SOL     OW28867   0.516   1.275   6.520
 9323SOL    HW128868   0.606   1.236   6.542
 9323SOL    HW228869   0.497   1.261   6.422
 9324SOL     OW28870   1.303   5.746   0.389
 9324SOL    HW128871   1.335   5.837   0.416
 9324SOL    HW228872   1.382   5.685   0.380
 9325SOL     OW28873   5.672   1.848   1.020
 9325SOL    HW128874   5.755   1.834   1.074
 9325SOL    HW228875   5.671   1.784   0.943
 9326SOL     OW28876   1.694   0.197   1.305
 9326SOL    HW128877   1.686   0.177   1.208
 9326SOL    HW228878   1.603   0.197   1.347
 9327SOL     OW28879   4.643   0.212   2.655
 9327SOL    HW128880   4.728   0.192   2.705
 9327SOL    HW228881   4.632   0.145   2.581
 9328SOL     OW28882   3.536   1.704   0.354
 9328SOL    HW128883   3.578   1.727   0.442
 9328SOL    HW228884   3.590   1.744   0.280
 9329SOL     OW28885   0.357   3.777   2.847
 9329SOL    HW128886   0.394   3.870   2.851
 9329SOL    HW228887   0.380   3.729   2.931
 9330SOL     OW28888   6.119   0.189   0.865
 9330SOL    HW128889   6.148   0.132   0.788
 9330SOL    HW228890   6.198   0.240   0.901
 9331SOL     OW28891   0.363   0.488   7.017
 9331SOL    HW128892   0.276   0.466   0.041
 9331SOL    HW228893   0.425   0.528   0.065
 9332SOL     OW28894   3.136   3.603   4.325
 9332SOL    HW128895   3.176   3.667   4.391
 9332SOL    HW228896   3.037   3.602   4.334
 9333SOL     OW28897   6.474   4.493   0.941
 9333SOL    HW128898   6.437   4.555   0.871
 9333SOL    HW228899   6.549   4.538   0.990
 9334SOL     OW28900   2.561   0.358   4.036
 9334SOL    HW128901   2.557   0.334   3.939
 9334SOL    HW228902   2.588   0.277   4.089
 9335SOL     OW28903   1.739   1.097   6.557
 9335SOL    HW128904   1.654   1.148   6.541
 9335SOL    HW228905   1.732   1.007   6.514
 9336SOL     OW28906   2.952   6.465   5.829
 9336SOL    HW128907   2.884   6.529   5.794
 9336SOL    HW228908   3.039   6.479   5.782
 9337SOL     OW28909   5.264   0.529   2.142
 9337SOL    HW128910   5.227   0.537   2.234
 9337SOL    HW228911   5.263   0.433   2.113
 9338SOL     OW28912   3.523   0.573   2.835
 9338SOL    HW128913   3.459   0.534   2.768
 9338SOL    HW228914   3.596   0.507   2.853
 9339SOL     OW28915   5.029   6.272   1.393
 9339SOL    HW128916   5.026   6.216   1.476
 9339SOL    HW228917   4.938   6.310   1.376
 9340SOL     OW28918   6.022   3.466   6.066
 9340SOL    HW128919   6.114   3.446   6.099
 9340SOL    HW228920   6.022   3.555   6.020
 9341SOL     OW28921   0.810   5.437   6.467
 9341SOL    HW128922   0.741   5.478   6.527
 9341SOL    HW228923   0.820   5.494   6.385
 9342SOL     OW28924   1.325   0.098   5.631
 9342SOL    HW128925   1.292   0.072   5.722
 9342SOL    HW228926   1.262   0.166   5.591
 9343SOL     OW28927   6.060   5.371   5.190
 9343SOL    HW128928   6.034   5.383   5.095
 9343SOL    HW228929   6.019   5.444   5.245
 9344SOL     OW28930   5.460   6.537   1.498
 9344SOL    HW128931   5.373   6.518   1.543
 9344SOL    HW228932   5.473   6.635   1.489
 9345SOL     OW28933   0.109   2.892   0.871
 9345SOL    HW128934   0.204   2.870   0.889
 9345SOL    HW228935   0.051   2.856   0.944
 9346SOL     OW28936   6.330   0.580   1.161
 9346SOL    HW128937   6.422   0.610   1.184
 9346SOL    HW228938   6.266   0.657   1.170
 9347SOL     OW28939   1.695   6.561   1.746
 9347SOL    HW128940   1.688   6.615   1.662
 9347SOL    HW228941   1.623   6.492   1.749
 9348SOL     OW28942   2.985   5.452   0.153
 9348SOL    HW128943   3.029   5.420   0.069
 9348SOL    HW228944   3.047   5.513   0.202
 9349SOL     OW28945   0.873   6.851   2.941
 9349SOL    HW128946   0.801   6.798   2.895
 9349SOL    HW228947   0.960   6.803   2.934
 9350SOL     OW28948   0.538   2.509   5.932
 9350SOL    HW128949   0.554   2.569   5.854
 9350SOL    HW228950   0.468   2.441   5.908
 9351SOL     OW28951   3.933   2.366   6.910
 9351SOL    HW128952   4.025   2.370   6.871
 9351SOL    HW228953   3.937   2.322   7.000
 9352SOL     OW28954   2.567   4.431   6.692
 9352SOL    HW128955   2.626   4.352   6.670
 9352SOL    HW228956   2.559   4.489   6.612
 9353SOL     OW28957   6.925   6.590   1.558
 9353SOL    HW128958   6.911   6.600   1.459
 9353SOL    HW228959   6.921   6.493   1.582
 9354SOL     OW28960   6.131   2.560   6.674
 9354SOL    HW128961   6.200   2.518   6.733
 9354SOL    HW228962   6.171   2.582   6.586
 9355SOL     OW28963   0.677   1.774   5.092
 9355SOL    HW128964   0.599   1.811   5.042
 9355SOL    HW228965   0.716   1.845   5.151
 9356SOL     OW28966   4.430   6.787   2.097
 9356SOL    HW128967   4.399   6.750   2.010
 9356SOL    HW228968   4.488   6.719   2.143
 9357SOL     OW28969   0.729   1.893   6.894
 9357SOL    HW128970   0.768   1.985   6.896
 9357SOL    HW228971   0.793   1.828   6.936
 9358SOL     OW28972   1.378   3.563   2.500
 9358SOL    HW128973   1.283   3.534   2.488
 9358SOL    HW228974   1.382   3.663   2.507
 9359SOL     OW28975   1.699   7.008   6.509
 9359SOL    HW128976   1.648   6.979   6.591
 9359SOL    HW228977   1.635   0.029   6.443
 9360SOL     OW28978   0.546   0.670   6.353
 9360SOL    HW128979   0.646   0.667   6.350
 9360SOL    HW228980   0.516   0.761   6.381
 9361SOL     OW28981   2.193   6.031   4.515
 9361SOL    HW128982   2.137   5.981   4.448
 9361SOL    HW228983   2.289   6.025   4.489
 9362SOL     OW28984   1.791   0.241   2.226
 9362SOL    HW128985   1.807   0.271   2.132
 9362SOL    HW228986   1.693   0.235   2.242
 9363SOL     OW28987   2.989   5.088   2.816
 9363SOL    HW128988   2.976   5.165   2.878
 9363SOL    HW228989   3.048   5.019   2.861
 9364SOL     OW28990   1.240   2.332   1.070
 9364SOL    HW128991   1.170   2.274   1.028
 9364SOL    HW228992   1.206   2.426   1.074
 9365SOL     OW28993   3.135   2.069   4.828
 9365SOL    HW128994   3.164   2.144   4.887
 9365SOL    HW228995   3.048   2.093   4.784
 9366SOL     OW28996   3.800   5.658   0.369
 9366SOL    HW128997   3.752   5.671   0.456
 9366SOL    HW228998   3.742   5.605   0.307
 9367SOL     OW28999   6.322   1.037   1.473
 9367SOL    HW129000   6.330   0.987   1.559
 9367SOL    HW229001   6.249   1.105   1.480
 9368SOL     OW29002   3.342   0.833   2.447
 9368SOL    HW129003   3.294   0.917   2.422
 9368SOL    HW229004   3.438   0.855   2.468
 9369SOL     OW29005   2.010   5.362   6.544
 9369SOL    HW129006   2.007   5.333   6.448
 9369SOL    HW229007   2.049   5.290   6.600
 9370SOL     OW29008   4.446   1.972   4.041
 9370SOL    HW129009   4.530   2.027   4.048
 9370SOL    HW229010   4.466   1.878   4.069
 9371SOL     OW29011   4.468   5.390   1.443
 9371SOL    HW129012   4.398   5.450   1.483
 9371SOL    HW229013   4.424   5.322   1.385
 9372SOL     OW29014   4.952   6.627   1.507
 9372SOL    HW129015   4.951   6.686   1.427
 9372SOL    HW229016   4.859   6.595   1.527
 9373SOL     OW29017   6.829   1.692   0.384
 9373SOL    HW129018   6.828   1.792   0.374
 9373SOL    HW229019   6.870   1.668   0.472
 9374SOL     OW29020   0.330   5.374   5.854
 9374SOL    HW129021   0.332   5.402   5.950
 9374SOL    HW229022   0.378   5.287   5.844
 9375SOL     OW29023   0.114   0.722   0.278
 9375SOL    HW129024   0.185   0.764   0.222
 9375SOL    HW229025   0.142   0.723   0.374
 9376SOL     OW29026   2.293   4.006   1.850
 9376SOL    HW129027   2.249   4.092   1.878
 9376SOL    HW229028   2.276   3.936   1.919
 9377SOL     OW29029   2.437   6.903   3.477
 9377SOL    HW129030   2.470   6.876   3.568
 9377SOL    HW229031   2.460   6.831   3.411
 9378SOL     OW29032   2.665   0.598   3.973
 9378SOL    HW129033   2.624   0.514   4.010
 9378SOL    HW229034   2.764   0.596   3.988
 9379SOL     OW29035   4.100   6.304   4.981
 9379SOL    HW129036   4.031   6.266   4.920
 9379SOL    HW229037   4.126   6.396   4.950
 9380SOL     OW29038   4.952   5.480   0.032
 9380SOL    HW129039   5.018   5.491   0.107
 9380SOL    HW229040   4.930   5.570   7.015
 9381SOL     OW29041   5.382   1.678   4.558
 9381SOL    HW129042   5.401   1.700   4.463
 9381SOL    HW229043   5.393   1.760   4.614
 9382SOL     OW29044   3.119   0.030   4.593
 9382SOL    HW129045   3.199   6.991   4.603
 9382SOL    HW229046   3.106   0.084   4.676
 9383SOL     OW29047   5.329   4.035   3.169
 9383SOL    HW129048   5.274   4.000   3.093
 9383SOL    HW229049   5.363   4.126   3.148
 9384SOL     OW29050   2.473   0.418   2.166
 9384SOL    HW129051   2.439   0.504   2.205
 9384SOL    HW229052   2.416   0.342   2.197
 9385SOL     OW29053   3.896   1.888   3.128
 9385SOL    HW129054   3.981   1.941   3.135
 9385SOL    HW229055   3.897   1.835   3.043
 9386SOL     OW29056   4.669   6.158   6.305
 9386SOL    HW129057   4.686   6.098   6.383
 9386SOL    HW229058   4.620   6.239   6.336
 9387SOL     OW29059   2.462   2.302   0.431
 9387SOL    HW129060   2.507   2.382   0.470
 9387SOL    HW229061   2.420   2.326   0.344
 9388SOL     OW29062   2.470   6.775   4.730
 9388SOL    HW129063   2.499   6.823   4.648
 9388SOL    HW229064   2.495   6.678   4.723
 9389SOL     OW29065   2.518   4.475   1.803
 9389SOL    HW129066   2.457   4.494   1.726
 9389SOL    HW229067   2.597   4.537   1.798
 9390SOL     OW29068   5.152   5.345   4.766
 9390SOL    HW129069   5.092   5.377   4.840
 9390SOL    HW229070   5.114   5.375   4.678
 9391SOL     OW29071   1.555   5.431   4.546
 9391SOL    HW129072   1.544   5.445   4.447
 9391SOL    HW229073   1.650   5.408   4.566
 9392SOL     OW29074   5.643   4.032   2.949
 9392SOL    HW129075   5.662   3.957   2.885
 9392SOL    HW229076   5.563   4.083   2.917
 9393SOL     OW29077   2.839   0.363   6.160
 9393SOL    HW129078   2.785   0.416   6.225
 9393SOL    HW229079   2.779   0.324   6.091
 9394SOL     OW29080   4.060   0.515   0.611
 9394SOL    HW129081   4.157   0.526   0.634
 9394SOL    HW229082   4.015   0.463   0.683
 9395SOL     OW29083   1.440   1.483   1.087
 9395SOL    HW129084   1.362   1.530   1.128
 9395SOL    HW229085   1.501   1.451   1.159
 9396SOL     OW29086   0.726   6.654   6.678
 9396SOL    HW129087   0.816   6.623   6.710
 9396SOL    HW229088   0.664   6.662   6.756
 9397SOL     OW29089   3.505   1.127   5.606
 9397SOL    HW129090   3.413   1.115   5.644
 9397SOL    HW229091   3.570   1.142   5.680
 9398SOL     OW29092   0.485   1.585   0.056
 9398SOL    HW129093   0.448   1.606   6.986
 9398SOL    HW229094   0.478   1.486   0.073
 9399SOL     OW29095   1.944   3.104   4.041
 9399SOL    HW129096   1.975   3.083   3.949
 9399SOL    HW229097   1.987   3.189   4.072
 9400SOL     OW29098   5.566   1.449   0.582
 9400SOL    HW129099   5.576   1.419   0.487
 9400SOL    HW229100   5.496   1.393   0.627
 9401SOL     OW29101   0.005   2.238   3.257
 9401SOL    HW129102   0.077   2.178   3.223
 9401SOL    HW229103   0.047   2.310   3.313
 9402SOL     OW29104   1.742   6.176   4.227
 9402SOL    HW129105   1.702   6.086   4.208
 9402SOL    HW229106   1.792   6.208   4.147
 9403SOL     OW29107   6.066   2.818   2.428
 9403SOL    HW129108   6.127   2.792   2.353
 9403SOL    HW229109   5.993   2.877   2.394
 9404SOL     OW29110   2.035   2.971   0.738
 9404SOL    HW129111   2.134   2.967   0.734
 9404SOL    HW229112   2.002   2.906   0.807
 9405SOL     OW29113   0.282   5.593   5.333
 9405SOL    HW129114   0.235   5.599   5.245
 9405SOL    HW229115   0.377   5.625   5.323
 9406SOL     OW29116   0.189   2.880   0.172
 9406SOL    HW129117   0.130   2.912   0.245
 9406SOL    HW229118   0.274   2.845   0.211
 9407SOL     OW29119   1.153   5.346   5.508
 9407SOL    HW129120   1.119   5.438   5.490
 9407SOL    HW229121   1.253   5.346   5.511
 9408SOL     OW29122   0.620   3.741   4.612
 9408SOL    HW129123   0.719   3.760   4.614
 9408SOL    HW229124   0.576   3.789   4.687
 9409SOL     OW29125   6.616   5.417   2.638
 9409SOL    HW129126   6.707   5.378   2.652
 9409SOL    HW229127   6.547   5.360   2.682
 9410SOL     OW29128   3.502   0.777   0.745
 9410SOL    HW129129   3.446   0.799   0.825
 9410SOL    HW229130   3.460   0.817   0.663
 9411SOL     OW29131   2.916   3.477   3.348
 9411SOL    HW129132   2.850   3.475   3.274
 9411SOL    HW229133   3.007   3.496   3.311
 9412SOL     OW29134   5.944   6.297   0.596
 9412SOL    HW129135   6.044   6.292   0.603
 9412SOL    HW229136   5.904   6.294   0.688
 9413SOL     OW29137   4.948   3.852   2.858
 9413SOL    HW129138   4.947   3.754   2.838
 9413SOL    HW229139   4.910   3.903   2.780
 9414SOL     OW29140   1.966   2.194   3.499
 9414SOL    HW129141   1.939   2.123   3.434
 9414SOL    HW229142   1.997   2.151   3.584
 9415SOL     OW29143   4.021   1.111   2.244
 9415SOL    HW129144   4.048   1.145   2.334
 9415SOL    HW229145   3.930   1.147   2.221
 9416SOL     OW29146   5.257   5.254   5.852
 9416SOL    HW129147   5.270   5.287   5.759
 9416SOL    HW229148   5.336   5.280   5.908
 9417SOL     OW29149   3.511   5.374   2.023
 9417SOL    HW129150   3.443   5.399   2.091
 9417SOL    HW229151   3.477   5.298   1.967
 9418SOL     OW29152   3.312   1.793   5.348
 9418SOL    HW129153   3.318   1.720   5.417
 9418SOL    HW229154   3.315   1.882   5.393
 9419SOL     OW29155   1.935   3.098   6.136
 9419SOL    HW129156   1.848   3.144   6.120
 9419SOL    HW229157   1.947   3.023   6.071
 9420SOL     OW29158   6.936   4.044   6.508
 9420SOL    HW129159   6.914   3.972   6.575
 9420SOL    HW229160   0.005   4.025   6.467
 9421SOL     OW29161   3.633   6.475   6.211
 9421SOL    HW129162   3.630   6.517   6.121
 9421SOL    HW229163   3.719   6.500   6.257
 9422SOL     OW29164   2.139   6.293   5.436
 9422SOL    HW129165   2.045   6.260   5.436
 9422SOL    HW229166   2.153   6.353   5.357
 9423SOL     OW29167   4.876   4.640   3.033
 9423SOL    HW129168   4.956   4.582   3.018
 9423SOL    HW229169   4.878   4.675   3.127
 9424SOL     OW29170   6.260   0.057   4.445
 9424SOL    HW129171   6.256   0.133   4.510
 9424SOL    HW229172   6.270   6.991   4.494
 9425SOL     OW29173   6.736   4.972   1.265
 9425SOL    HW129174   6.789   4.986   1.182
 9425SOL    HW229175   6.739   4.876   1.292
 9426SOL     OW29176   0.016   2.219   6.216
 9426SOL    HW129177   0.043   2.127   6.244
 9426SOL    HW229178   0.005   2.222   6.117
 9427SOL     OW29179   4.916   4.513   2.211
 9427SOL    HW129180   4.886   4.591   2.265
 9427SOL    HW229181   4.848   4.440   2.216
 9428SOL     OW29182   0.383   6.324   5.377
 9428SOL    HW129183   0.368   6.423   5.379
 9428SOL    HW229184   0.442   6.298   5.453
 9429SOL     OW29185   2.613   2.474   4.077
 9429SOL    HW129186   2.590   2.511   3.988
 9429SOL    HW229187   2.621   2.374   4.071
 9430SOL     OW29188   1.297   2.096   4.648
 9430SOL    HW129189   1.324   2.163   4.717
 9430SOL    HW229190   1.358   2.017   4.653
 9431SOL     OW29191   1.120   4.874   5.786
 9431SOL    HW129192   1.191   4.868   5.856
 9431SOL    HW229193   1.143   4.947   5.722
 9432SOL     OW29194   6.891   1.458   3.623
 9432SOL    HW129195   6.989   1.460   3.641
 9432SOL    HW229196   6.870   1.382   3.562
 9433SOL     OW29197   4.762   5.200   2.075
 9433SOL    HW129198   4.724   5.188   1.983
 9433SOL    HW229199   4.797   5.293   2.085
 9434SOL     OW29200   4.801   5.457   4.095
 9434SOL    HW129201   4.812   5.359   4.080
 9434SOL    HW229202   4.705   5.482   4.077
 9435SOL     OW29203   0.417   3.166   1.899
 9435SOL    HW129204   0.477   3.244   1.919
 9435SOL    HW229205   0.325   3.199   1.879
 9436SOL     OW29206   2.019   0.294   2.677
 9436SOL    HW129207   1.983   0.337   2.594
 9436SOL    HW229208   1.967   0.327   2.756
 9437SOL     OW29209   5.340   6.789   4.834
 9437SOL    HW129210   5.252   6.835   4.820
 9437SOL    HW229211   5.351   6.718   4.765
 9438SOL     OW29212   4.754   6.787   2.459
 9438SOL    HW129213   4.693   6.860   2.491
 9438SOL    HW229214   4.733   6.765   2.364
 9439SOL     OW29215   1.939   3.363   0.907
 9439SOL    HW129216   1.861   3.416   0.941
 9439SOL    HW229217   1.971   3.302   0.979
 9440SOL     OW29218   2.281   5.362   3.500
 9440SOL    HW129219   2.230   5.278   3.482
 9440SOL    HW229220   2.238   5.411   3.575
 9441SOL     OW29221   0.258   6.862   4.198
 9441SOL    HW129222   0.320   6.876   4.121
 9441SOL    HW229223   0.261   6.941   4.259
 9442SOL     OW29224   5.356   3.041   0.443
 9442SOL    HW129225   5.358   2.951   0.399
 9442SOL    HW229226   5.352   3.112   0.373
 9443SOL     OW29227   2.417   4.382   2.745
 9443SOL    HW129228   2.488   4.371   2.814
 9443SOL    HW229229   2.412   4.478   2.717
 9444SOL     OW29230   1.022   4.356   5.785
 9444SOL    HW129231   0.945   4.293   5.799
 9444SOL    HW229232   1.017   4.430   5.851
 9445SOL     OW29233   0.847   1.140   3.978
 9445SOL    HW129234   0.833   1.133   3.879
 9445SOL    HW229235   0.762   1.165   4.023
 9446SOL     OW29236   6.505   4.556   3.538
 9446SOL    HW129237   6.406   4.557   3.533
 9446SOL    HW229238   6.542   4.633   3.485
 9447SOL     OW29239   4.937   4.245   1.867
 9447SOL    HW129240   4.949   4.236   1.768
 9447SOL    HW229241   5.026   4.260   1.910
 9448SOL     OW29242   6.639   0.924   5.048
 9448SOL    HW129243   6.714   0.883   5.099
 9448SOL    HW229244   6.574   0.967   5.111
 9449SOL     OW29245   5.312   0.686   1.433
 9449SOL    HW129246   5.241   0.737   1.483
 9449SOL    HW229247   5.269   0.628   1.364
 9450SOL     OW29248   0.936   5.906   3.076
 9450SOL    HW129249   0.857   5.965   3.089
 9450SOL    HW229250   0.906   5.818   3.038
 9451SOL     OW29251   3.210   5.283   6.347
 9451SOL    HW129252   3.131   5.221   6.344
 9451SOL    HW229253   3.229   5.307   6.442
 9452SOL     OW29254   6.374   3.893   6.777
 9452SOL    HW129255   6.411   3.894   6.685
 9452SOL    HW229256   6.366   3.799   6.810
 9453SOL     OW29257   5.097   5.188   1.569
 9453SOL    HW129258   5.065   5.102   1.530
 9453SOL    HW229259   5.055   5.201   1.659
 9454SOL     OW29260   6.096   4.427   0.274
 9454SOL    HW129261   6.149   4.391   0.198
 9454SOL    HW229262   6.006   4.456   0.241
 9455SOL     OW29263   3.574   1.286   1.774
 9455SOL    HW129264   3.603   1.374   1.812
 9455SOL    HW229265   3.580   1.289   1.675
 9456SOL     OW29266   0.415   3.123   2.318
 9456SOL    HW129267   0.326   3.081   2.299
 9456SOL    HW229268   0.432   3.197   2.252
 9457SOL     OW29269   6.366   6.397   4.870
 9457SOL    HW129270   6.395   6.484   4.909
 9457SOL    HW229271   6.447   6.346   4.839
 9458SOL     OW29272   6.418   4.072   0.352
 9458SOL    HW129273   6.463   4.114   0.273
 9458SOL    HW229274   6.355   4.001   0.321
 9459SOL     OW29275   4.971   4.959   5.346
 9459SOL    HW129276   4.992   4.866   5.376
 9459SOL    HW229277   4.872   4.966   5.328
 9460SOL     OW29278   1.267   2.506   2.742
 9460SOL    HW129279   1.189   2.556   2.705
 9460SOL    HW229280   1.258   2.409   2.717
 9461SOL     OW29281   1.747   2.223   2.226
 9461SOL    HW129282   1.663   2.201   2.276
 9461SOL    HW229283   1.764   2.154   2.156
 9462SOL     OW29284   0.343   1.279   4.353
 9462SOL    HW129285   0.261   1.229   4.326
 9462SOL    HW229286   0.327   1.324   4.442
 9463SOL     OW29287   5.928   4.550   1.540
 9463SOL    HW129288   5.885   4.591   1.459
 9463SOL    HW229289   6.023   4.527   1.519
 9464SOL     OW29290   0.977   1.226   2.056
 9464SOL    HW129291   0.954   1.254   2.149
 9464SOL    HW229292   1.053   1.282   2.022
 9465SOL     OW29293   7.015   4.552   1.166
 9465SOL    HW129294   7.019   4.453   1.155
 9465SOL    HW229295   0.059   4.581   1.237
 9466SOL     OW29296   3.772   4.482   5.797
 9466SOL    HW129297   3.870   4.497   5.811
 9466SOL    HW229298   3.721   4.561   5.831
 9467SOL     OW29299   2.100   3.948   0.472
 9467SOL    HW129300   2.165   3.887   0.517
 9467SOL    HW229301   2.072   3.907   0.385
 9468SOL     OW29302   6.425   1.377   0.553
 9468SOL    HW129303   6.518   1.412   0.546
 9468SOL    HW229304   6.399   1.372   0.650
 9469SOL     OW29305   0.288   6.530   1.317
 9469SOL    HW129306   0.370   6.516   1.261
 9469SOL    HW229307   0.266   6.445   1.365
 9470SOL     OW29308   3.532   3.438   0.644
 9470SOL    HW129309   3.438   3.461   0.667
 9470SOL    HW229310   3.543   3.436   0.544
 9471SOL     OW29311   6.502   2.914   4.585
 9471SOL    HW129312   6.552   2.906   4.672
 9471SOL    HW229313   6.538   2.992   4.533
 9472SOL     OW29314   1.451   3.103   6.210
 9472SOL    HW129315   1.416   3.095   6.303
 9472SOL    HW229316   1.388   3.060   6.145
 9473SOL     OW29317   2.715   3.861   0.936
 9473SOL    HW129318   2.676   3.942   0.892
 9473SOL    HW229319   2.756   3.802   0.867
 9474SOL     OW29320   5.735   3.195   0.446
 9474SOL    HW129321   5.687   3.276   0.412
 9474SOL    HW229322   5.764   3.139   0.369
 9475SOL     OW29323   5.264   4.096   6.244
 9475SOL    HW129324   5.201   4.128   6.315
 9475SOL    HW229325   5.285   3.999   6.259
 9476SOL     OW29326   3.923   4.110   7.015
 9476SOL    HW129327   3.938   4.153   0.085
 9476SOL    HW229328   4.010   4.077   6.979
 9477SOL     OW29329   2.023   4.441   0.304
 9477SOL    HW129330   1.959   4.515   0.285
 9477SOL    HW229331   1.979   4.353   0.285
 9478SOL     OW29332   5.304   3.005   0.030
 9478SOL    HW129333   5.393   3.006   7.003
 9478SOL    HW229334   5.234   2.973   6.986
 9479SOL     OW29335   4.155   0.716   2.363
 9479SOL    HW129336   4.175   0.629   2.318
 9479SOL    HW229337   4.168   0.791   2.298
 9480SOL     OW29338   6.577   1.058   0.727
 9480SOL    HW129339   6.528   1.128   0.779
 9480SOL    HW229340   6.642   1.103   0.665
 9481SOL     OW29341   4.213   6.889   3.862
 9481SOL    HW129342   4.210   6.850   3.770
 9481SOL    HW229343   4.249   6.983   3.857
 9482SOL     OW29344   6.596   6.098   6.927
 9482SOL    HW129345   6.635   6.016   6.968
 9482SOL    HW229346   6.500   6.082   6.904
 9483SOL     OW29347   6.342   6.962   0.415
 9483SOL    HW129348   6.314   6.956   0.319
 9483SOL    HW229349   6.395   0.026   0.429
 9484SOL     OW29350   4.046   5.648   4.614
 9484SOL    HW129351   3.986   5.621   4.538
 9484SOL    HW229352   4.000   5.717   4.670
 9485SOL     OW29353   0.324   0.858   0.148
 9485SOL    HW129354   0.357   0.874   0.055
 9485SOL    HW229355   0.396   0.883   0.213
 9486SOL     OW29356   5.410   5.590   0.283
 9486SOL    HW129357   5.341   5.662   0.293
 9486SOL    HW229358   5.488   5.625   0.232
 9487SOL     OW29359   3.629   3.051   3.416
 9487SOL    HW129360   3.729   3.057   3.417
 9487SOL    HW229361   3.598   3.033   3.323
 9488SOL     OW29362   1.845   0.583   0.927
 9488SOL    HW129363   1.760   0.534   0.947
 9488SOL    HW229364   1.840   0.624   0.836
 9489SOL     OW29365   5.771   3.114   6.963
 9489SOL    HW129366   5.696   3.073   6.910
 9489SOL    HW229367   5.845   3.139   6.901
 9490SOL     OW29368   5.494   3.555   4.636
 9490SOL    HW129369   5.473   3.598   4.548
 9490SOL    HW229370   5.436   3.594   4.707
 9491SOL     OW29371   5.495   6.022   2.596
 9491SOL    HW129372   5.477   6.119   2.615
 9491SOL    HW229373   5.446   5.995   2.513
 9492SOL     OW29374   5.134   3.243   3.739
 9492SOL    HW129375   5.061   3.241   3.808
 9492SOL    HW229376   5.142   3.336   3.703
 9493SOL     OW29377   4.238   6.394   1.542
 9493SOL    HW129378   4.300   6.370   1.616
 9493SOL    HW229379   4.288   6.446   1.472
 9494SOL     OW29380   5.829   2.091   1.836
 9494SOL    HW129381   5.896   2.165   1.839
 9494SOL    HW229382   5.738   2.128   1.857
 9495SOL     OW29383   0.355   2.524   1.397
 9495SOL    HW129384   0.432   2.547   1.456
 9495SOL    HW229385   0.284   2.593   1.405
 9496SOL     OW29386   5.499   2.236   2.251
 9496SOL    HW129387   5.574   2.248   2.315
 9496SOL    HW229388   5.414   2.271   2.292
 9497SOL     OW29389   4.734   4.615   5.070
 9497SOL    HW129390   4.745   4.712   5.049
 9497SOL    HW229391   4.684   4.570   4.996
 9498SOL     OW29392   0.647   5.542   4.230
 9498SOL    HW129393   0.718   5.497   4.176
 9498SOL    HW229394   0.680   5.631   4.260
 9499SOL     OW29395   6.246   5.837   4.945
 9499SOL    HW129396   6.196   5.832   4.858
 9499SOL    HW229397   6.342   5.858   4.926
 9500SOL     OW29398   3.894   2.130   0.583
 9500SOL    HW129399   3.840   2.143   0.666
 9500SOL    HW229400   3.989   2.155   0.601
 9501SOL     OW29401   2.293   3.391   5.212
 9501SOL    HW129402   2.238   3.310   5.194
 9501SOL    HW229403   2.237   3.473   5.195
 9502SOL     OW29404   5.024   4.260   4.379
 9502SOL    HW129405   5.014   4.348   4.332
 9502SOL    HW229406   4.960   4.257   4.456
 9503SOL     OW29407   0.073   1.754   6.927
 9503SOL    HW129408   0.003   1.753   6.999
 9503SOL    HW229409   0.113   1.845   6.922
 9504SOL     OW29410   5.803   5.166   1.897
 9504SOL    HW129411   5.725   5.106   1.880
 9504SOL    HW229412   5.772   5.261   1.900
 9505SOL     OW29413   4.028   5.247   5.735
 9505SOL    HW129414   4.113   5.296   5.717
 9505SOL    HW229415   4.030   5.208   5.827
 9506SOL     OW29416   2.775   0.914   1.175
 9506SOL    HW129417   2.683   0.901   1.212
 9506SOL    HW229418   2.801   0.834   1.121
 9507SOL     OW29419   5.295   0.272   2.072
 9507SOL    HW129420   5.207   0.237   2.104
 9507SOL    HW229421   5.322   0.223   1.989
 9508SOL     OW29422   5.047   1.601   2.942
 9508SOL    HW129423   5.133   1.619   2.894
 9508SOL    HW229424   5.051   1.644   3.033
 9509SOL     OW29425   5.426   0.305   3.389
 9509SOL    HW129426   5.340   0.344   3.355
 9509SOL    HW229427   5.414   0.208   3.409
 9510SOL     OW29428   1.203   2.841   3.826
 9510SOL    HW129429   1.181   2.925   3.776
 9510SOL    HW229430   1.126   2.777   3.820
 9511SOL     OW29431   0.932   1.672   0.936
 9511SOL    HW129432   0.860   1.604   0.920
 9511SOL    HW229433   0.944   1.728   0.855
 9512SOL     OW29434   6.429   2.108   1.253
 9512SOL    HW129435   6.454   2.047   1.177
 9512SOL    HW229436   6.397   2.054   1.330
 9513SOL     OW29437   4.377   4.718   5.554
 9513SOL    HW129438   4.351   4.634   5.601
 9513SOL    HW229439   4.457   4.758   5.599
 9514SOL     OW29440   3.593   2.974   6.683
 9514SOL    HW129441   3.606   3.073   6.685
 9514SOL    HW229442   3.505   2.953   6.639
 9515SOL     OW29443   0.842   5.663   2.979
 9515SOL    HW129444   0.889   5.582   3.014
 9515SOL    HW229445   0.743   5.646   2.978
 9516SOL     OW29446   0.388   4.543   6.681
 9516SOL    HW129447   0.346   4.623   6.639
 9516SOL    HW229448   0.328   4.509   6.754
 9517SOL     OW29449   0.972   5.083   0.906
 9517SOL    HW129450   0.919   5.139   0.969
 9517SOL    HW229451   1.057   5.053   0.950
 9518SOL     OW29452   1.114   1.299   0.456
 9518SOL    HW129453   1.093   1.214   0.408
 9518SOL    HW229454   1.176   1.355   0.400
 9519SOL     OW29455   1.411   3.225   5.287
 9519SOL    HW129456   1.510   3.216   5.277
 9519SOL    HW229457   1.383   3.189   5.376
 9520SOL     OW29458   4.099   6.738   1.621
 9520SOL    HW129459   4.083   6.703   1.713
 9520SOL    HW229460   4.039   6.815   1.603
 9521SOL     OW29461   5.349   4.884   3.946
 9521SOL    HW129462   5.416   4.815   3.973
 9521SOL    HW229463   5.297   4.914   4.027
 9522SOL     OW29464   3.380   6.197   1.017
 9522SOL    HW129465   3.445   6.266   0.986
 9522SOL    HW229466   3.413   6.155   1.101
 9523SOL     OW29467   3.262   5.719   5.322
 9523SOL    HW129468   3.221   5.776   5.251
 9523SOL    HW229469   3.338   5.668   5.284
 9524SOL     OW29470   4.375   2.549   1.069
 9524SOL    HW129471   4.402   2.476   1.132
 9524SOL    HW229472   4.294   2.595   1.105
 9525SOL     OW29473   3.766   0.460   5.853
 9525SOL    HW129474   3.705   0.523   5.903
 9525SOL    HW229475   3.861   0.491   5.863
 9526SOL     OW29476   5.292   5.386   2.107
 9526SOL    HW129477   5.255   5.375   2.199
 9526SOL    HW229478   5.244   5.460   2.060
 9527SOL     OW29479   6.354   1.990   1.513
 9527SOL    HW129480   6.318   1.900   1.488
 9527SOL    HW229481   6.283   2.059   1.497
 9528SOL     OW29482   6.366   0.646   1.962
 9528SOL    HW129483   6.268   0.660   1.977
 9528SOL    HW229484   6.391   0.555   1.993
 9529SOL     OW29485   0.971   3.329   4.785
 9529SOL    HW129486   0.970   3.239   4.742
 9529SOL    HW229487   1.065   3.351   4.813
 9530SOL     OW29488   1.754   2.175   4.542
 9530SOL    HW129489   1.759   2.269   4.576
 9530SOL    HW229490   1.817   2.164   4.465
 9531SOL     OW29491   2.844   6.232   3.354
 9531SOL    HW129492   2.812   6.144   3.320
 9531SOL    HW229493   2.932   6.220   3.400
 9532SOL     OW29494   2.615   1.120   1.387
 9532SOL    HW129495   2.708   1.119   1.349
 9532SOL    HW229496   2.559   1.053   1.340
 9533SOL     OW29497   1.462   0.597   5.298
 9533SOL    HW129498   1.484   0.522   5.236
 9533SOL    HW229499   1.411   0.562   5.377
 9534SOL     OW29500   4.682   1.937   4.590
 9534SOL    HW129501   4.704   2.001   4.516
 9534SOL    HW229502   4.606   1.974   4.645
 9535SOL     OW29503   2.237   2.243   5.451
 9535SOL    HW129504   2.279   2.181   5.518
 9535SOL    HW229505   2.299   2.255   5.374
 9536SOL     OW29506   3.034   0.056   6.340
 9536SOL    HW129507   3.090   6.997   6.316
 9536SOL    HW229508   2.942   0.026   6.365
 9537SOL     OW29509   2.957   6.708   0.845
 9537SOL    HW129510   2.871   6.758   0.847
 9537SOL    HW229511   2.971   6.662   0.933
 9538SOL     OW29512   5.802   3.111   4.005
 9538SOL    HW129513   5.876   3.179   4.007
 9538SOL    HW229514   5.717   3.154   4.038
 9539SOL     OW29515   0.557   5.061   0.975
 9539SOL    HW129516   0.540   4.963   0.985
 9539SOL    HW229517   0.632   5.075   0.910
 9540SOL     OW29518   5.008   3.573   5.206
 9540SOL    HW129519   5.033   3.476   5.202
 9540SOL    HW229520   4.923   3.588   5.156
 9541SOL     OW29521   0.684   1.845   3.621
 9541SOL    HW129522   0.616   1.917   3.637
 9541SOL    HW229523   0.773   1.887   3.605
 9542SOL     OW29524   4.877   3.962   4.633
 9542SOL    HW129525   4.857   3.864   4.632
 9542SOL    HW229526   4.975   3.976   4.638
 9543SOL     OW29527   5.353   1.850   2.054
 9543SOL    HW129528   5.435   1.866   2.109
 9543SOL    HW229529   5.274   1.892   2.098
 9544SOL     OW29530   3.102   1.616   1.878
 9544SOL    HW129531   3.192   1.617   1.834
 9544SOL    HW229532   3.113   1.619   1.977
 9545SOL     OW29533   0.159   0.058   4.366
 9545SOL    HW129534   0.062   0.069   4.343
 9545SOL    HW229535   0.196   0.144   4.401
 9546SOL     OW29536   2.697   4.141   1.594
 9546SOL    HW129537   2.612   4.139   1.646
 9546SOL    HW229538   2.738   4.232   1.600
 9547SOL     OW29539   6.520   5.851   2.637
 9547SOL    HW129540   6.580   5.851   2.717
 9547SOL    HW229541   6.471   5.764   2.632
 9548SOL     OW29542   4.844   6.192   2.888
 9548SOL    HW129543   4.876   6.099   2.869
 9548SOL    HW229544   4.867   6.251   2.811
 9549SOL     OW29545   3.066   5.676   0.249
 9549SOL    HW129546   3.014   5.759   0.230
 9549SOL    HW229547   3.164   5.696   0.245
 9550SOL     OW29548   1.484   1.813   0.340
 9550SOL    HW129549   1.548   1.842   0.411
 9550SOL    HW229550   1.529   1.820   0.250
 9551SOL     OW29551   2.374   6.020   5.715
 9551SOL    HW129552   2.276   6.030   5.704
 9551SOL    HW229553   2.419   6.027   5.626
 9552SOL     OW29554   0.732   5.468   3.739
 9552SOL    HW129555   0.706   5.549   3.791
 9552SOL    HW229556   0.804   5.418   3.789
 9553SOL     OW29557   5.275   4.927   5.466
 9553SOL    HW129558   5.304   4.839   5.504
 9553SOL    HW229559   5.205   4.967   5.525
 9554SOL     OW29560   2.093   0.969   2.403
 9554SOL    HW129561   2.104   0.926   2.313
 9554SOL    HW229562   2.134   1.060   2.401
 9555SOL     OW29563   6.553   2.228   6.706
 9555SOL    HW129564   6.477   2.196   6.650
 9555SOL    HW229565   6.541   2.195   6.799
 9556SOL     OW29566   0.143   2.240   1.019
 9556SOL    HW129567   0.216   2.258   1.085
 9556SOL    HW229568   0.075   2.180   1.060
 9557SOL     OW29569   5.775   2.473   1.925
 9557SOL    HW129570   5.735   2.509   1.841
 9557SOL    HW229571   5.750   2.533   2.002
 9558SOL     OW29572   6.176   4.429   1.872
 9558SOL    HW129573   6.131   4.505   1.825
 9558SOL    HW229574   6.137   4.419   1.964
 9559SOL     OW29575   6.933   3.061   2.337
 9559SOL    HW129576   6.839   3.037   2.311
 9559SOL    HW229577   6.963   3.002   2.412
 9560SOL     OW29578   3.307   1.486   4.121
 9560SOL    HW129579   3.335   1.431   4.200
 9560SOL    HW229580   3.388   1.522   4.075
 9561SOL     OW29581   4.033   0.062   0.760
 9561SOL    HW129582   4.119   0.064   0.811
 9561SOL    HW229583   4.004   0.156   0.741
 9562SOL     OW29584   5.585   5.326   3.161
 9562SOL    HW129585   5.651   5.373   3.102
 9562SOL    HW229586   5.600   5.353   3.256
 9563SOL     OW29587   6.785   5.673   6.850
 9563SOL    HW129588   6.718   5.718   6.909
 9563SOL    HW229589   6.820   5.739   6.783
 9564SOL     OW29590   2.451   0.074   6.733
 9564SOL    HW129591   2.516   0.093   6.659
 9564SOL    HW229592   2.430   0.158   6.782
 9565SOL     OW29593   3.975   6.006   4.035
 9565SOL    HW129594   3.977   6.039   4.129
 9565SOL    HW229595   3.974   6.083   3.972
 9566SOL     OW29596   3.030   4.782   5.193
 9566SOL    HW129597   2.980   4.701   5.227
 9566SOL    HW229598   2.980   4.821   5.116
 9567SOL     OW29599   5.860   5.565   5.715
 9567SOL    HW129600   5.939   5.516   5.678
 9567SOL    HW229601   5.776   5.515   5.693
 9568SOL     OW29602   5.456   3.493   6.204
 9568SOL    HW129603   5.383   3.491   6.272
 9568SOL    HW229604   5.428   3.551   6.128
 9569SOL     OW29605   5.662   6.734   1.843
 9569SOL    HW129606   5.696   6.791   1.918
 9569SOL    HW229607   5.593   6.786   1.792
 9570SOL     OW29608   0.770   0.339   6.800
 9570SOL    HW129609   0.862   0.325   6.766
 9570SOL    HW229610   0.710   0.367   6.725
 9571SOL     OW29611   2.298   2.792   6.730
 9571SOL    HW129612   2.283   2.712   6.788
 9571SOL    HW229613   2.325   2.762   6.638
 9572SOL     OW29614   0.771   4.254   0.663
 9572SOL    HW129615   0.794   4.348   0.639
 9572SOL    HW229616   0.679   4.232   0.631
 9573SOL     OW29617   6.597   1.794   1.973
 9573SOL    HW129618   6.583   1.732   1.896
 9573SOL    HW229619   6.607   1.742   2.058
 9574SOL     OW29620   2.365   2.221   4.570
 9574SOL    HW129621   2.353   2.173   4.483
 9574SOL    HW229622   2.454   2.266   4.571
 9575SOL     OW29623   4.835   0.777   2.666
 9575SOL    HW129624   4.886   0.830   2.598
 9575SOL    HW229625   4.741   0.810   2.671
 9576SOL     OW29626   3.784   1.621   5.226
 9576SOL    HW129627   3.708   1.584   5.279
 9576SOL    HW229628   3.777   1.591   5.130
 9577SOL     OW29629   0.395   6.044   3.179
 9577SOL    HW129630   0.315   6.014   3.127
 9577SOL    HW229631   0.467   6.072   3.116
 9578SOL     OW29632   6.185   3.835   2.101
 9578SOL    HW129633   6.264   3.804   2.154
 9578SOL    HW229634   6.185   3.934   2.097
 9579SOL     OW29635   1.379   6.574   2.818
 9579SOL    HW129636   1.371   6.476   2.804
 9579SOL    HW229637   1.366   6.595   2.915
 9580SOL     OW29638   4.261   3.430   6.168
 9580SOL    HW129639   4.263   3.331   6.177
 9580SOL    HW229640   4.299   3.457   6.080
 9581SOL     OW29641   1.605   5.178   5.874
 9581SOL    HW129642   1.656   5.140   5.951
 9581SOL    HW229643   1.627   5.128   5.790
 9582SOL     OW29644   4.741   4.824   4.058
 9582SOL    HW129645   4.644   4.810   4.037
 9582SOL    HW229646   4.783   4.880   3.987
 9583SOL     OW29647   2.335   4.492   2.014
 9583SOL    HW129648   2.368   4.488   2.108
 9583SOL    HW229649   2.413   4.491   1.951
 9584SOL     OW29650   5.446   5.293   0.229
 9584SOL    HW129651   5.466   5.389   0.251
 9584SOL    HW229652   5.347   5.279   0.226
 9585SOL     OW29653   0.358   0.177   3.216
 9585SOL    HW129654   0.353   0.172   3.116
 9585SOL    HW229655   0.342   0.271   3.245
 9586SOL     OW29656   5.376   3.082   2.460
 9586SOL    HW129657   5.389   3.024   2.541
 9586SOL    HW229658   5.464   3.095   2.415
 9587SOL     OW29659   4.702   6.590   2.681
 9587SOL    HW129660   4.727   6.685   2.661
 9587SOL    HW229661   4.643   6.555   2.609
 9588SOL     OW29662   6.817   0.244   3.153
 9588SOL    HW129663   6.764   0.170   3.195
 9588SOL    HW229664   6.873   0.288   3.223
 9589SOL     OW29665   2.674   1.625   5.780
 9589SOL    HW129666   2.611   1.690   5.822
 9589SOL    HW229667   2.628   1.537   5.769
 9590SOL     OW29668   0.325   4.813   4.593
 9590SOL    HW129669   0.377   4.896   4.612
 9590SOL    HW229670   0.377   4.756   4.529
 9591SOL     OW29671   1.363   4.812   2.505
 9591SOL    HW129672   1.315   4.725   2.514
 9591SOL    HW229673   1.397   4.821   2.411
 9592SOL     OW29674   4.983   5.730   1.770
 9592SOL    HW129675   4.944   5.788   1.841
 9592SOL    HW229676   5.056   5.779   1.722
 9593SOL     OW29677   1.747   3.269   4.174
 9593SOL    HW129678   1.653   3.238   4.160
 9593SOL    HW229679   1.808   3.220   4.113
 9594SOL     OW29680   6.325   6.914   2.164
 9594SOL    HW129681   6.229   6.918   2.192
 9594SOL    HW229682   6.333   6.862   2.079
 9595SOL     OW29683   1.154   4.247   4.329
 9595SOL    HW129684   1.146   4.245   4.229
 9595SOL    HW229685   1.199   4.332   4.357
 9596SOL     OW29686   4.779   5.322   2.683
 9596SOL    HW129687   4.695   5.368   2.710
 9596SOL    HW229688   4.786   5.234   2.729
 9597SOL     OW29689   1.704   4.285   0.940
 9597SOL    HW129690   1.738   4.273   1.032
 9597SOL    HW229691   1.757   4.355   0.893
 9598SOL     OW29692   1.039   5.899   5.397
 9598SOL    HW129693   1.096   5.830   5.353
 9598SOL    HW229694   1.095   5.956   5.457
 9599SOL     OW29695   4.668   1.740   4.082
 9599SOL    HW129696   4.677   1.640   4.080
 9599SOL    HW229697   4.704   1.779   3.998
 9600SOL     OW29698   1.647   5.824   6.851
 9600SOL    HW129699   1.695   5.899   6.806
 9600SOL    HW229700   1.611   5.855   6.939
 9601SOL     OW29701   0.657   6.569   6.395
 9601SOL    HW129702   0.562   6.544   6.413
 9601SOL    HW229703   0.712   6.549   6.476
 9602SOL     OW29704   1.185   6.047   0.115
 9602SOL    HW129705   1.245   5.997   0.177
 9602SOL    HW229706   1.230   6.059   0.026
 9603SOL     OW29707   1.106   5.173   3.697
 9603SOL    HW129708   1.127   5.086   3.652
 9603SOL    HW229709   1.128   5.249   3.635
 9604SOL     OW29710   6.515   0.191   0.521
 9604SOL    HW129711   6.603   0.159   0.556
 9604SOL    HW229712   6.514   0.291   0.520
 9605SOL     OW29713   2.303   5.621   0.271
 9605SOL    HW129714   2.401   5.629   0.284
 9605SOL    HW229715   2.265   5.708   0.241
 9606SOL     OW29716   6.197   0.352   5.342
 9606SOL    HW129717   6.185   0.382   5.437
 9606SOL    HW229718   6.195   0.432   5.281
 9607SOL     OW29719   0.473   2.732   2.914
 9607SOL    HW129720   0.532   2.663   2.873
 9607SOL    HW229721   0.426   2.693   2.993
 9608SOL     OW29722   6.247   0.408   2.937
 9608SOL    HW129723   6.150   0.391   2.919
 9608SOL    HW229724   6.293   0.430   2.851
 9609SOL     OW29725   1.570   2.396   3.328
 9609SOL    HW129726   1.536   2.450   3.251
 9609SOL    HW229727   1.670   2.398   3.329
 9610SOL     OW29728   3.799   1.591   6.183
 9610SOL    HW129729   3.734   1.543   6.125
 9610SOL    HW229730   3.775   1.689   6.187
 9611SOL     OW29731   6.096   5.886   1.066
 9611SOL    HW129732   6.062   5.802   1.107
 9611SOL    HW229733   6.195   5.879   1.050
 9612SOL     OW29734   4.886   3.348   2.879
 9612SOL    HW129735   4.891   3.248   2.870
 9612SOL    HW229736   4.909   3.374   2.973
 9613SOL     OW29737   5.871   6.711   5.215
 9613SOL    HW129738   5.936   6.663   5.274
 9613SOL    HW229739   5.914   6.792   5.177
 9614SOL     OW29740   3.426   2.852   1.791
 9614SOL    HW129741   3.438   2.931   1.731
 9614SOL    HW229742   3.410   2.882   1.885
 9615SOL     OW29743   0.284   6.368   3.691
 9615SOL    HW129744   0.336   6.384   3.775
 9615SOL    HW229745   0.330   6.297   3.637
 9616SOL     OW29746   1.966   3.139   1.375
 9616SOL    HW129747   1.890   3.176   1.429
 9616SOL    HW229748   1.955   3.166   1.280
 9617SOL     OW29749   0.786   3.407   2.434
 9617SOL    HW129750   0.840   3.400   2.517
 9617SOL    HW229751   0.831   3.468   2.369
 9618SOL     OW29752   3.721   4.780   0.366
 9618SOL    HW129753   3.722   4.721   0.446
 9618SOL    HW229754   3.814   4.813   0.348
 9619SOL     OW29755   1.680   6.731   1.015
 9619SOL    HW129756   1.684   6.632   1.030
 9619SOL    HW229757   1.594   6.767   1.050
 9620SOL     OW29758   3.552   1.982   6.953
 9620SOL    HW129759   3.580   1.998   0.028
 9620SOL    HW229760   3.493   1.901   6.949
 9621SOL     OW29761   0.505   1.866   2.396
 9621SOL    HW129762   0.412   1.845   2.427
 9621SOL    HW229763   0.567   1.793   2.426
 9622SOL     OW29764   7.000   6.109   5.956
 9622SOL    HW129765   6.992   6.102   6.056
 9622SOL    HW229766   6.908   6.104   5.916
 9623SOL     OW29767   4.311   6.775   6.048
 9623SOL    HW129768   4.304   6.798   5.951
 9623SOL    HW229769   4.377   6.701   6.060
 9624SOL     OW29770   4.800   5.268   4.876
 9624SOL    HW129771   4.805   5.203   4.800
 9624SOL    HW229772   4.775   5.220   4.959
 9625SOL     OW29773   5.064   3.961   6.001
 9625SOL    HW129774   5.060   4.003   5.911
 9625SOL    HW229775   4.994   4.003   6.060
 9626SOL     OW29776   2.491   2.233   0.054
 9626SOL    HW129777   2.508   2.187   6.987
 9626SOL    HW229778   2.565   2.212   0.118
 9627SOL     OW29779   0.378   5.213   0.328
 9627SOL    HW129780   0.443   5.224   0.403
 9627SOL    HW229781   0.394   5.285   0.260
 9628SOL     OW29782   6.250   1.180   6.735
 9628SOL    HW129783   6.182   1.118   6.697
 9628SOL    HW229784   6.260   1.259   6.675
 9629SOL     OW29785   0.156   5.889   3.913
 9629SOL    HW129786   0.075   5.925   3.959
 9629SOL    HW229787   0.237   5.907   3.969
 9630SOL     OW29788   5.875   0.442   5.461
 9630SOL    HW129789   5.883   0.345   5.439
 9630SOL    HW229790   5.895   0.496   5.379
 9631SOL     OW29791   3.697   6.581   0.770
 9631SOL    HW129792   3.659   6.643   0.838
 9631SOL    HW229793   3.797   6.587   0.770
 9632SOL     OW29794   2.994   5.501   2.756
 9632SOL    HW129795   3.021   5.597   2.749
 9632SOL    HW229796   3.052   5.455   2.825
 9633SOL     OW29797   3.795   3.306   3.332
 9633SOL    HW129798   3.831   3.382   3.387
 9633SOL    HW229799   3.855   3.227   3.341
 9634SOL     OW29800   5.718   4.865   3.060
 9634SOL    HW129801   5.753   4.786   3.010
 9634SOL    HW229802   5.642   4.906   3.010
 9635SOL     OW29803   1.136   5.511   3.878
 9635SOL    HW129804   1.133   5.506   3.978
 9635SOL    HW229805   1.127   5.606   3.849
 9636SOL     OW29806   5.264   3.617   3.942
 9636SOL    HW129807   5.191   3.629   4.009
 9636SOL    HW229808   5.336   3.684   3.958
 9637SOL     OW29809   1.615   3.588   0.265
 9637SOL    HW129810   1.572   3.605   0.353
 9637SOL    HW229811   1.630   3.489   0.254
 9638SOL     OW29812   5.511   5.788   5.840
 9638SOL    HW129813   5.451   5.737   5.902
 9638SOL    HW229814   5.606   5.778   5.869
 9639SOL     OW29815   4.223   1.966   1.458
 9639SOL    HW129816   4.294   1.905   1.424
 9639SOL    HW229817   4.214   1.956   1.557
 9640SOL     OW29818   4.247   0.465   3.096
 9640SOL    HW129819   4.162   0.452   3.045
 9640SOL    HW229820   4.289   0.552   3.071
 9641SOL     OW29821   6.678   3.813   3.280
 9641SOL    HW129822   6.607   3.881   3.260
 9641SOL    HW229823   6.658   3.769   3.368
 9642SOL     OW29824   0.440   0.371   4.657
 9642SOL    HW129825   0.385   0.297   4.619
 9642SOL    HW229826   0.528   0.334   4.689
 9643SOL     OW29827   4.798   5.176   4.010
 9643SOL    HW129828   4.792   5.152   4.107
 9643SOL    HW229829   4.759   5.103   3.954
 9644SOL     OW29830   1.044   5.495   4.125
 9644SOL    HW129831   1.008   5.589   4.121
 9644SOL    HW229832   0.967   5.431   4.123
 9645SOL     OW29833   0.812   4.713   6.229
 9645SOL    HW129834   0.736   4.752   6.280
 9645SOL    HW229835   0.889   4.696   6.291
 9646SOL     OW29836   4.344   5.289   6.333
 9646SOL    HW129837   4.262   5.345   6.331
 9646SOL    HW229838   4.345   5.234   6.416
 9647SOL     OW29839   6.190   6.713   2.814
 9647SOL    HW129840   6.249   6.678   2.888
 9647SOL    HW229841   6.242   6.779   2.759
 9648SOL     OW29842   3.971   1.821   1.044
 9648SOL    HW129843   3.938   1.729   1.022
 9648SOL    HW229844   3.986   1.871   0.959
 9649SOL     OW29845   0.777   5.584   0.425
 9649SOL    HW129846   0.815   5.492   0.428
 9649SOL    HW229847   0.801   5.626   0.337
 9650SOL     OW29848   0.239   4.769   3.874
 9650SOL    HW129849   0.324   4.778   3.925
 9650SOL    HW229850   0.207   4.674   3.878
 9651SOL     OW29851   4.362   1.643   0.025
 9651SOL    HW129852   4.379   1.617   0.120
 9651SOL    HW229853   4.264   1.641   0.006
 9652SOL     OW29854   0.485   3.955   0.750
 9652SOL    HW129855   0.424   3.929   0.675
 9652SOL    HW229856   0.496   4.055   0.751
 9653SOL     OW29857   4.648   4.224   6.125
 9653SOL    HW129858   4.601   4.194   6.042
 9653SOL    HW229859   4.585   4.221   6.202
 9654SOL     OW29860   3.406   3.715   2.902
 9654SOL    HW129861   3.450   3.795   2.861
 9654SOL    HW229862   3.383   3.736   2.997
 9655SOL     OW29863   4.633   1.235   1.020
 9655SOL    HW129864   4.674   1.146   1.042
 9655SOL    HW229865   4.653   1.260   0.926
 9656SOL     OW29866   5.895   3.779   6.586
 9656SOL    HW129867   5.891   3.768   6.487
 9656SOL    HW229868   5.943   3.701   6.626
 9657SOL     OW29869   5.456   3.923   4.216
 9657SOL    HW129870   5.397   3.871   4.278
 9657SOL    HW229871   5.455   3.880   4.125
 9658SOL     OW29872   5.070   1.461   1.892
 9658SOL    HW129873   5.051   1.390   1.961
 9658SOL    HW229874   5.016   1.442   1.810
 9659SOL     OW29875   2.524   3.137   6.767
 9659SOL    HW129876   2.458   3.075   6.808
 9659SOL    HW229877   2.544   3.107   6.674
 9660SOL     OW29878   1.558   6.090   2.047
 9660SOL    HW129879   1.487   6.135   1.992
 9660SOL    HW229880   1.648   6.112   2.009
 9661SOL     OW29881   4.745   4.012   1.082
 9661SOL    HW129882   4.763   4.110   1.079
 9661SOL    HW229883   4.818   3.963   1.033
 9662SOL     OW29884   5.724   6.034   6.064
 9662SOL    HW129885   5.686   6.010   6.154
 9662SOL    HW229886   5.732   5.952   6.008
 9663SOL     OW29887   0.734   5.335   2.401
 9663SOL    HW129888   0.770   5.277   2.329
 9663SOL    HW229889   0.634   5.323   2.407
 9664SOL     OW29890   4.802   4.757   2.299
 9664SOL    HW129891   4.882   4.816   2.305
 9664SOL    HW229892   4.725   4.808   2.261
 9665SOL     OW29893   6.844   5.885   6.237
 9665SOL    HW129894   6.938   5.852   6.250
 9665SOL    HW229895   6.844   5.985   6.237
 9666SOL     OW29896   5.520   3.963   6.648
 9666SOL    HW129897   5.609   4.007   6.636
 9666SOL    HW229898   5.532   3.864   6.648
 9667SOL     OW29899   5.715   5.946   6.465
 9667SOL    HW129900   5.737   5.912   6.556
 9667SOL    HW229901   5.796   5.988   6.424
 9668SOL     OW29902   1.006   0.722   5.892
 9668SOL    HW129903   1.063   0.749   5.969
 9668SOL    HW229904   1.047   0.642   5.846
 9669SOL     OW29905   3.401   0.439   0.463
 9669SOL    HW129906   3.387   0.538   0.465
 9669SOL    HW229907   3.333   0.394   0.521
 9670SOL     OW29908   0.184   0.022   0.053
 9670SOL    HW129909   0.112   7.005   0.112
 9670SOL    HW229910   0.156   0.013   6.977
 9671SOL     OW29911   1.098   5.419   6.386
 9671SOL    HW129912   1.083   5.477   6.466
 9671SOL    HW229913   1.045   5.334   6.396
 9672SOL     OW29914   1.100   3.609   3.937
 9672SOL    HW129915   1.112   3.524   3.988
 9672SOL    HW229916   1.164   3.612   3.861
 9673SOL     OW29917   2.171   3.214   0.362
 9673SOL    HW129918   2.147   3.159   0.282
 9673SOL    HW229919   2.091   3.222   0.422
 9674SOL     OW29920   2.375   6.367   4.086
 9674SOL    HW129921   2.341   6.276   4.061
 9674SOL    HW229922   2.422   6.362   4.174
 9675SOL     OW29923   6.425   3.462   6.058
 9675SOL    HW129924   6.348   3.404   6.081
 9675SOL    HW229925   6.401   3.558   6.074
 9676SOL     OW29926   1.069   2.607   6.935
 9676SOL    HW129927   1.131   2.551   6.880
 9676SOL    HW229928   0.983   2.619   6.886
 9677SOL     OW29929   6.981   5.432   1.845
 9677SOL    HW129930   0.043   5.402   1.795
 9677SOL    HW229931   6.945   5.356   1.899
 9678SOL     OW29932   3.510   3.605   5.305
 9678SOL    HW129933   3.456   3.683   5.336
 9678SOL    HW229934   3.453   3.523   5.305
 9679SOL     OW29935   1.674   1.404   4.298
 9679SOL    HW129936   1.759   1.371   4.257
 9679SOL    HW229937   1.693   1.486   4.352
 9680SOL     OW29938   4.490   6.425   2.161
 9680SOL    HW129939   4.527   6.333   2.176
 9680SOL    HW229940   4.406   6.436   2.214
 9681SOL     OW29941   1.112   1.976   1.952
 9681SOL    HW129942   1.012   1.985   1.954
 9681SOL    HW229943   1.139   1.892   1.998
 9682SOL     OW29944   4.973   6.339   5.818
 9682SOL    HW129945   5.041   6.288   5.871
 9682SOL    HW229946   5.012   6.426   5.788
 9683SOL     OW29947   3.118   6.190   3.183
 9683SOL    HW129948   3.064   6.138   3.249
 9683SOL    HW229949   3.125   6.138   3.097
 9684SOL     OW29950   6.914   3.300   5.642
 9684SOL    HW129951   6.931   3.201   5.642
 9684SOL    HW229952   6.883   3.329   5.552
 9685SOL     OW29953   3.711   4.151   1.176
 9685SOL    HW129954   3.750   4.124   1.088
 9685SOL    HW229955   3.617   4.118   1.183
 9686SOL     OW29956   6.111   1.183   5.128
 9686SOL    HW129957   6.047   1.237   5.183
 9686SOL    HW229958   6.203   1.221   5.139
 9687SOL     OW29959   5.928   1.139   3.143
 9687SOL    HW129960   5.930   1.041   3.163
 9687SOL    HW229961   5.942   1.154   3.045
 9688SOL     OW29962   1.062   5.278   1.316
 9688SOL    HW129963   1.047   5.184   1.286
 9688SOL    HW229964   1.159   5.291   1.337
 9689SOL     OW29965   2.394   5.936   1.098
 9689SOL    HW129966   2.297   5.935   1.125
 9689SOL    HW229967   2.420   5.845   1.067
 9690SOL     OW29968   6.989   4.640   4.925
 9690SOL    HW129969   6.951   4.559   4.879
 9690SOL    HW229970   0.048   4.674   4.874
 9691SOL     OW29971   2.719   3.766   1.747
 9691SOL    HW129972   2.680   3.735   1.660
 9691SOL    HW229973   2.794   3.830   1.730
 9692SOL     OW29974   5.006   4.253   0.846
 9692SOL    HW129975   5.106   4.261   0.852
 9692SOL    HW229976   4.971   4.323   0.784
 9693SOL     OW29977   4.901   2.999   5.423
 9693SOL    HW129978   4.955   3.021   5.342
 9693SOL    HW229979   4.804   3.012   5.403
 9694SOL     OW29980   2.523   0.125   2.012
 9694SOL    HW129981   2.456   0.108   1.940
 9694SOL    HW229982   2.557   0.218   2.004
 9695SOL     OW29983   1.152   2.451   3.268
 9695SOL    HW129984   1.069   2.405   3.238
 9695SOL    HW229985   1.139   2.550   3.263
 9696SOL     OW29986   5.102   3.065   3.528
 9696SOL    HW129987   5.137   3.143   3.580
 9696SOL    HW229988   5.168   2.990   3.532
 9697SOL     OW29989   0.528   6.793   0.899
 9697SOL    HW129990   0.606   6.815   0.958
 9697SOL    HW229991   0.501   6.874   0.849
 9698SOL     OW29992   6.199   3.515   1.615
 9698SOL    HW129993   6.147   3.588   1.660
 9698SOL    HW229994   6.216   3.442   1.680
 9699SOL     OW29995   1.699   6.179   0.938
 9699SOL    HW129996   1.624   6.181   1.004
 9699SOL    HW229997   1.687   6.255   0.874
 9700SOL     OW29998   5.482   0.344   5.608
 9700SOL    HW129999   5.489   0.425   5.550
 9700SOL    HW230000   5.561   0.340   5.669
 9701SOL     OW30001   4.594   3.919   7.014
 9701SOL    HW130002   4.595   3.906   6.914
 9701SOL    HW230003   4.664   3.986   0.019
 9702SOL     OW30004   3.870   3.644   1.988
 9702SOL    HW130005   3.940   3.581   2.023
 9702SOL    HW230006   3.801   3.659   2.059
 9703SOL     OW30007   6.071   4.335   4.382
 9703SOL    HW130008   6.041   4.400   4.452
 9703SOL    HW230009   6.006   4.260   4.376
 9704SOL     OW30010   1.371   4.253   2.628
 9704SOL    HW130011   1.406   4.239   2.535
 9704SOL    HW230012   1.447   4.253   2.693
 9705SOL     OW30013   6.998   2.967   5.118
 9705SOL    HW130014   0.029   2.896   5.167
 9705SOL    HW230015   7.009   3.055   5.165
 9706SOL     OW30016   0.482   1.278   2.564
 9706SOL    HW130017   0.582   1.281   2.571
 9706SOL    HW230018   0.455   1.301   2.470
 9707SOL     OW30019   1.313   4.855   1.989
 9707SOL    HW130020   1.395   4.873   2.044
 9707SOL    HW230021   1.242   4.815   2.047
 9708SOL     OW30022   2.487   0.752   1.806
 9708SOL    HW130023   2.438   0.676   1.849
 9708SOL    HW230024   2.584   0.747   1.831
 9709SOL     OW30025   5.989   2.433   1.639
 9709SOL    HW130026   5.890   2.432   1.650
 9709SOL    HW230027   6.033   2.420   1.728
 9710SOL     OW30028   6.725   5.309   4.064
 9710SOL    HW130029   6.766   5.372   4.129
 9710SOL    HW230030   6.626   5.322   4.063
 9711SOL     OW30031   3.240   0.623   0.605
 9711SOL    HW130032   3.294   0.556   0.657
 9711SOL    HW230033   3.145   0.593   0.600
 9712SOL     OW30034   5.542   1.497   6.869
 9712SOL    HW130035   5.446   1.523   6.858
 9712SOL    HW230036   5.595   1.576   6.898
 9713SOL     OW30037   1.077   6.674   2.877
 9713SOL    HW130038   1.160   6.658   2.930
 9713SOL    HW230039   1.027   6.588   2.866
 9714SOL     OW30040   2.405   4.343   4.442
 9714SOL    HW130041   2.398   4.344   4.343
 9714SOL    HW230042   2.371   4.256   4.477
 9715SOL     OW30043   6.739   3.805   0.029
 9715SOL    HW130044   6.743   3.760   6.960
 9715SOL    HW230045   6.811   3.875   0.035
 9716SOL     OW30046   2.714   5.511   0.203
 9716SOL    HW130047   2.723   5.512   0.303
 9716SOL    HW230048   2.805   5.503   0.162
 9717SOL     OW30049   4.037   2.096   5.289
 9717SOL    HW130050   3.948   2.052   5.302
 9717SOL    HW230051   4.109   2.037   5.326
 9718SOL     OW30052   4.142   2.616   6.304
 9718SOL    HW130053   4.148   2.699   6.249
 9718SOL    HW230054   4.196   2.626   6.387
 9719SOL     OW30055   4.672   6.902   5.965
 9719SOL    HW130056   4.693   6.905   5.867
 9719SOL    HW230057   4.670   6.995   6.001
 9720SOL     OW30058   2.252   2.954   3.193
 9720SOL    HW130059   2.179   2.900   3.151
 9720SOL    HW230060   2.321   2.976   3.124
 9721SOL     OW30061   1.278   1.277   0.115
 9721SOL    HW130062   1.262   1.374   0.130
 9721SOL    HW230063   1.305   1.262   0.019
 9722SOL     OW30064   3.997   2.519   5.436
 9722SOL    HW130065   4.048   2.535   5.351
 9722SOL    HW230066   4.054   2.467   5.499
 9723SOL     OW30067   6.482   0.221   4.894
 9723SOL    HW130068   6.465   0.225   4.992
 9723SOL    HW230069   6.508   0.311   4.860
 9724SOL     OW30070   1.936   5.344   0.273
 9724SOL    HW130071   1.937   5.269   0.208
 9724SOL    HW230072   2.012   5.334   0.338
 9725SOL     OW30073   4.002   5.084   4.681
 9725SOL    HW130074   4.100   5.066   4.675
 9725SOL    HW230075   3.955   5.035   4.609
 9726SOL     OW30076   0.275   1.193   3.298
 9726SOL    HW130077   0.362   1.145   3.287
 9726SOL    HW230078   0.214   1.170   3.222
 9727SOL     OW30079   0.241   1.549   1.339
 9727SOL    HW130080   0.272   1.644   1.326
 9727SOL    HW230081   0.311   1.487   1.304
 9728SOL     OW30082   4.596   1.770   4.367
 9728SOL    HW130083   4.662   1.819   4.425
 9728SOL    HW230084   4.614   1.792   4.271
 9729SOL     OW30085   0.102   5.265   2.911
 9729SOL    HW130086   0.029   5.247   2.845
 9729SOL    HW230087   0.188   5.280   2.863
 9730SOL     OW30088   1.312   4.417   3.058
 9730SOL    HW130089   1.296   4.515   3.056
 9730SOL    HW230090   1.225   4.370   3.073
 9731SOL     OW30091   5.601   3.346   2.052
 9731SOL    HW130092   5.678   3.370   1.993
 9731SOL    HW230093   5.535   3.421   2.053
 9732SOL     OW30094   1.870   3.514   2.959
 9732SOL    HW130095   1.896   3.602   2.999
 9732SOL    HW230096   1.874   3.520   2.860
 9733SOL     OW30097   5.805   4.488   1.950
 9733SOL    HW130098   5.714   4.501   1.990
 9733SOL    HW230099   5.841   4.399   1.976
 9734SOL     OW30100   5.211   5.715   6.566
 9734SOL    HW130101   5.307   5.723   6.593
 9734SOL    HW230102   5.196   5.625   6.525
 9735SOL     OW30103   0.541   2.320   0.998
 9735SOL    HW130104   0.634   2.357   1.005
 9735SOL    HW230105   0.509   2.330   0.904
 9736SOL     OW30106   4.930   1.509   5.045
 9736SOL    HW130107   4.987   1.576   5.093
 9736SOL    HW230108   4.848   1.555   5.009
 9737SOL     OW30109   6.211   3.330   3.009
 9737SOL    HW130110   6.259   3.347   2.923
 9737SOL    HW230111   6.113   3.343   2.996
 9738SOL     OW30112   2.382   6.831   1.836
 9738SOL    HW130113   2.339   6.921   1.834
 9738SOL    HW230114   2.382   6.796   1.930
 9739SOL     OW30115   5.902   6.885   0.579
 9739SOL    HW130116   5.866   6.807   0.527
 9739SOL    HW230117   5.830   6.922   0.638
 9740SOL     OW30118   6.091   0.840   3.277
 9740SOL    HW130119   6.097   0.878   3.369
 9740SOL    HW230120   6.120   0.744   3.278
 9741SOL     OW30121   2.556   1.821   4.496
 9741SOL    HW130122   2.570   1.723   4.481
 9741SOL    HW230123   2.501   1.836   4.578
 9742SOL     OW30124   3.678   2.226   6.250
 9742SOL    HW130125   3.739   2.301   6.277
 9742SOL    HW230126   3.701   2.196   6.157
 9743SOL     OW30127   5.290   3.800   4.393
 9743SOL    HW130128   5.216   3.858   4.429
 9743SOL    HW230129   5.270   3.704   4.414
 9744SOL     OW30130   1.545   1.669   3.330
 9744SOL    HW130131   1.518   1.764   3.312
 9744SOL    HW230132   1.574   1.660   3.425
 9745SOL     OW30133   6.752   0.333   6.268
 9745SOL    HW130134   6.799   0.379   6.343
 9745SOL    HW230135   6.694   0.260   6.305
 9746SOL     OW30136   4.370   5.105   6.087
 9746SOL    HW130137   4.432   5.129   6.012
 9746SOL    HW230138   4.361   5.183   6.149
 9747SOL     OW30139   2.429   1.401   2.818
 9747SOL    HW130140   2.515   1.378   2.863
 9747SOL    HW230141   2.366   1.323   2.824
 9748SOL     OW30142   1.019   0.719   3.382
 9748SOL    HW130143   0.974   0.642   3.337
 9748SOL    HW230144   1.062   0.777   3.314
 9749SOL     OW30145   0.127   0.838   2.180
 9749SOL    HW130146   0.193   0.839   2.255
 9749SOL    HW230147   0.102   0.744   2.158
 9750SOL     OW30148   5.995   3.290   4.125
 9750SOL    HW130149   5.968   3.386   4.117
 9750SOL    HW230150   5.962   3.253   4.211
 9751SOL     OW30151   3.919   6.960   1.662
 9751SOL    HW130152   3.823   6.954   1.690
 9751SOL    HW230153   3.950   0.035   1.669
 9752SOL     OW30154   3.334   3.500   0.136
 9752SOL    HW130155   3.358   3.407   0.107
 9752SOL    HW230156   3.269   3.539   0.071
 9753SOL     OW30157   6.842   6.149   5.050
 9753SOL    HW130158   6.938   6.169   5.072
 9753SOL    HW230159   6.824   6.052   5.063
 9754SOL     OW30160   3.207   0.667   1.551
 9754SOL    HW130161   3.159   0.588   1.590
 9754SOL    HW230162   3.154   0.750   1.569
 9755SOL     OW30163   2.923   3.604   0.216
 9755SOL    HW130164   3.008   3.627   0.169
 9755SOL    HW230165   2.878   3.687   0.247
 9756SOL     OW30166   5.694   0.137   5.911
 9756SOL    HW130167   5.699   0.042   5.879
 9756SOL    HW230168   5.703   0.198   5.833
 9757SOL     OW30169   5.279   4.173   4.086
 9757SOL    HW130170   5.222   4.253   4.069
 9757SOL    HW230171   5.367   4.203   4.124
 9758SOL     OW30172   1.808   0.535   2.016
 9758SOL    HW130173   1.877   0.492   1.957
 9758SOL    HW230174   1.830   0.516   2.112
 9759SOL     OW30175   6.907   1.322   1.429
 9759SOL    HW130176   6.899   1.420   1.447
 9759SOL    HW230177   6.881   1.303   1.335
 9760SOL     OW30178   4.904   0.906   6.901
 9760SOL    HW130179   4.967   0.954   6.840
 9760SOL    HW230180   4.892   0.959   6.985
 9761SOL     OW30181   1.487   2.358   0.960
 9761SOL    HW130182   1.399   2.349   1.006
 9761SOL    HW230183   1.561   2.343   1.025
 9762SOL     OW30184   2.847   1.832   5.687
 9762SOL    HW130185   2.775   1.766   5.707
 9762SOL    HW230186   2.882   1.817   5.594
 9763SOL     OW30187   6.355   1.239   0.831
 9763SOL    HW130188   6.318   1.155   0.872
 9763SOL    HW230189   6.385   1.301   0.904
 9764SOL     OW30190   6.961   2.173   2.680
 9764SOL    HW130191   6.902   2.100   2.714
 9764SOL    HW230192   6.915   2.261   2.692
 9765SOL     OW30193   0.034   0.154   2.127
 9765SOL    HW130194   0.056   0.060   2.154
 9765SOL    HW230195   0.070   0.218   2.195
 9766SOL     OW30196   1.899   1.900   4.108
 9766SOL    HW130197   1.856   1.825   4.058
 9766SOL    HW230198   1.887   1.985   4.057
 9767SOL     OW30199   2.426   2.058   5.558
 9767SOL    HW130200   2.462   1.968   5.532
 9767SOL    HW230201   2.501   2.114   5.594
 9768SOL     OW30202   5.545   3.005   0.907
 9768SOL    HW130203   5.532   3.007   0.808
 9768SOL    HW230204   5.477   3.063   0.951
 9769SOL     OW30205   4.000   1.608   5.405
 9769SOL    HW130206   3.917   1.622   5.351
 9769SOL    HW230207   3.983   1.539   5.475
 9770SOL     OW30208   2.485   2.627   6.248
 9770SOL    HW130209   2.525   2.659   6.162
 9770SOL    HW230210   2.387   2.613   6.235
 9771SOL     OW30211   2.700   6.900   2.091
 9771SOL    HW130212   2.649   6.979   2.055
 9771SOL    HW230213   2.762   6.867   2.021
 9772SOL     OW30214   1.177   0.520   1.118
 9772SOL    HW130215   1.084   0.529   1.085
 9772SOL    HW230216   1.211   0.428   1.100
 9773SOL     OW30217   5.294   4.843   1.882
 9773SOL    HW130218   5.355   4.808   1.954
 9773SOL    HW230219   5.303   4.943   1.877
 9774SOL     OW30220   1.319   4.536   5.099
 9774SOL    HW130221   1.242   4.600   5.098
 9774SOL    HW230222   1.304   4.468   5.171
 9775SOL     OW30223   2.722   1.381   3.758
 9775SOL    HW130224   2.721   1.397   3.857
 9775SOL    HW230225   2.637   1.338   3.730
 9776SOL     OW30226   2.300   5.719   0.572
 9776SOL    HW130227   2.281   5.650   0.502
 9776SOL    HW230228   2.327   5.805   0.529
 9777SOL     OW30229   4.532   0.891   5.658
 9777SOL    HW130230   4.631   0.909   5.654
 9777SOL    HW230231   4.512   0.829   5.733
 9778SOL     OW30232   0.288   3.917   3.959
 9778SOL    HW130233   0.317   3.953   3.871
 9778SOL    HW230234   0.191   3.890   3.955
 9779SOL     OW30235   2.208   0.905   3.731
 9779SOL    HW130236   2.274   0.833   3.752
 9779SOL    HW230237   2.153   0.877   3.653
 9780SOL     OW30238   0.940   2.782   2.269
 9780SOL    HW130239   0.964   2.685   2.271
 9780SOL    HW230240   0.944   2.816   2.176
 9781SOL     OW30241   2.302   2.162   3.128
 9781SOL    HW130242   2.394   2.202   3.132
 9781SOL    HW230243   2.275   2.133   3.220
 9782SOL     OW30244   0.359   2.753   0.944
 9782SOL    HW130245   0.277   2.698   0.958
 9782SOL    HW230246   0.434   2.715   0.998
 9783SOL     OW30247   3.755   0.956   3.008
 9783SOL    HW130248   3.679   0.996   3.059
 9783SOL    HW230249   3.728   0.947   2.912
 9784SOL     OW30250   1.038   1.507   6.353
 9784SOL    HW130251   1.086   1.547   6.431
 9784SOL    HW230252   1.070   1.414   6.338
 9785SOL     OW30253   0.082   3.739   4.486
 9785SOL    HW130254   7.018   3.730   4.432
 9785SOL    HW230255   0.059   3.766   4.579
 9786SOL     OW30256   2.326   3.819   0.230
 9786SOL    HW130257   2.312   3.722   0.208
 9786SOL    HW230258   2.408   3.829   0.287
 9787SOL     OW30259   3.316   3.692   3.466
 9787SOL    HW130260   3.354   3.643   3.544
 9787SOL    HW230261   3.271   3.627   3.404
 9788SOL     OW30262   4.207   0.462   2.229
 9788SOL    HW130263   4.139   0.420   2.289
 9788SOL    HW230264   4.178   0.455   2.134
 9789SOL     OW30265   3.719   1.610   0.073
 9789SOL    HW130266   3.624   1.619   0.041
 9789SOL    HW230267   3.781   1.632   7.018
 9790SOL     OW30268   0.061   5.233   3.966
 9790SOL    HW130269   6.988   5.253   3.934
 9790SOL    HW230270   0.103   5.166   3.905
 9791SOL     OW30271   1.011   6.568   1.350
 9791SOL    HW130272   0.929   6.625   1.354
 9791SOL    HW230273   1.018   6.514   1.434
 9792SOL     OW30274   3.787   5.481   0.914
 9792SOL    HW130275   3.876   5.456   0.951
 9792SOL    HW230276   3.785   5.467   0.815
 9793SOL     OW30277   5.855   0.489   3.364
 9793SOL    HW130278   5.767   0.455   3.397
 9793SOL    HW230279   5.841   0.575   3.314
 9794SOL     OW30280   4.433   4.578   4.681
 9794SOL    HW130281   4.436   4.572   4.582
 9794SOL    HW230282   4.340   4.558   4.713
 9795SOL     OW30283   1.908   3.502   3.311
 9795SOL    HW130284   1.982   3.554   3.268
 9795SOL    HW230285   1.940   3.410   3.332
 9796SOL     OW30286   3.868   3.789   3.777
 9796SOL    HW130287   3.867   3.867   3.715
 9796SOL    HW230288   3.951   3.735   3.763
 9797SOL     OW30289   2.729   5.243   6.914
 9797SOL    HW130290   2.659   5.278   6.976
 9797SOL    HW230291   2.801   5.198   6.968
 9798SOL     OW30292   0.334   3.715   0.033
 9798SOL    HW130293   0.425   3.748   0.006
 9798SOL    HW230294   0.314   3.630   7.003
 9799SOL     OW30295   2.616   0.251   6.565
 9799SOL    HW130296   2.557   0.329   6.550
 9799SOL    HW230297   2.693   0.277   6.624
 9800SOL     OW30298   6.667   3.650   4.835
 9800SOL    HW130299   6.609   3.701   4.773
 9800SOL    HW230300   6.610   3.599   4.900
 9801SOL     OW30301   6.579   6.379   6.993
 9801SOL    HW130302   6.584   6.289   6.948
 9801SOL    HW230303   6.519   6.373   0.053
 9802SOL     OW30304   3.652   4.823   0.093
 9802SOL    HW130305   3.672   4.817   0.190
 9802SOL    HW230306   3.559   4.790   0.076
 9803SOL     OW30307   0.965   3.967   6.685
 9803SOL    HW130308   0.881   3.934   6.641
 9803SOL    HW230309   0.991   4.055   6.645
 9804SOL     OW30310   7.013   6.032   2.487
 9804SOL    HW130311   7.019   6.042   2.586
 9804SOL    HW230312   0.084   6.011   2.449
 9805SOL     OW30313   0.406   6.030   3.972
 9805SOL    HW130314   0.387   6.054   3.877
 9805SOL    HW230315   0.477   5.960   3.975
 9806SOL     OW30316   3.898   1.562   0.259
 9806SOL    HW130317   3.882   1.508   0.342
 9806SOL    HW230318   3.812   1.572   0.209
 9807SOL     OW30319   3.655   3.331   2.103
 9807SOL    HW130320   3.588   3.396   2.066
 9807SOL    HW230321   3.724   3.312   2.033
 9808SOL     OW30322   3.916   5.896   2.628
 9808SOL    HW130323   3.949   5.991   2.628
 9808SOL    HW230324   3.993   5.834   2.643
 9809SOL     OW30325   0.045   3.135   1.292
 9809SOL    HW130326   0.064   3.058   1.352
 9809SOL    HW230327   0.124   3.196   1.288
 9810SOL     OW30328   2.643   2.123   0.318
 9810SOL    HW130329   2.675   2.033   0.349
 9810SOL    HW230330   2.612   2.175   0.397
 9811SOL     OW30331   5.788   3.700   4.369
 9811SOL    HW130332   5.831   3.690   4.459
 9811SOL    HW230333   5.715   3.632   4.358
 9812SOL     OW30334   3.601   6.565   5.940
 9812SOL    HW130335   3.675   6.546   5.876
 9812SOL    HW230336   3.523   6.506   5.919
 9813SOL     OW30337   5.372   1.410   1.712
 9813SOL    HW130338   5.339   1.383   1.621
 9813SOL    HW230339   5.410   1.502   1.708
 9814SOL     OW30340   5.567   1.452   0.252
 9814SOL    HW130341   5.553   1.531   0.191
 9814SOL    HW230342   5.663   1.423   0.247
 9815SOL     OW30343   4.478   2.499   4.422
 9815SOL    HW130344   4.421   2.444   4.483
 9815SOL    HW230345   4.443   2.592   4.418
 9816SOL     OW30346   2.360   0.100   0.073
 9816SOL    HW130347   2.395   0.170   0.010
 9816SOL    HW230348   2.313   0.144   0.149
 9817SOL     OW30349   6.614   7.004   2.774
 9817SOL    HW130350   6.544   0.026   2.716
 9817SOL    HW230351   6.584   6.915   2.805
 9818SOL     OW30352   6.107   2.983   4.308
 9818SOL    HW130353   6.092   3.082   4.314
 9818SOL    HW230354   6.021   2.935   4.323
 9819SOL     OW30355   4.040   0.491   2.886
 9819SOL    HW130356   3.985   0.563   2.928
 9819SOL    HW230357   4.015   0.482   2.789
 9820SOL     OW30358   4.671   3.282   5.706
 9820SOL    HW130359   4.610   3.269   5.628
 9820SOL    HW230360   4.765   3.259   5.680
 9821SOL     OW30361   6.252   5.275   0.038
 9821SOL    HW130362   6.253   5.175   0.039
 9821SOL    HW230363   6.189   5.308   0.107
 9822SOL     OW30364   0.506   6.723   2.419
 9822SOL    HW130365   0.467   6.634   2.441
 9822SOL    HW230366   0.601   6.727   2.452
 9823SOL     OW30367   3.506   0.996   1.749
 9823SOL    HW130368   3.535   1.090   1.763
 9823SOL    HW230369   3.445   0.991   1.670
 9824SOL     OW30370   1.243   3.955   6.036
 9824SOL    HW130371   1.317   3.990   5.980
 9824SOL    HW230372   1.174   4.026   6.049
 9825SOL     OW30373   3.930   4.855   5.095
 9825SOL    HW130374   3.860   4.895   5.036
 9825SOL    HW230375   3.888   4.788   5.156
 9826SOL     OW30376   4.500   0.721   5.882
 9826SOL    HW130377   4.519   0.772   5.966
 9826SOL    HW230378   4.576   0.660   5.862
 9827SOL     OW30379   1.153   3.814   4.464
 9827SOL    HW130380   1.160   3.805   4.563
 9827SOL    HW230381   1.057   3.806   4.437
 9828SOL     OW30382   3.707   2.701   6.652
 9828SOL    HW130383   3.707   2.801   6.648
 9828SOL    HW230384   3.713   2.672   6.748
 9829SOL     OW30385   2.810   5.229   0.909
 9829SOL    HW130386   2.736   5.202   0.970
 9829SOL    HW230387   2.794   5.190   0.818
 9830SOL     OW30388   6.022   1.297   1.270
 9830SOL    HW130389   5.947   1.356   1.240
 9830SOL    HW230390   6.109   1.335   1.238
 9831SOL     OW30391   6.290   6.579   1.593
 9831SOL    HW130392   6.279   6.481   1.611
 9831SOL    HW230393   6.374   6.595   1.542
 9832SOL     OW30394   4.498   4.877   1.251
 9832SOL    HW130395   4.412   4.927   1.264
 9832SOL    HW230396   4.532   4.845   1.339
 9833SOL     OW30397   3.679   3.777   5.184
 9833SOL    HW130398   3.676   3.872   5.214
 9833SOL    HW230399   3.610   3.725   5.235
 9834SOL     OW30400   0.679   3.424   4.575
 9834SOL    HW130401   0.669   3.353   4.645
 9834SOL    HW230402   0.618   3.500   4.596
 9835SOL     OW30403   4.886   1.913   4.206
 9835SOL    HW130404   4.818   1.843   4.228
 9835SOL    HW230405   4.939   1.884   4.126
 9836SOL     OW30406   4.831   5.183   3.045
 9836SOL    HW130407   4.891   5.171   3.125
 9836SOL    HW230408   4.768   5.259   3.061
 9837SOL     OW30409   2.632   6.372   4.260
 9837SOL    HW130410   2.715   6.316   4.266
 9837SOL    HW230411   2.641   6.451   4.321
 9838SOL     OW30412   0.624   6.277   6.054
 9838SOL    HW130413   0.696   6.340   6.083
 9838SOL    HW230414   0.665   6.192   6.022
 9839SOL     OW30415   0.164   1.817   1.763
 9839SOL    HW130416   0.173   1.753   1.687
 9839SOL    HW230417   0.067   1.836   1.779
 9840SOL     OW30418   6.394   0.301   1.220
 9840SOL    HW130419   6.482   0.282   1.262
 9840SOL    HW230420   6.384   0.400   1.209
 9841SOL     OW30421   1.746   3.645   4.683
 9841SOL    HW130422   1.744   3.551   4.651
 9841SOL    HW230423   1.839   3.670   4.709
 9842SOL     OW30424   2.931   3.284   2.528
 9842SOL    HW130425   2.882   3.236   2.602
 9842SOL    HW230426   3.016   3.236   2.508
 9843SOL     OW30427   6.821   2.515   2.015
 9843SOL    HW130428   6.809   2.488   1.920
 9843SOL    HW230429   6.818   2.434   2.073
 9844SOL     OW30430   5.434   0.141   2.347
 9844SOL    HW130431   5.340   0.142   2.380
 9844SOL    HW230432   5.465   0.235   2.331
 9845SOL     OW30433   1.589   2.139   3.456
 9845SOL    HW130434   1.587   2.212   3.387
 9845SOL    HW230435   1.662   2.158   3.522
 9846SOL     OW30436   2.928   3.385   2.931
 9846SOL    HW130437   2.900   3.428   2.845
 9846SOL    HW230438   2.968   3.455   2.992
 9847SOL     OW30439   1.912   3.893   5.888
 9847SOL    HW130440   1.865   3.959   5.831
 9847SOL    HW230441   2.000   3.931   5.917
 9848SOL     OW30442   4.692   2.944   0.058
 9848SOL    HW130443   4.709   2.898   0.145
 9848SOL    HW230444   4.772   2.935   7.018
 9849SOL     OW30445   6.970   6.556   6.424
 9849SOL    HW130446   0.013   6.630   6.401
 9849SOL    HW230447   6.957   6.497   6.344
 9850SOL     OW30448   3.747   6.326   2.477
 9850SOL    HW130449   3.747   6.347   2.379
 9850SOL    HW230450   3.661   6.283   2.502
 9851SOL     OW30451   5.361   1.572   5.294
 9851SOL    HW130452   5.385   1.665   5.320
 9851SOL    HW230453   5.383   1.558   5.197
 9852SOL     OW30454   4.990   1.851   3.526
 9852SOL    HW130455   4.981   1.950   3.526
 9852SOL    HW230456   4.899   1.809   3.530
 9853SOL     OW30457   6.078   3.849   2.846
 9853SOL    HW130458   6.017   3.925   2.821
 9853SOL    HW230459   6.030   3.786   2.906
 9854SOL     OW30460   5.915   5.197   4.532
 9854SOL    HW130461   5.853   5.119   4.517
 9854SOL    HW230462   5.867   5.282   4.513
 9855SOL     OW30463   1.445   3.501   1.739
 9855SOL    HW130464   1.475   3.438   1.810
 9855SOL    HW230465   1.507   3.496   1.661
 9856SOL     OW30466   3.614   3.055   0.545
 9856SOL    HW130467   3.536   3.092   0.495
 9856SOL    HW230468   3.694   3.050   0.485
 9857SOL     OW30469   5.765   3.269   3.210
 9857SOL    HW130470   5.740   3.363   3.232
 9857SOL    HW230471   5.736   3.247   3.117
 9858SOL     OW30472   5.484   0.610   1.808
 9858SOL    HW130473   5.542   0.569   1.738
 9858SOL    HW230474   5.455   0.702   1.779
 9859SOL     OW30475   6.111   0.697   2.042
 9859SOL    HW130476   6.038   0.705   1.974
 9859SOL    HW230477   6.124   0.786   2.087
 9860SOL     OW30478   0.661   1.054   2.336
 9860SOL    HW130479   0.712   1.105   2.405
 9860SOL    HW230480   0.635   1.115   2.261
 9861SOL     OW30481   4.181   5.795   4.398
 9861SOL    HW130482   4.119   5.776   4.475
 9861SOL    HW230483   4.192   5.894   4.388
 9862SOL     OW30484   1.456   2.576   0.773
 9862SOL    HW130485   1.543   2.619   0.750
 9862SOL    HW230486   1.474   2.495   0.830
 9863SOL     OW30487   3.734   0.384   2.807
 9863SOL    HW130488   3.820   0.419   2.770
 9863SOL    HW230489   3.733   0.284   2.800
 9864SOL     OW30490   5.018   5.929   2.523
 9864SOL    HW130491   4.939   5.888   2.569
 9864SOL    HW230492   5.049   5.868   2.450
 9865SOL     OW30493   0.492   0.460   3.686
 9865SOL    HW130494   0.411   0.457   3.628
 9865SOL    HW230495   0.536   0.370   3.688
 9866SOL     OW30496   4.906   3.877   4.298
 9866SOL    HW130497   4.997   3.917   4.292
 9866SOL    HW230498   4.888   3.848   4.392
 9867SOL     OW30499   4.994   1.338   0.470
 9867SOL    HW130500   5.000   1.367   0.566
 9867SOL    HW230501   4.898   1.341   0.441
 9868SOL     OW30502   6.439   4.552   6.778
 9868SOL    HW130503   6.506   4.490   6.819
 9868SOL    HW230504   6.479   4.643   6.766
 9869SOL     OW30505   1.940   4.235   2.864
 9869SOL    HW130506   1.852   4.254   2.821
 9869SOL    HW230507   1.933   4.247   2.963
 9870SOL     OW30508   4.718   4.134   2.489
 9870SOL    HW130509   4.676   4.076   2.420
 9870SOL    HW230510   4.777   4.202   2.444
 9871SOL     OW30511   2.197   0.712   5.858
 9871SOL    HW130512   2.239   0.663   5.782
 9871SOL    HW230513   2.248   0.797   5.875
 9872SOL     OW30514   2.983   4.907   3.277
 9872SOL    HW130515   2.945   5.000   3.279
 9872SOL    HW230516   2.929   4.848   3.338
 9873SOL     OW30517   1.347   2.951   0.340
 9873SOL    HW130518   1.329   2.934   0.243
 9873SOL    HW230519   1.270   2.919   0.395
 9874SOL     OW30520   0.684   2.953   3.610
 9874SOL    HW130521   0.614   2.998   3.554
 9874SOL    HW230522   0.670   2.976   3.706
 9875SOL     OW30523   0.430   0.609   2.431
 9875SOL    HW130524   0.432   0.709   2.430
 9875SOL    HW230525   0.485   0.574   2.356
 9876SOL     OW30526   6.457   0.077   2.554
 9876SOL    HW130527   6.545   0.031   2.545
 9876SOL    HW230528   6.421   0.100   2.464
 9877SOL     OW30529   3.362   6.788   2.808
 9877SOL    HW130530   3.373   6.815   2.712
 9877SOL    HW230531   3.451   6.762   2.846
 9878SOL     OW30532   1.439   5.895   5.537
 9878SOL    HW130533   1.503   5.872   5.463
 9878SOL    HW230534   1.457   5.836   5.616
 9879SOL     OW30535   4.012   5.203   5.086
 9879SOL    HW130536   3.957   5.238   5.010
 9879SOL    HW230537   4.055   5.117   5.058
 9880SOL     OW30538   1.283   2.340   5.806
 9880SOL    HW130539   1.320   2.374   5.893
 9880SOL    HW230540   1.343   2.268   5.770
 9881SOL     OW30541   0.656   2.225   5.926
 9881SOL    HW130542   0.643   2.324   5.935
 9881SOL    HW230543   0.633   2.181   6.013
 9882SOL     OW30544   1.040   2.252   4.037
 9882SOL    HW130545   1.070   2.339   4.078
 9882SOL    HW230546   1.120   2.200   4.008
 9883SOL     OW30547   1.392   0.833   1.848
 9883SOL    HW130548   1.484   0.818   1.813
 9883SOL    HW230549   1.331   0.763   1.810
 9884SOL     OW30550   4.016   0.510   4.031
 9884SOL    HW130551   3.925   0.540   4.060
 9884SOL    HW230552   4.079   0.514   4.108
 9885SOL     OW30553   6.179   4.827   4.740
 9885SOL    HW130554   6.269   4.809   4.779
 9885SOL    HW230555   6.128   4.889   4.800
 9886SOL     OW30556   1.277   5.001   2.673
 9886SOL    HW130557   1.325   5.089   2.667
 9886SOL    HW230558   1.306   4.942   2.598
 9887SOL     OW30559   3.359   1.417   0.016
 9887SOL    HW130560   3.395   1.366   0.094
 9887SOL    HW230561   3.413   1.500   0.003
 9888SOL     OW30562   0.066   4.020   0.320
 9888SOL    HW130563   7.014   3.954   0.342
 9888SOL    HW230564   0.040   4.111   0.354
 9889SOL     OW30565   6.114   4.879   0.536
 9889SOL    HW130566   6.020   4.898   0.507
 9889SOL    HW230567   6.153   4.807   0.478
 9890SOL     OW30568   1.349   2.991   1.073
 9890SOL    HW130569   1.407   2.987   0.992
 9890SOL    HW230570   1.345   2.901   1.116
 9891SOL     OW30571   5.799   2.725   0.234
 9891SOL    HW130572   5.803   2.800   0.300
 9891SOL    HW230573   5.845   2.645   0.272
 9892SOL     OW30574   6.673   4.652   0.112
 9892SOL    HW130575   6.737   4.726   0.131
 9892SOL    HW230576   6.580   4.680   0.137
 9893SOL     OW30577   1.953   1.171   1.205
 9893SOL    HW130578   1.950   1.269   1.187
 9893SOL    HW230579   1.927   1.121   1.122
 9894SOL     OW30580   1.223   1.730   0.373
 9894SOL    HW130581   1.193   1.673   0.450
 9894SOL    HW230582   1.322   1.734   0.371
 9895SOL     OW30583   5.318   3.383   5.026
 9895SOL    HW130584   5.389   3.321   5.059
 9895SOL    HW230585   5.242   3.384   5.092
 9896SOL     OW30586   6.648   0.311   0.203
 9896SOL    HW130587   6.693   0.388   0.248
 9896SOL    HW230588   6.550   0.329   0.196
 9897SOL     OW30589   5.829   4.886   3.338
 9897SOL    HW130590   5.863   4.979   3.354
 9897SOL    HW230591   5.774   4.885   3.254
 9898SOL     OW30592   3.201   6.099   5.491
 9898SOL    HW130593   3.238   6.141   5.574
 9898SOL    HW230594   3.271   6.103   5.419
 9899SOL     OW30595   0.342   5.398   0.090
 9899SOL    HW130596   0.243   5.401   0.102
 9899SOL    HW230597   0.364   5.342   0.009
 9900SOL     OW30598   1.680   4.435   3.477
 9900SOL    HW130599   1.719   4.431   3.385
 9900SOL    HW230600   1.591   4.389   3.477
 9901SOL     OW30601   2.559   2.491   5.549
 9901SOL    HW130602   2.469   2.532   5.539
 9901SOL    HW230603   2.574   2.423   5.477
 9902SOL     OW30604   2.319   4.685   6.624
 9902SOL    HW130605   2.356   4.593   6.631
 9902SOL    HW230606   2.241   4.685   6.561
 9903SOL     OW30607   5.309   1.642   3.441
 9903SOL    HW130608   5.239   1.642   3.370
 9903SOL    HW230609   5.347   1.550   3.450
 9904SOL     OW30610   0.151   3.537   6.702
 9904SOL    HW130611   0.093   3.460   6.674
 9904SOL    HW230612   0.164   3.535   6.801
 9905SOL     OW30613   4.414   1.440   0.576
 9905SOL    HW130614   4.408   1.530   0.618
 9905SOL    HW230615   4.370   1.442   0.486
 9906SOL     OW30616   3.818   2.957   2.876
 9906SOL    HW130617   3.899   2.978   2.822
 9906SOL    HW230618   3.750   2.913   2.818
 9907SOL     OW30619   0.122   0.574   2.065
 9907SOL    HW130620   0.097   0.553   1.970
 9907SOL    HW230621   0.134   0.488   2.116
 9908SOL     OW30622   4.717   2.853   2.992
 9908SOL    HW130623   4.719   2.837   2.893
 9908SOL    HW230624   4.778   2.788   3.038
 9909SOL     OW30625   2.876   6.485   4.014
 9909SOL    HW130626   2.806   6.499   3.943
 9909SOL    HW230627   2.908   6.574   4.047
 9910SOL     OW30628   1.055   4.653   2.583
 9910SOL    HW130629   0.983   4.600   2.537
 9910SOL    HW230630   1.141   4.601   2.580
 9911SOL     OW30631   4.071   6.925   1.969
 9911SOL    HW130632   4.018   6.948   1.887
 9911SOL    HW230633   4.142   6.995   1.984
 9912SOL     OW30634   4.714   2.066   0.545
 9912SOL    HW130635   4.693   1.994   0.611
 9912SOL    HW230636   4.754   2.025   0.463
 9913SOL     OW30637   5.841   2.973   6.488
 9913SOL    HW130638   5.886   2.898   6.536
 9913SOL    HW230639   5.875   3.060   6.524
 9914SOL     OW30640   0.470   2.641   4.846
 9914SOL    HW130641   0.453   2.542   4.837
 9914SOL    HW230642   0.392   2.684   4.891
 9915SOL     OW30643   4.694   0.933   3.594
 9915SOL    HW130644   4.766   0.906   3.657
 9915SOL    HW230645   4.640   0.853   3.569
 9916SOL     OW30646   2.227   2.539   2.161
 9916SOL    HW130647   2.171   2.580   2.233
 9916SOL    HW230648   2.322   2.566   2.174
 9917SOL     OW30649   6.850   4.378   6.155
 9917SOL    HW130650   6.821   4.335   6.241
 9917SOL    HW230651   6.780   4.363   6.085
 9918SOL     OW30652   4.144   1.391   3.007
 9918SOL    HW130653   4.149   1.490   3.015
 9918SOL    HW230654   4.060   1.358   3.050
 9919SOL     OW30655   6.125   6.621   1.909
 9919SOL    HW130656   6.035   6.610   1.867
 9919SOL    HW230657   6.171   6.700   1.869
 9920SOL     OW30658   4.854   1.351   2.830
 9920SOL    HW130659   4.919   1.427   2.825
 9920SOL    HW230660   4.771   1.374   2.780
 9921SOL     OW30661   4.350   5.297   5.783
 9921SOL    HW130662   4.324   5.350   5.703
 9921SOL    HW230663   4.295   5.326   5.862
 9922SOL     OW30664   0.908   5.725   0.233
 9922SOL    HW130665   1.001   5.689   0.242
 9922SOL    HW230666   0.911   5.809   0.178
 9923SOL     OW30667   4.525   4.918   6.948
 9923SOL    HW130668   4.507   4.835   7.001
 9923SOL    HW230669   4.623   4.927   6.933
 9924SOL     OW30670   0.147   3.311   5.026
 9924SOL    HW130671   0.216   3.278   5.090
 9924SOL    HW230672   0.144   3.411   5.029
 9925SOL     OW30673   5.317   2.695   3.994
 9925SOL    HW130674   5.333   2.720   4.090
 9925SOL    HW230675   5.384   2.742   3.937
 9926SOL     OW30676   2.378   3.803   6.904
 9926SOL    HW130677   2.398   3.735   6.974
 9926SOL    HW230678   2.294   3.851   6.927
 9927SOL     OW30679   5.990   6.987   2.863
 9927SOL    HW130680   5.989   6.942   2.773
 9927SOL    HW230681   5.915   0.034   2.868
 9928SOL     OW30682   5.134   4.622   1.167
 9928SOL    HW130683   5.062   4.675   1.121
 9928SOL    HW230684   5.138   4.648   1.264
 9929SOL     OW30685   2.205   5.593   5.163
 9929SOL    HW130686   2.303   5.576   5.177
 9929SOL    HW230687   2.187   5.604   5.065
 9930SOL     OW30688   6.969   0.060   4.585
 9930SOL    HW130689   6.972   6.995   4.638
 9930SOL    HW230690   6.914   0.045   4.503
 9931SOL     OW30691   1.234   3.964   5.040
 9931SOL    HW130692   1.199   3.898   4.975
 9931SOL    HW230693   1.292   4.031   4.993
 9932SOL     OW30694   1.044   6.526   6.405
 9932SOL    HW130695   1.118   6.526   6.473
 9932SOL    HW230696   1.024   6.620   6.377
 9933SOL     OW30697   1.600   5.570   2.743
 9933SOL    HW130698   1.654   5.643   2.703
 9933SOL    HW230699   1.565   5.599   2.833
 9934SOL     OW30700   5.885   2.148   5.362
 9934SOL    HW130701   5.851   2.229   5.313
 9934SOL    HW230702   5.835   2.067   5.330
 9935SOL     OW30703   2.283   0.964   0.102
 9935SOL    HW130704   2.302   0.877   0.148
 9935SOL    HW230705   2.368   1.015   0.091
 9936SOL     OW30706   0.549   4.592   4.805
 9936SOL    HW130707   0.633   4.646   4.797
 9936SOL    HW230708   0.504   4.612   4.891
 9937SOL     OW30709   6.294   1.651   5.890
 9937SOL    HW130710   6.208   1.607   5.867
 9937SOL    HW230711   6.339   1.681   5.805
 9938SOL     OW30712   6.850   5.938   3.011
 9938SOL    HW130713   6.815   5.901   3.097
 9938SOL    HW230714   6.896   6.026   3.029
 9939SOL     OW30715   3.248   2.767   1.333
 9939SOL    HW130716   3.331   2.741   1.383
 9939SOL    HW230717   3.176   2.700   1.351
 9940SOL     OW30718   6.730   0.849   0.890
 9940SOL    HW130719   6.797   0.920   0.911
 9940SOL    HW230720   6.669   0.881   0.817
 9941SOL     OW30721   2.933   4.062   5.481
 9941SOL    HW130722   2.915   4.060   5.383
 9941SOL    HW230723   2.917   4.155   5.516
 9942SOL     OW30724   2.040   5.763   2.565
 9942SOL    HW130725   2.109   5.695   2.541
 9942SOL    HW230726   2.072   5.817   2.643
 9943SOL     OW30727   0.622   5.863   5.937
 9943SOL    HW130728   0.534   5.887   5.894
 9943SOL    HW230729   0.640   5.926   6.013
 9944SOL     OW30730   1.558   4.184   6.812
 9944SOL    HW130731   1.588   4.089   6.818
 9944SOL    HW230732   1.562   4.226   6.903
 9945SOL     OW30733   0.050   5.371   0.116
 9945SOL    HW130734   0.037   5.275   0.096
 9945SOL    HW230735   7.011   5.426   0.057
 9946SOL     OW30736   5.143   0.750   4.815
 9946SOL    HW130737   5.131   0.833   4.868
 9946SOL    HW230738   5.053   0.714   4.788
 9947SOL     OW30739   6.413   4.647   5.788
 9947SOL    HW130740   6.501   4.681   5.755
 9947SOL    HW230741   6.422   4.621   5.884
 9948SOL     OW30742   4.741   4.267   4.861
 9948SOL    HW130743   4.665   4.331   4.853
 9948SOL    HW230744   4.820   4.303   4.811
 9949SOL     OW30745   5.679   4.731   3.540
 9949SOL    HW130746   5.706   4.786   3.462
 9949SOL    HW230747   5.743   4.746   3.616
 9950SOL     OW30748   4.644   6.062   4.999
 9950SOL    HW130749   4.725   6.118   4.980
 9950SOL    HW230750   4.597   6.098   5.080
 9951SOL     OW30751   5.689   2.348   3.384
 9951SOL    HW130752   5.680   2.248   3.380
 9951SOL    HW230753   5.661   2.381   3.474
 9952SOL     OW30754   6.733   4.305   0.636
 9952SOL    HW130755   6.748   4.259   0.549
 9952SOL    HW230756   6.643   4.282   0.672
 9953SOL     OW30757   6.212   2.019   3.624
 9953SOL    HW130758   6.242   2.020   3.529
 9953SOL    HW230759   6.240   2.103   3.669
 9954SOL     OW30760   6.075   0.157   5.192
 9954SOL    HW130761   6.047   0.213   5.114
 9954SOL    HW230762   6.122   0.214   5.259
 9955SOL     OW30763   6.952   4.482   4.403
 9955SOL    HW130764   0.027   4.456   4.387
 9955SOL    HW230765   6.912   4.519   4.319
 9956SOL     OW30766   2.070   6.615   2.346
 9956SOL    HW130767   2.041   6.688   2.407
 9956SOL    HW230768   2.004   6.605   2.271
 9957SOL     OW30769   6.367   5.138   3.534
 9957SOL    HW130770   6.385   5.052   3.581
 9957SOL    HW230771   6.289   5.127   3.473
 9958SOL     OW30772   3.015   4.047   0.887
 9958SOL    HW130773   3.106   4.065   0.924
 9958SOL    HW230774   3.022   4.027   0.789
 9959SOL     OW30775   3.956   3.769   6.390
 9959SOL    HW130776   4.019   3.822   6.334
 9959SOL    HW230777   3.991   3.676   6.402
 9960SOL     OW30778   0.209   1.488   2.487
 9960SOL    HW130779   0.205   1.571   2.541
 9960SOL    HW230780   0.234   1.411   2.546
 9961SOL     OW30781   1.962   5.565   4.209
 9961SOL    HW130782   2.034   5.568   4.278
 9961SOL    HW230783   2.000   5.538   4.121
 9962SOL     OW30784   5.021   6.361   5.174
 9962SOL    HW130785   5.060   6.287   5.119
 9962SOL    HW230786   4.990   6.435   5.115
 9963SOL     OW30787   3.487   1.373   1.007
 9963SOL    HW130788   3.451   1.366   0.914
 9963SOL    HW230789   3.464   1.290   1.058
 9964SOL     OW30790   4.160   5.807   4.860
 9964SOL    HW130791   4.063   5.806   4.837
 9964SOL    HW230792   4.211   5.753   4.794
 9965SOL     OW30793   4.135   0.131   6.868
 9965SOL    HW130794   4.207   0.178   6.817
 9965SOL    HW230795   4.124   0.174   6.958
 9966SOL     OW30796   0.822   5.617   2.359
 9966SOL    HW130797   0.884   5.666   2.420
 9966SOL    HW230798   0.798   5.529   2.401
 9967SOL     OW30799   1.520   5.689   1.786
 9967SOL    HW130800   1.569   5.742   1.855
 9967SOL    HW230801   1.573   5.607   1.764
 9968SOL     OW30802   3.983   3.914   2.126
 9968SOL    HW130803   3.982   3.993   2.065
 9968SOL    HW230804   3.947   3.834   2.079
 9969SOL     OW30805   1.270   3.823   2.114
 9969SOL    HW130806   1.236   3.852   2.203
 9969SOL    HW230807   1.216   3.866   2.041
 9970SOL     OW30808   5.908   4.251   1.992
 9970SOL    HW130809   5.988   4.218   1.941
 9970SOL    HW230810   5.855   4.173   2.025
 9971SOL     OW30811   2.199   4.379   0.666
 9971SOL    HW130812   2.160   4.292   0.636
 9971SOL    HW230813   2.279   4.361   0.724
 9972SOL     OW30814   6.737   4.913   2.719
 9972SOL    HW130815   6.711   4.892   2.625
 9972SOL    HW230816   6.820   4.969   2.719
 9973SOL     OW30817   5.931   1.260   4.326
 9973SOL    HW130818   5.897   1.218   4.411
 9973SOL    HW230819   5.891   1.211   4.248
 9974SOL     OW30820   1.501   0.596   3.891
 9974SOL    HW130821   1.535   0.525   3.830
 9974SOL    HW230822   1.408   0.620   3.866
 9975SOL     OW30823   7.018   2.769   0.020
 9975SOL    HW130824   7.019   2.674   0.049
 9975SOL    HW230825   0.079   2.816   0.056
 9976SOL     OW30826   1.229   7.003   5.326
 9976SOL    HW130827   1.160   6.971   5.390
 9976SOL    HW230828   1.184   0.018   5.243
 9977SOL     OW30829   6.356   4.539   4.538
 9977SOL    HW130830   6.455   4.555   4.530
 9977SOL    HW230831   6.312   4.620   4.576
 9978SOL     OW30832   0.261   2.358   4.192
 9978SOL    HW130833   0.319   2.419   4.246
 9978SOL    HW230834   0.302   2.344   4.102
 9979SOL     OW30835   6.086   3.514   4.708
 9979SOL    HW130836   6.157   3.548   4.769
 9979SOL    HW230837   6.091   3.414   4.703
 9980SOL     OW30838   3.605   0.779   6.551
 9980SOL    HW130839   3.630   0.819   6.639
 9980SOL    HW230840   3.512   0.807   6.528
 9981SOL     OW30841   2.888   1.896   4.329
 9981SOL    HW130842   2.967   1.950   4.300
 9981SOL    HW230843   2.807   1.925   4.278
 9982SOL     OW30844   0.036   6.209   4.028
 9982SOL    HW130845   0.051   6.224   3.930
 9982SOL    HW230846   0.043   6.296   4.077
 9983SOL     OW30847   0.080   1.376   2.192
 9983SOL    HW130848   0.070   1.475   2.197
 9983SOL    HW230849   0.133   1.343   2.270
 9984SOL     OW30850   2.699   1.987   6.625
 9984SOL    HW130851   2.621   1.924   6.630
 9984SOL    HW230852   2.690   2.044   6.543
 9985SOL     OW30853   1.335   0.910   2.116
 9985SOL    HW130854   1.266   0.854   2.160
 9985SOL    HW230855   1.351   0.877   2.023
 9986SOL     OW30856   5.613   3.789   4.989
 9986SOL    HW130857   5.694   3.771   4.934
 9986SOL    HW230858   5.566   3.703   5.008
 9987SOL     OW30859   6.697   3.794   6.060
 9987SOL    HW130860   6.708   3.886   6.023
 9987SOL    HW230861   6.777   3.771   6.115
 9988SOL     OW30862   6.611   6.829   5.468
 9988SOL    HW130863   6.562   6.764   5.409
 9988SOL    HW230864   6.581   6.816   5.562
 9989SOL     OW30865   0.534   3.096   5.257
 9989SOL    HW130866   0.586   3.040   5.193
 9989SOL    HW230867   0.592   3.170   5.291
 9990SOL     OW30868   1.013   4.923   2.940
 9990SOL    HW130869   0.955   4.929   2.859
 9990SOL    HW230870   1.109   4.938   2.914
 9991SOL     OW30871   3.199   2.116   4.033
 9991SOL    HW130872   3.162   2.032   3.994
 9991SOL    HW230873   3.210   2.106   4.132
 9992SOL     OW30874   6.131   5.733   5.942
 9992SOL    HW130875   6.128   5.805   6.011
 9992SOL    HW230876   6.184   5.764   5.863
 9993SOL     OW30877   1.155   1.548   1.965
 9993SOL    HW130878   1.199   1.614   1.904
 9993SOL    HW230879   1.166   1.456   1.927
 9994SOL     OW30880   6.036   4.763   3.521
 9994SOL    HW130881   5.977   4.819   3.462
 9994SOL    HW230882   6.058   4.813   3.604
 9995SOL     OW30883   5.745   0.761   4.638
 9995SOL    HW130884   5.803   0.679   4.646
 9995SOL    HW230885   5.766   0.824   4.711
 9996SOL     OW30886   3.167   4.761   6.911
 9996SOL    HW130887   3.210   4.774   6.822
 9996SOL    HW230888   3.123   4.847   6.939
 9997SOL     OW30889   2.279   0.094   5.226
 9997SOL    HW130890   2.199   0.113   5.283
 9997SOL    HW230891   2.327   0.179   5.206
 9998SOL     OW30892   5.594   5.717   5.593
 9998SOL    HW130893   5.677   5.769   5.572
 9998SOL    HW230894   5.551   5.755   5.675
 9999SOL     OW30895   6.617   2.439   5.618
 9999SOL    HW130896   6.519   2.438   5.599
 9999SOL    HW230897   6.667   2.413   5.535
10000SOL     OW30898   0.190   2.734   6.582
10000SOL    HW130899   0.262   2.736   6.652
10000SOL    HW230900   0.194   2.648   6.532
10001SOL     OW30901   4.378   0.508   2.671
10001SOL    HW130902   4.417   0.515   2.579
10001SOL    HW230903   4.438   0.552   2.737
10002SOL     OW30904   0.938   0.438   1.944
10002SOL    HW130905   0.983   0.524   1.918
10002SOL    HW230906   0.839   0.451   1.943
10003SOL     OW30907   4.108   1.831   3.534
10003SOL    HW130908   4.077   1.842   3.629
10003SOL    HW230909   4.063   1.899   3.476
10004SOL     OW30910   6.604   2.152   2.954
10004SOL    HW130911   6.668   2.178   3.026
10004SOL    HW230912   6.526   2.104   2.994
10005SOL     OW30913   4.723   6.492   3.916
10005SOL    HW130914   4.681   6.491   4.007
10005SOL    HW230915   4.717   6.585   3.878
10006SOL     OW30916   3.572   6.574   4.544
10006SOL    HW130917   3.567   6.599   4.641
10006SOL    HW230918   3.487   6.601   4.498
10007SOL     OW30919   0.263   3.598   4.166
10007SOL    HW130920   0.175   3.640   4.144
10007SOL    HW230921   0.303   3.645   4.245
10008SOL     OW30922   2.960   0.159   3.996
10008SOL    HW130923   2.995   0.213   3.919
10008SOL    HW230924   2.907   0.082   3.961
10009SOL     OW30925   1.157   4.446   1.648
10009SOL    HW130926   1.224   4.486   1.711
10009SOL    HW230927   1.200   4.431   1.559
10010SOL     OW30928   0.657   1.487   5.872
10010SOL    HW130929   0.685   1.396   5.842
10010SOL    HW230930   0.736   1.549   5.869
10011SOL     OW30931   6.987   6.677   5.577
10011SOL    HW130932   0.061   6.642   5.589
10011SOL    HW230933   6.933   6.609   5.528
10012SOL     OW30934   6.162   1.442   3.753
10012SOL    HW130935   6.069   1.406   3.753
10012SOL    HW230936   6.163   1.530   3.800
10013SOL     OW30937   0.690   0.900   2.621
10013SOL    HW130938   0.693   0.801   2.614
10013SOL    HW230939   0.614   0.927   2.681
10014SOL     OW30940   0.880   4.513   6.007
10014SOL    HW130941   0.817   4.449   6.051
10014SOL    HW230942   0.858   4.607   6.035
10015SOL     OW30943   1.903   4.205   0.243
10015SOL    HW130944   1.904   4.181   0.340
10015SOL    HW230945   1.987   4.172   0.200
10016SOL     OW30946   2.295   0.954   5.905
10016SOL    HW130947   2.357   0.971   5.829
10016SOL    HW230948   2.348   0.934   5.988
10017SOL     OW30949   1.471   2.240   4.258
10017SOL    HW130950   1.417   2.318   4.224
10017SOL    HW230951   1.512   2.264   4.346
10018SOL     OW30952   5.109   6.941   5.980
10018SOL    HW130953   5.135   7.013   6.043
10018SOL    HW230954   5.021   6.902   6.008
10019SOL     OW30955   0.932   1.167   3.055
10019SOL    HW130956   0.981   1.122   3.129
10019SOL    HW230957   0.992   1.177   2.976
10020SOL     OW30958   0.402   3.166   1.083
10020SOL    HW130959   0.324   3.185   1.023
10020SOL    HW230960   0.380   3.089   1.143
10021SOL     OW30961   0.203   3.740   0.651
10021SOL    HW130962   0.249   3.657   0.621
10021SOL    HW230963   0.242   3.819   0.603
10022SOL     OW30964   1.441   2.185   6.258
10022SOL    HW130965   1.381   2.264   6.249
10022SOL    HW230966   1.519   2.194   6.196
10023SOL     OW30967   7.019   3.623   0.820
10023SOL    HW130968   0.059   3.681   0.765
10023SOL    HW230969   0.024   3.633   0.916
10024SOL     OW30970   1.861   4.749   3.819
10024SOL    HW130971   1.959   4.769   3.810
10024SOL    HW230972   1.838   4.735   3.915
10025SOL     OW30973   1.412   1.102   0.728
10025SOL    HW130974   1.319   1.078   0.702
10025SOL    HW230975   1.464   1.127   0.646
10026SOL     OW30976   6.724   0.634   3.313
10026SOL    HW130977   6.639   0.607   3.358
10026SOL    HW230978   6.740   0.732   3.327
10027SOL     OW30979   4.496   2.621   5.124
10027SOL    HW130980   4.557   2.690   5.084
10027SOL    HW230981   4.478   2.549   5.058
10028SOL     OW30982   2.069   0.575   0.155
10028SOL    HW130983   2.087   0.479   0.133
10028SOL    HW230984   2.138   0.633   0.113
10029SOL     OW30985   5.750   1.737   3.432
10029SOL    HW130986   5.797   1.648   3.441
10029SOL    HW230987   5.814   1.810   3.456
10030SOL     OW30988   2.370   0.284   3.247
10030SOL    HW130989   2.335   0.191   3.241
10030SOL    HW230990   2.463   0.287   3.210
10031SOL     OW30991   6.478   4.719   4.235
10031SOL    HW130992   6.454   4.624   4.252
10031SOL    HW230993   6.535   4.726   4.154
10032SOL     OW30994   2.752   1.596   4.595
10032SOL    HW130995   2.777   1.603   4.499
10032SOL    HW230996   2.754   1.500   4.624
10033SOL     OW30997   5.303   2.988   4.801
10033SOL    HW130998   5.361   2.909   4.776
10033SOL    HW230999   5.357   3.053   4.854
10034SOL     OW31000   5.297   0.643   5.582
10034SOL    HW131001   5.318   0.676   5.674
10034SOL    HW231002   5.382   0.629   5.531
10035SOL     OW31003   0.425   5.786   1.697
10035SOL    HW131004   0.387   5.701   1.734
10035SOL    HW231005   0.475   5.833   1.769
10036SOL     OW31006   6.893   0.829   0.385
10036SOL    HW131007   6.970   0.794   0.331
10036SOL    HW231008   6.927   0.860   0.474
10037SOL     OW31009   0.876   6.748   0.293
10037SOL    HW131010   0.932   6.754   0.211
10037SOL    HW231011   0.809   6.823   0.293
10038SOL     OW31012   6.509   0.114   1.513
10038SOL    HW131013   6.412   0.088   1.509
10038SOL    HW231014   6.523   0.178   1.588
10039SOL     OW31015   3.525   0.409   3.611
10039SOL    HW131016   3.490   0.453   3.529
10039SOL    HW231017   3.616   0.446   3.633
10040SOL     OW31018   0.868   3.077   1.236
10040SOL    HW131019   0.902   2.993   1.193
10040SOL    HW231020   0.867   3.151   1.169
10041SOL     OW31021   2.230   5.875   0.221
10041SOL    HW131022   2.215   5.898   0.125
10041SOL    HW231023   2.179   5.938   0.279
10042SOL     OW31024   5.847   2.996   2.668
10042SOL    HW131025   5.897   2.912   2.690
10042SOL    HW231026   5.902   3.053   2.608
10043SOL     OW31027   0.354   1.966   4.759
10043SOL    HW131028   0.340   1.932   4.666
10043SOL    HW231029   0.452   1.980   4.775
10044SOL     OW31030   3.014   1.836   6.191
10044SOL    HW131031   2.918   1.812   6.179
10044SOL    HW231032   3.022   1.918   6.247
10045SOL     OW31033   3.419   1.275   0.748
10045SOL    HW131034   3.422   1.218   0.666
10045SOL    HW231035   3.379   1.223   0.823
10046SOL     OW31036   1.560   5.626   0.731
10046SOL    HW131037   1.529   5.721   0.733
10046SOL    HW231038   1.499   5.573   0.672
10047SOL     OW31039   0.713   3.425   1.269
10047SOL    HW131040   0.677   3.401   1.178
10047SOL    HW231041   0.721   3.342   1.325
10048SOL     OW31042   5.672   5.189   3.373
10048SOL    HW131043   5.692   5.174   3.276
10048SOL    HW231044   5.757   5.187   3.426
10049SOL     OW31045   6.823   0.587   5.411
10049SOL    HW131046   6.765   0.636   5.346
10049SOL    HW231047   6.911   0.632   5.418
10050SOL     OW31048   6.910   3.128   6.891
10050SOL    HW131049   6.990   3.075   6.865
10050SOL    HW231050   6.891   3.116   6.988
10051SOL     OW31051   2.265   3.047   3.886
10051SOL    HW131052   2.273   3.042   3.786
10051SOL    HW231053   2.237   2.958   3.921
10052SOL     OW31054   1.036   6.712   3.447
10052SOL    HW131055   1.065   6.617   3.436
10052SOL    HW231056   1.009   6.749   3.358
10053SOL     OW31057   5.769   5.128   4.953
10053SOL    HW131058   5.821   5.120   5.038
10053SOL    HW231059   5.735   5.221   4.943
10054SOL     OW31060   6.584   3.958   5.104
10054SOL    HW131061   6.509   3.984   5.165
10054SOL    HW231062   6.584   3.859   5.091
10055SOL     OW31063   1.099   1.843   0.141
10055SOL    HW131064   1.050   1.930   0.134
10055SOL    HW231065   1.135   1.833   0.234
10056SOL     OW31066   6.255   2.242   3.726
10056SOL    HW131067   6.298   2.332   3.717
10056SOL    HW231068   6.197   2.240   3.807
10057SOL     OW31069   5.900   5.137   5.177
10057SOL    HW131070   5.929   5.228   5.205
10057SOL    HW231071   5.889   5.079   5.258
10058SOL     OW31072   0.270   3.662   5.265
10058SOL    HW131073   0.351   3.698   5.311
10058SOL    HW231074   0.231   3.733   5.206
10059SOL     OW31075   5.990   0.768   0.129
10059SOL    HW131076   5.980   0.668   0.126
10059SOL    HW231077   5.974   0.800   0.222
10060SOL     OW31078   2.417   1.621   1.551
10060SOL    HW131079   2.471   1.582   1.477
10060SOL    HW231080   2.474   1.634   1.631
10061SOL     OW31081   4.266   6.894   2.899
10061SOL    HW131082   4.315   6.979   2.879
10061SOL    HW231083   4.278   6.871   2.996
10062SOL     OW31084   0.218   0.172   4.879
10062SOL    HW131085   0.196   0.244   4.813
10062SOL    HW231086   0.134   0.136   4.920
10063SOL     OW31087   2.395   2.240   5.179
10063SOL    HW131088   2.447   2.309   5.128
10063SOL    HW231089   2.335   2.191   5.115
10064SOL     OW31090   2.777   6.919   0.312
10064SOL    HW131091   2.860   6.947   0.360
10064SOL    HW231092   2.708   6.991   0.321
10065SOL     OW31093   0.362   1.986   1.827
10065SOL    HW131094   0.425   1.909   1.818
10065SOL    HW231095   0.269   1.957   1.805
10066SOL     OW31096   6.080   3.934   3.881
10066SOL    HW131097   6.175   3.919   3.855
10066SOL    HW231098   6.037   3.846   3.902
10067SOL     OW31099   6.616   3.217   5.010
10067SOL    HW131100   6.701   3.231   4.958
10067SOL    HW231101   6.605   3.119   5.029
10068SOL     OW31102   1.910   3.062   3.144
10068SOL    HW131103   1.847   3.138   3.131
10068SOL    HW231104   2.001   3.097   3.166
10069SOL     OW31105   2.855   4.821   0.420
10069SOL    HW131106   2.810   4.740   0.383
10069SOL    HW231107   2.820   4.903   0.374
10070SOL     OW31108   4.165   6.490   6.633
10070SOL    HW131109   4.080   6.458   6.592
10070SOL    HW231110   4.207   6.416   6.686
10071SOL     OW31111   5.647   0.182   4.462
10071SOL    HW131112   5.594   0.150   4.383
10071SOL    HW231113   5.734   0.219   4.431
10072SOL     OW31114   6.424   3.387   1.492
10072SOL    HW131115   6.352   3.423   1.552
10072SOL    HW231116   6.394   3.301   1.452
10073SOL     OW31117   5.603   4.394   5.295
10073SOL    HW131118   5.665   4.432   5.364
10073SOL    HW231119   5.655   4.366   5.215
10074SOL     OW31120   1.472   5.543   0.384
10074SOL    HW131121   1.421   5.491   0.453
10074SOL    HW231122   1.560   5.499   0.368
10075SOL     OW31123   1.500   3.276   2.181
10075SOL    HW131124   1.412   3.232   2.197
10075SOL    HW231125   1.508   3.358   2.237
10076SOL     OW31126   5.234   4.923   4.622
10076SOL    HW131127   5.204   4.895   4.713
10076SOL    HW231128   5.156   4.922   4.560
10077SOL     OW31129   5.052   3.729   6.491
10077SOL    HW131130   5.082   3.677   6.570
10077SOL    HW231131   5.127   3.789   6.461
10078SOL     OW31132   6.464   5.454   5.217
10078SOL    HW131133   6.427   5.361   5.207
10078SOL    HW231134   6.403   5.518   5.171
10079SOL     OW31135   5.419   3.393   3.972
10079SOL    HW131136   5.334   3.444   3.958
10079SOL    HW231137   5.493   3.437   3.920
10080SOL     OW31138   5.195   1.437   5.965
10080SOL    HW131139   5.159   1.433   5.872
10080SOL    HW231140   5.291   1.410   5.964
10081SOL     OW31141   1.327   4.439   0.668
10081SOL    HW131142   1.298   4.432   0.764
10081SOL    HW231143   1.402   4.504   0.661
10082SOL     OW31144   0.886   4.726   1.478
10082SOL    HW131145   0.884   4.784   1.559
10082SOL    HW231146   0.802   4.737   1.426
10083SOL     OW31147   3.239   5.760   2.637
10083SOL    HW131148   3.146   5.796   2.631
10083SOL    HW231149   3.305   5.832   2.617
10084SOL     OW31150   0.871   1.279   4.646
10084SOL    HW131151   0.946   1.320   4.698
10084SOL    HW231152   0.879   1.179   4.651
10085SOL     OW31153   4.972   0.086   0.544
10085SOL    HW131154   4.948   0.176   0.508
10085SOL    HW231155   5.062   0.059   0.511
10086SOL     OW31156   4.989   6.807   3.391
10086SOL    HW131157   5.035   6.744   3.454
10086SOL    HW231158   4.890   6.800   3.403
10087SOL     OW31159   1.248   5.788   5.265
10087SOL    HW131160   1.346   5.774   5.283
10087SOL    HW231161   1.237   5.833   5.177
10088SOL     OW31162   6.641   3.057   1.464
10088SOL    HW131163   6.706   2.982   1.480
10088SOL    HW231164   6.679   3.142   1.500
10089SOL     OW31165   3.475   0.705   1.079
10089SOL    HW131166   3.436   0.690   1.170
10089SOL    HW231167   3.503   0.617   1.040
10090SOL     OW31168   2.327   6.578   3.200
10090SOL    HW131169   2.247   6.589   3.142
10090SOL    HW231170   2.369   6.489   3.183
10091SOL     OW31171   6.291   4.802   5.587
10091SOL    HW131172   6.306   4.740   5.511
10091SOL    HW231173   6.316   4.757   5.673
10092SOL     OW31174   0.998   2.545   4.111
10092SOL    HW131175   1.083   2.596   4.096
10092SOL    HW231176   0.980   2.540   4.209
10093SOL     OW31177   4.789   4.337   5.891
10093SOL    HW131178   4.774   4.286   5.976
10093SOL    HW231179   4.879   4.313   5.853
10094SOL     OW31180   3.896   2.297   1.447
10094SOL    HW131181   3.912   2.316   1.544
10094SOL    HW231182   3.804   2.259   1.435
10095SOL     OW31183   4.265   3.280   5.420
10095SOL    HW131184   4.223   3.269   5.330
10095SOL    HW231185   4.251   3.374   5.451
10096SOL     OW31186   6.636   3.512   1.960
10096SOL    HW131187   6.609   3.424   2.000
10096SOL    HW231188   6.568   3.541   1.893
10097SOL     OW31189   0.568   1.439   0.525
10097SOL    HW131190   0.625   1.383   0.465
10097SOL    HW231191   0.573   1.404   0.618
10098SOL     OW31192   2.862   5.462   4.243
10098SOL    HW131193   2.897   5.555   4.255
10098SOL    HW231194   2.930   5.396   4.275
10099SOL     OW31195   0.430   5.005   2.126
10099SOL    HW131196   0.374   5.087   2.122
10099SOL    HW231197   0.521   5.028   2.161
10100SOL     OW31198   5.459   4.860   4.316
10100SOL    HW131199   5.375   4.813   4.345
10100SOL    HW231200   5.438   4.956   4.298
10101SOL     OW31201   6.951   3.337   0.888
10101SOL    HW131202   6.899   3.260   0.851
10101SOL    HW231203   6.953   3.412   0.821
10102SOL     OW31204   6.982   5.516   3.295
10102SOL    HW131205   6.909   5.489   3.233
10102SOL    HW231206   6.971   5.612   3.319
10103SOL     OW31207   0.384   5.622   6.609
10103SOL    HW131208   0.417   5.558   6.679
10103SOL    HW231209   0.311   5.580   6.556
10104SOL     OW31210   2.521   0.393   4.808
10104SOL    HW131211   2.557   0.453   4.737
10104SOL    HW231212   2.513   0.300   4.773
10105SOL     OW31213   2.813   1.136   4.988
10105SOL    HW131214   2.740   1.091   5.041
10105SOL    HW231215   2.810   1.234   5.005
10106SOL     OW31216   5.484   4.256   1.281
10106SOL    HW131217   5.554   4.246   1.353
10106SOL    HW231218   5.403   4.300   1.320
10107SOL     OW31219   5.351   4.858   0.371
10107SOL    HW131220   5.426   4.911   0.332
10107SOL    HW231221   5.347   4.874   0.470
10108SOL     OW31222   1.865   2.443   5.726
10108SOL    HW131223   1.932   2.390   5.674
10108SOL    HW231224   1.907   2.476   5.810
10109SOL     OW31225   0.879   2.500   1.441
10109SOL    HW131226   0.889   2.597   1.464
10109SOL    HW231227   0.829   2.453   1.513
10110SOL     OW31228   6.043   5.323   2.701
10110SOL    HW131229   6.090   5.294   2.784
10110SOL    HW231230   5.995   5.245   2.660
10111SOL     OW31231   0.214   2.801   2.052
10111SOL    HW131232   0.163   2.716   2.038
10111SOL    HW231233   0.312   2.783   2.042
10112SOL     OW31234   0.342   2.579   3.104
10112SOL    HW131235   0.341   2.480   3.113
10112SOL    HW231236   0.255   2.616   3.138
10113SOL     OW31237   6.212   0.276   6.690
10113SOL    HW131238   6.239   0.257   6.785
10113SOL    HW231239   6.112   0.283   6.684
10114SOL     OW31240   6.082   2.704   1.751
10114SOL    HW131241   6.100   2.690   1.848
10114SOL    HW231242   6.109   2.622   1.700
10115SOL     OW31243   3.526   2.535   5.697
10115SOL    HW131244   3.433   2.497   5.697
10115SOL    HW231245   3.520   2.634   5.708
10116SOL     OW31246   6.749   0.217   5.628
10116SOL    HW131247   6.751   0.199   5.529
10116SOL    HW231248   6.723   0.313   5.644
10117SOL     OW31249   6.315   4.640   3.249
10117SOL    HW131250   6.307   4.629   3.348
10117SOL    HW231251   6.230   4.614   3.205
10118SOL     OW31252   4.234   5.371   3.873
10118SOL    HW131253   4.151   5.316   3.876
10118SOL    HW231254   4.257   5.391   3.778
10119SOL     OW31255   6.499   5.956   6.427
10119SOL    HW131256   6.597   5.941   6.411
10119SOL    HW231257   6.446   5.905   6.359
10120SOL     OW31258   2.305   2.597   3.564
10120SOL    HW131259   2.343   2.509   3.537
10120SOL    HW231260   2.327   2.666   3.495
10121SOL     OW31261   0.722   5.169   0.762
10121SOL    HW131262   0.800   5.169   0.824
10121SOL    HW231263   0.742   5.110   0.683
10122SOL     OW31264   2.044   0.166   3.301
10122SOL    HW131265   2.129   0.117   3.282
10122SOL    HW231266   1.993   0.179   3.216
10123SOL     OW31267   6.779   5.203   6.451
10123SOL    HW131268   6.763   5.105   6.463
10123SOL    HW231269   6.712   5.240   6.387
10124SOL     OW31270   2.386   5.221   2.825
10124SOL    HW131271   2.316   5.291   2.841
10124SOL    HW231272   2.456   5.258   2.763
10125SOL     OW31273   0.870   0.808   4.871
10125SOL    HW131274   0.856   0.723   4.921
10125SOL    HW231275   0.964   0.841   4.885
10126SOL     OW31276   6.488   6.514   5.997
10126SOL    HW131277   6.481   6.607   6.035
10126SOL    HW231278   6.398   6.485   5.966
10127SOL     OW31279   3.032   0.024   6.051
10127SOL    HW131280   3.083   0.097   6.097
10127SOL    HW231281   2.946   0.008   6.099
10128SOL     OW31282   2.318   2.980   0.507
10128SOL    HW131283   2.322   2.984   0.607
10128SOL    HW231284   2.259   3.053   0.474
10129SOL     OW31285   6.112   1.830   4.641
10129SOL    HW131286   6.140   1.763   4.573
10129SOL    HW231287   6.034   1.882   4.607
10130SOL     OW31288   0.536   1.656   4.349
10130SOL    HW131289   0.491   1.653   4.260
10130SOL    HW231290   0.564   1.750   4.369
10131SOL     OW31291   2.447   6.570   4.393
10131SOL    HW131292   2.370   6.630   4.416
10131SOL    HW231293   2.518   6.624   4.348
10132SOL     OW31294   5.413   0.020   1.968
10132SOL    HW131295   5.469   0.064   2.038
10132SOL    HW231296   5.322   0.003   2.004
10133SOL     OW31297   5.458   6.445   1.104
10133SOL    HW131298   5.444   6.405   1.194
10133SOL    HW231299   5.418   6.537   1.102
10134SOL     OW31300   6.451   0.312   3.303
10134SOL    HW131301   6.390   0.247   3.258
10134SOL    HW231302   6.540   0.269   3.321
10135SOL     OW31303   5.742   0.075   3.160
10135SOL    HW131304   5.786   7.017   3.116
10135SOL    HW231305   5.643   0.061   3.163
10136SOL     OW31306   4.783   1.389   3.101
10136SOL    HW131307   4.784   1.486   3.075
10136SOL    HW231308   4.797   1.333   3.019
10137SOL     OW31309   6.958   4.829   5.114
10137SOL    HW131310   6.877   4.803   5.166
10137SOL    HW231311   6.994   4.749   5.065
10138SOL     OW31312   6.892   2.778   1.899
10138SOL    HW131313   6.920   2.845   1.968
10138SOL    HW231314   6.844   2.702   1.944
10139SOL     OW31315   3.326   3.062   6.604
10139SOL    HW131316   3.311   3.069   6.505
10139SOL    HW231317   3.287   2.976   6.637
10140SOL     OW31318   0.980   6.133   5.212
10140SOL    HW131319   0.895   6.083   5.194
10140SOL    HW231320   1.039   6.079   5.272
10141SOL     OW31321   1.862   2.950   4.247
10141SOL    HW131322   1.908   3.001   4.173
10141SOL    HW231323   1.812   2.873   4.208
10142SOL     OW31324   4.574   6.169   2.937
10142SOL    HW131325   4.560   6.247   2.998
10142SOL    HW231326   4.664   6.175   2.895
10143SOL     OW31327   5.964   2.590   5.999
10143SOL    HW131328   5.939   2.686   6.012
10143SOL    HW231329   6.045   2.584   5.940
10144SOL     OW31330   3.437   6.752   0.870
10144SOL    HW131331   3.348   6.745   0.824
10144SOL    HW231332   3.504   6.789   0.805
10145SOL     OW31333   6.158   6.994   6.249
10145SOL    HW131334   6.233   6.978   6.312
10145SOL    HW231335   6.106   0.054   6.278
10146SOL     OW31336   1.201   2.810   5.008
10146SOL    HW131337   1.262   2.735   4.983
10146SOL    HW231338   1.255   2.888   5.039
10147SOL     OW31339   3.847   5.720   5.643
10147SOL    HW131340   3.824   5.787   5.712
10147SOL    HW231341   3.773   5.652   5.637
10148SOL     OW31342   0.881   4.124   0.447
10148SOL    HW131343   0.819   4.182   0.395
10148SOL    HW231344   0.878   4.148   0.544
10149SOL     OW31345   4.130   3.271   1.285
10149SOL    HW131346   4.054   3.333   1.267
10149SOL    HW231347   4.104   3.178   1.257
10150SOL     OW31348   4.815   4.260   1.061
10150SOL    HW131349   4.735   4.305   1.022
10150SOL    HW231350   4.879   4.237   0.988
10151SOL     OW31351   6.433   1.057   6.402
10151SOL    HW131352   6.520   1.022   6.367
10151SOL    HW231353   6.380   0.982   6.441
10152SOL     OW31354   3.763   6.562   2.605
10152SOL    HW131355   3.753   6.476   2.555
10152SOL    HW231356   3.859   6.573   2.632
10153SOL     OW31357   4.781   4.066   1.972
10153SOL    HW131358   4.693   4.112   1.962
10153SOL    HW231359   4.854   4.129   1.945
10154SOL     OW31360   3.907   5.063   5.306
10154SOL    HW131361   3.883   4.975   5.265
10154SOL    HW231362   3.964   5.115   5.243
10155SOL     OW31363   4.166   1.443   4.048
10155SOL    HW131364   4.256   1.486   4.049
10155SOL    HW231365   4.099   1.506   4.009
10156SOL     OW31366   4.190   1.696   6.700
10156SOL    HW131367   4.142   1.610   6.680
10156SOL    HW231368   4.263   1.710   6.633
10157SOL     OW31369   0.306   4.368   1.544
10157SOL    HW131370   0.396   4.337   1.512
10157SOL    HW231371   0.295   4.343   1.640
10158SOL     OW31372   5.861   5.284   6.887
10158SOL    HW131373   5.852   5.216   6.814
10158SOL    HW231374   5.850   5.239   6.976
10159SOL     OW31375   3.143   2.811   1.768
10159SOL    HW131376   3.104   2.875   1.833
10159SOL    HW231377   3.242   2.824   1.763
10160SOL     OW31378   0.000   4.529   2.861
10160SOL    HW131379   6.943   4.544   2.923
10160SOL    HW231380   0.011   4.431   2.844
10161SOL     OW31381   5.508   3.240   5.163
10161SOL    HW131382   5.581   3.297   5.201
10161SOL    HW231383   5.485   3.167   5.227
10162SOL     OW31384   1.351   2.573   1.876
10162SOL    HW131385   1.263   2.563   1.829
10162SOL    HW231386   1.365   2.495   1.938
10163SOL     OW31387   2.652   5.342   5.088
10163SOL    HW131388   2.751   5.330   5.097
10163SOL    HW231389   2.607   5.253   5.100
10164SOL     OW31390   0.340   1.449   3.834
10164SOL    HW131391   0.417   1.489   3.783
10164SOL    HW231392   0.374   1.409   3.919
10165SOL     OW31393   0.885   3.607   4.586
10165SOL    HW131394   0.798   3.560   4.601
10165SOL    HW231395   0.882   3.653   4.498
10166SOL     OW31396   2.286   6.500   2.531
10166SOL    HW131397   2.205   6.553   2.507
10166SOL    HW231398   2.348   6.497   2.452
10167SOL     OW31399   2.419   1.927   6.967
10167SOL    HW131400   2.470   1.993   6.912
10167SOL    HW231401   2.454   1.835   6.950
10168SOL     OW31402   6.806   0.111   6.633
10168SOL    HW131403   6.748   0.183   6.670
10168SOL    HW231404   6.899   0.145   6.623
10169SOL     OW31405   4.994   4.721   3.488
10169SOL    HW131406   4.950   4.671   3.413
10169SOL    HW231407   5.086   4.686   3.503
10170SOL     OW31408   5.466   5.891   0.083
10170SOL    HW131409   5.371   5.873   0.057
10170SOL    HW231410   5.517   5.805   0.084
10171SOL     OW31411   2.086   4.529   5.040
10171SOL    HW131412   2.142   4.460   5.084
10171SOL    HW231413   2.135   4.616   5.038
10172SOL     OW31414   6.596   0.976   3.349
10172SOL    HW131415   6.537   1.034   3.406
10172SOL    HW231416   6.541   0.931   3.279
10173SOL     OW31417   3.869   3.478   5.031
10173SOL    HW131418   3.808   3.486   4.952
10173SOL    HW231419   3.945   3.416   5.007
10174SOL     OW31420   4.354   5.252   1.216
10174SOL    HW131421   4.428   5.221   1.155
10174SOL    HW231422   4.329   5.177   1.278
10175SOL     OW31423   0.195   6.851   4.577
10175SOL    HW131424   0.111   6.873   4.627
10175SOL    HW231425   0.173   6.800   4.494
10176SOL     OW31426   6.939   0.430   4.773
10176SOL    HW131427   0.005   0.385   4.746
10176SOL    HW231428   6.924   0.510   4.715
10177SOL     OW31429   2.277   0.827   4.472
10177SOL    HW131430   2.348   0.771   4.429
10177SOL    HW231431   2.199   0.836   4.410
10178SOL     OW31432   0.764   1.563   1.264
10178SOL    HW131433   0.845   1.505   1.255
10178SOL    HW231434   0.792   1.659   1.267
10179SOL     OW31435   0.784   4.615   0.200
10179SOL    HW131436   0.798   4.544   0.131
10179SOL    HW231437   0.773   4.704   0.155
10180SOL     OW31438   3.646   0.090   6.240
10180SOL    HW131439   3.654   7.011   6.221
10180SOL    HW231440   3.730   0.123   6.282
10181SOL     OW31441   6.492   3.455   3.016
10181SOL    HW131442   6.441   3.445   2.930
10181SOL    HW231443   6.511   3.364   3.054
10182SOL     OW31444   4.191   0.992   1.119
10182SOL    HW131445   4.128   0.915   1.112
10182SOL    HW231446   4.138   1.077   1.126
10183SOL     OW31447   4.820   0.296   5.614
10183SOL    HW131448   4.752   0.274   5.684
10183SOL    HW231449   4.911   0.270   5.645
10184SOL     OW31450   5.374   1.834   5.787
10184SOL    HW131451   5.370   1.741   5.749
10184SOL    HW231452   5.281   1.869   5.797
10185SOL     OW31453   3.422   5.116   1.018
10185SOL    HW131454   3.494   5.127   1.086
10185SOL    HW231455   3.454   5.150   0.930
10186SOL     OW31456   3.566   3.386   6.660
10186SOL    HW131457   3.485   3.409   6.605
10186SOL    HW231458   3.645   3.373   6.599
10187SOL     OW31459   2.022   4.325   5.721
10187SOL    HW131460   2.100   4.319   5.660
10187SOL    HW231461   1.945   4.367   5.672
10188SOL     OW31462   3.130   0.260   6.175
10188SOL    HW131463   3.131   0.222   6.268
10188SOL    HW231464   3.060   0.331   6.169
10189SOL     OW31465   1.601   1.519   4.993
10189SOL    HW131466   1.574   1.425   5.014
10189SOL    HW231467   1.652   1.557   5.071
10190SOL     OW31468   4.633   4.451   0.935
10190SOL    HW131469   4.634   4.545   0.902
10190SOL    HW231470   4.630   4.388   0.858
10191SOL     OW31471   5.500   0.206   0.004
10191SOL    HW131472   5.528   0.291   6.979
10191SOL    HW231473   5.533   0.206   0.098
10192SOL     OW31474   1.678   1.050   4.480
10192SOL    HW131475   1.738   1.103   4.539
10192SOL    HW231476   1.655   0.963   4.524
10193SOL     OW31477   3.757   3.395   3.721
10193SOL    HW131478   3.735   3.433   3.811
10193SOL    HW231479   3.772   3.297   3.729
10194SOL     OW31480   3.169   0.373   2.771
10194SOL    HW131481   3.090   0.350   2.714
10194SOL    HW231482   3.145   0.359   2.867
10195SOL     OW31483   5.181   0.174   2.431
10195SOL    HW131484   5.185   0.270   2.404
10195SOL    HW231485   5.086   0.143   2.434
10196SOL     OW31486   5.197   3.276   4.766
10196SOL    HW131487   5.109   3.312   4.797
10196SOL    HW231488   5.268   3.300   4.832
10197SOL     OW31489   5.486   1.608   2.452
10197SOL    HW131490   5.504   1.513   2.426
10197SOL    HW231491   5.552   1.637   2.521
10198SOL     OW31492   2.419   0.378   1.384
10198SOL    HW131493   2.360   0.434   1.326
10198SOL    HW231494   2.477   0.439   1.440
10199SOL     OW31495   0.982   1.836   0.717
10199SOL    HW131496   0.900   1.871   0.671
10199SOL    HW231497   1.042   1.913   0.739
10200SOL     OW31498   5.834   5.141   5.618
10200SOL    HW131499   5.867   5.077   5.548
10200SOL    HW231500   5.735   5.143   5.616
10201SOL     OW31501   1.595   4.621   2.746
10201SOL    HW131502   1.516   4.677   2.771
10201SOL    HW231503   1.621   4.641   2.651
10202SOL     OW31504   0.704   3.011   2.954
10202SOL    HW131505   0.744   2.919   2.947
10202SOL    HW231506   0.621   3.007   3.009
10203SOL     OW31507   1.078   3.553   2.044
10203SOL    HW131508   1.162   3.567   2.096
10203SOL    HW231509   1.047   3.640   2.006
10204SOL     OW31510   3.000   4.970   4.244
10204SOL    HW131511   3.077   4.931   4.193
10204SOL    HW231512   2.941   4.896   4.277
10205SOL     OW31513   4.415   1.047   2.110
10205SOL    HW131514   4.487   1.080   2.171
10205SOL    HW231515   4.376   1.124   2.059
10206SOL     OW31516   4.326   0.248   5.962
10206SOL    HW131517   4.379   0.201   6.034
10206SOL    HW231518   4.363   0.339   5.948
10207SOL     OW31519   4.105   0.670   3.409
10207SOL    HW131520   4.187   0.648   3.462
10207SOL    HW231521   4.061   0.751   3.447
10208SOL     OW31522   6.090   3.898   4.870
10208SOL    HW131523   6.055   3.959   4.800
10208SOL    HW231524   6.148   3.828   4.829
10209SOL     OW31525   5.233   6.723   6.695
10209SOL    HW131526   5.174   6.653   6.735
10209SOL    HW231527   5.327   6.707   6.725
10210SOL     OW31528   5.108   5.801   1.427
10210SOL    HW131529   5.173   5.771   1.358
10210SOL    HW231530   5.070   5.722   1.475
10211SOL     OW31531   3.903   5.787   4.820
10211SOL    HW131532   3.838   5.745   4.885
10211SOL    HW231533   3.855   5.855   4.765
10212SOL     OW31534   6.191   6.444   5.316
10212SOL    HW131535   6.159   6.531   5.355
10212SOL    HW231536   6.246   6.463   5.234
10213SOL     OW31537   4.760   0.435   4.028
10213SOL    HW131538   4.721   0.344   4.023
10213SOL    HW231539   4.851   0.430   4.069
10214SOL     OW31540   6.977   0.977   1.417
10214SOL    HW131541   6.930   1.054   1.459
10214SOL    HW231542   0.053   0.976   1.446
10215SOL     OW31543   3.918   3.094   6.733
10215SOL    HW131544   3.907   3.035   6.653
10215SOL    HW231545   3.830   3.135   6.757
10216SOL     OW31546   4.932   0.069   2.430
10216SOL    HW131547   4.840   0.087   2.396
10216SOL    HW231548   4.955   6.992   2.415
10217SOL     OW31549   3.107   1.999   5.478
10217SOL    HW131550   3.148   2.040   5.396
10217SOL    HW231551   3.038   1.932   5.451
10218SOL     OW31552   2.289   2.428   1.008
10218SOL    HW131553   2.358   2.475   0.953
10218SOL    HW231554   2.284   2.332   0.980
10219SOL     OW31555   0.988   4.061   0.712
10219SOL    HW131556   1.076   4.073   0.758
10219SOL    HW231557   0.938   4.148   0.713
10220SOL     OW31558   3.837   2.939   0.744
10220SOL    HW131559   3.799   2.897   0.826
10220SOL    HW231560   3.795   2.898   0.663
10221SOL     OW31561   3.023   0.911   4.985
10221SOL    HW131562   3.112   0.897   4.941
10221SOL    HW231563   3.011   1.009   5.003
10222SOL     OW31564   2.047   5.084   5.472
10222SOL    HW131565   2.066   5.147   5.396
10222SOL    HW231566   2.112   5.099   5.545
10223SOL     OW31567   6.710   4.521   0.474
10223SOL    HW131568   6.732   4.610   0.514
10223SOL    HW231569   6.735   4.449   0.538
10224SOL     OW31570   2.193   0.081   4.822
10224SOL    HW131571   2.197   0.126   4.911
10224SOL    HW231572   2.099   0.054   4.802
10225SOL     OW31573   5.779   5.910   4.479
10225SOL    HW131574   5.863   5.958   4.506
10225SOL    HW231575   5.702   5.973   4.486
10226SOL     OW31576   6.812   2.933   0.148
10226SOL    HW131577   6.872   2.867   0.103
10226SOL    HW231578   6.754   2.885   0.213
10227SOL     OW31579   5.323   5.710   6.036
10227SOL    HW131580   5.232   5.719   5.996
10227SOL    HW231581   5.332   5.775   6.112
10228SOL     OW31582   0.973   4.082   3.068
10228SOL    HW131583   1.056   4.077   3.012
10228SOL    HW231584   0.892   4.071   3.011
10229SOL     OW31585   1.940   1.111   1.979
10229SOL    HW131586   1.929   1.183   2.048
10229SOL    HW231587   2.035   1.107   1.950
10230SOL     OW31588   6.352   6.677   4.953
10230SOL    HW131589   6.260   6.715   4.955
10230SOL    HW231590   6.374   6.639   5.043
10231SOL     OW31591   4.371   6.630   4.300
10231SOL    HW131592   4.403   6.676   4.383
10231SOL    HW231593   4.321   6.696   4.244
10232SOL     OW31594   3.858   1.976   4.328
10232SOL    HW131595   3.807   1.917   4.392
10232SOL    HW231596   3.942   2.008   4.373
10233SOL     OW31597   4.850   1.207   5.398
10233SOL    HW131598   4.798   1.129   5.433
10233SOL    HW231599   4.816   1.231   5.307
10234SOL     OW31600   5.207   6.211   1.632
10234SOL    HW131601   5.149   6.136   1.602
10234SOL    HW231602   5.303   6.183   1.625
10235SOL     OW31603   5.243   1.719   6.058
10235SOL    HW131604   5.156   1.710   6.106
10235SOL    HW231605   5.275   1.629   6.029
10236SOL     OW31606   2.159   5.959   2.717
10236SOL    HW131607   2.227   5.933   2.786
10236SOL    HW231608   2.205   6.007   2.642
10237SOL     OW31609   6.156   2.269   3.357
10237SOL    HW131610   6.207   2.272   3.443
10237SOL    HW231611   6.205   2.323   3.288
10238SOL     OW31612   4.559   5.507   4.477
10238SOL    HW131613   4.499   5.438   4.518
10238SOL    HW231614   4.546   5.595   4.523
10239SOL     OW31615   0.056   4.326   4.087
10239SOL    HW131616   0.114   4.378   4.024
10239SOL    HW231617   0.115   4.276   4.152
10240SOL     OW31618   6.303   3.809   3.651
10240SOL    HW131619   6.344   3.880   3.595
10240SOL    HW231620   6.313   3.720   3.606
10241SOL     OW31621   2.048   1.215   3.421
10241SOL    HW131622   1.988   1.152   3.470
10241SOL    HW231623   2.114   1.255   3.485
10242SOL     OW31624   0.823   6.524   6.150
10242SOL    HW131625   0.768   6.510   6.233
10242SOL    HW231626   0.878   6.606   6.160
10243SOL     OW31627   1.114   6.222   2.683
10243SOL    HW131628   1.089   6.135   2.725
10243SOL    HW231629   1.079   6.225   2.589
10244SOL     OW31630   1.652   6.093   0.064
10244SOL    HW131631   1.731   6.154   0.072
10244SOL    HW231632   1.669   6.011   0.117
10245SOL     OW31633   1.936   2.108   0.348
10245SOL    HW131634   1.899   2.019   0.374
10245SOL    HW231635   2.033   2.099   0.328
10246SOL     OW31636   3.786   3.977   4.064
10246SOL    HW131637   3.874   3.945   4.101
10246SOL    HW231638   3.735   3.899   4.027
10247SOL     OW31639   0.776   6.128   5.833
10247SOL    HW131640   0.720   6.109   5.752
10247SOL    HW231641   0.873   6.113   5.811
10248SOL     OW31642   4.523   0.768   2.306
10248SOL    HW131643   4.621   0.786   2.312
10248SOL    HW231644   4.499   0.688   2.361
10249SOL     OW31645   4.303   1.477   0.274
10249SOL    HW131646   4.270   1.435   0.190
10249SOL    HW231647   4.242   1.550   0.302
10250SOL     OW31648   5.885   0.152   0.405
10250SOL    HW131649   5.866   0.248   0.383
10250SOL    HW231650   5.919   0.145   0.499
10251SOL     OW31651   3.668   4.259   6.610
10251SOL    HW131652   3.653   4.346   6.563
10251SOL    HW231653   3.645   4.183   6.548
10252SOL     OW31654   6.184   5.096   2.093
10252SOL    HW131655   6.261   5.158   2.079
10252SOL    HW231656   6.116   5.110   2.021
10253SOL     OW31657   3.786   5.067   6.521
10253SOL    HW131658   3.769   5.085   6.424
10253SOL    HW231659   3.756   5.146   6.575
10254SOL     OW31660   2.166   1.380   4.838
10254SOL    HW131661   2.205   1.288   4.842
10254SOL    HW231662   2.079   1.381   4.888
10255SOL     OW31663   3.517   5.388   3.103
10255SOL    HW131664   3.485   5.483   3.110
10255SOL    HW231665   3.440   5.328   3.082
10256SOL     OW31666   5.790   6.140   6.766
10256SOL    HW131667   5.886   6.168   6.762
10256SOL    HW231668   5.777   6.075   6.842
10257SOL     OW31669   1.492   6.177   6.410
10257SOL    HW131670   1.408   6.133   6.378
10257SOL    HW231671   1.568   6.153   6.350
10258SOL     OW31672   4.154   0.390   3.455
10258SOL    HW131673   4.235   0.448   3.452
10258SOL    HW231674   4.180   0.296   3.433
10259SOL     OW31675   0.704   3.850   3.593
10259SOL    HW131676   0.758   3.799   3.660
10259SOL    HW231677   0.690   3.794   3.512
10260SOL     OW31678   6.937   6.606   1.290
10260SOL    HW131679   6.849   6.648   1.269
10260SOL    HW231680   7.008   6.646   1.232
10261SOL     OW31681   2.129   6.724   1.589
10261SOL    HW131682   2.176   6.772   1.663
10261SOL    HW231683   2.031   6.720   1.608
10262SOL     OW31684   1.471   5.310   4.983
10262SOL    HW131685   1.535   5.280   5.053
10262SOL    HW231686   1.494   5.266   4.896
10263SOL     OW31687   6.508   1.928   5.767
10263SOL    HW131688   6.589   1.894   5.719
10263SOL    HW231689   6.495   2.025   5.745
10264SOL     OW31690   0.309   6.642   6.826
10264SOL    HW131691   0.305   6.706   6.749
10264SOL    HW231692   0.404   6.629   6.854
10265SOL     OW31693   4.386   2.057   2.631
10265SOL    HW131694   4.336   2.051   2.545
10265SOL    HW231695   4.337   2.117   2.695
10266SOL     OW31696   4.157   4.087   6.249
10266SOL    HW131697   4.092   4.158   6.277
10266SOL    HW231698   4.250   4.125   6.251
10267SOL     OW31699   6.651   1.821   5.965
10267SOL    HW131700   6.590   1.770   6.026
10267SOL    HW231701   6.596   1.865   5.894
10268SOL     OW31702   6.387   4.326   1.443
10268SOL    HW131703   6.376   4.424   1.461
10268SOL    HW231704   6.297   4.283   1.441
10269SOL     OW31705   3.074   2.873   6.092
10269SOL    HW131706   3.167   2.872   6.055
10269SOL    HW231707   3.010   2.849   6.020
10270SOL     OW31708   2.992   6.488   1.020
10270SOL    HW131709   3.032   6.402   1.052
10270SOL    HW231710   2.892   6.478   1.016
10271SOL     OW31711   3.574   4.788   0.767
10271SOL    HW131712   3.597   4.867   0.710
10271SOL    HW231713   3.618   4.797   0.856
10272SOL     OW31714   0.635   0.803   6.052
10272SOL    HW131715   0.690   0.767   6.127
10272SOL    HW231716   0.545   0.830   6.086
10273SOL     OW31717   4.554   6.299   4.386
10273SOL    HW131718   4.529   6.218   4.332
10273SOL    HW231719   4.472   6.339   4.425
10274SOL     OW31720   2.086   6.202   6.130
10274SOL    HW131721   1.993   6.179   6.102
10274SOL    HW231722   2.151   6.141   6.084
10275SOL     OW31723   1.071   6.662   2.005
10275SOL    HW131724   1.006   6.727   1.965
10275SOL    HW231725   1.164   6.694   1.991
10276SOL     OW31726   6.966   6.211   6.768
10276SOL    HW131727   6.915   6.247   6.846
10276SOL    HW231728   0.019   6.275   6.744
10277SOL     OW31729   1.947   5.545   3.302
10277SOL    HW131730   2.043   5.527   3.279
10277SOL    HW231731   1.911   5.615   3.241
10278SOL     OW31732   6.356   0.315   6.209
10278SOL    HW131733   6.369   0.414   6.222
10278SOL    HW231734   6.378   0.267   6.294
10279SOL     OW31735   3.552   6.348   3.537
10279SOL    HW131736   3.611   6.429   3.537
10279SOL    HW231737   3.471   6.365   3.482
10280SOL     OW31738   3.210   2.521   6.479
10280SOL    HW131739   3.225   2.473   6.393
10280SOL    HW231740   3.298   2.549   6.518
10281SOL     OW31741   3.706   6.826   4.405
10281SOL    HW131742   3.672   6.739   4.441
10281SOL    HW231743   3.762   6.808   4.323
10282SOL     OW31744   1.115   2.146   4.921
10282SOL    HW131745   1.195   2.161   4.978
10282SOL    HW231746   1.093   2.231   4.872
10283SOL     OW31747   1.447   3.342   5.773
10283SOL    HW131748   1.391   3.371   5.851
10283SOL    HW231749   1.490   3.254   5.794
10284SOL     OW31750   5.770   3.400   6.196
10284SOL    HW131751   5.701   3.375   6.128
10284SOL    HW231752   5.861   3.398   6.154
10285SOL     OW31753   5.666   0.493   0.523
10285SOL    HW131754   5.583   0.483   0.579
10285SOL    HW231755   5.746   0.488   0.582
10286SOL     OW31756   4.419   0.052   3.624
10286SOL    HW131757   4.490   0.120   3.609
10286SOL    HW231758   4.371   0.073   3.710
10287SOL     OW31759   1.883   5.537   1.356
10287SOL    HW131760   1.927   5.604   1.417
10287SOL    HW231761   1.938   5.526   1.274
10288SOL     OW31762   5.194   6.120   3.940
10288SOL    HW131763   5.104   6.078   3.944
10288SOL    HW231764   5.219   6.154   4.031
10289SOL     OW31765   3.061   1.223   1.554
10289SOL    HW131766   3.066   1.198   1.650
10289SOL    HW231767   3.140   1.279   1.529
10290SOL     OW31768   2.850   3.453   2.343
10290SOL    HW131769   2.879   3.378   2.402
10290SOL    HW231770   2.859   3.426   2.247
10291SOL     OW31771   4.284   0.582   5.769
10291SOL    HW131772   4.349   0.633   5.824
10291SOL    HW231773   4.275   0.625   5.679
10292SOL     OW31774   6.942   0.704   4.777
10292SOL    HW131775   0.011   0.678   4.817
10292SOL    HW231776   6.873   0.708   4.849
10293SOL     OW31777   2.696   5.845   2.747
10293SOL    HW131778   2.644   5.887   2.673
10293SOL    HW231779   2.691   5.903   2.828
10294SOL     OW31780   5.685   1.500   2.950
10294SOL    HW131781   5.705   1.586   2.996
10294SOL    HW231782   5.760   1.478   2.887
10295SOL     OW31783   1.668   4.408   5.131
10295SOL    HW131784   1.682   4.495   5.177
10295SOL    HW231785   1.754   4.379   5.088
10296SOL     OW31786   6.366   2.506   0.946
10296SOL    HW131787   6.365   2.443   1.024
10296SOL    HW231788   6.274   2.542   0.931
10297SOL     OW31789   2.417   5.273   4.714
10297SOL    HW131790   2.323   5.239   4.714
10297SOL    HW231791   2.462   5.247   4.800
10298SOL     OW31792   5.511   3.825   3.451
10298SOL    HW131793   5.556   3.848   3.365
10298SOL    HW231794   5.515   3.904   3.513
10299SOL     OW31795   4.939   4.071   2.266
10299SOL    HW131796   4.870   4.138   2.240
10299SOL    HW231797   4.960   4.012   2.188
10300SOL     OW31798   2.049   5.234   2.528
10300SOL    HW131799   1.994   5.164   2.573
10300SOL    HW231800   2.146   5.216   2.544
10301SOL     OW31801   5.669   1.904   1.482
10301SOL    HW131802   5.764   1.935   1.487
10301SOL    HW231803   5.626   1.942   1.400
10302SOL     OW31804   1.314   4.954   3.188
10302SOL    HW131805   1.322   4.956   3.288
10302SOL    HW231806   1.386   5.010   3.147
10303SOL     OW31807   3.645   3.126   1.085
10303SOL    HW131808   3.741   3.144   1.106
10303SOL    HW231809   3.639   3.080   0.996
10304SOL     OW31810   5.886   6.391   3.680
10304SOL    HW131811   5.828   6.406   3.599
10304SOL    HW231812   5.941   6.309   3.666
10305SOL     OW31813   1.837   5.770   1.077
10305SOL    HW131814   1.877   5.834   1.012
10305SOL    HW231815   1.864   5.796   1.170
10306SOL     OW31816   4.424   4.888   0.375
10306SOL    HW131817   4.416   4.820   0.448
10306SOL    HW231818   4.345   4.880   0.314
10307SOL     OW31819   2.803   1.168   5.448
10307SOL    HW131820   2.863   1.212   5.382
10307SOL    HW231821   2.781   1.076   5.418
10308SOL     OW31822   3.020   5.822   3.960
10308SOL    HW131823   3.105   5.818   3.908
10308SOL    HW231824   2.942   5.826   3.897
10309SOL     OW31825   0.836   6.281   3.366
10309SOL    HW131826   0.814   6.298   3.270
10309SOL    HW231827   0.794   6.351   3.423
10310SOL     OW31828   3.637   3.307   4.585
10310SOL    HW131829   3.538   3.297   4.579
10310SOL    HW231830   3.675   3.317   4.493
10311SOL     OW31831   0.425   6.320   1.017
10311SOL    HW131832   0.481   6.313   1.100
10311SOL    HW231833   0.388   6.413   1.010
10312SOL     OW31834   2.080   5.111   0.692
10312SOL    HW131835   2.106   5.146   0.602
10312SOL    HW231836   2.078   5.011   0.691
10313SOL     OW31837   5.969   6.138   3.671
10313SOL    HW131838   5.882   6.110   3.713
10313SOL    HW231839   6.037   6.066   3.687
10314SOL     OW31840   6.342   5.225   5.931
10314SOL    HW131841   6.275   5.179   5.873
10314SOL    HW231842   6.431   5.181   5.922
10315SOL     OW31843   5.798   6.129   4.864
10315SOL    HW131844   5.863   6.091   4.798
10315SOL    HW231845   5.718   6.163   4.815
10316SOL     OW31846   0.143   3.785   3.259
10316SOL    HW131847   0.091   3.822   3.336
10316SOL    HW231848   0.240   3.802   3.274
10317SOL     OW31849   4.011   4.590   0.933
10317SOL    HW131850   4.108   4.568   0.920
10317SOL    HW231851   3.969   4.610   0.845
10318SOL     OW31852   6.623   5.868   2.219
10318SOL    HW131853   6.693   5.877   2.289
10318SOL    HW231854   6.534   5.856   2.262
10319SOL     OW31855   4.866   5.761   4.627
10319SOL    HW131856   4.953   5.727   4.664
10319SOL    HW231857   4.790   5.716   4.675
10320SOL     OW31858   4.490   6.282   1.288
10320SOL    HW131859   4.441   6.252   1.206
10320SOL    HW231860   4.452   6.369   1.319
10321SOL     OW31861   4.161   6.951   4.440
10321SOL    HW131862   4.214   7.010   4.501
10321SOL    HW231863   4.142   6.999   4.355
10322SOL     OW31864   6.621   2.606   0.205
10322SOL    HW131865   6.669   2.576   0.122
10322SOL    HW231866   6.623   2.532   0.272
10323SOL     OW31867   6.168   2.203   5.042
10323SOL    HW131868   6.160   2.253   5.128
10323SOL    HW231869   6.084   2.150   5.028
10324SOL     OW31870   2.983   3.419   3.822
10324SOL    HW131871   2.984   3.494   3.889
10324SOL    HW231872   2.949   3.336   3.865
10325SOL     OW31873   0.929   3.444   3.526
10325SOL    HW131874   0.864   3.385   3.480
10325SOL    HW231875   1.004   3.389   3.563
10326SOL     OW31876   4.838   1.509   1.257
10326SOL    HW131877   4.759   1.460   1.293
10326SOL    HW231878   4.809   1.599   1.224
10327SOL     OW31879   6.878   0.897   3.383
10327SOL    HW131880   6.778   0.902   3.393
10327SOL    HW231881   6.919   0.979   3.421
10328SOL     OW31882   6.253   3.139   2.350
10328SOL    HW131883   6.187   3.161   2.421
10328SOL    HW231884   6.305   3.058   2.377
10329SOL     OW31885   3.891   6.369   2.832
10329SOL    HW131886   3.968   6.406   2.884
10329SOL    HW231887   3.806   6.385   2.883
10330SOL     OW31888   3.549   4.442   1.071
10330SOL    HW131889   3.643   4.449   1.040
10330SOL    HW231890   3.535   4.355   1.118
10331SOL     OW31891   5.579   0.287   4.163
10331SOL    HW131892   5.584   0.387   4.156
10331SOL    HW231893   5.629   0.257   4.244
10332SOL     OW31894   0.258   1.717   0.434
10332SOL    HW131895   0.315   1.760   0.363
10332SOL    HW231896   0.178   1.775   0.452
10333SOL     OW31897   4.977   4.374   4.697
10333SOL    HW131898   4.975   4.474   4.701
10333SOL    HW231899   5.064   4.341   4.734
10334SOL     OW31900   1.132   4.967   4.794
10334SOL    HW131901   1.176   5.044   4.841
10334SOL    HW231902   1.056   4.932   4.850
10335SOL     OW31903   2.292   5.534   1.701
10335SOL    HW131904   2.225   5.474   1.657
10335SOL    HW231905   2.375   5.539   1.644
10336SOL     OW31906   4.186   6.209   2.822
10336SOL    HW131907   4.240   6.126   2.810
10336SOL    HW231908   4.247   6.289   2.815
10337SOL     OW31909   1.014   4.704   5.157
10337SOL    HW131910   1.024   4.775   5.226
10337SOL    HW231911   1.000   4.615   5.202
10338SOL     OW31912   3.999   5.040   3.476
10338SOL    HW131913   3.931   5.113   3.485
10338SOL    HW231914   3.961   4.955   3.513
10339SOL     OW31915   3.455   5.322   0.348
10339SOL    HW131916   3.429   5.231   0.382
10339SOL    HW231917   3.395   5.348   0.273
10340SOL     OW31918   2.028   6.890   0.091
10340SOL    HW131919   1.938   6.934   0.086
10340SOL    HW231920   2.081   6.931   0.165
10341SOL     OW31921   1.021   2.460   2.585
10341SOL    HW131922   1.104   2.442   2.534
10341SOL    HW231923   0.948   2.486   2.522
10342SOL     OW31924   2.777   6.788   3.799
10342SOL    HW131925   2.871   6.789   3.835
10342SOL    HW231926   2.745   6.882   3.791
10343SOL     OW31927   2.166   3.318   3.876
10343SOL    HW131928   2.180   3.359   3.966
10343SOL    HW231929   2.194   3.222   3.878
10344SOL     OW31930   4.323   4.024   0.356
10344SOL    HW131931   4.320   4.090   0.281
10344SOL    HW231932   4.380   3.946   0.329
10345SOL     OW31933   1.448   1.940   6.008
10345SOL    HW131934   1.483   1.865   6.064
10345SOL    HW231935   1.512   1.960   5.934
10346SOL     OW31936   5.797   4.982   0.459
10346SOL    HW131937   5.797   4.892   0.414
10346SOL    HW231938   5.719   5.036   0.426
10347SOL     OW31939   4.892   1.421   1.659
10347SOL    HW131940   4.946   1.428   1.575
10347SOL    HW231941   4.853   1.329   1.665
10348SOL     OW31942   6.934   5.097   5.857
10348SOL    HW131943   6.940   5.149   5.772
10348SOL    HW231944   7.008   5.030   5.860
10349SOL     OW31945   0.364   1.772   1.294
10349SOL    HW131946   0.431   1.719   1.242
10349SOL    HW231947   0.346   1.858   1.248
10350SOL     OW31948   2.120   4.390   4.800
10350SOL    HW131949   2.093   4.457   4.868
10350SOL    HW231950   2.101   4.426   4.708
10351SOL     OW31951   4.568   4.475   4.888
10351SOL    HW131952   4.503   4.512   4.955
10351SOL    HW231953   4.536   4.497   4.796
10352SOL     OW31954   5.890   1.105   6.840
10352SOL    HW131955   5.980   1.075   6.808
10352SOL    HW231956   5.883   1.089   6.938
10353SOL     OW31957   6.286   2.500   3.793
10353SOL    HW131958   6.376   2.515   3.754
10353SOL    HW231959   6.293   2.498   3.893
10354SOL     OW31960   6.399   2.907   1.219
10354SOL    HW131961   6.310   2.891   1.177
10354SOL    HW231962   6.470   2.862   1.165
10355SOL     OW31963   0.797   2.048   0.631
10355SOL    HW131964   0.877   2.104   0.652
10355SOL    HW231965   0.733   2.051   0.707
10356SOL     OW31966   6.118   3.427   5.305
10356SOL    HW131967   6.058   3.437   5.385
10356SOL    HW231968   6.193   3.365   5.327
10357SOL     OW31969   0.845   0.799   6.261
10357SOL    HW131970   0.937   0.762   6.249
10357SOL    HW231971   0.832   0.826   6.356
10358SOL     OW31972   1.060   2.944   3.071
10358SOL    HW131973   1.136   2.962   3.008
10358SOL    HW231974   1.070   3.001   3.153
10359SOL     OW31975   6.665   2.379   2.246
10359SOL    HW131976   6.659   2.321   2.328
10359SOL    HW231977   6.582   2.367   2.191
10360SOL     OW31978   5.647   4.218   1.483
10360SOL    HW131979   5.647   4.118   1.491
10360SOL    HW231980   5.670   4.258   1.571
10361SOL     OW31981   6.409   2.284   2.577
10361SOL    HW131982   6.356   2.222   2.634
10361SOL    HW231983   6.396   2.378   2.609
10362SOL     OW31984   1.291   6.201   1.994
10362SOL    HW131985   1.243   6.278   2.037
10362SOL    HW231986   1.227   6.148   1.939
10363SOL     OW31987   5.518   4.087   6.089
10363SOL    HW131988   5.431   4.093   6.138
10363SOL    HW231989   5.516   4.010   6.026
10364SOL     OW31990   5.961   4.738   2.107
10364SOL    HW131991   5.962   4.747   2.207
10364SOL    HW231992   5.866   4.734   2.075
10365SOL     OW31993   5.885   4.987   0.861
10365SOL    HW131994   5.938   5.012   0.942
10365SOL    HW231995   5.897   5.058   0.790
10366SOL     OW31996   3.032   5.945   3.313
10366SOL    HW131997   3.036   5.863   3.256
10366SOL    HW231998   2.938   5.959   3.343
10367SOL     OW31999   5.904   6.269   1.608
10367SOL    HW132000   5.864   6.357   1.585
10367SOL    HW232001   5.833   6.207   1.642
10368SOL     OW32002   2.329   6.199   1.278
10368SOL    HW132003   2.274   6.150   1.345
10368SOL    HW232004   2.272   6.263   1.227
10369SOL     OW32005   2.467   0.369   5.864
10369SOL    HW132006   2.370   0.363   5.888
10369SOL    HW232007   2.486   0.311   5.785
10370SOL     OW32008   1.125   1.208   5.364
10370SOL    HW132009   1.206   1.182   5.417
10370SOL    HW232010   1.120   1.307   5.357
10371SOL     OW32011   4.508   5.300   2.763
10371SOL    HW132012   4.435   5.281   2.829
10371SOL    HW232013   4.539   5.214   2.722
10372SOL     OW32014   2.758   6.008   1.999
10372SOL    HW132015   2.749   6.082   2.066
10372SOL    HW232016   2.781   5.923   2.046
10373SOL     OW32017   6.733   1.172   6.045
10373SOL    HW132018   6.700   1.158   5.952
10373SOL    HW232019   6.671   1.233   6.094
10374SOL     OW32020   3.530   5.614   3.419
10374SOL    HW132021   3.485   5.646   3.336
10374SOL    HW232022   3.596   5.543   3.396
10375SOL     OW32023   2.378   5.220   0.231
10375SOL    HW132024   2.421   5.286   0.170
10375SOL    HW232025   2.294   5.185   0.189
10376SOL     OW32026   2.221   5.243   4.160
10376SOL    HW132027   2.183   5.314   4.101
10376SOL    HW232028   2.321   5.247   4.157
10377SOL     OW32029   1.669   0.817   2.405
10377SOL    HW132030   1.627   0.794   2.317
10377SOL    HW232031   1.729   0.896   2.393
10378SOL     OW32032   0.191   5.656   4.492
10378SOL    HW132033   0.278   5.697   4.466
10378SOL    HW232034   0.126   5.664   4.416
10379SOL     OW32035   1.972   6.993   4.674
10379SOL    HW132036   1.897   0.007   4.731
10379SOL    HW232037   1.985   0.034   4.596
10380SOL     OW32038   2.944   2.174   4.665
10380SOL    HW132039   2.899   2.094   4.625
10380SOL    HW232040   2.877   2.246   4.679
10381SOL     OW32041   4.697   6.559   1.578
10381SOL    HW132042   4.642   6.588   1.656
10381SOL    HW232043   4.663   6.473   1.542
10382SOL     OW32044   4.314   5.643   1.510
10382SOL    HW132045   4.348   5.696   1.433
10382SOL    HW232046   4.361   5.673   1.594
10383SOL     OW32047   1.324   5.218   0.033
10383SOL    HW132048   1.373   5.278   6.990
10383SOL    HW232049   1.390   5.175   0.095
10384SOL     OW32050   5.597   5.835   1.673
10384SOL    HW132051   5.633   5.756   1.722
10384SOL    HW232052   5.566   5.807   1.582
10385SOL     OW32053   4.447   4.657   0.078
10385SOL    HW132054   4.377   4.624   0.141
10385SOL    HW232055   4.449   4.600   7.016
10386SOL     OW32056   0.346   1.104   0.839
10386SOL    HW132057   0.437   1.075   0.868
10386SOL    HW232058   0.304   1.033   0.783
10387SOL     OW32059   5.446   3.105   2.044
10387SOL    HW132060   5.368   3.105   1.981
10387SOL    HW232061   5.489   3.195   2.044
10388SOL     OW32062   2.558   6.813   5.003
10388SOL    HW132063   2.534   6.838   4.910
10388SOL    HW232064   2.511   6.729   5.029
10389SOL     OW32065   0.488   3.866   0.314
10389SOL    HW132066   0.587   3.864   0.333
10389SOL    HW232067   0.458   3.774   0.288
10390SOL     OW32068   2.249   2.588   1.616
10390SOL    HW132069   2.195   2.665   1.651
10390SOL    HW232070   2.210   2.502   1.649
10391SOL     OW32071   4.901   0.063   4.419
10391SOL    HW132072   4.973   0.062   4.350
10391SOL    HW232073   4.883   6.990   4.451
10392SOL     OW32074   6.572   4.022   4.138
10392SOL    HW132075   6.589   3.933   4.096
10392SOL    HW232076   6.640   4.038   4.210
10393SOL     OW32077   1.374   3.280   3.751
10393SOL    HW132078   1.366   3.288   3.652
10393SOL    HW232079   1.413   3.364   3.789
10394SOL     OW32080   3.482   0.173   3.950
10394SOL    HW132081   3.425   0.091   3.938
10394SOL    HW232082   3.438   0.234   4.016
10395SOL     OW32083   1.235   0.637   0.784
10395SOL    HW132084   1.176   0.684   0.850
10395SOL    HW232085   1.319   0.690   0.770
10396SOL     OW32086   2.689   2.296   4.626
10396SOL    HW132087   2.702   2.202   4.594
10396SOL    HW232088   2.647   2.350   4.553
10397SOL     OW32089   3.580   1.621   3.314
10397SOL    HW132090   3.583   1.544   3.378
10397SOL    HW232091   3.547   1.702   3.362
10398SOL     OW32092   6.423   2.687   1.430
10398SOL    HW132093   6.416   2.749   1.509
10398SOL    HW232094   6.448   2.740   1.349
10399SOL     OW32095   0.644   4.030   1.815
10399SOL    HW132096   0.684   3.939   1.827
10399SOL    HW232097   0.706   4.099   1.852
10400SOL     OW32098   4.023   6.413   0.404
10400SOL    HW132099   3.946   6.352   0.384
10400SOL    HW232100   4.038   6.419   0.502
10401SOL     OW32101   7.011   1.415   5.832
10401SOL    HW132102   0.029   1.416   5.739
10401SOL    HW232103   6.934   1.480   5.838
10402SOL     OW32104   6.927   2.991   4.775
10402SOL    HW132105   6.927   2.939   4.690
10402SOL    HW232106   7.012   3.042   4.783
10403SOL     OW32107   2.700   0.328   1.948
10403SOL    HW132108   2.775   0.267   1.923
10403SOL    HW232109   2.711   0.357   2.043
10404SOL     OW32110   6.941   6.393   6.182
10404SOL    HW132111   0.020   6.381   6.193
10404SOL    HW232112   6.920   6.424   6.089
10405SOL     OW32113   6.997   1.957   6.589
10405SOL    HW132114   6.933   1.952   6.513
10405SOL    HW232115   0.029   1.871   6.594
10406SOL     OW32116   2.630   4.595   1.547
10406SOL    HW132117   2.633   4.659   1.624
10406SOL    HW232118   2.591   4.641   1.467
10407SOL     OW32119   3.285   6.835   6.916
10407SOL    HW132120   3.344   6.891   6.975
10407SOL    HW232121   3.245   6.892   6.845
10408SOL     OW32122   3.597   1.039   0.086
10408SOL    HW132123   3.545   1.076   0.009
10408SOL    HW232124   3.564   0.947   0.106
10409SOL     OW32125   6.151   4.526   1.338
10409SOL    HW132126   6.179   4.432   1.356
10409SOL    HW232127   6.092   4.529   1.257
10410SOL     OW32128   5.987   0.662   0.871
10410SOL    HW132129   6.086   0.652   0.886
10410SOL    HW232130   5.952   0.736   0.928
10411SOL     OW32131   2.869   5.421   3.447
10411SOL    HW132132   2.955   5.451   3.408
10411SOL    HW232133   2.797   5.487   3.427
10412SOL     OW32134   6.528   0.477   0.544
10412SOL    HW132135   6.562   0.490   0.637
10412SOL    HW232136   6.602   0.490   0.479
10413SOL     OW32137   6.599   2.549   1.647
10413SOL    HW132138   6.602   2.598   1.560
10413SOL    HW232139   6.578   2.453   1.631
10414SOL     OW32140   4.600   2.630   4.051
10414SOL    HW132141   4.637   2.677   4.131
10414SOL    HW232142   4.638   2.669   3.968
10415SOL     OW32143   0.936   6.346   6.576
10415SOL    HW132144   0.968   6.392   6.493
10415SOL    HW232145   0.953   6.405   6.655
10416SOL     OW32146   5.918   2.524   4.390
10416SOL    HW132147   5.823   2.509   4.364
10416SOL    HW232148   5.943   2.619   4.372
10417SOL     OW32149   2.820   4.775   4.316
10417SOL    HW132150   2.722   4.758   4.313
10417SOL    HW232151   2.848   4.792   4.411
10418SOL     OW32152   1.115   4.658   6.065
10418SOL    HW132153   1.086   4.727   6.131
10418SOL    HW232154   1.038   4.599   6.042
10419SOL     OW32155   1.141   1.016   0.633
10419SOL    HW132156   1.096   1.049   0.551
10419SOL    HW232157   1.077   1.020   0.710
10420SOL     OW32158   0.455   3.518   3.486
10420SOL    HW132159   0.427   3.425   3.462
10420SOL    HW232160   0.488   3.520   3.580
10421SOL     OW32161   0.294   0.700   2.915
10421SOL    HW132162   0.299   0.654   2.827
10421SOL    HW232163   0.216   0.763   2.916
10422SOL     OW32164   6.276   2.713   6.184
10422SOL    HW132165   6.373   2.704   6.206
10422SOL    HW232166   6.265   2.721   6.085
10423SOL     OW32167   5.091   4.527   3.230
10423SOL    HW132168   5.073   4.434   3.198
10423SOL    HW232169   5.150   4.523   3.311
10424SOL     OW32170   5.266   1.759   6.688
10424SOL    HW132171   5.250   1.699   6.766
10424SOL    HW232172   5.351   1.811   6.703
10425SOL     OW32173   1.734   6.268   2.473
10425SOL    HW132174   1.767   6.337   2.537
10425SOL    HW232175   1.683   6.198   2.522
10426SOL     OW32176   6.779   4.418   0.225
10426SOL    HW132177   6.721   4.485   0.179
10426SOL    HW232178   6.779   4.435   0.323
10427SOL     OW32179   5.420   2.000   0.174
10427SOL    HW132180   5.364   2.014   0.093
10427SOL    HW232181   5.365   1.956   0.245
10428SOL     OW32182   5.221   0.332   4.264
10428SOL    HW132183   5.161   0.387   4.207
10428SOL    HW232184   5.217   0.365   4.358
10429SOL     OW32185   6.362   5.760   1.570
10429SOL    HW132186   6.320   5.833   1.515
10429SOL    HW232187   6.348   5.779   1.667
10430SOL     OW32188   3.916   6.647   2.332
10430SOL    HW132189   4.000   6.648   2.278
10430SOL    HW232190   3.935   6.609   2.423
10431SOL     OW32191   2.984   0.343   4.233
10431SOL    HW132192   3.014   0.309   4.322
10431SOL    HW232193   3.005   0.276   4.162
10432SOL     OW32194   5.725   0.717   5.530
10432SOL    HW132195   5.764   0.626   5.518
10432SOL    HW232196   5.732   0.768   5.445
10433SOL     OW32197   2.218   6.906   0.733
10433SOL    HW132198   2.154   6.851   0.679
10433SOL    HW232199   2.228   6.865   0.824
10434SOL     OW32200   1.888   0.304   3.866
10434SOL    HW132201   1.929   0.243   3.798
10434SOL    HW232202   1.901   0.399   3.837
10435SOL     OW32203   5.006   6.283   6.447
10435SOL    HW132204   4.939   6.292   6.521
10435SOL    HW232205   4.999   6.362   6.386
10436SOL     OW32206   1.621   5.082   3.581
10436SOL    HW132207   1.642   4.985   3.572
10436SOL    HW232208   1.579   5.099   3.671
10437SOL     OW32209   0.179   5.137   6.020
10437SOL    HW132210   0.166   5.125   6.119
10437SOL    HW232211   0.096   5.175   5.980
10438SOL     OW32212   3.888   6.746   0.429
10438SOL    HW132213   3.928   6.659   0.459
10438SOL    HW232214   3.948   6.821   0.457
10439SOL     OW32215   3.662   6.814   6.135
10439SOL    HW132216   3.635   6.755   6.059
10439SOL    HW232217   3.652   6.764   6.221
10440SOL     OW32218   1.756   6.321   0.644
10440SOL    HW132219   1.739   6.405   0.591
10440SOL    HW232220   1.838   6.333   0.700
10441SOL     OW32221   5.407   1.800   6.445
10441SOL    HW132222   5.414   1.701   6.430
10441SOL    HW232223   5.311   1.826   6.457
10442SOL     OW32224   3.598   4.803   5.764
10442SOL    HW132225   3.631   4.796   5.858
10442SOL    HW232226   3.526   4.873   5.759
10443SOL     OW32227   6.148   3.015   4.783
10443SOL    HW132228   6.109   3.072   4.710
10443SOL    HW232229   6.160   2.922   4.750
10444SOL     OW32230   4.101   5.039   4.241
10444SOL    HW132231   4.114   4.981   4.322
10444SOL    HW232232   4.144   5.128   4.256
10445SOL     OW32233   6.878   5.826   5.163
10445SOL    HW132234   6.910   5.749   5.217
10445SOL    HW232235   6.952   5.861   5.107
10446SOL     OW32236   1.033   5.428   6.036
10446SOL    HW132237   0.942   5.457   6.007
10446SOL    HW232238   1.035   5.420   6.136
10447SOL     OW32239   5.908   2.751   1.532
10447SOL    HW132240   5.890   2.846   1.557
10447SOL    HW232241   5.978   2.714   1.594
10448SOL     OW32242   3.887   3.961   2.426
10448SOL    HW132243   3.941   3.950   2.343
10448SOL    HW232244   3.792   3.979   2.402
10449SOL     OW32245   2.683   5.545   4.449
10449SOL    HW132246   2.737   5.538   4.366
10449SOL    HW232247   2.745   5.552   4.528
10450SOL     OW32248   6.897   2.231   0.936
10450SOL    HW132249   6.937   2.177   0.862
10450SOL    HW232250   6.870   2.171   1.011
10451SOL     OW32251   2.511   4.655   2.975
10451SOL    HW132252   2.563   4.682   3.056
10451SOL    HW232253   2.475   4.562   2.988
10452SOL     OW32254   1.284   3.152   4.284
10452SOL    HW132255   1.192   3.117   4.302
10452SOL    HW232256   1.342   3.136   4.364
10453SOL     OW32257   4.653   6.866   1.508
10453SOL    HW132258   4.692   6.775   1.521
10453SOL    HW232259   4.625   6.877   1.412
10454SOL     OW32260   5.220   3.137   1.876
10454SOL    HW132261   5.132   3.171   1.907
10454SOL    HW232262   5.208   3.080   1.795
10455SOL     OW32263   0.095   5.174   3.513
10455SOL    HW132264   0.088   5.173   3.613
10455SOL    HW232265   0.186   5.205   3.487
10456SOL     OW32266   4.414   5.653   1.030
10456SOL    HW132267   4.477   5.691   0.962
10456SOL    HW232268   4.413   5.713   1.110
10457SOL     OW32269   4.128   3.489   3.440
10457SOL    HW132270   4.096   3.395   3.453
10457SOL    HW232271   4.192   3.492   3.363
10458SOL     OW32272   1.476   6.470   0.940
10458SOL    HW132273   1.411   6.541   0.966
10458SOL    HW232274   1.432   6.404   0.880
10459SOL     OW32275   6.487   5.038   2.821
10459SOL    HW132276   6.469   5.040   2.920
10459SOL    HW232277   6.565   4.978   2.803
10460SOL     OW32278   1.926   5.472   2.659
10460SOL    HW132279   1.988   5.394   2.662
10460SOL    HW232280   1.906   5.495   2.564
10461SOL     OW32281   2.612   1.505   6.569
10461SOL    HW132282   2.678   1.536   6.500
10461SOL    HW232283   2.646   1.421   6.611
10462SOL     OW32284   6.926   0.151   0.940
10462SOL    HW132285   6.886   0.059   0.942
10462SOL    HW232286   0.000   0.146   0.908
10463SOL     OW32287   3.256   4.532   0.700
10463SOL    HW132288   3.199   4.585   0.763
10463SOL    HW232289   3.201   4.502   0.623
10464SOL     OW32290   4.985   0.797   1.176
10464SOL    HW132291   5.061   0.857   1.202
10464SOL    HW232292   4.910   0.853   1.140
10465SOL     OW32293   6.190   4.891   6.034
10465SOL    HW132294   6.147   4.801   6.045
10465SOL    HW232295   6.283   4.888   6.072
10466SOL     OW32296   4.591   6.195   5.589
10466SOL    HW132297   4.619   6.188   5.685
10466SOL    HW232298   4.507   6.143   5.574
10467SOL     OW32299   3.188   0.650   5.129
10467SOL    HW132300   3.133   0.710   5.071
10467SOL    HW232301   3.129   0.604   5.195
10468SOL     OW32302   3.877   6.509   3.242
10468SOL    HW132303   3.918   6.584   3.190
10468SOL    HW232304   3.947   6.443   3.267
10469SOL     OW32305   1.449   4.678   0.730
10469SOL    HW132306   1.392   4.700   0.809
10469SOL    HW232307   1.442   4.751   0.662
10470SOL     OW32308   2.544   1.305   4.452
10470SOL    HW132309   2.478   1.252   4.504
10470SOL    HW232310   2.634   1.300   4.496
10471SOL     OW32311   3.800   3.470   0.602
10471SOL    HW132312   3.706   3.445   0.626
10471SOL    HW232313   3.828   3.421   0.520
10472SOL     OW32314   4.605   1.315   2.486
10472SOL    HW132315   4.533   1.257   2.523
10472SOL    HW232316   4.689   1.263   2.476
10473SOL     OW32317   4.846   6.139   0.686
10473SOL    HW132318   4.789   6.184   0.754
10473SOL    HW232319   4.938   6.125   0.723
10474SOL     OW32320   3.751   0.540   4.776
10474SOL    HW132321   3.836   0.517   4.730
10474SOL    HW232322   3.770   0.594   4.858
10475SOL     OW32323   3.876   6.572   1.487
10475SOL    HW132324   3.900   6.497   1.549
10475SOL    HW232325   3.851   6.653   1.540
10476SOL     OW32326   0.114   5.189   0.319
10476SOL    HW132327   0.104   5.257   0.246
10476SOL    HW232328   0.211   5.182   0.344
10477SOL     OW32329   5.695   4.072   5.126
10477SOL    HW132330   5.708   4.099   5.031
10477SOL    HW232331   5.743   3.987   5.144
10478SOL     OW32332   0.605   6.512   1.203
10478SOL    HW132333   0.605   6.520   1.303
10478SOL    HW232334   0.675   6.572   1.165
10479SOL     OW32335   1.441   4.348   3.398
10479SOL    HW132336   1.449   4.434   3.349
10479SOL    HW232337   1.355   4.345   3.449
10480SOL     OW32338   6.058   0.244   1.917
10480SOL    HW132339   6.103   0.284   1.837
10480SOL    HW232340   6.051   0.145   1.905
10481SOL     OW32341   1.862   0.473   5.195
10481SOL    HW132342   1.886   0.560   5.153
10481SOL    HW232343   1.770   0.446   5.167
10482SOL     OW32344   1.299   5.509   5.979
10482SOL    HW132345   1.326   5.553   6.065
10482SOL    HW232346   1.208   5.470   5.989
10483SOL     OW32347   0.230   4.929   0.700
10483SOL    HW132348   0.175   5.008   0.727
10483SOL    HW232349   0.316   4.960   0.660
10484SOL     OW32350   6.232   1.717   1.497
10484SOL    HW132351   6.243   1.659   1.416
10484SOL    HW232352   6.165   1.675   1.558
10485SOL     OW32353   3.830   3.526   3.494
10485SOL    HW132354   3.795   3.503   3.585
10485SOL    HW232355   3.928   3.507   3.491
10486SOL     OW32356   6.225   6.328   5.603
10486SOL    HW132357   6.239   6.288   5.513
10486SOL    HW232358   6.206   6.426   5.594
10487SOL     OW32359   4.805   2.326   2.172
10487SOL    HW132360   4.807   2.256   2.243
10487SOL    HW232361   4.862   2.297   2.095
10488SOL     OW32362   6.333   2.431   5.543
10488SOL    HW132363   6.317   2.523   5.578
10488SOL    HW232364   6.251   2.376   5.555
10489SOL     OW32365   6.315   4.339   4.756
10489SOL    HW132366   6.333   4.396   4.675
10489SOL    HW232367   6.399   4.332   4.810
10490SOL     OW32368   5.722   6.471   6.832
10490SOL    HW132369   5.705   6.488   6.735
10490SOL    HW232370   5.808   6.422   6.843
10491SOL     OW32371   1.956   2.740   5.689
10491SOL    HW132372   1.888   2.667   5.688
10491SOL    HW232373   1.943   2.797   5.770
10492SOL     OW32374   3.438   0.477   7.016
10492SOL    HW132375   3.481   0.504   6.929
10492SOL    HW232376   3.497   0.505   0.072
10493SOL     OW32377   3.936   5.483   1.180
10493SOL    HW132378   3.920   5.516   1.273
10493SOL    HW232379   4.031   5.501   1.155
10494SOL     OW32380   1.103   4.178   5.163
10494SOL    HW132381   1.167   4.200   5.236
10494SOL    HW232382   1.131   4.092   5.119
10495SOL     OW32383   7.001   6.418   0.964
10495SOL    HW132384   7.016   6.321   0.949
10495SOL    HW232385   6.907   6.442   0.939
10496SOL     OW32386   0.185   3.468   5.449
10496SOL    HW132387   0.254   3.446   5.518
10496SOL    HW232388   0.223   3.531   5.382
10497SOL     OW32389   2.000   0.422   1.272
10497SOL    HW132390   1.940   0.497   1.245
10497SOL    HW232391   1.968   0.383   1.359
10498SOL     OW32392   4.307   4.227   0.147
10498SOL    HW132393   4.275   4.232   0.053
10498SOL    HW232394   4.299   4.317   0.190
10499SOL     OW32395   6.048   4.680   2.632
10499SOL    HW132396   6.114   4.750   2.660
10499SOL    HW232397   6.097   4.595   2.610
10500SOL     OW32398   0.866   3.153   5.371
10500SOL    HW132399   0.862   3.118   5.277
10500SOL    HW232400   0.954   3.198   5.386
10501SOL     OW32401   3.490   4.914   2.747
10501SOL    HW132402   3.439   4.997   2.770
10501SOL    HW232403   3.555   4.933   2.673
10502SOL     OW32404   3.426   3.554   2.112
10502SOL    HW132405   3.483   3.630   2.081
10502SOL    HW232406   3.406   3.565   2.210
10503SOL     OW32407   6.563   2.429   6.408
10503SOL    HW132408   6.649   2.430   6.459
10503SOL    HW232409   6.532   2.335   6.398
10504SOL     OW32410   1.233   2.924   6.116
10504SOL    HW132411   1.173   2.848   6.090
10504SOL    HW232412   1.212   3.004   6.060
10505SOL     OW32413   5.660   6.630   0.600
10505SOL    HW132414   5.565   6.654   0.576
10505SOL    HW232415   5.685   6.673   0.686
10506SOL     OW32416   1.156   2.465   6.499
10506SOL    HW132417   1.087   2.393   6.506
10506SOL    HW232418   1.176   2.499   6.591
10507SOL     OW32419   0.741   5.437   5.988
10507SOL    HW132420   0.719   5.341   5.972
10507SOL    HW232421   0.657   5.487   6.011
10508SOL     OW32422   1.707   5.035   5.031
10508SOL    HW132423   1.750   4.977   5.100
10508SOL    HW232424   1.680   4.980   4.952
10509SOL     OW32425   4.625   2.352   2.978
10509SOL    HW132426   4.623   2.373   3.076
10509SOL    HW232427   4.704   2.398   2.936
10510SOL     OW32428   5.826   5.832   3.769
10510SOL    HW132429   5.829   5.787   3.680
10510SOL    HW232430   5.750   5.897   3.771
10511SOL     OW32431   5.042   2.133   1.740
10511SOL    HW132432   5.084   2.213   1.784
10511SOL    HW232433   4.977   2.091   1.803
10512SOL     OW32434   4.519   0.972   5.044
10512SOL    HW132435   4.510   0.917   5.127
10512SOL    HW232436   4.593   0.934   4.987
10513SOL     OW32437   4.282   2.881   0.967
10513SOL    HW132438   4.274   2.931   0.881
10513SOL    HW232439   4.191   2.858   1.001
10514SOL     OW32440   1.688   3.293   1.958
10514SOL    HW132441   1.696   3.393   1.962
10514SOL    HW232442   1.622   3.262   2.027
10515SOL     OW32443   2.393   2.671   4.981
10515SOL    HW132444   2.294   2.678   4.969
10515SOL    HW232445   2.432   2.763   4.992
10516SOL     OW32446   3.805   2.021   1.634
10516SOL    HW132447   3.850   2.109   1.647
10516SOL    HW232448   3.872   1.947   1.641
10517SOL     OW32449   1.270   2.245   2.639
10517SOL    HW132450   1.271   2.252   2.539
10517SOL    HW232451   1.213   2.168   2.666
10518SOL     OW32452   0.574   5.091   2.621
10518SOL    HW132453   0.507   5.121   2.553
10518SOL    HW232454   0.600   4.997   2.602
10519SOL     OW32455   4.119   0.172   1.170
10519SOL    HW132456   4.210   0.156   1.208
10519SOL    HW232457   4.119   0.256   1.116
10520SOL     OW32458   0.532   2.647   5.719
10520SOL    HW132459   0.572   2.673   5.631
10520SOL    HW232460   0.433   2.660   5.716
10521SOL     OW32461   0.115   3.156   2.178
10521SOL    HW132462   0.128   3.095   2.100
10521SOL    HW232463   0.034   3.127   2.230
10522SOL     OW32464   5.143   2.499   3.560
10522SOL    HW132465   5.071   2.564   3.581
10522SOL    HW232466   5.157   2.438   3.639
10523SOL     OW32467   1.030   4.306   3.210
10523SOL    HW132468   1.031   4.215   3.168
10523SOL    HW232469   0.973   4.304   3.292
10524SOL     OW32470   0.078   6.174   5.136
10524SOL    HW132471   0.110   6.230   5.059
10524SOL    HW232472   0.156   6.147   5.192
10525SOL     OW32473   4.852   1.531   3.631
10525SOL    HW132474   4.810   1.590   3.561
10525SOL    HW232475   4.829   1.436   3.611
10526SOL     OW32476   1.039   4.352   0.233
10526SOL    HW132477   1.005   4.271   0.186
10526SOL    HW232478   1.062   4.329   0.327
10527SOL     OW32479   0.443   0.455   5.250
10527SOL    HW132480   0.528   0.507   5.243
10527SOL    HW232481   0.462   0.367   5.293
10528SOL     OW32482   1.670   3.450   5.504
10528SOL    HW132483   1.601   3.505   5.456
10528SOL    HW232484   1.761   3.487   5.485
10529SOL     OW32485   0.426   5.673   1.266
10529SOL    HW132486   0.400   5.590   1.314
10529SOL    HW232487   0.394   5.753   1.318
10530SOL     OW32488   0.389   5.447   0.760
10530SOL    HW132489   0.347   5.527   0.803
10530SOL    HW232490   0.318   5.385   0.728
10531SOL     OW32491   2.907   3.375   5.193
10531SOL    HW132492   2.827   3.332   5.235
10531SOL    HW232493   2.879   3.418   5.106
10532SOL     OW32494   5.101   6.494   6.816
10532SOL    HW132495   5.114   6.517   6.913
10532SOL    HW232496   5.168   6.425   6.789
10533SOL     OW32497   4.277   6.740   2.675
10533SOL    HW132498   4.342   6.665   2.667
10533SOL    HW232499   4.304   6.799   2.751
10534SOL     OW32500   1.315   6.225   4.231
10534SOL    HW132501   1.225   6.181   4.239
10534SOL    HW232502   1.329   6.252   4.136
10535SOL     OW32503   3.689   1.932   2.313
10535SOL    HW132504   3.737   1.866   2.255
10535SOL    HW232505   3.633   1.992   2.256
10536SOL     OW32506   5.030   2.725   4.518
10536SOL    HW132507   5.027   2.684   4.427
10536SOL    HW232508   4.937   2.745   4.549
10537SOL     OW32509   3.891   6.831   4.183
10537SOL    HW132510   3.929   6.924   4.175
10537SOL    HW232511   3.829   6.814   4.107
10538SOL     OW32512   0.454   3.478   2.806
10538SOL    HW132513   0.471   3.570   2.771
10538SOL    HW232514   0.394   3.483   2.886
10539SOL     OW32515   6.284   0.200   3.735
10539SOL    HW132516   6.188   0.199   3.709
10539SOL    HW232517   6.295   0.245   3.823
10540SOL     OW32518   1.704   3.724   5.921
10540SOL    HW132519   1.783   3.785   5.930
10540SOL    HW232520   1.707   3.653   5.991
10541SOL     OW32521   3.714   3.478   4.801
10541SOL    HW132522   3.641   3.535   4.765
10541SOL    HW232523   3.681   3.384   4.811
10542SOL     OW32524   4.545   0.602   4.558
10542SOL    HW132525   4.503   0.517   4.590
10542SOL    HW232526   4.633   0.582   4.515
10543SOL     OW32527   1.391   3.459   4.903
10543SOL    HW132528   1.355   3.466   4.996
10543SOL    HW232529   1.382   3.548   4.858
10544SOL     OW32530   2.421   1.792   3.160
10544SOL    HW132531   2.413   1.799   3.260
10544SOL    HW232532   2.403   1.699   3.131
10545SOL     OW32533   2.192   2.891   2.547
10545SOL    HW132534   2.191   2.891   2.447
10545SOL    HW232535   2.105   2.857   2.581
10546SOL     OW32536   3.008   6.786   6.502
10546SOL    HW132537   3.048   6.775   6.411
10546SOL    HW232538   2.911   6.761   6.499
10547SOL     OW32539   4.327   6.720   5.102
10547SOL    HW132540   4.333   6.634   5.153
10547SOL    HW232541   4.402   6.725   5.036
10548SOL     OW32542   6.710   5.869   3.244
10548SOL    HW132543   6.772   5.807   3.291
10548SOL    HW232544   6.620   5.866   3.287
10549SOL     OW32545   0.024   0.709   1.614
10549SOL    HW132546   0.115   0.750   1.626
10549SOL    HW232547   6.996   0.756   1.539
10550SOL     OW32548   4.650   5.411   3.380
10550SOL    HW132549   4.702   5.373   3.457
10550SOL    HW232550   4.580   5.345   3.351
10551SOL     OW32551   2.541   1.286   5.455
10551SOL    HW132552   2.639   1.270   5.470
10551SOL    HW232553   2.502   1.330   5.536
10552SOL     OW32554   3.075   0.370   3.857
10552SOL    HW132555   3.047   0.442   3.920
10552SOL    HW232556   3.128   0.410   3.782
10553SOL     OW32557   6.947   5.825   1.141
10553SOL    HW132558   7.014   5.757   1.111
10553SOL    HW232559   6.986   5.917   1.132
10554SOL     OW32560   5.791   5.920   2.380
10554SOL    HW132561   5.884   5.890   2.358
10554SOL    HW232562   5.785   6.019   2.368
10555SOL     OW32563   3.831   3.406   1.220
10555SOL    HW132564   3.910   3.445   1.174
10555SOL    HW232565   3.747   3.439   1.177
10556SOL     OW32566   2.356   1.115   2.567
10556SOL    HW132567   2.323   1.120   2.661
10556SOL    HW232568   2.303   1.177   2.510
10557SOL     OW32569   2.868   4.754   3.472
10557SOL    HW132570   2.846   4.798   3.559
10557SOL    HW232571   2.872   4.655   3.484
10558SOL     OW32572   3.738   5.414   5.328
10558SOL    HW132573   3.664   5.351   5.304
10558SOL    HW232574   3.773   5.392   5.419
10559SOL     OW32575   3.983   6.595   0.953
10559SOL    HW132576   4.036   6.548   1.023
10559SOL    HW232577   3.896   6.624   0.991
10560SOL     OW32578   5.636   0.158   2.094
10560SOL    HW132579   5.704   0.221   2.057
10560SOL    HW232580   5.582   0.205   2.165
10561SOL     OW32581   6.415   4.710   0.148
10561SOL    HW132582   6.390   4.789   0.204
10561SOL    HW232583   6.341   4.689   0.085
10562SOL     OW32584   4.184   5.475   2.435
10562SOL    HW132585   4.146   5.538   2.367
10562SOL    HW232586   4.110   5.424   2.479
10563SOL     OW32587   0.266   6.579   2.030
10563SOL    HW132588   0.324   6.633   2.091
10563SOL    HW232589   0.171   6.612   2.036
10564SOL     OW32590   5.382   4.512   3.752
10564SOL    HW132591   5.289   4.506   3.788
10564SOL    HW232592   5.395   4.600   3.707
10565SOL     OW32593   0.519   0.466   6.170
10565SOL    HW132594   0.467   0.393   6.215
10565SOL    HW232595   0.519   0.547   6.229
10566SOL     OW32596   3.443   3.183   0.345
10566SOL    HW132597   3.497   3.122   0.286
10566SOL    HW232598   3.349   3.186   0.312
10567SOL     OW32599   1.565   2.169   6.494
10567SOL    HW132600   1.644   2.230   6.496
10567SOL    HW232601   1.522   2.173   6.404
10568SOL     OW32602   4.579   2.446   5.842
10568SOL    HW132603   4.507   2.377   5.852
10568SOL    HW232604   4.545   2.535   5.874
10569SOL     OW32605   5.339   6.588   0.477
10569SOL    HW132606   5.297   6.503   0.507
10569SOL    HW232607   5.374   6.577   0.384
10570SOL     OW32608   1.191   4.510   3.357
10570SOL    HW132609   1.263   4.540   3.295
10570SOL    HW232610   1.115   4.472   3.304
10571SOL     OW32611   6.582   4.147   6.153
10571SOL    HW132612   6.627   4.123   6.067
10571SOL    HW232613   6.537   4.236   6.144
10572SOL     OW32614   6.184   4.020   0.678
10572SOL    HW132615   6.194   4.112   0.642
10572SOL    HW232616   6.238   3.956   0.624
10573SOL     OW32617   6.068   1.808   3.236
10573SOL    HW132618   6.088   1.783   3.331
10573SOL    HW232619   6.081   1.729   3.177
10574SOL     OW32620   6.214   3.081   2.865
10574SOL    HW132621   6.230   3.142   2.942
10574SOL    HW232622   6.291   3.018   2.856
10575SOL     OW32623   6.262   6.805   1.706
10575SOL    HW132624   6.328   6.854   1.648
10575SOL    HW232625   6.246   6.714   1.669
10576SOL     OW32626   1.514   4.271   4.645
10576SOL    HW132627   1.469   4.359   4.631
10576SOL    HW232628   1.452   4.209   4.693
10577SOL     OW32629   3.524   4.613   0.266
10577SOL    HW132630   3.503   4.535   0.325
10577SOL    HW232631   3.605   4.659   0.300
10578SOL     OW32632   0.228   3.490   4.657
10578SOL    HW132633   0.246   3.557   4.586
10578SOL    HW232634   0.288   3.507   4.735
10579SOL     OW32635   1.072   3.711   6.936
10579SOL    HW132636   1.033   3.744   6.850
10579SOL    HW232637   1.037   3.767   7.012
10580SOL     OW32638   6.137   0.018   0.582
10580SOL    HW132639   6.201   6.997   0.517
10580SOL    HW232640   6.060   6.975   0.597
10581SOL     OW32641   4.939   6.797   3.078
10581SOL    HW132642   4.953   6.791   3.177
10581SOL    HW232643   4.867   6.864   3.059
10582SOL     OW32644   5.920   4.020   6.328
10582SOL    HW132645   5.880   4.063   6.408
10582SOL    HW232646   5.868   3.938   6.303
10583SOL     OW32647   3.091   1.810   4.954
10583SOL    HW132648   3.003   1.810   4.907
10583SOL    HW232649   3.143   1.891   4.928
10584SOL     OW32650   1.124   6.710   4.244
10584SOL    HW132651   1.132   6.702   4.145
10584SOL    HW232652   1.126   6.807   4.269
10585SOL     OW32653   0.877   0.384   5.192
10585SOL    HW132654   0.967   0.371   5.234
10585SOL    HW232655   0.836   0.295   5.172
10586SOL     OW32656   4.083   4.339   5.329
10586SOL    HW132657   4.054   4.249   5.295
10586SOL    HW232658   4.149   4.378   5.265
10587SOL     OW32659   2.460   5.163   5.640
10587SOL    HW132660   2.417   5.099   5.576
10587SOL    HW232661   2.496   5.113   5.718
10588SOL     OW32662   1.135   3.946   4.117
10588SOL    HW132663   1.128   3.848   4.133
10588SOL    HW232664   1.180   3.990   4.194
10589SOL     OW32665   5.601   5.815   4.018
10589SOL    HW132666   5.694   5.848   4.006
10589SOL    HW232667   5.537   5.891   4.012
10590SOL     OW32668   1.038   5.114   2.573
10590SOL    HW132669   1.112   5.057   2.608
10590SOL    HW232670   0.964   5.119   2.641
10591SOL     OW32671   6.871   2.657   1.647
10591SOL    HW132672   6.916   2.692   1.730
10591SOL    HW232673   6.798   2.593   1.674
10592SOL     OW32674   6.335   1.917   5.322
10592SOL    HW132675   6.345   1.928   5.224
10592SOL    HW232676   6.416   1.871   5.359
10593SOL     OW32677   3.087   5.538   3.353
10593SOL    HW132678   3.110   5.612   3.417
10593SOL    HW232679   3.171   5.488   3.330
10594SOL     OW32680   2.844   6.070   3.611
10594SOL    HW132681   2.806   6.119   3.689
10594SOL    HW232682   2.789   6.091   3.529
10595SOL     OW32683   5.106   6.558   0.065
10595SOL    HW132684   5.082   6.643   0.112
10595SOL    HW232685   5.068   6.480   0.116
10596SOL     OW32686   4.933   3.214   0.110
10596SOL    HW132687   4.972   3.162   0.186
10596SOL    HW232688   4.863   3.276   0.145
10597SOL     OW32689   2.042   0.248   5.273
10597SOL    HW132690   1.981   0.318   5.237
10597SOL    HW232691   1.992   0.187   5.335
10598SOL     OW32692   2.901   1.185   6.058
10598SOL    HW132693   2.923   1.264   6.000
10598SOL    HW232694   2.830   1.210   6.123
10599SOL     OW32695   0.149   2.040   6.865
10599SOL    HW132696   0.172   2.056   6.769
10599SOL    HW232697   0.206   2.098   6.923
10600SOL     OW32698   2.513   2.447   1.412
10600SOL    HW132699   2.556   2.400   1.335
10600SOL    HW232700   2.441   2.389   1.450
10601SOL     OW32701   1.247   1.027   5.652
10601SOL    HW132702   1.172   1.044   5.716
10601SOL    HW232703   1.315   1.099   5.662
10602SOL     OW32704   6.764   6.824   1.213
10602SOL    HW132705   6.760   6.809   1.312
10602SOL    HW232706   6.785   6.920   1.195
10603SOL     OW32707   5.191   0.725   2.858
10603SOL    HW132708   5.279   0.731   2.906
10603SOL    HW232709   5.183   0.636   2.812
10604SOL     OW32710   5.061   0.175   4.722
10604SOL    HW132711   5.153   0.172   4.759
10604SOL    HW232712   5.052   0.107   4.648
10605SOL     OW32713   2.134   1.762   1.759
10605SOL    HW132714   2.108   1.804   1.846
10605SOL    HW232715   2.061   1.702   1.728
10606SOL     OW32716   5.998   0.549   0.430
10606SOL    HW132717   6.095   0.539   0.450
10606SOL    HW232718   5.982   0.532   0.333
10607SOL     OW32719   3.131   4.968   6.541
10607SOL    HW132720   3.077   4.982   6.457
10607SOL    HW232721   3.093   4.892   6.593
10608SOL     OW32722   5.615   3.898   3.724
10608SOL    HW132723   5.659   3.821   3.678
10608SOL    HW232724   5.686   3.960   3.759
10609SOL     OW32725   4.811   1.526   6.479
10609SOL    HW132726   4.767   1.535   6.390
10609SOL    HW232727   4.896   1.580   6.480
10610SOL     OW32728   0.555   1.601   3.698
10610SOL    HW132729   0.612   1.539   3.751
10610SOL    HW232730   0.612   1.653   3.634
10611SOL     OW32731   3.925   5.604   4.354
10611SOL    HW132732   3.974   5.655   4.283
10611SOL    HW232733   3.827   5.603   4.334
10612SOL     OW32734   5.899   1.942   3.493
10612SOL    HW132735   5.987   1.896   3.501
10612SOL    HW232736   5.912   2.040   3.509
10613SOL     OW32737   4.240   6.071   4.345
10613SOL    HW132738   4.303   6.104   4.275
10613SOL    HW232739   4.149   6.109   4.328
10614SOL     OW32740   3.796   1.895   6.203
10614SOL    HW132741   3.895   1.894   6.219
10614SOL    HW232742   3.750   1.940   6.279
10615SOL     OW32743   2.035   1.857   5.665
10615SOL    HW132744   1.941   1.894   5.666
10615SOL    HW232745   2.087   1.899   5.740
10616SOL     OW32746   2.493   6.491   0.080
10616SOL    HW132747   2.432   6.521   0.153
10616SOL    HW232748   2.535   6.570   0.036
10617SOL     OW32749   2.235   3.186   1.375
10617SOL    HW132750   2.261   3.181   1.472
10617SOL    HW232751   2.138   3.164   1.365
10618SOL     OW32752   1.535   5.564   3.634
10618SOL    HW132753   1.499   5.479   3.672
10618SOL    HW232754   1.614   5.544   3.575
10619SOL     OW32755   2.241   2.528   2.775
10619SOL    HW132756   2.211   2.547   2.682
10619SOL    HW232757   2.164   2.492   2.828
10620SOL     OW32758   3.095   1.445   6.337
10620SOL    HW132759   3.032   1.457   6.259
10620SOL    HW232760   3.160   1.521   6.338
10621SOL     OW32761   0.603   3.891   3.132
10621SOL    HW132762   0.571   3.970   3.080
10621SOL    HW232763   0.656   3.831   3.072
10622SOL     OW32764   4.578   2.030   0.192
10622SOL    HW132765   4.551   2.105   0.252
10622SOL    HW232766   4.545   2.047   0.099
10623SOL     OW32767   4.704   6.755   6.291
10623SOL    HW132768   4.629   6.714   6.238
10623SOL    HW232769   4.791   6.737   6.244
10624SOL     OW32770   0.498   2.086   0.244
10624SOL    HW132771   0.431   2.064   0.316
10624SOL    HW232772   0.458   2.066   0.155
10625SOL     OW32773   5.425   4.770   0.121
10625SOL    HW132774   5.385   4.777   0.213
10625SOL    HW232775   5.367   4.819   0.056
10626SOL     OW32776   5.247   3.180   1.213
10626SOL    HW132777   5.217   3.105   1.155
10626SOL    HW232778   5.167   3.232   1.243
10627SOL     OW32779   5.626   5.400   5.906
10627SOL    HW132780   5.547   5.405   5.968
10627SOL    HW232781   5.598   5.426   5.814
10628SOL     OW32782   3.719   6.652   1.052
10628SOL    HW132783   3.740   6.748   1.036
10628SOL    HW232784   3.668   6.643   1.137
10629SOL     OW32785   3.251   5.580   4.497
10629SOL    HW132786   3.305   5.572   4.581
10629SOL    HW232787   3.224   5.489   4.466
10630SOL     OW32788   4.173   0.885   2.162
10630SOL    HW132789   4.113   0.961   2.188
10630SOL    HW232790   4.261   0.922   2.131
10631SOL     OW32791   3.583   5.993   0.474
10631SOL    HW132792   3.643   5.926   0.518
10631SOL    HW232793   3.570   6.072   0.534
10632SOL     OW32794   5.019   6.179   3.210
10632SOL    HW132795   5.011   6.084   3.241
10632SOL    HW232796   5.067   6.182   3.122
10633SOL     OW32797   1.446   3.398   0.853
10633SOL    HW132798   1.451   3.298   0.845
10633SOL    HW232799   1.369   3.422   0.913
10634SOL     OW32800   0.664   3.774   6.815
10634SOL    HW132801   0.635   3.805   6.905
10634SOL    HW232802   0.605   3.815   6.745
10635SOL     OW32803   2.283   4.832   5.986
10635SOL    HW132804   2.304   4.897   6.059
10635SOL    HW232805   2.346   4.755   5.991
10636SOL     OW32806   6.962   2.323   6.687
10636SOL    HW132807   6.923   2.235   6.715
10636SOL    HW232808   0.033   2.334   6.728
10637SOL     OW32809   2.730   0.750   0.083
10637SOL    HW132810   2.756   0.709   7.016
10637SOL    HW232811   2.809   0.795   0.124
10638SOL     OW32812   6.155   5.552   1.536
10638SOL    HW132813   6.195   5.529   1.625
10638SOL    HW232814   6.196   5.495   1.465
10639SOL     OW32815   1.141   5.072   1.842
10639SOL    HW132816   1.188   5.107   1.923
10639SOL    HW232817   1.150   4.972   1.839
10640SOL     OW32818   4.337   6.558   3.193
10640SOL    HW132819   4.343   6.461   3.169
10640SOL    HW232820   4.400   6.578   3.268
10641SOL     OW32821   1.484   0.913   3.636
10641SOL    HW132822   1.415   0.852   3.676
10641SOL    HW232823   1.524   0.969   3.708
10642SOL     OW32824   6.441   2.201   6.288
10642SOL    HW132825   6.359   2.245   6.251
10642SOL    HW232826   6.458   2.116   6.238
10643SOL     OW32827   2.482   5.007   5.866
10643SOL    HW132828   2.543   4.937   5.903
10643SOL    HW232829   2.407   5.022   5.929
10644SOL     OW32830   6.400   3.387   2.739
10644SOL    HW132831   6.387   3.476   2.693
10644SOL    HW232832   6.458   3.329   2.682
10645SOL     OW32833   2.682   2.433   3.617
10645SOL    HW132834   2.748   2.359   3.629
10645SOL    HW232835   2.718   2.499   3.551
10646SOL     OW32836   5.652   0.365   3.515
10646SOL    HW132837   5.661   0.283   3.571
10646SOL    HW232838   5.569   0.358   3.459
10647SOL     OW32839   3.256   5.317   4.747
10647SOL    HW132840   3.164   5.343   4.778
10647SOL    HW232841   3.321   5.389   4.769
10648SOL     OW32842   4.869   4.829   5.961
10648SOL    HW132843   4.906   4.804   5.872
10648SOL    HW232844   4.941   4.823   6.030
10649SOL     OW32845   6.595   3.756   2.622
10649SOL    HW132846   6.643   3.709   2.697
10649SOL    HW232847   6.626   3.851   2.617
10650SOL     OW32848   0.291   0.495   3.528
10650SOL    HW132849   0.231   0.575   3.537
10650SOL    HW232850   0.317   0.485   3.432
10651SOL     OW32851   3.883   5.850   5.879
10651SOL    HW132852   3.944   5.910   5.931
10651SOL    HW232853   3.802   5.830   5.934
10652SOL     OW32854   2.107   0.335   6.796
10652SOL    HW132855   2.049   0.367   6.871
10652SOL    HW232856   2.096   0.236   6.784
10653SOL     OW32857   4.255   5.897   3.922
10653SOL    HW132858   4.350   5.920   3.941
10653SOL    HW232859   4.196   5.967   3.962
10654SOL     OW32860   6.029   1.536   4.064
10654SOL    HW132861   5.960   1.568   4.129
10654SOL    HW232862   5.997   1.452   4.021
10655SOL     OW32863   0.278   4.814   1.199
10655SOL    HW132864   0.216   4.892   1.186
10655SOL    HW232865   0.224   4.733   1.223
10656SOL     OW32866   6.028   2.710   3.400
10656SOL    HW132867   5.957   2.759   3.450
10656SOL    HW232868   6.109   2.701   3.457
10657SOL     OW32869   4.852   6.817   4.482
10657SOL    HW132870   4.779   6.790   4.545
10657SOL    HW232871   4.901   6.735   4.451
10658SOL     OW32872   1.012   3.025   5.100
10658SOL    HW132873   1.051   2.940   5.065
10658SOL    HW232874   1.065   3.103   5.067
10659SOL     OW32875   1.213   5.392   0.881
10659SOL    HW132876   1.160   5.477   0.884
10659SOL    HW232877   1.186   5.339   0.800
10660SOL     OW32878   5.805   2.855   5.329
10660SOL    HW132879   5.794   2.925   5.401
10660SOL    HW232880   5.762   2.887   5.245
10661SOL     OW32881   2.189   5.165   5.714
10661SOL    HW132882   2.169   5.068   5.727
10661SOL    HW232883   2.287   5.178   5.699
10662SOL     OW32884   2.559   1.039   2.135
10662SOL    HW132885   2.610   1.021   2.051
10662SOL    HW232886   2.570   1.135   2.161
10663SOL     OW32887   1.482   1.711   3.918
10663SOL    HW132888   1.451   1.696   4.012
10663SOL    HW232889   1.409   1.756   3.867
10664SOL     OW32890   0.961   5.163   4.695
10664SOL    HW132891   1.005   5.078   4.724
10664SOL    HW232892   1.029   5.236   4.690
10665SOL     OW32893   2.321   2.768   6.450
10665SOL    HW132894   2.371   2.716   6.381
10665SOL    HW232895   2.284   2.851   6.409
10666SOL     OW32896   3.535   3.519   1.861
10666SOL    HW132897   3.459   3.523   1.926
10666SOL    HW232898   3.533   3.601   1.803
10667SOL     OW32899   5.379   2.442   3.922
10667SOL    HW132900   5.341   2.518   3.974
10667SOL    HW232901   5.417   2.374   3.984
10668SOL     OW32902   3.297   2.448   5.465
10668SOL    HW132903   3.263   2.531   5.510
10668SOL    HW232904   3.275   2.451   5.368
10669SOL     OW32905   6.459   1.368   1.043
10669SOL    HW132906   6.548   1.343   1.082
10669SOL    HW232907   6.446   1.467   1.050
10670SOL     OW32908   4.897   3.533   4.105
10670SOL    HW132909   4.953   3.608   4.139
10670SOL    HW232910   4.866   3.555   4.012
10671SOL     OW32911   1.371   2.763   4.339
10671SOL    HW132912   1.442   2.785   4.271
10671SOL    HW232913   1.413   2.717   4.417
10672SOL     OW32914   6.135   3.223   1.309
10672SOL    HW132915   6.064   3.184   1.368
10672SOL    HW232916   6.138   3.322   1.322
10673SOL     OW32917   1.871   1.452   1.209
10673SOL    HW132918   1.900   1.431   1.302
10673SOL    HW232919   1.781   1.412   1.192
10674SOL     OW32920   3.564   3.845   3.723
10674SOL    HW132921   3.517   3.760   3.701
10674SOL    HW232922   3.644   3.856   3.663
10675SOL     OW32923   3.821   6.953   5.531
10675SOL    HW132924   3.891   6.990   5.470
10675SOL    HW232925   3.854   6.956   5.625
10676SOL     OW32926   1.738   6.569   5.578
10676SOL    HW132927   1.823   6.614   5.605
10676SOL    HW232928   1.758   6.482   5.533
10677SOL     OW32929   0.716   1.480   0.915
10677SOL    HW132930   0.649   1.532   0.968
10677SOL    HW232931   0.669   1.425   0.846
10678SOL     OW32932   4.264   5.534   3.331
10678SOL    HW132933   4.253   5.495   3.423
10678SOL    HW232934   4.267   5.634   3.337
10679SOL     OW32935   4.123   3.276   6.706
10679SOL    HW132936   4.031   3.237   6.708
10679SOL    HW232937   4.118   3.376   6.708
10680SOL     OW32938   4.286   0.846   4.029
10680SOL    HW132939   4.369   0.877   3.983
10680SOL    HW232940   4.234   0.925   4.062
10681SOL     OW32941   1.058   2.716   5.796
10681SOL    HW132942   0.967   2.757   5.788
10681SOL    HW232943   1.089   2.719   5.891
10682SOL     OW32944   5.219   3.272   6.192
10682SOL    HW132945   5.240   3.197   6.129
10682SOL    HW232946   5.164   3.341   6.144
10683SOL     OW32947   3.313   0.585   3.434
10683SOL    HW132948   3.251   0.594   3.512
10683SOL    HW232949   3.264   0.605   3.349
10684SOL     OW32950   4.416   4.818   1.791
10684SOL    HW132951   4.338   4.770   1.832
10684SOL    HW232952   4.492   4.754   1.781
10685SOL     OW32953   0.824   5.622   1.448
10685SOL    HW132954   0.882   5.643   1.369
10685SOL    HW232955   0.812   5.523   1.456
10686SOL     OW32956   2.281   2.474   6.598
10686SOL    HW132957   2.212   2.537   6.563
10686SOL    HW232958   2.267   2.458   6.695
10687SOL     OW32959   0.850   4.438   3.384
10687SOL    HW132960   0.763   4.438   3.433
10687SOL    HW232961   0.921   4.396   3.442
10688SOL     OW32962   5.670   1.677   2.639
10688SOL    HW132963   5.656   1.628   2.725
10688SOL    HW232964   5.726   1.758   2.655
10689SOL     OW32965   6.817   0.161   2.515
10689SOL    HW132966   6.888   0.097   2.544
10689SOL    HW232967   6.838   0.252   2.552
10690SOL     OW32968   0.009   6.975   3.760
10690SOL    HW132969   6.968   0.013   3.813
10690SOL    HW232970   6.975   6.902   3.715
10691SOL     OW32971   3.310   0.894   2.751
10691SOL    HW132972   3.340   0.927   2.661
10691SOL    HW232973   3.390   0.882   2.810
10692SOL     OW32974   2.246   0.269   4.028
10692SOL    HW132975   2.300   0.319   3.960
10692SOL    HW232976   2.202   0.190   3.983
10693SOL     OW32977   1.232   6.030   0.700
10693SOL    HW132978   1.191   6.065   0.616
10693SOL    HW232979   1.318   5.984   0.677
10694SOL     OW32980   4.168   6.345   5.495
10694SOL    HW132981   4.239   6.383   5.556
10694SOL    HW232982   4.165   6.246   5.505
10695SOL     OW32983   0.195   4.085   1.780
10695SOL    HW132984   0.277   4.141   1.793
10695SOL    HW232985   0.161   4.056   1.869
10696SOL     OW32986   0.205   5.169   4.648
10696SOL    HW132987   0.137   5.099   4.625
10696SOL    HW232988   0.217   5.230   4.570
10697SOL     OW32989   1.577   4.706   6.038
10697SOL    HW132990   1.643   4.639   6.073
10697SOL    HW232991   1.496   4.658   6.003
10698SOL     OW32992   4.198   3.196   6.965
10698SOL    HW132993   4.176   3.242   6.878
10698SOL    HW232994   4.279   3.239   7.005
10699SOL     OW32995   3.366   3.991   0.296
10699SOL    HW132996   3.358   3.946   0.206
10699SOL    HW232997   3.328   3.931   0.366
10700SOL     OW32998   4.891   0.413   1.022
10700SOL    HW132999   4.898   0.490   0.960
10700SOL    HW233000   4.864   0.445   1.113
10701SOL     OW33001   2.807   0.753   6.367
10701SOL    HW133002   2.752   0.831   6.340
10701SOL    HW233003   2.873   0.733   6.294
10702SOL     OW33004   5.315   2.440   2.354
10702SOL    HW133005   5.309   2.532   2.394
10702SOL    HW233006   5.303   2.446   2.255
10703SOL     OW33007   1.425   2.772   6.250
10703SOL    HW133008   1.363   2.819   6.187
10703SOL    HW233009   1.386   2.772   6.342
10704SOL     OW33010   6.590   6.982   1.887
10704SOL    HW133011   6.510   6.922   1.888
10704SOL    HW233012   6.657   6.948   1.953
10705SOL     OW33013   5.778   4.533   0.950
10705SOL    HW133014   5.765   4.440   0.915
10705SOL    HW233015   5.870   4.565   0.925
10706SOL     OW33016   4.964   0.568   2.011
10706SOL    HW133017   4.977   0.591   2.108
10706SOL    HW233018   4.876   0.604   1.980
10707SOL     OW33019   5.786   6.858   4.314
10707SOL    HW133020   5.852   6.933   4.301
10707SOL    HW233021   5.825   6.790   4.376
10708SOL     OW33022   4.239   2.078   2.380
10708SOL    HW133023   4.144   2.052   2.393
10708SOL    HW233024   4.256   2.097   2.283
10709SOL     OW33025   5.943   5.179   4.092
10709SOL    HW133026   6.003   5.142   4.022
10709SOL    HW233027   5.869   5.231   4.048
10710SOL     OW33028   5.794   1.375   3.185
10710SOL    HW133029   5.753   1.411   3.101
10710SOL    HW233030   5.811   1.277   3.175
10711SOL     OW33031   3.671   6.709   1.688
10711SOL    HW133032   3.686   6.787   1.748
10711SOL    HW233033   3.690   6.624   1.737
10712SOL     OW33034   4.434   0.140   2.806
10712SOL    HW133035   4.341   0.171   2.786
10712SOL    HW233036   4.499   0.195   2.752
10713SOL     OW33037   1.384   3.713   0.833
10713SOL    HW133038   1.324   3.756   0.901
10713SOL    HW233039   1.414   3.624   0.867
10714SOL     OW33040   3.942   3.184   4.088
10714SOL    HW133041   3.852   3.141   4.078
10714SOL    HW233042   3.989   3.144   4.166
10715SOL     OW33043   5.875   0.676   1.892
10715SOL    HW133044   5.920   0.615   1.827
10715SOL    HW233045   5.828   0.621   1.962
10716SOL     OW33046   6.717   2.526   3.000
10716SOL    HW133047   6.768   2.455   3.048
10716SOL    HW233048   6.702   2.499   2.905
10717SOL     OW33049   0.829   2.476   0.225
10717SOL    HW133050   0.785   2.386   0.220
10717SOL    HW233051   0.902   2.474   0.293
10718SOL     OW33052   1.362   4.900   5.898
10718SOL    HW133053   1.437   4.845   5.861
10718SOL    HW233054   1.378   4.996   5.878
10719SOL     OW33055   6.560   5.756   4.149
10719SOL    HW133056   6.536   5.853   4.146
10719SOL    HW233057   6.566   5.720   4.056
10720SOL     OW33058   5.875   5.501   4.442
10720SOL    HW133059   5.939   5.451   4.383
10720SOL    HW233060   5.836   5.578   4.391
10721SOL     OW33061   5.037   3.836   5.182
10721SOL    HW133062   5.039   3.743   5.219
10721SOL    HW233063   5.119   3.885   5.211
10722SOL     OW33064   0.118   3.599   6.218
10722SOL    HW133065   0.171   3.529   6.170
10722SOL    HW233066   0.041   3.555   6.265
10723SOL     OW33067   0.162   0.459   0.205
10723SOL    HW133068   0.158   0.558   0.221
10723SOL    HW233069   0.114   0.412   0.279
10724SOL     OW33070   6.824   6.511   0.233
10724SOL    HW133071   6.780   6.426   0.262
10724SOL    HW233072   6.783   6.541   0.147
10725SOL     OW33073   2.701   5.498   5.679
10725SOL    HW133074   2.795   5.531   5.687
10725SOL    HW233075   2.642   5.571   5.645
10726SOL     OW33076   5.039   0.958   3.712
10726SOL    HW133077   4.957   0.919   3.669
10726SOL    HW233078   5.118   0.900   3.692
10727SOL     OW33079   1.178   5.855   6.398
10727SOL    HW133080   1.189   5.950   6.368
10727SOL    HW233081   1.266   5.808   6.395
10728SOL     OW33082   6.500   5.443   0.489
10728SOL    HW133083   6.486   5.350   0.523
10728SOL    HW233084   6.513   5.441   0.390
10729SOL     OW33085   6.693   2.198   1.353
10729SOL    HW133086   6.643   2.260   1.294
10729SOL    HW233087   6.663   2.104   1.335
10730SOL     OW33088   4.096   0.492   1.490
10730SOL    HW133089   4.068   0.557   1.561
10730SOL    HW233090   4.185   0.453   1.514
10731SOL     OW33091   3.935   1.131   0.815
10731SOL    HW133092   3.849   1.180   0.828
10731SOL    HW233093   3.963   1.138   0.719
10732SOL     OW33094   0.027   5.138   5.282
10732SOL    HW133095   6.989   5.126   5.201
10732SOL    HW233096   0.029   5.052   5.334
10733SOL     OW33097   5.897   1.976   6.974
10733SOL    HW133098   5.941   1.965   6.884
10733SOL    HW233099   5.813   2.029   6.964
10734SOL     OW33100   0.904   1.296   1.027
10734SOL    HW133101   0.945   1.329   1.112
10734SOL    HW233102   0.833   1.360   0.997
10735SOL     OW33103   0.023   3.657   2.106
10735SOL    HW133104   0.014   3.559   2.119
10735SOL    HW233105   0.120   3.682   2.112
10736SOL     OW33106   2.525   6.938   4.232
10736SOL    HW133107   2.470   6.914   4.152
10736SOL    HW233108   2.548   0.016   4.228
10737SOL     OW33109   0.170   2.474   1.731
10737SOL    HW133110   0.240   2.405   1.750
10737SOL    HW233111   0.177   2.504   1.636
10738SOL     OW33112   4.026   6.716   3.154
10738SOL    HW133113   4.100   6.750   3.212
10738SOL    HW233114   3.991   6.790   3.097
10739SOL     OW33115   1.563   2.649   1.735
10739SOL    HW133116   1.507   2.610   1.808
10739SOL    HW233117   1.542   2.746   1.725
10740SOL     OW33118   5.457   4.795   5.093
10740SOL    HW133119   5.478   4.743   5.010
10740SOL    HW233120   5.457   4.893   5.073
10741SOL     OW33121   3.423   0.652   2.101
10741SOL    HW133122   3.501   0.713   2.119
10741SOL    HW233123   3.449   0.585   2.032
10742SOL     OW33124   5.912   5.053   1.318
10742SOL    HW133125   5.963   5.097   1.393
10742SOL    HW233126   5.976   5.011   1.254
10743SOL     OW33127   2.272   2.455   4.084
10743SOL    HW133128   2.211   2.521   4.128
10743SOL    HW233129   2.312   2.395   4.152
10744SOL     OW33130   3.441   1.683   1.237
10744SOL    HW133131   3.427   1.698   1.139
10744SOL    HW233132   3.539   1.674   1.256
10745SOL     OW33133   6.718   6.074   5.805
10745SOL    HW133134   6.706   6.173   5.807
10745SOL    HW233135   6.774   6.048   5.726
10746SOL     OW33136   1.094   3.759   5.376
10746SOL    HW133137   1.168   3.803   5.325
10746SOL    HW233138   1.085   3.804   5.465
10747SOL     OW33139   2.885   0.931   4.579
10747SOL    HW133140   2.837   0.899   4.497
10747SOL    HW233141   2.972   0.882   4.588
10748SOL     OW33142   5.777   1.119   2.263
10748SOL    HW133143   5.699   1.088   2.207
10748SOL    HW233144   5.859   1.071   2.234
10749SOL     OW33145   0.920   6.482   5.188
10749SOL    HW133146   0.841   6.422   5.190
10749SOL    HW233147   0.983   6.458   5.262
10750SOL     OW33148   3.790   0.750   4.982
10750SOL    HW133149   3.785   0.830   4.922
10750SOL    HW233150   3.704   0.741   5.033
10751SOL     OW33151   2.422   4.861   3.763
10751SOL    HW133152   2.460   4.806   3.689
10751SOL    HW233153   2.478   4.850   3.845
10752SOL     OW33154   5.120   5.088   4.978
10752SOL    HW133155   5.075   5.141   5.050
10752SOL    HW233156   5.126   5.144   4.895
10753SOL     OW33157   0.116   3.367   3.831
10753SOL    HW133158   0.102   3.344   3.928
10753SOL    HW233159   0.144   3.463   3.824
10754SOL     OW33160   0.807   0.111   2.970
10754SOL    HW133161   0.867   0.172   2.918
10754SOL    HW233162   0.844   0.018   2.968
10755SOL     OW33163   6.623   0.148   2.137
10755SOL    HW133164   6.607   0.051   2.155
10755SOL    HW233165   6.703   0.159   2.077
10756SOL     OW33166   6.683   5.571   5.348
10756SOL    HW133167   6.615   5.526   5.290
10756SOL    HW233168   6.775   5.544   5.320
10757SOL     OW33169   1.731   2.371   0.080
10757SOL    HW133170   1.770   2.444   0.023
10757SOL    HW233171   1.785   2.288   0.070
10758SOL     OW33172   0.192   6.514   3.497
10758SOL    HW133173   0.270   6.532   3.436
10758SOL    HW233174   0.225   6.466   3.578
10759SOL     OW33175   0.510   3.263   0.687
10759SOL    HW133176   0.597   3.302   0.717
10759SOL    HW233177   0.474   3.316   0.610
10760SOL     OW33178   5.565   0.674   3.924
10760SOL    HW133179   5.499   0.730   3.875
10760SOL    HW233180   5.649   0.666   3.870
10761SOL     OW33181   1.840   5.072   6.401
10761SOL    HW133182   1.768   5.103   6.338
10761SOL    HW233183   1.924   5.057   6.349
10762SOL     OW33184   2.627   0.375   5.086
10762SOL    HW133185   2.592   0.364   4.993
10762SOL    HW233186   2.725   0.397   5.082
10763SOL     OW33187   3.681   0.727   3.761
10763SOL    HW133188   3.757   0.750   3.822
10763SOL    HW233189   3.716   0.700   3.672
10764SOL     OW33190   4.595   1.192   4.400
10764SOL    HW133191   4.526   1.197   4.472
10764SOL    HW233192   4.632   1.283   4.382
10765SOL     OW33193   4.855   3.171   1.264
10765SOL    HW133194   4.916   3.251   1.263
10765SOL    HW233195   4.842   3.138   1.170
10766SOL     OW33196   3.837   4.144   0.925
10766SOL    HW133197   3.933   4.171   0.927
10766SOL    HW233198   3.785   4.208   0.869
10767SOL     OW33199   2.252   0.030   1.165
10767SOL    HW133200   2.160   0.069   1.159
10767SOL    HW233201   2.314   0.083   1.106
10768SOL     OW33202   6.717   4.958   0.830
10768SOL    HW133203   6.785   4.885   0.838
10768SOL    HW233204   6.745   5.036   0.886
10769SOL     OW33205   2.289   3.363   6.215
10769SOL    HW133206   2.287   3.312   6.301
10769SOL    HW233207   2.206   3.418   6.207
10770SOL     OW33208   4.837   5.616   2.992
10770SOL    HW133209   4.759   5.674   2.969
10770SOL    HW233210   4.806   5.534   3.041
10771SOL     OW33211   3.298   6.963   3.865
10771SOL    HW133212   3.329   6.910   3.944
10771SOL    HW233213   3.348   6.933   3.783
10772SOL     OW33214   6.627   5.607   4.378
10772SOL    HW133215   6.569   5.529   4.353
10772SOL    HW233216   6.621   5.677   4.307
10773SOL     OW33217   6.059   4.402   4.647
10773SOL    HW133218   6.017   4.491   4.628
10773SOL    HW233219   6.104   4.405   4.736
10774SOL     OW33220   1.505   1.061   3.906
10774SOL    HW133221   1.494   1.161   3.913
10774SOL    HW233222   1.473   1.019   3.991
10775SOL     OW33223   1.265   4.182   1.829
10775SOL    HW133224   1.182   4.128   1.829
10775SOL    HW233225   1.245   4.275   1.799
10776SOL     OW33226   2.123   1.156   6.205
10776SOL    HW133227   2.092   1.114   6.120
10776SOL    HW233228   2.146   1.084   6.271
10777SOL     OW33229   3.587   5.100   1.240
10777SOL    HW133230   3.584   5.015   1.292
10777SOL    HW233231   3.632   5.171   1.295
10778SOL     OW33232   5.480   6.287   4.053
10778SOL    HW133233   5.438   6.312   3.966
10778SOL    HW233234   5.426   6.217   4.098
10779SOL     OW33235   6.234   2.705   3.585
10779SOL    HW133236   6.308   2.690   3.520
10779SOL    HW233237   6.266   2.685   3.678
10780SOL     OW33238   1.067   1.083   3.283
10780SOL    HW133239   1.141   1.022   3.253
10780SOL    HW233240   1.072   1.096   3.382
10781SOL     OW33241   4.013   0.070   4.185
10781SOL    HW133242   3.992   0.102   4.093
10781SOL    HW233243   3.950   0.114   4.250
10782SOL     OW33244   6.114   6.779   4.255
10782SOL    HW133245   6.098   6.689   4.213
10782SOL    HW233246   6.164   6.766   4.341
10783SOL     OW33247   6.865   2.566   3.344
10783SOL    HW133248   6.831   2.660   3.330
10783SOL    HW233249   6.867   2.545   3.441
10784SOL     OW33250   2.737   1.173   4.295
10784SOL    HW133251   2.640   1.173   4.271
10784SOL    HW233252   2.753   1.238   4.370
10785SOL     OW33253   0.624   4.203   6.989
10785SOL    HW133254   0.709   4.150   6.986
10785SOL    HW233255   0.569   4.183   6.907
10786SOL     OW33256   6.257   5.957   2.715
10786SOL    HW133257   6.343   5.930   2.672
10786SOL    HW233258   6.250   5.915   2.806
10787SOL     OW33259   0.624   1.067   5.299
10787SOL    HW133260   0.616   1.167   5.300
10787SOL    HW233261   0.536   1.026   5.324
10788SOL     OW33262   0.415   4.154   6.764
10788SOL    HW133263   0.352   4.231   6.760
10788SOL    HW233264   0.371   4.077   6.811
10789SOL     OW33265   6.742   2.528   6.992
10789SOL    HW133266   6.840   2.510   6.989
10789SOL    HW233267   6.700   2.502   6.905
10790SOL     OW33268   0.272   6.917   1.632
10790SOL    HW133269   0.232   7.000   1.595
10790SOL    HW233270   0.227   6.837   1.592
10791SOL     OW33271   6.106   5.912   2.218
10791SOL    HW133272   6.038   5.907   2.145
10791SOL    HW233273   6.157   5.997   2.211
10792SOL     OW33274   3.983   3.782   5.395
10792SOL    HW133275   3.922   3.861   5.406
10792SOL    HW233276   4.047   3.778   5.471
10793SOL     OW33277   5.856   3.200   5.380
10793SOL    HW133278   5.803   3.148   5.448
10793SOL    HW233279   5.953   3.180   5.391
10794SOL     OW33280   3.427   3.339   3.977
10794SOL    HW133281   3.355   3.352   4.045
10794SOL    HW233282   3.480   3.424   3.968
10795SOL     OW33283   1.060   4.334   2.868
10795SOL    HW133284   1.033   4.418   2.914
10795SOL    HW233285   0.997   4.315   2.793
10796SOL     OW33286   0.691   6.342   5.353
10796SOL    HW133287   0.730   6.254   5.326
10796SOL    HW233288   0.598   6.349   5.317
10797SOL     OW33289   4.093   2.981   0.321
10797SOL    HW133290   4.180   2.935   0.340
10797SOL    HW233291   4.111   3.069   0.277
10798SOL     OW33292   1.622   1.369   1.258
10798SOL    HW133293   1.570   1.336   1.336
10798SOL    HW233294   1.627   1.296   1.189
10799SOL     OW33295   3.963   0.460   2.635
10799SOL    HW133296   3.993   0.393   2.567
10799SOL    HW233297   3.997   0.550   2.610
10800SOL     OW33298   0.910   6.472   0.368
10800SOL    HW133299   0.874   6.563   0.347
10800SOL    HW233300   0.996   6.482   0.419
10801SOL     OW33301   1.529   0.506   0.272
10801SOL    HW133302   1.558   0.425   0.222
10801SOL    HW233303   1.525   0.584   0.210
10802SOL     OW33304   6.172   6.448   3.604
10802SOL    HW133305   6.108   6.435   3.528
10802SOL    HW233306   6.203   6.543   3.605
10803SOL     OW33307   1.313   5.831   6.686
10803SOL    HW133308   1.372   5.908   6.709
10803SOL    HW233309   1.233   5.863   6.635
10804SOL     OW33310   0.422   3.315   3.928
10804SOL    HW133311   0.363   3.395   3.925
10804SOL    HW233312   0.516   3.343   3.948
10805SOL     OW33313   5.928   0.775   5.000
10805SOL    HW133314   5.874   0.843   4.951
10805SOL    HW233315   5.957   0.703   4.937
10806SOL     OW33316   2.786   4.882   6.965
10806SOL    HW133317   2.788   4.784   6.981
10806SOL    HW233318   2.726   4.925   0.013
10807SOL     OW33319   2.604   5.983   3.902
10807SOL    HW133320   2.514   5.971   3.860
10807SOL    HW233321   2.606   6.068   3.955
10808SOL     OW33322   6.841   2.133   5.896
10808SOL    HW133323   6.899   2.208   5.864
10808SOL    HW233324   6.898   2.054   5.917
10809SOL     OW33325   2.594   5.236   4.451
10809SOL    HW133326   2.536   5.310   4.417
10809SOL    HW233327   2.620   5.177   4.375
10810SOL     OW33328   0.517   0.309   4.333
10810SOL    HW133329   0.607   0.294   4.373
10810SOL    HW233330   0.515   0.399   4.289
10811SOL     OW33331   4.902   5.704   4.983
10811SOL    HW133332   4.811   5.737   4.960
10811SOL    HW233333   4.945   5.768   5.048
10812SOL     OW33334   0.443   3.235   6.849
10812SOL    HW133335   0.371   3.221   6.781
10812SOL    HW233336   0.455   3.152   6.903
10813SOL     OW33337   0.509   3.705   6.233
10813SOL    HW133338   0.531   3.626   6.177
10813SOL    HW233339   0.443   3.762   6.185
10814SOL     OW33340   2.388   0.507   0.270
10814SOL    HW133341   2.319   0.452   0.318
10814SOL    HW233342   2.428   0.453   0.196
10815SOL     OW33343   5.333   0.858   3.934
10815SOL    HW133344   5.317   0.954   3.910
10815SOL    HW233345   5.361   0.852   4.030
10816SOL     OW33346   3.482   2.846   3.767
10816SOL    HW133347   3.458   2.917   3.701
10816SOL    HW233348   3.501   2.760   3.719
10817SOL     OW33349   2.588   6.977   2.824
10817SOL    HW133350   2.652   0.034   2.837
10817SOL    HW233351   2.630   6.907   2.768
10818SOL     OW33352   4.759   5.088   5.872
10818SOL    HW133353   4.792   5.016   5.934
10818SOL    HW233354   4.667   5.065   5.840
10819SOL     OW33355   0.179   5.544   6.442
10819SOL    HW133356   0.139   5.627   6.404
10819SOL    HW233357   0.167   5.469   6.377
10820SOL     OW33358   1.647   4.949   5.650
10820SOL    HW133359   1.693   4.909   5.729
10820SOL    HW233360   1.692   4.918   5.566
10821SOL     OW33361   4.941   5.012   2.621
10821SOL    HW133362   4.929   4.914   2.639
10821SOL    HW233363   4.859   5.047   2.576
10822SOL     OW33364   5.759   2.873   0.470
10822SOL    HW133365   5.828   2.840   0.534
10822SOL    HW233366   5.712   2.952   0.509
10823SOL     OW33367   6.434   6.456   3.317
10823SOL    HW133368   6.457   6.486   3.409
10823SOL    HW233369   6.517   6.455   3.260
10824SOL     OW33370   1.181   1.329   4.553
10824SOL    HW133371   1.176   1.301   4.457
10824SOL    HW233372   1.230   1.416   4.559
10825SOL     OW33373   1.757   2.049   0.865
10825SOL    HW133374   1.756   1.953   0.835
10825SOL    HW233375   1.837   2.095   0.827
10826SOL     OW33376   1.535   2.069   2.553
10826SOL    HW133377   1.550   2.163   2.520
10826SOL    HW233378   1.452   2.032   2.512
10827SOL     OW33379   6.614   3.212   5.307
10827SOL    HW133380   6.611   3.234   5.210
10827SOL    HW233381   6.696   3.159   5.327
10828SOL     OW33382   6.521   3.883   6.505
10828SOL    HW133383   6.489   3.900   6.411
10828SOL    HW233384   6.517   3.785   6.524
10829SOL     OW33385   4.666   3.505   5.881
10829SOL    HW133386   4.711   3.586   5.843
10829SOL    HW233387   4.691   3.424   5.828
10830SOL     OW33388   4.954   1.245   3.606
10830SOL    HW133389   4.989   1.194   3.527
10830SOL    HW233390   4.943   1.182   3.683
10831SOL     OW33391   3.848   1.106   2.609
10831SOL    HW133392   3.753   1.107   2.640
10831SOL    HW233393   3.865   1.025   2.553
10832SOL     OW33394   6.694   3.287   0.456
10832SOL    HW133395   6.733   3.207   0.501
10832SOL    HW233396   6.621   3.325   0.512
10833SOL     OW33397   0.443   0.880   0.644
10833SOL    HW133398   0.427   0.834   0.732
10833SOL    HW233399   0.531   0.928   0.647
10834SOL     OW33400   6.458   6.734   0.552
10834SOL    HW133401   6.548   6.713   0.513
10834SOL    HW233402   6.394   6.754   0.479
10835SOL     OW33403   6.641   2.848   5.599
10835SOL    HW133404   6.645   2.932   5.653
10835SOL    HW233405   6.598   2.776   5.654
10836SOL     OW33406   0.281   2.140   3.487
10836SOL    HW133407   0.374   2.148   3.524
10836SOL    HW233408   0.244   2.231   3.469
10837SOL     OW33409   6.952   4.104   2.700
10837SOL    HW133410   6.901   4.045   2.638
10837SOL    HW233411   6.920   4.090   2.793
10838SOL     OW33412   5.911   5.570   3.806
10838SOL    HW133413   5.882   5.661   3.779
10838SOL    HW233414   6.011   5.569   3.818
10839SOL     OW33415   4.754   3.932   0.354
10839SOL    HW133416   4.666   3.885   0.344
10839SOL    HW233417   4.797   3.942   0.264
10840SOL     OW33418   3.037   0.333   0.846
10840SOL    HW133419   3.058   0.247   0.892
10840SOL    HW233420   2.940   0.355   0.858
10841SOL     OW33421   1.042   4.562   4.557
10841SOL    HW133422   1.073   4.559   4.652
10841SOL    HW233423   0.958   4.616   4.551
10842SOL     OW33424   4.931   3.990   0.878
10842SOL    HW133425   4.977   4.074   0.847
10842SOL    HW233426   4.967   3.912   0.828
10843SOL     OW33427   1.700   2.336   1.125
10843SOL    HW133428   1.707   2.236   1.128
10843SOL    HW233429   1.791   2.375   1.112
10844SOL     OW33430   1.094   5.402   5.235
10844SOL    HW133431   1.141   5.371   5.318
10844SOL    HW233432   1.159   5.450   5.177
10845SOL     OW33433   4.520   6.508   5.018
10845SOL    HW133434   4.454   6.437   4.995
10845SOL    HW233435   4.539   6.506   5.116
10846SOL     OW33436   5.515   0.202   0.554
10846SOL    HW133437   5.569   0.260   0.615
10846SOL    HW233438   5.460   0.260   0.494
10847SOL     OW33439   2.013   1.734   0.405
10847SOL    HW133440   2.055   1.695   0.324
10847SOL    HW233441   1.919   1.760   0.385
10848SOL     OW33442   1.718   4.593   1.073
10848SOL    HW133443   1.784   4.613   1.145
10848SOL    HW233444   1.766   4.556   0.993
10849SOL     OW33445   2.645   6.242   3.997
10849SOL    HW133446   2.656   6.319   4.059
10849SOL    HW233447   2.553   6.243   3.957
10850SOL     OW33448   3.628   6.745   0.476
10850SOL    HW133449   3.723   6.771   0.462
10850SOL    HW233450   3.611   6.730   0.573
10851SOL     OW33451   2.530   4.909   1.885
10851SOL    HW133452   2.445   4.889   1.934
10851SOL    HW233453   2.592   4.959   1.946
10852SOL     OW33454   1.744   1.794   1.213
10852SOL    HW133455   1.804   1.721   1.180
10852SOL    HW233456   1.760   1.809   1.311
10853SOL     OW33457   2.378   2.156   6.546
10853SOL    HW133458   2.456   2.210   6.515
10853SOL    HW233459   2.293   2.196   6.511
10854SOL     OW33460   3.990   6.329   5.278
10854SOL    HW133461   4.033   6.322   5.188
10854SOL    HW233462   4.054   6.370   5.342
10855SOL     OW33463   3.062   1.156   0.740
10855SOL    HW133464   3.158   1.182   0.755
10855SOL    HW233465   3.054   1.057   0.746
10856SOL     OW33466   6.801   0.929   0.076
10856SOL    HW133467   6.843   0.936   7.005
10856SOL    HW233468   6.808   0.835   0.109
10857SOL     OW33469   6.175   1.365   2.652
10857SOL    HW133470   6.153   1.333   2.560
10857SOL    HW233471   6.146   1.460   2.662
10858SOL     OW33472   2.208   5.731   1.397
10858SOL    HW133473   2.271   5.803   1.427
10858SOL    HW233474   2.141   5.713   1.469
10859SOL     OW33475   0.869   5.900   3.858
10859SOL    HW133476   0.921   5.925   3.777
10859SOL    HW233477   0.859   5.979   3.918
10860SOL     OW33478   0.111   2.714   2.849
10860SOL    HW133479   0.064   2.743   2.933
10860SOL    HW233480   0.180   2.646   2.872
10861SOL     OW33481   3.707   2.897   4.499
10861SOL    HW133482   3.765   2.969   4.538
10861SOL    HW233483   3.747   2.864   4.414
10862SOL     OW33484   1.407   0.132   4.938
10862SOL    HW133485   1.358   0.059   4.891
10862SOL    HW233486   1.463   0.182   4.872
10863SOL     OW33487   3.326   5.828   4.792
10863SOL    HW133488   3.369   5.822   4.702
10863SOL    HW233489   3.227   5.817   4.783
10864SOL     OW33490   3.513   6.288   2.613
10864SOL    HW133491   3.551   6.212   2.665
10864SOL    HW233492   3.478   6.357   2.677
10865SOL     OW33493   6.489   1.961   6.149
10865SOL    HW133494   6.583   1.976   6.120
10865SOL    HW233495   6.475   1.864   6.169
10866SOL     OW33496   5.571   4.547   0.239
10866SOL    HW133497   5.542   4.462   0.195
10866SOL    HW233498   5.532   4.625   0.190
10867SOL     OW33499   3.223   3.278   0.658
10867SOL    HW133500   3.245   3.239   0.748
10867SOL    HW233501   3.223   3.206   0.590
10868SOL     OW33502   3.162   1.715   3.071
10868SOL    HW133503   3.180   1.758   3.160
10868SOL    HW233504   3.066   1.727   3.047
10869NA      NA33505   6.033   2.081   5.545
10870NA      NA33506   4.369   4.638   5.243
10871NA      NA33507   2.153   3.690   1.541
10872NA      NA33508   4.830   3.898   5.105
10873NA      NA33509   4.148   2.282   5.221
10874NA      NA33510   3.778   4.581   1.460
10875NA      NA33511   6.595   5.726   5.494
10876NA      NA33512   3.879   3.652   5.221
10877NA      NA33513   4.660   6.569   6.818
10878NA      NA33514   3.592   6.959   5.535
10879NA      NA33515   6.475   4.688   2.105
10880NA      NA33516   2.246   0.476   3.182
10881NA      NA33517   3.149   4.737   1.073
10882NA      NA33518   3.387   3.490   2.786
   7.01975   7.01975   7.01975
