Generated by trjconv : CNT in water t= 390.00000
33518
    1C        C    1   2.847   2.770   4.751
    1C        C    2   2.902   2.723   4.872
    1C        C    3   2.848   2.779   4.988
    1C        C    4   2.852   2.780   4.262
    1C        C    5   2.903   2.733   4.385
    1C        C    6   2.852   2.780   4.508
    1C        C    7   3.016   2.643   4.623
    1C        C    8   2.902   2.725   4.629
    1C        C    9   3.076   2.608   4.746
    1C        C   10   3.015   2.638   4.870
    1C        C   11   3.179   2.488   4.970
    1C        C   12   3.069   2.575   4.982
    1C        C   13   2.851   2.773   3.772
    1C        C   14   2.903   2.725   3.894
    1C        C   15   2.853   2.776   4.016
    1C        C   16   3.020   2.650   4.140
    1C        C   17   2.904   2.731   4.140
    1C        C   18   3.085   2.617   4.261
    1C        C   19   3.018   2.651   4.380
    1C        C   20   3.213   2.565   4.506
    1C        C   21   3.079   2.609   4.501
    1C        C   22   3.281   2.541   4.627
    1C        C   23   3.207   2.553   4.747
    1C        C   24   3.414   2.488   4.863
    1C        C   25   3.272   2.501   4.862
    1C        C   26   3.493   2.477   4.979
    1C        C   27   2.846   2.766   3.282
    1C        C   28   2.901   2.723   3.405
    1C        C   29   2.850   2.769   3.528
    1C        C   30   3.019   2.642   3.651
    1C        C   31   2.902   2.723   3.651
    1C        C   32   3.078   2.605   3.774
    1C        C   33   3.014   2.638   3.896
    1C        C   34   3.210   2.557   4.019
    1C        C   35   3.079   2.610   4.018
    1C        C   36   3.283   2.541   4.139
    1C        C   37   3.218   2.570   4.261
    1C        C   38   3.420   2.512   4.383
    1C        C   39   3.283   2.547   4.384
    1C        C   40   3.491   2.502   4.505
    1C        C   41   3.419   2.510   4.626
    1C        C   42   3.634   2.482   4.744
    1C        C   43   3.492   2.483   4.744
    1C        C   44   3.710   2.485   4.863
    1C        C   45   3.632   2.478   4.979
    1C        C   46   2.833   2.749   2.795
    1C        C   47   2.890   2.707   2.917
    1C        C   48   2.839   2.759   3.038
    1C        C   49   3.015   2.639   3.163
    1C        C   50   2.898   2.719   3.160
    1C        C   51   3.078   2.607   3.285
    1C        C   52   3.019   2.645   3.407
    1C        C   53   3.211   2.555   3.529
    1C        C   54   3.080   2.608   3.529
    1C        C   55   3.278   2.536   3.652
    1C        C   56   3.211   2.556   3.774
    1C        C   57   3.418   2.514   3.894
    1C        C   58   3.278   2.537   3.897
    1C        C   59   3.493   2.513   4.014
    1C        C   60   3.423   2.521   4.137
    1C        C   61   3.632   2.506   4.260
    1C        C   62   3.491   2.513   4.261
    1C        C   63   3.705   2.509   4.381
    1C        C   64   3.632   2.500   4.502
    1C        C   65   3.838   2.546   4.622
    1C        C   66   3.705   2.500   4.623
    1C        C   67   3.908   2.566   4.743
    1C        C   68   3.847   2.518   4.862
    1C        C   69   4.052   2.586   4.981
    1C        C   70   3.927   2.525   4.977
    1C        C   71   2.824   2.735   2.308
    1C        C   72   2.883   2.694   2.430
    1C        C   73   2.830   2.744   2.551
    1C        C   74   3.007   2.628   2.674
    1C        C   75   2.886   2.701   2.673
    1C        C   76   3.071   2.599   2.796
    1C        C   77   3.012   2.635   2.920
    1C        C   78   3.207   2.550   3.037
    1C        C   79   3.075   2.600   3.041
    1C        C   80   3.274   2.530   3.160
    1C        C   81   3.210   2.554   3.284
    1C        C   82   3.417   2.510   3.405
    1C        C   83   3.277   2.532   3.406
    1C        C   84   3.486   2.501   3.527
    1C        C   85   3.417   2.508   3.650
    1C        C   86   3.629   2.505   3.771
    1C        C   87   3.487   2.501   3.772
    1C        C   88   3.701   2.516   3.892
    1C        C   89   3.634   2.510   4.016
    1C        C   90   3.839   2.553   4.135
    1C        C   91   3.704   2.513   4.139
    1C        C   92   3.906   2.577   4.257
    1C        C   93   3.842   2.543   4.378
    1C        C   94   4.034   2.630   4.500
    1C        C   95   3.906   2.571   4.501
    1C        C   96   4.098   2.666   4.621
    1C        C   97   4.037   2.625   4.741
    1C        C   98   4.190   2.766   4.863
    1C        C   99   4.102   2.654   4.865
    1C        C  100   4.215   2.846   4.975
    1C        C  101   2.824   2.726   2.072
    1C        C  102   2.992   2.590   2.191
    1C        C  103   2.875   2.673   2.191
    1C        C  104   3.063   2.575   2.313
    1C        C  105   3.002   2.617   2.433
    1C        C  106   3.200   2.535   2.552
    1C        C  107   3.068   2.585   2.554
    1C        C  108   3.270   2.518   2.674
    1C        C  109   3.201   2.543   2.794
    1C        C  110   3.411   2.499   2.914
    1C        C  111   3.271   2.522   2.915
    1C        C  112   3.482   2.495   3.036
    1C        C  113   3.413   2.504   3.159
    1C        C  114   3.625   2.495   3.278
    1C        C  115   3.484   2.497   3.281
    1C        C  116   3.695   2.511   3.400
    1C        C  117   3.628   2.505   3.524
    1C        C  118   3.835   2.544   3.646
    1C        C  119   3.696   2.516   3.647
    1C        C  120   3.903   2.571   3.767
    1C        C  121   3.838   2.551   3.890
    1C        C  122   4.031   2.640   4.012
    1C        C  123   3.906   2.575   4.012
    1C        C  124   4.094   2.672   4.134
    1C        C  125   4.035   2.634   4.257
    1C        C  126   4.204   2.761   4.377
    1C        C  127   4.095   2.671   4.380
    1C        C  128   4.251   2.817   4.498
    1C        C  129   4.201   2.763   4.619
    1C        C  130   4.323   2.935   4.741
    1C        C  131   4.245   2.816   4.742
    1C        C  132   4.361   3.003   4.859
    1C        C  133   4.289   2.964   4.973
    1C        C  134   3.171   2.466   2.080
    1C        C  135   3.037   2.507   2.083
    1C        C  136   3.258   2.480   2.189
    1C        C  137   3.193   2.518   2.309
    1C        C  138   3.404   2.481   2.429
    1C        C  139   3.265   2.508   2.430
    1C        C  140   3.478   2.484   2.549
    1C        C  141   3.409   2.493   2.672
    1C        C  142   3.624   2.498   2.791
    1C        C  143   3.483   2.492   2.793
    1C        C  144   3.694   2.509   2.914
    1C        C  145   3.623   2.497   3.036
    1C        C  146   3.833   2.540   3.156
    1C        C  147   3.697   2.503   3.157
    1C        C  148   3.901   2.565   3.278
    1C        C  149   3.832   2.545   3.400
    1C        C  150   4.026   2.628   3.521
    1C        C  151   3.899   2.566   3.522
    1C        C  152   4.085   2.671   3.642
    1C        C  153   4.028   2.638   3.767
    1C        C  154   4.203   2.761   3.888
    1C        C  155   4.088   2.677   3.888
    1C        C  156   4.252   2.809   4.011
    1C        C  157   4.203   2.762   4.135
    1C        C  158   4.341   2.925   4.253
    1C        C  159   4.254   2.814   4.256
    1C        C  160   4.379   2.985   4.376
    1C        C  161   4.335   2.931   4.499
    1C        C  162   4.436   3.118   4.618
    1C        C  163   4.369   2.994   4.621
    1C        C  164   4.464   3.188   4.737
    1C        C  165   4.435   3.122   4.859
    1C        C  166   4.517   3.319   4.977
    1C        C  167   4.483   3.184   4.975
    1C        C  168   3.473   2.431   2.077
    1C        C  169   3.398   2.463   2.191
    1C        C  170   3.618   2.461   2.308
    1C        C  171   3.475   2.463   2.309
    1C        C  172   3.693   2.478   2.427
    1C        C  173   3.619   2.489   2.547
    1C        C  174   3.828   2.539   2.663
    1C        C  175   3.690   2.509   2.667
    1C        C  176   3.893   2.562   2.787
    1C        C  177   3.831   2.542   2.912
    1C        C  178   4.027   2.625   3.031
    1C        C  179   3.898   2.569   3.034
    1C        C  180   4.092   2.658   3.152
    1C        C  181   4.028   2.627   3.274
    1C        C  182   4.194   2.753   3.395
    1C        C  183   4.085   2.663   3.398
    1C        C  184   4.248   2.803   3.516
    1C        C  185   4.197   2.757   3.640
    1C        C  186   4.340   2.913   3.764
    1C        C  187   4.251   2.803   3.762
    1C        C  188   4.377   2.977   3.884
    1C        C  189   4.339   2.920   4.008
    1C        C  190   4.441   3.107   4.133
    1C        C  191   4.381   2.980   4.129
    1C        C  192   4.472   3.175   4.253
    1C        C  193   4.445   3.109   4.375
    1C        C  194   4.507   3.316   4.493
    1C        C  195   4.470   3.180   4.495
    1C        C  196   4.519   3.387   4.614
    1C        C  197   4.508   3.323   4.740
    1C        C  198   4.561   3.535   4.853
    1C        C  199   4.534   3.395   4.861
    1C        C  200   4.592   3.621   4.964
    1C        C  201   3.613   2.420   2.072
    1C        C  202   3.823   2.513   2.181
    1C        C  203   3.689   2.463   2.185
    1C        C  204   3.895   2.541   2.300
    1C        C  205   3.829   2.518   2.423
    1C        C  206   4.020   2.623   2.539
    1C        C  207   3.897   2.553   2.541
    1C        C  208   4.079   2.661   2.662
    1C        C  209   4.017   2.630   2.785
    1C        C  210   4.197   2.744   2.905
    1C        C  211   4.082   2.662   2.906
    1C        C  212   4.252   2.793   3.025
    1C        C  213   4.202   2.746   3.149
    1C        C  214   4.336   2.908   3.273
    1C        C  215   4.246   2.799   3.272
    1C        C  216   4.370   2.971   3.394
    1C        C  217   4.332   2.916   3.519
    1C        C  218   4.438   3.100   3.640
    1C        C  219   4.373   2.974   3.641
    1C        C  220   4.466   3.168   3.760
    1C        C  221   4.439   3.104   3.883
    1C        C  222   4.501   3.304   4.006
    1C        C  223   4.464   3.167   4.007
    1C        C  224   4.516   3.380   4.124
    1C        C  225   4.505   3.312   4.248
    1C        C  226   4.522   3.525   4.368
    1C        C  227   4.519   3.383   4.369
    1C        C  228   4.522   3.598   4.489
    1C        C  229   4.525   3.528   4.612
    1C        C  230   4.506   3.742   4.728
    1C        C  231   4.538   3.603   4.731
    1C        C  232   4.501   3.820   4.846
    1C        C  233   4.549   3.754   4.960
    1C        C  234   4.020   2.604   2.066
    1C        C  235   3.894   2.546   2.065
    1C        C  236   4.088   2.645   2.181
    1C        C  237   4.025   2.600   2.299
    1C        C  238   4.202   2.728   2.421
    1C        C  239   4.089   2.642   2.417
    1C        C  240   4.254   2.783   2.541
    1C        C  241   4.195   2.742   2.663
    1C        C  242   4.341   2.901   2.786
    1C        C  243   4.250   2.793   2.783
    1C        C  244   4.378   2.962   2.908
    1C        C  245   4.340   2.904   3.031
    1C        C  246   4.438   3.095   3.150
    1C        C  247   4.376   2.968   3.151
    1C        C  248   4.466   3.160   3.272
    1C        C  249   4.434   3.098   3.394
    1C        C  250   4.499   3.300   3.514
    1C        C  251   4.462   3.164   3.516
    1C        C  252   4.508   3.372   3.636
    1C        C  253   4.497   3.306   3.760
    1C        C  254   4.523   3.514   3.880
    1C        C  255   4.510   3.373   3.884
    1C        C  256   4.517   3.588   4.000
    1C        C  257   4.522   3.521   4.125
    1C        C  258   4.495   3.734   4.243
    1C        C  259   4.519   3.594   4.246
    1C        C  260   4.474   3.803   4.364
    1C        C  261   4.491   3.735   4.487
    1C        C  262   4.433   3.943   4.605
    1C        C  263   4.476   3.808   4.607
    1C        C  264   4.403   4.009   4.726
    1C        C  265   4.439   3.947   4.847
    1C        C  266   4.314   4.129   4.959
    1C        C  267   4.391   4.013   4.961
    1C        C  268   4.263   2.778   2.064
    1C        C  269   4.197   2.735   2.180
    1C        C  270   4.341   2.894   2.302
    1C        C  271   4.253   2.782   2.301
    1C        C  272   4.384   2.954   2.422
    1C        C  273   4.338   2.896   2.542
    1C        C  274   4.444   3.083   2.660
    1C        C  275   4.377   2.959   2.662
    1C        C  276   4.470   3.150   2.781
    1C        C  277   4.441   3.088   2.905
    1C        C  278   4.499   3.295   3.024
    1C        C  279   4.464   3.158   3.026
    1C        C  280   4.514   3.366   3.146
    1C        C  281   4.501   3.297   3.268
    1C        C  282   4.515   3.509   3.390
    1C        C  283   4.506   3.368   3.391
    1C        C  284   4.515   3.582   3.511
    1C        C  285   4.515   3.513   3.635
    1C        C  286   4.484   3.722   3.754
    1C        C  287   4.513   3.583   3.757
    1C        C  288   4.465   3.791   3.875
    1C        C  289   4.489   3.726   3.998
    1C        C  290   4.423   3.929   4.118
    1C        C  291   4.472   3.797   4.119
    1C        C  292   4.395   3.996   4.239
    1C        C  293   4.426   3.936   4.363
    1C        C  294   4.320   4.123   4.480
    1C        C  295   4.398   4.006   4.483
    1C        C  296   4.284   4.186   4.601
    1C        C  297   4.329   4.131   4.723
    1C        C  298   4.199   4.313   4.841
    1C        C  299   4.279   4.194   4.840
    1C        C  300   4.175   4.400   4.952
    1C        C  301   4.356   2.881   2.062
    1C        C  302   4.469   3.068   2.179
    1C        C  303   4.397   2.943   2.181
    1C        C  304   4.482   3.145   2.297
    1C        C  305   4.447   3.081   2.418
    1C        C  306   4.507   3.287   2.536
    1C        C  307   4.470   3.150   2.538
    1C        C  308   4.516   3.358   2.658
    1C        C  309   4.503   3.288   2.780
    1C        C  310   4.523   3.501   2.899
    1C        C  311   4.514   3.360   2.900
    1C        C  312   4.523   3.574   3.020
    1C        C  313   4.519   3.507   3.144
    1C        C  314   4.490   3.717   3.266
    1C        C  315   4.514   3.577   3.267
    1C        C  316   4.473   3.789   3.386
    1C        C  317   4.493   3.722   3.509
    1C        C  318   4.421   3.922   3.629
    1C        C  319   4.471   3.790   3.631
    1C        C  320   4.395   3.989   3.750
    1C        C  321   4.425   3.927   3.874
    1C        C  322   4.321   4.113   3.990
    1C        C  323   4.395   3.993   3.995
    1C        C  324   4.283   4.174   4.112
    1C        C  325   4.323   4.118   4.236
    1C        C  326   4.188   4.286   4.355
    1C        C  327   4.280   4.178   4.356
    1C        C  328   4.136   4.336   4.477
    1C        C  329   4.190   4.292   4.599
    1C        C  330   4.022   4.430   4.715
    1C        C  331   4.140   4.350   4.718
    1C        C  332   3.970   4.490   4.831
    1C        C  333   4.056   4.474   4.941
    1C        C  334   4.565   3.269   2.067
    1C        C  335   4.532   3.133   2.068
    1C        C  336   4.541   3.355   2.175
    1C        C  337   4.510   3.284   2.294
    1C        C  338   4.526   3.498   2.414
    1C        C  339   4.519   3.357   2.414
    1C        C  340   4.525   3.571   2.535
    1C        C  341   4.519   3.499   2.656
    1C        C  342   4.496   3.712   2.776
    1C        C  343   4.515   3.572   2.777
    1C        C  344   4.475   3.780   2.898
    1C        C  345   4.499   3.714   3.021
    1C        C  346   4.425   3.915   3.139
    1C        C  347   4.476   3.783   3.142
    1C        C  348   4.392   3.981   3.259
    1C        C  349   4.419   3.919   3.383
    1C        C  350   4.323   4.107   3.502
    1C        C  351   4.394   3.985   3.505
    1C        C  352   4.277   4.165   3.623
    1C        C  353   4.319   4.108   3.745
    1C        C  354   4.180   4.269   3.868
    1C        C  355   4.278   4.167   3.867
    1C        C  356   4.127   4.319   3.989
    1C        C  357   4.182   4.272   4.111
    1C        C  358   4.018   4.409   4.232
    1C        C  359   4.132   4.326   4.232
    1C        C  360   3.953   4.446   4.352
    1C        C  361   4.019   4.415   4.473
    1C        C  362   3.829   4.517   4.595
    1C        C  363   3.957   4.458   4.593
    1C        C  364   3.763   4.550   4.716
    1C        C  365   3.839   4.542   4.834
    1C        C  366   3.629   4.592   4.949
    1C        C  367   3.767   4.576   4.950
    1C        C  368   4.517   3.568   2.054
    1C        C  369   4.532   3.495   2.173
    1C        C  370   4.508   3.711   2.288
    1C        C  371   4.523   3.570   2.293
    1C        C  372   4.496   3.782   2.409
    1C        C  373   4.509   3.712   2.530
    1C        C  374   4.427   3.908   2.649
    1C        C  375   4.482   3.778   2.652
    1C        C  376   4.395   3.973   2.770
    1C        C  377   4.426   3.912   2.894
    1C        C  378   4.324   4.099   3.013
    1C        C  379   4.396   3.977   3.016
    1C        C  380   4.278   4.156   3.133
    1C        C  381   4.323   4.105   3.257
    1C        C  382   4.180   4.261   3.378
    1C        C  383   4.280   4.162   3.379
    1C        C  384   4.126   4.310   3.499
    1C        C  385   4.178   4.266   3.623
    1C        C  386   4.007   4.390   3.745
    1C        C  387   4.125   4.312   3.745
    1C        C  388   3.944   4.429   3.866
    1C        C  389   4.010   4.398   3.987
    1C        C  390   3.822   4.491   4.111
    1C        C  391   3.952   4.435   4.110
    1C        C  392   3.751   4.512   4.231
    1C        C  393   3.821   4.494   4.353
    1C        C  394   3.618   4.550   4.475
    1C        C  395   3.757   4.529   4.474
    1C        C  396   3.547   4.557   4.597
    1C        C  397   3.622   4.560   4.716
    1C        C  398   3.408   4.550   4.838
    1C        C  399   3.548   4.572   4.836
    1C        C  400   3.341   4.513   4.955
    1C        C  401   4.517   3.707   2.050
    1C        C  402   4.450   3.916   2.166
    1C        C  403   4.494   3.781   2.166
    1C        C  404   4.415   3.981   2.286
    1C        C  405   4.438   3.911   2.407
    1C        C  406   4.329   4.097   2.526
    1C        C  407   4.401   3.975   2.527
    1C        C  408   4.278   4.151   2.646
    1C        C  409   4.317   4.091   2.768
    1C        C  410   4.178   4.250   2.889
    1C        C  411   4.281   4.153   2.890
    1C        C  412   4.123   4.296   3.011
    1C        C  413   4.178   4.256   3.135
    1C        C  414   4.002   4.378   3.253
    1C        C  415   4.121   4.302   3.256
    1C        C  416   3.944   4.414   3.377
    1C        C  417   4.007   4.386   3.500
    1C        C  418   3.813   4.472   3.620
    1C        C  419   3.944   4.419   3.622
    1C        C  420   3.747   4.500   3.742
    1C        C  421   3.811   4.474   3.866
    1C        C  422   3.612   4.530   3.989
    1C        C  423   3.751   4.506   3.990
    1C        C  424   3.541   4.538   4.111
    1C        C  425   3.611   4.534   4.233
    1C        C  426   3.401   4.549   4.356
    1C        C  427   3.543   4.551   4.355
    1C        C  428   3.333   4.538   4.479
    1C        C  429   3.406   4.548   4.600
    1C        C  430   3.191   4.521   4.724
    1C        C  431   3.332   4.544   4.720
    1C        C  432   3.123   4.501   4.847
    1C        C  433   3.203   4.492   4.962
    1C        C  434   4.384   4.126   2.053
    1C        C  435   4.448   4.002   2.055
    1C        C  436   4.303   4.164   2.165
    1C        C  437   4.344   4.104   2.287
    1C        C  438   4.190   4.258   2.404
    1C        C  439   4.292   4.161   2.406
    1C        C  440   4.132   4.305   2.524
    1C        C  441   4.181   4.254   2.646
    1C        C  442   4.007   4.376   2.767
    1C        C  443   4.126   4.300   2.768
    1C        C  444   3.946   4.412   2.888
    1C        C  445   4.005   4.374   3.011
    1C        C  446   3.810   4.466   3.131
    1C        C  447   3.941   4.414   3.131
    1C        C  448   3.745   4.489   3.255
    1C        C  449   3.814   4.469   3.377
    1C        C  450   3.607   4.522   3.499
    1C        C  451   3.745   4.494   3.498
    1C        C  452   3.538   4.529   3.622
    1C        C  453   3.608   4.527   3.745
    1C        C  454   3.399   4.543   3.866
    1C        C  455   3.540   4.538   3.868
    1C        C  456   3.329   4.536   3.989
    1C        C  457   3.400   4.542   4.111
    1C        C  458   3.192   4.510   4.237
    1C        C  459   3.330   4.541   4.234
    1C        C  460   3.125   4.490   4.360
    1C        C  461   3.194   4.515   4.481
    1C        C  462   2.996   4.442   4.605
    1C        C  463   3.122   4.506   4.602
    1C        C  464   2.935   4.398   4.725
    1C        C  465   2.992   4.444   4.847
    1C        C  466   2.799   4.343   4.959
    1C        C  467   2.907   4.432   4.962
    1C        C  468   4.123   4.284   2.043
    1C        C  469   4.185   4.245   2.162
    1C        C  470   4.011   4.375   2.279
    1C        C  471   4.132   4.300   2.282
    1C        C  472   3.943   4.403   2.400
    1C        C  473   4.009   4.375   2.521
    1C        C  474   3.814   4.457   2.642
    1C        C  475   3.945   4.404   2.643
    1C        C  476   3.747   4.485   2.764
    1C        C  477   3.815   4.465   2.886
    1C        C  478   3.605   4.508   3.009
    1C        C  479   3.745   4.484   3.007
    1C        C  480   3.534   4.525   3.130
    1C        C  481   3.607   4.518   3.251
    1C        C  482   3.398   4.527   3.378
    1C        C  483   3.539   4.526   3.375
    1C        C  484   3.328   4.524   3.501
    1C        C  485   3.397   4.532   3.624
    1C        C  486   3.189   4.498   3.747
    1C        C  487   3.325   4.535   3.746
    1C        C  488   3.124   4.478   3.871
    1C        C  489   3.192   4.503   3.992
    1C        C  490   3.000   4.420   4.119
    1C        C  491   3.125   4.486   4.115
    1C        C  492   2.939   4.385   4.241
    1C        C  493   2.997   4.430   4.361
    1C        C  494   2.827   4.309   4.485
    1C        C  495   2.935   4.400   4.485
    1C        C  496   2.772   4.259   4.605
    1C        C  497   2.822   4.313   4.726
    1C        C  498   2.668   4.163   4.844
    1C        C  499   2.755   4.274   4.844
    1C        C  500   2.608   4.111   4.959
    1C        C  501   4.003   4.354   2.042
    1C        C  502   3.815   4.462   2.157
    1C        C  503   3.944   4.405   2.159
    1C        C  504   3.745   4.475   2.279
    1C        C  505   3.809   4.449   2.402
    1C        C  506   3.603   4.506   2.520
    1C        C  507   3.739   4.467   2.523
    1C        C  508   3.534   4.515   2.643
    1C        C  509   3.608   4.510   2.763
    1C        C  510   3.396   4.519   2.887
    1C        C  511   3.537   4.514   2.885
    1C        C  512   3.326   4.512   3.010
    1C        C  513   3.393   4.527   3.133
    1C        C  514   3.187   4.491   3.258
    1C        C  515   3.325   4.523   3.257
    1C        C  516   3.119   4.471   3.380
    1C        C  517   3.190   4.498   3.500
    1C        C  518   2.998   4.412   3.628
    1C        C  519   3.124   4.475   3.623
    1C        C  520   2.937   4.377   3.751
    1C        C  521   2.998   4.413   3.873
    1C        C  522   2.833   4.287   3.997
    1C        C  523   2.945   4.374   3.997
    1C        C  524   2.782   4.241   4.120
    1C        C  525   2.832   4.292   4.242
    1C        C  526   2.698   4.134   4.366
    1C        C  527   2.781   4.248   4.366
    1C        C  528   2.650   4.079   4.487
    1C        C  529   2.691   4.144   4.606
    1C        C  530   2.590   3.957   4.732
    1C        C  531   2.641   4.090   4.726
    1C        C  532   2.543   3.898   4.853
    1C        C  533   2.532   3.993   4.960
    1C        C  534   3.619   4.559   2.043
    1C        C  535   3.751   4.511   2.043
    1C        C  536   3.537   4.535   2.158
    1C        C  537   3.606   4.507   2.279
    1C        C  538   3.391   4.516   2.400
    1C        C  539   3.532   4.520   2.398
    1C        C  540   3.321   4.509   2.522
    1C        C  541   3.393   4.510   2.643
    1C        C  542   3.185   4.481   2.767
    1C        C  543   3.323   4.513   2.766
    1C        C  544   3.119   4.466   2.891
    1C        C  545   3.188   4.486   3.012
    1C        C  546   2.996   4.402   3.136
    1C        C  547   3.122   4.466   3.136
    1C        C  548   2.936   4.370   3.260
    1C        C  549   2.992   4.410   3.383
    1C        C  550   2.827   4.282   3.506
    1C        C  551   2.938   4.369   3.507
    1C        C  552   2.776   4.235   3.630
    1C        C  553   2.833   4.282   3.750
    1C        C  554   2.705   4.118   3.875
    1C        C  555   2.786   4.234   3.875
    1C        C  556   2.663   4.063   3.998
    1C        C  557   2.697   4.128   4.119
    1C        C  558   2.604   3.943   4.248
    1C        C  559   2.663   4.071   4.244
    1C        C  560   2.564   3.882   4.369
    1C        C  561   2.591   3.951   4.490
    1C        C  562   2.534   3.748   4.615
    1C        C  563   2.570   3.884   4.612
    1C        C  564   2.514   3.682   4.739
    1C        C  565   2.514   3.758   4.858
    1C        C  566   2.517   3.542   4.980
    1C        C  567   2.517   3.681   4.976
    1C        C  568   3.328   4.476   2.042
    1C        C  569   3.397   4.515   2.159
    1C        C  570   3.183   4.473   2.282
    1C        C  571   3.320   4.512   2.278
    1C        C  572   3.113   4.454   2.403
    1C        C  573   3.182   4.482   2.523
    1C        C  574   2.989   4.397   2.649
    1C        C  575   3.116   4.459   2.646
    1C        C  576   2.931   4.364   2.773
    1C        C  577   2.992   4.403   2.894
    1C        C  578   2.824   4.272   3.018
    1C        C  579   2.931   4.365   3.016
    1C        C  580   2.776   4.224   3.142
    1C        C  581   2.830   4.277   3.262
    1C        C  582   2.696   4.114   3.385
    1C        C  583   2.783   4.225   3.385
    1C        C  584   2.662   4.056   3.510
    1C        C  585   2.695   4.119   3.631
    1C        C  586   2.602   3.931   3.757
    1C        C  587   2.660   4.060   3.755
    1C        C  588   2.577   3.867   3.881
    1C        C  589   2.601   3.936   4.002
    1C        C  590   2.540   3.739   4.129
    1C        C  591   2.579   3.875   4.127
    1C        C  592   2.525   3.673   4.253
    1C        C  593   2.524   3.747   4.373
    1C        C  594   2.508   3.535   4.499
    1C        C  595   2.515   3.676   4.495
    1C        C  596   2.510   3.465   4.622
    1C        C  597   2.504   3.540   4.741
    1C        C  598   2.526   3.327   4.863
    1C        C  599   2.509   3.467   4.862
    1C        C  600   2.522   3.244   4.976
    1C        C  601   3.196   4.437   2.046
    1C        C  602   2.982   4.392   2.159
    1C        C  603   3.115   4.443   2.160
    1C        C  604   2.923   4.359   2.284
    1C        C  605   2.982   4.400   2.406
    1C        C  606   2.814   4.272   2.528
    1C        C  607   2.924   4.361   2.528
    1C        C  608   2.770   4.220   2.652
    1C        C  609   2.820   4.276   2.772
    1C        C  610   2.687   4.114   2.895
    1C        C  611   2.772   4.227   2.895
    1C        C  612   2.651   4.055   3.018
    1C        C  613   2.687   4.115   3.141
    1C        C  614   2.592   3.928   3.265
    1C        C  615   2.650   4.057   3.265
    1C        C  616   2.567   3.865   3.389
    1C        C  617   2.598   3.930   3.511
    1C        C  618   2.536   3.730   3.638
    1C        C  619   2.575   3.866   3.635
    1C        C  620   2.522   3.663   3.761
    1C        C  621   2.539   3.731   3.884
    1C        C  622   2.514   3.525   4.010
    1C        C  623   2.531   3.666   4.009
    1C        C  624   2.516   3.458   4.135
    1C        C  625   2.520   3.531   4.256
    1C        C  626   2.534   3.322   4.381
    1C        C  627   2.519   3.462   4.379
    1C        C  628   2.546   3.251   4.502
    1C        C  629   2.533   3.325   4.622
    1C        C  630   2.601   3.124   4.744
    1C        C  631   2.547   3.255   4.744
    1C        C  632   2.620   3.050   4.864
    1C        C  633   2.559   3.109   4.979
    1C        C  634   2.781   4.305   2.054
    1C        C  635   2.892   4.389   2.048
    1C        C  636   2.748   4.230   2.168
    1C        C  637   2.808   4.275   2.288
    1C        C  638   2.674   4.109   2.410
    1C        C  639   2.758   4.223   2.409
    1C        C  640   2.633   4.053   2.533
    1C        C  641   2.680   4.111   2.653
    1C        C  642   2.582   3.924   2.779
    1C        C  643   2.642   4.052   2.776
    1C        C  644   2.556   3.858   2.902
    1C        C  645   2.587   3.929   3.020
    1C        C  646   2.531   3.725   3.148
    1C        C  647   2.569   3.861   3.142
    1C        C  648   2.517   3.657   3.270
    1C        C  649   2.533   3.728   3.392
    1C        C  650   2.520   3.519   3.518
    1C        C  651   2.525   3.660   3.515
    1C        C  652   2.519   3.450   3.641
    1C        C  653   2.515   3.522   3.763
    1C        C  654   2.531   3.315   3.892
    1C        C  655   2.513   3.455   3.888
    1C        C  656   2.557   3.250   4.014
    1C        C  657   2.543   3.320   4.137
    1C        C  658   2.601   3.119   4.260
    1C        C  659   2.550   3.251   4.260
    1C        C  660   2.633   3.055   4.382
    1C        C  661   2.604   3.122   4.502
    1C        C  662   2.715   2.941   4.629
    1C        C  663   2.633   3.057   4.624
    1C        C  664   2.754   2.878   4.749
    1C        C  665   2.702   2.933   4.870
    1C        C  666   2.741   2.868   4.988
    1C        C  667   2.680   4.025   2.050
    1C        C  668   2.683   4.104   2.166
    1C        C  669   2.590   3.914   2.292
    1C        C  670   2.641   4.047   2.288
    1C        C  671   2.556   3.852   2.414
    1C        C  672   2.577   3.923   2.534
    1C        C  673   2.520   3.720   2.660
    1C        C  674   2.554   3.858   2.658
    1C        C  675   2.515   3.649   2.782
    1C        C  676   2.526   3.720   2.904
    1C        C  677   2.503   3.512   3.031
    1C        C  678   2.514   3.653   3.027
    1C        C  679   2.503   3.442   3.154
    1C        C  680   2.508   3.516   3.274
    1C        C  681   2.539   3.307   3.401
    1C        C  682   2.518   3.446   3.397
    1C        C  683   2.561   3.244   3.526
    1C        C  684   2.539   3.311   3.649
    1C        C  685   2.598   3.110   3.772
    1C        C  686   2.547   3.242   3.772
    1C        C  687   2.628   3.047   3.894
    1C        C  688   2.602   3.116   4.015
    1C        C  689   2.708   2.935   4.139
    1C        C  690   2.632   3.054   4.138
    1C        C  691   2.755   2.882   4.262
    1C        C  692   2.711   2.937   4.385
    1C        C  693   2.753   2.880   4.508
    1C        C  694   2.630   3.894   2.052
    1C        C  695   2.531   3.709   2.178
    1C        C  696   2.581   3.840   2.172
    1C        C  697   2.514   3.639   2.300
    1C        C  698   2.521   3.716   2.419
    1C        C  699   2.492   3.506   2.545
    1C        C  700   2.509   3.646   2.541
    1C        C  701   2.509   3.434   2.666
    1C        C  702   2.508   3.508   2.786
    1C        C  703   2.529   3.301   2.911
    1C        C  704   2.507   3.440   2.910
    1C        C  705   2.550   3.233   3.034
    1C        C  706   2.529   3.303   3.155
    1C        C  707   2.599   3.106   3.278
    1C        C  708   2.546   3.237   3.278
    1C        C  709   2.635   3.049   3.403
    1C        C  710   2.607   3.111   3.527
    1C        C  711   2.711   2.930   3.652
    1C        C  712   2.631   3.046   3.650
    1C        C  713   2.753   2.875   3.775
    1C        C  714   2.707   2.930   3.897
    1C        C  715   2.754   2.877   4.019
    1C        C  716   2.457   3.503   2.068
    1C        C  717   2.498   3.637   2.063
    1C        C  718   2.468   3.424   2.187
    1C        C  719   2.485   3.500   2.305
    1C        C  720   2.511   3.289   2.424
    1C        C  721   2.488   3.429   2.427
    1C        C  722   2.535   3.223   2.547
    1C        C  723   2.526   3.294   2.668
    1C        C  724   2.590   3.093   2.790
    1C        C  725   2.544   3.227   2.791
    1C        C  726   2.624   3.036   2.915
    1C        C  727   2.590   3.098   3.037
    1C        C  728   2.704   2.918   3.163
    1C        C  729   2.624   3.035   3.159
    1C        C  730   2.747   2.867   3.288
    1C        C  731   2.708   2.928   3.409
    1C        C  732   2.752   2.871   3.530
    1C        C  733   2.490   3.196   2.076
    1C        C  734   2.497   3.284   2.186
    1C        C  735   2.589   3.086   2.305
    1C        C  736   2.530   3.215   2.306
    1C        C  737   2.617   3.022   2.428
    1C        C  738   2.589   3.092   2.547
    1C        C  739   2.691   2.905   2.673
    1C        C  740   2.620   3.028   2.669
    1C        C  741   2.743   2.857   2.795
    1C        C  742   2.704   2.920   2.916
    1C        C  743   2.745   2.864   3.039
    1C        C  744   2.556   3.074   2.071
    1C        C  745   2.684   2.894   2.184
    1C        C  746   2.611   3.015   2.185
    1C        C  747   2.730   2.842   2.306
    1C        C  748   2.695   2.904   2.428
    1C        C  749   2.735   2.848   2.551
    1C        C  750   2.735   2.833   2.068
    1C        C  751   3.657   2.300   1.998
    1C        O  752   3.654   2.183   2.043
    1C        O  753   3.651   2.297   1.858
    1C        C  754   4.628   3.053   1.990
    1C        O  755   4.640   3.052   1.864
    1C        O  756   4.750   3.017   2.050
    1C        C  757   4.453   4.225   1.967
    1C        O  758   4.493   4.336   2.011
    1C        O  759   4.468   4.211   1.829
    1C        C  760   3.591   4.686   1.973
    1C        O  761   3.617   4.800   2.021
    1C        O  762   3.506   4.708   1.864
    1C        C  763   2.877   4.484   1.935
    1C        O  764   2.914   4.458   1.817
    1C        O  765   2.779   4.583   1.943
    1C        C  766   2.358   3.462   1.965
    1C        O  767   2.384   3.439   1.844
    1C        O  768   2.221   3.454   1.992
    1C        C  769   4.704   3.594   5.057
    1C        O  770   4.675   3.590   5.179
    1C        O  771   4.826   3.657   5.031
    1C        C  772   4.282   4.474   5.022
    1C        O  773   4.368   4.417   5.096
    1C        O  774   4.316   4.608   5.000
    1C        C  775   4.150   2.548   5.086
    1C        O  776   4.247   2.474   5.053
    1C        O  777   4.106   2.550   5.218
    1C        C  778   2.885   4.552   5.046
    1C        O  779   2.817   4.649   5.004
    1C        O  780   2.848   4.519   5.177
    1C        C  781   2.467   3.025   5.058
    1C        O  782   2.366   2.978   4.998
    1C        O  783   2.447   3.051   5.193
    1C        C  784   2.408   4.016   5.036
    1C        O  785   2.293   3.994   4.989
    1C        O  786   2.415   4.055   5.171
    1C        C  787   2.948   2.407   2.020
    1C        O  788   2.944   2.397   1.895
    1C        O  789   2.855   2.328   2.087
    1C        C  790   3.143   2.366   5.046
    1C        O  791   3.119   2.254   4.995
    1C        O  792   3.155   2.360   5.185
    1C        H  793   4.257   3.042   5.039
    1C        H  794   4.147   2.837   5.058
    1C        H  795   4.542   3.125   5.043
    1C        H  796   4.553   3.358   5.070
    1C        H  797   4.530   3.795   5.057
    1C        H  798   4.411   3.972   5.058
    1C        H  799   4.239   4.139   5.035
    1C        H  800   4.023   4.520   5.032
    1C        H  801   3.818   4.617   5.034
    1C        H  802   3.584   4.613   5.043
    1C        H  803   3.395   4.513   5.047
    1C        H  804   3.160   4.498   5.060
    1C        H  805   3.924   2.436   5.037
    1C        H  806   3.682   2.481   5.074
    1C        H  807   3.075   2.634   5.071
    1C        H  808   3.449   2.462   5.075
    1C        H  809   2.855   2.718   5.076
    1C        H  810   2.669   2.867   5.067
    1C        H  811   2.472   3.280   5.064
    1C        H  812   2.513   3.498   5.078
    1C        H  813   2.505   3.728   5.071
    1C        H  814   2.611   4.164   5.052
    1C        H  815   2.766   4.315   5.057
    1C        H  816   2.719   2.885   1.976
    1C        H  817   2.800   2.653   1.997
    1C        H  818   3.192   2.386   2.012
    1C        H  819   3.424   2.450   1.984
    1C        H  820   3.851   2.536   1.967
    1C        H  821   4.078   2.584   1.978
    1C        H  822   4.266   2.713   1.980
    1C        H  823   4.423   2.883   1.979
    1C        H  824   4.589   3.316   1.974
    1C        H  825   4.437   3.530   1.995
    1C        H  826   4.571   3.755   1.971
    1C        H  827   3.819   4.545   1.967
    1C        H  828   3.948   4.347   1.951
    1C        H  829   4.164   4.251   1.949
    1C        H  830   4.463   3.957   1.959
    1C        H  831   2.684   3.829   1.987
    1C        H  832   2.684   4.065   1.951
    1C        H  833   2.708   4.303   1.976
    1C        H  834   3.349   4.535   1.955
    1C        H  835   3.167   4.371   1.967
    1C        H  836   2.534   3.011   1.986
    1C        H  837   2.416   3.219   2.002
    1C        H  838   2.467   3.693   1.977
    2V3OU   H29  839   2.806   3.546   4.680
    2V3OU   C27  840   2.792   3.503   4.783
    2V3OU   H27  841   2.737   3.576   4.848
    2V3OU   H28  842   2.745   3.402   4.776
    2V3OU   O11  843   2.908   3.479   4.864
    2V3OU   C15  844   2.925   3.397   4.973
    2V3OU   C13  845   3.056   3.377   5.019
    2V3OU   C14  846   3.078   3.269   5.105
    2V3OU   C16  847   2.974   3.191   5.156
    2V3OU    H6  848   2.998   3.097   5.208
    2V3OU   C12  849   3.220   3.232   5.123
    2V3OU    O2  850   3.249   3.128   5.186
    2V3OU   C10  851   3.328   3.312   5.063
    2V3OU    C8  852   3.461   3.275   5.080
    2V3OU   O10  853   3.492   3.154   5.135
    2V3OU   H26  854   3.405   3.114   5.153
    2V3OU    C6  855   3.567   3.352   5.025
    2V3OU    C5  856   3.541   3.468   4.952
    2V3OU    C4  857   3.704   3.293   5.023
    2V3OU    H4  858   3.723   3.234   5.118
    2V3OU    H5  859   3.712   3.226   4.932
    2V3OU    C2  860   3.815   3.397   5.010
    2V3OU    O6  861   3.802   3.472   5.131
    2V3OU   H21  862   3.766   3.557   5.103
    2V3OU    C3  863   3.779   3.491   4.895
    2V3OU    H2  864   3.858   3.569   4.882
    2V3OU    H3  865   3.774   3.430   4.802
    2V3OU   C25  866   3.948   3.326   4.984
    2V3OU    O7  867   3.998   3.305   4.873
    2V3OU   C26  868   4.038   3.294   5.103
    2V3OU   H22  869   4.071   3.385   5.160
    2V3OU   H23  870   4.123   3.229   5.071
    2V3OU    O8  871   3.963   3.208   5.185
    2V3OU   H24  872   3.931   3.254   5.264
    2V3OU    C1  873   3.645   3.564   4.903
    2V3OU    H1  874   3.625   3.614   4.804
    2V3OU    O3  875   3.661   3.659   5.008
    2V3OU   C19  876   3.615   3.792   4.982
    2V3OU    H9  877   3.521   3.804   4.920
    2V3OU    O4  878   3.713   3.852   4.901
    2V3OU   C20  879   3.844   3.876   4.954
    2V3OU   H10  880   3.898   3.777   4.967
    2V3OU   C24  881   3.613   3.860   5.119
    2V3OU   H16  882   3.546   3.797   5.183
    2V3OU   H17  883   3.560   3.957   5.102
    2V3OU   C23  884   3.751   3.875   5.185
    2V3OU   H15  885   3.792   3.774   5.216
    2V3OU    N1  886   3.735   3.959   5.301
    2V3OU   H19  887   3.812   3.934   5.360
    2V3OU   H20  888   3.648   3.943   5.348
    2V3OU   C21  889   3.851   3.947   5.089
    2V3OU   H11  890   3.957   3.926   5.124
    2V3OU    O5  891   3.828   4.087   5.081
    2V3OU   H18  892   3.782   4.115   5.162
    2V3OU   C22  893   3.916   3.950   4.843
    2V3OU   H12  894   3.864   4.047   4.823
    2V3OU   H13  895   3.912   3.889   4.749
    2V3OU   H14  896   4.024   3.962   4.872
    2V3OU   C11  897   3.160   3.469   4.971
    2V3OU    O1  898   3.138   3.587   4.934
    2V3OU    C9  899   3.300   3.422   4.977
    2V3OU    C7  900   3.404   3.500   4.927
    2V3OU    O9  901   3.387   3.612   4.848
    2V3OU   H25  902   3.292   3.634   4.849
    2V3OU   C17  903   2.824   3.313   5.025
    2V3OU    H7  904   2.723   3.355   5.033
    2V3OU   C18  905   2.843   3.208   5.114
    2V3OU    H8  906   2.756   3.146   5.138
    3SOL     OW  907   2.932   4.085   5.161
    3SOL    HW1  908   2.932   4.182   5.186
    3SOL    HW2  909   2.856   4.066   5.099
    4SOL     OW  910   6.737   0.328   0.005
    4SOL    HW1  911   6.720   0.232   0.026
    4SOL    HW2  912   6.717   0.384   0.086
    5SOL     OW  913   4.267   0.966   1.476
    5SOL    HW1  914   4.224   0.949   1.564
    5SOL    HW2  915   4.327   1.045   1.482
    6SOL     OW  916   5.742   1.182   3.404
    6SOL    HW1  917   5.655   1.133   3.415
    6SOL    HW2  918   5.764   1.190   3.307
    7SOL     OW  919   1.073   4.379   5.474
    7SOL    HW1  920   0.983   4.366   5.431
    7SOL    HW2  921   1.136   4.309   5.441
    8SOL     OW  922   2.090   2.614   5.653
    8SOL    HW1  923   2.026   2.669   5.707
    8SOL    HW2  924   2.148   2.674   5.599
    9SOL     OW  925   6.546   1.519   6.479
    9SOL    HW1  926   6.598   1.602   6.462
    9SOL    HW2  927   6.560   1.490   6.573
   10SOL     OW  928   4.973   4.513   2.519
   10SOL    HW1  929   4.959   4.549   2.612
   10SOL    HW2  930   5.014   4.422   2.524
   11SOL     OW  931   2.095   0.749   6.884
   11SOL    HW1  932   2.109   0.807   6.803
   11SOL    HW2  933   2.180   0.746   6.937
   12SOL     OW  934   2.519   4.809   3.189
   12SOL    HW1  935   2.549   4.781   3.280
   12SOL    HW2  936   2.464   4.737   3.148
   13SOL     OW  937   4.514   6.220   2.572
   13SOL    HW1  938   4.455   6.294   2.540
   13SOL    HW2  939   4.500   6.139   2.516
   14SOL     OW  940   4.973   4.607   5.165
   14SOL    HW1  941   4.961   4.541   5.239
   14SOL    HW2  942   4.896   4.602   5.102
   15SOL     OW  943   0.804   5.918   6.151
   15SOL    HW1  944   0.830   6.008   6.189
   15SOL    HW2  945   0.758   5.865   6.222
   16SOL     OW  946   6.179   2.619   6.063
   16SOL    HW1  947   6.111   2.593   6.132
   16SOL    HW2  948   6.262   2.566   6.077
   17SOL     OW  949   6.145   0.592   5.886
   17SOL    HW1  950   6.226   0.632   5.844
   17SOL    HW2  951   6.063   0.629   5.842
   18SOL     OW  952   3.009   0.694   5.031
   18SOL    HW1  953   3.039   0.650   5.115
   18SOL    HW2  954   3.059   0.780   5.019
   19SOL     OW  955   0.873   1.536   3.009
   19SOL    HW1  956   0.879   1.601   3.085
   19SOL    HW2  957   0.965   1.502   2.987
   20SOL     OW  958   5.495   2.662   5.916
   20SOL    HW1  959   5.417   2.611   5.879
   20SOL    HW2  960   5.465   2.752   5.948
   21SOL     OW  961   3.760   6.138   2.816
   21SOL    HW1  962   3.793   6.190   2.895
   21SOL    HW2  963   3.688   6.075   2.846
   22SOL     OW  964   1.806   6.696   5.051
   22SOL    HW1  965   1.802   6.600   5.023
   22SOL    HW2  966   1.728   6.717   5.110
   23SOL     OW  967   5.124   4.652   2.071
   23SOL    HW1  968   5.167   4.585   2.011
   23SOL    HW2  969   5.025   4.640   2.069
   24SOL     OW  970   3.898   0.089   1.733
   24SOL    HW1  971   3.978   0.150   1.728
   24SOL    HW2  972   3.924   0.004   1.779
   25SOL     OW  973   2.717   7.013   3.388
   25SOL    HW1  974   2.628   0.020   3.420
   25SOL    HW2  975   2.736   0.027   3.298
   26SOL     OW  976   1.763   1.921   6.638
   26SOL    HW1  977   1.770   1.827   6.606
   26SOL    HW2  978   1.681   1.932   6.694
   27SOL     OW  979   6.617   0.902   2.386
   27SOL    HW1  980   6.594   0.996   2.359
   27SOL    HW2  981   6.716   0.892   2.390
   28SOL     OW  982   1.907   0.974   5.011
   28SOL    HW1  983   1.952   0.960   5.099
   28SOL    HW2  984   1.838   0.903   4.997
   29SOL     OW  985   6.900   0.901   6.961
   29SOL    HW1  986   6.802   0.883   6.951
   29SOL    HW2  987   6.918   0.942   0.025
   30SOL     OW  988   3.684   0.607   4.938
   30SOL    HW1  989   3.682   0.634   4.842
   30SOL    HW2  990   3.700   0.688   4.995
   31SOL     OW  991   0.235   2.608   5.083
   31SOL    HW1  992   0.278   2.697   5.095
   31SOL    HW2  993   0.238   2.582   4.986
   32SOL     OW  994   1.711   1.112   0.660
   32SOL    HW1  995   1.633   1.048   0.661
   32SOL    HW2  996   1.741   1.128   0.754
   33SOL     OW  997   0.520   3.737   6.271
   33SOL    HW1  998   0.613   3.732   6.307
   33SOL    HW2  999   0.474   3.818   6.308
   34SOL     OW 1000   1.993   5.429   5.274
   34SOL    HW1 1001   2.046   5.505   5.311
   34SOL    HW2 1002   1.925   5.400   5.342
   35SOL     OW 1003   3.784   3.054   6.831
   35SOL    HW1 1004   3.855   3.048   6.761
   35SOL    HW2 1005   3.695   3.032   6.790
   36SOL     OW 1006   5.070   0.731   4.251
   36SOL    HW1 1007   5.116   0.785   4.321
   36SOL    HW2 1008   5.063   0.785   4.167
   37SOL     OW 1009   2.017   1.553   3.644
   37SOL    HW1 1010   2.032   1.521   3.737
   37SOL    HW2 1011   2.056   1.645   3.634
   38SOL     OW 1012   1.776   5.552   2.102
   38SOL    HW1 1013   1.724   5.597   2.030
   38SOL    HW2 1014   1.843   5.490   2.061
   39SOL     OW 1015   5.879   5.057   6.871
   39SOL    HW1 1016   5.832   4.991   6.930
   39SOL    HW2 1017   5.824   5.140   6.865
   40SOL     OW 1018   3.419   0.450   6.467
   40SOL    HW1 1019   3.409   0.357   6.502
   40SOL    HW2 1020   3.334   0.501   6.484
   41SOL     OW 1021   5.636   4.232   2.161
   41SOL    HW1 1022   5.537   4.220   2.156
   41SOL    HW2 1023   5.664   4.237   2.257
   42SOL     OW 1024   2.989   5.522   4.802
   42SOL    HW1 1025   3.031   5.612   4.815
   42SOL    HW2 1026   2.994   5.496   4.706
   43SOL     OW 1027   4.265   6.896   5.014
   43SOL    HW1 1028   4.286   6.836   4.937
   43SOL    HW2 1029   4.286   6.849   5.100
   44SOL     OW 1030   6.167   3.293   4.867
   44SOL    HW1 1031   6.267   3.302   4.869
   44SOL    HW2 1032   6.141   3.220   4.804
   45SOL     OW 1033   4.230   5.715   0.719
   45SOL    HW1 1034   4.139   5.678   0.698
   45SOL    HW2 1035   4.270   5.662   0.794
   46SOL     OW 1036   0.467   2.994   4.219
   46SOL    HW1 1037   0.397   3.065   4.226
   46SOL    HW2 1038   0.536   3.009   4.290
   47SOL     OW 1039   5.391   3.307   2.050
   47SOL    HW1 1040   5.405   3.224   1.995
   47SOL    HW2 1041   5.405   3.388   1.993
   48SOL     OW 1042   6.924   3.369   6.989
   48SOL    HW1 1043   6.868   3.450   6.970
   48SOL    HW2 1044   6.884   3.319   0.041
   49SOL     OW 1045   4.793   3.132   0.287
   49SOL    HW1 1046   4.837   3.219   0.266
   49SOL    HW2 1047   4.700   3.148   0.320
   50SOL     OW 1048   6.166   2.014   6.177
   50SOL    HW1 1049   6.144   1.954   6.099
   50SOL    HW2 1050   6.178   2.107   6.144
   51SOL     OW 1051   1.883   4.934   3.301
   51SOL    HW1 1052   1.845   4.899   3.216
   51SOL    HW2 1053   1.964   4.988   3.282
   52SOL     OW 1054   5.478   3.272   1.660
   52SOL    HW1 1055   5.567   3.241   1.693
   52SOL    HW2 1056   5.430   3.196   1.616
   53SOL     OW 1057   4.793   0.140   3.118
   53SOL    HW1 1058   4.758   0.233   3.124
   53SOL    HW2 1059   4.719   0.075   3.133
   54SOL     OW 1060   5.798   5.825   0.508
   54SOL    HW1 1061   5.709   5.833   0.551
   54SOL    HW2 1062   5.796   5.751   0.441
   55SOL     OW 1063   2.422   2.684   6.551
   55SOL    HW1 1064   2.324   2.704   6.557
   55SOL    HW2 1065   2.455   2.653   6.640
   56SOL     OW 1066   1.559   1.911   0.122
   56SOL    HW1 1067   1.627   1.887   0.191
   56SOL    HW2 1068   1.597   1.979   0.060
   57SOL     OW 1069   3.883   0.887   0.024
   57SOL    HW1 1070   3.915   0.915   6.959
   57SOL    HW2 1071   3.901   0.789   0.037
   58SOL     OW 1072   1.041   0.482   6.160
   58SOL    HW1 1073   1.024   0.571   6.204
   58SOL    HW2 1074   0.964   0.421   6.179
   59SOL     OW 1075   6.385   3.661   6.313
   59SOL    HW1 1076   6.433   3.602   6.379
   59SOL    HW2 1077   6.421   3.645   6.221
   60SOL     OW 1078   5.529   0.523   3.406
   60SOL    HW1 1079   5.610   0.491   3.358
   60SOL    HW2 1080   5.528   0.488   3.499
   61SOL     OW 1081   0.289   1.616   4.517
   61SOL    HW1 1082   0.227   1.567   4.456
   61SOL    HW2 1083   0.326   1.695   4.468
   62SOL     OW 1084   0.599   1.275   2.098
   62SOL    HW1 1085   0.515   1.328   2.100
   62SOL    HW2 1086   0.622   1.251   2.003
   63SOL     OW 1087   3.714   6.100   3.996
   63SOL    HW1 1088   3.620   6.094   4.027
   63SOL    HW2 1089   3.750   6.192   4.014
   64SOL     OW 1090   1.515   4.130   6.647
   64SOL    HW1 1091   1.547   4.083   6.564
   64SOL    HW2 1092   1.563   4.093   6.727
   65SOL     OW 1093   0.792   0.411   5.306
   65SOL    HW1 1094   0.775   0.319   5.341
   65SOL    HW2 1095   0.728   0.431   5.232
   66SOL     OW 1096   3.595   6.994   2.351
   66SOL    HW1 1097   3.668   6.997   2.283
   66SOL    HW2 1098   3.634   6.985   2.442
   67SOL     OW 1099   0.460   2.184   0.717
   67SOL    HW1 1100   0.524   2.139   0.780
   67SOL    HW2 1101   0.478   2.153   0.624
   68SOL     OW 1102   6.725   2.547   5.459
   68SOL    HW1 1103   6.702   2.453   5.434
   68SOL    HW2 1104   6.701   2.563   5.555
   69SOL     OW 1105   1.034   5.308   5.775
   69SOL    HW1 1106   1.130   5.326   5.794
   69SOL    HW2 1107   0.977   5.369   5.829
   70SOL     OW 1108   5.604   3.136   4.732
   70SOL    HW1 1109   5.600   3.039   4.708
   70SOL    HW2 1110   5.566   3.191   4.658
   71SOL     OW 1111   4.592   1.570   4.660
   71SOL    HW1 1112   4.532   1.499   4.696
   71SOL    HW2 1113   4.550   1.660   4.674
   72SOL     OW 1114   0.339   0.565   4.022
   72SOL    HW1 1115   0.353   0.530   3.930
   72SOL    HW2 1116   0.293   0.497   4.078
   73SOL     OW 1117   2.982   0.463   0.297
   73SOL    HW1 1118   2.992   0.552   0.342
   73SOL    HW2 1119   2.992   0.390   0.365
   74SOL     OW 1120   2.486   1.492   6.365
   74SOL    HW1 1121   2.404   1.496   6.421
   74SOL    HW2 1122   2.559   1.544   6.409
   75SOL     OW 1123   4.097   1.441   0.968
   75SOL    HW1 1124   4.094   1.374   1.042
   75SOL    HW2 1125   4.069   1.531   1.004
   76SOL     OW 1126   2.980   4.325   5.299
   76SOL    HW1 1127   3.073   4.353   5.318
   76SOL    HW2 1128   2.936   4.392   5.239
   77SOL     OW 1129   2.278   5.457   4.494
   77SOL    HW1 1130   2.330   5.375   4.519
   77SOL    HW2 1131   2.205   5.431   4.431
   78SOL     OW 1132   4.468   1.783   1.247
   78SOL    HW1 1133   4.409   1.768   1.326
   78SOL    HW2 1134   4.412   1.808   1.168
   79SOL     OW 1135   2.086   5.070   1.625
   79SOL    HW1 1136   2.068   5.168   1.636
   79SOL    HW2 1137   2.168   5.058   1.570
   80SOL     OW 1138   4.473   1.822   4.996
   80SOL    HW1 1139   4.393   1.877   4.971
   80SOL    HW2 1140   4.538   1.822   4.920
   81SOL     OW 1141   2.137   6.575   1.296
   81SOL    HW1 1142   2.087   6.549   1.213
   81SOL    HW2 1143   2.088   6.541   1.376
   82SOL     OW 1144   0.892   5.808   1.946
   82SOL    HW1 1145   0.961   5.828   2.015
   82SOL    HW2 1146   0.819   5.877   1.949
   83SOL     OW 1147   6.183   2.032   5.723
   83SOL    HW1 1148   6.258   2.001   5.664
   83SOL    HW2 1149   6.213   2.112   5.775
   84SOL     OW 1150   6.515   3.195   3.763
   84SOL    HW1 1151   6.584   3.196   3.691
   84SOL    HW2 1152   6.505   3.287   3.800
   85SOL     OW 1153   1.752   6.932   3.988
   85SOL    HW1 1154   1.750   6.847   4.042
   85SOL    HW2 1155   1.660   6.954   3.957
   86SOL     OW 1156   5.695   1.257   6.244
   86SOL    HW1 1157   5.626   1.314   6.288
   86SOL    HW2 1158   5.786   1.294   6.263
   87SOL     OW 1159   4.327   4.608   6.690
   87SOL    HW1 1160   4.257   4.679   6.682
   87SOL    HW2 1161   4.416   4.645   6.664
   88SOL     OW 1162   2.963   3.004   5.865
   88SOL    HW1 1163   2.987   2.910   5.838
   88SOL    HW2 1164   2.869   3.023   5.839
   89SOL     OW 1165   3.278   2.977   2.656
   89SOL    HW1 1166   3.244   3.001   2.747
   89SOL    HW2 1167   3.201   2.971   2.592
   90SOL     OW 1168   4.920   3.533   2.977
   90SOL    HW1 1169   4.970   3.598   2.919
   90SOL    HW2 1170   4.877   3.582   3.052
   91SOL     OW 1171   5.538   5.507   6.069
   91SOL    HW1 1172   5.565   5.470   6.158
   91SOL    HW2 1173   5.439   5.500   6.059
   92SOL     OW 1174   4.892   4.586   6.998
   92SOL    HW1 1175   4.814   4.648   7.003
   92SOL    HW2 1176   4.861   4.493   6.982
   93SOL     OW 1177   3.000   2.871   1.140
   93SOL    HW1 1178   3.050   2.888   1.224
   93SOL    HW2 1179   2.936   2.947   1.123
   94SOL     OW 1180   2.865   0.106   6.061
   94SOL    HW1 1181   2.818   0.096   5.973
   94SOL    HW2 1182   2.819   0.050   6.130
   95SOL     OW 1183   0.307   0.810   4.380
   95SOL    HW1 1184   0.278   0.746   4.452
   95SOL    HW2 1185   0.384   0.770   4.330
   96SOL     OW 1186   4.966   5.145   6.729
   96SOL    HW1 1187   4.899   5.212   6.763
   96SOL    HW2 1188   5.030   5.121   6.802
   97SOL     OW 1189   1.788   4.982   5.412
   97SOL    HW1 1190   1.728   4.902   5.410
   97SOL    HW2 1191   1.883   4.953   5.399
   98SOL     OW 1192   0.898   2.515   2.359
   98SOL    HW1 1193   0.909   2.591   2.294
   98SOL    HW2 1194   0.943   2.537   2.445
   99SOL     OW 1195   3.697   3.314   3.571
   99SOL    HW1 1196   3.658   3.243   3.629
   99SOL    HW2 1197   3.750   3.271   3.497
  100SOL     OW 1198   0.025   6.928   4.309
  100SOL    HW1 1199   0.082   6.848   4.327
  100SOL    HW2 1200   6.981   6.905   4.240
  101SOL     OW 1201   0.774   4.537   2.546
  101SOL    HW1 1202   0.801   4.448   2.509
  101SOL    HW2 1203   0.810   4.609   2.487
  102SOL     OW 1204   2.754   6.300   1.670
  102SOL    HW1 1205   2.792   6.241   1.600
  102SOL    HW2 1206   2.684   6.360   1.629
  103SOL     OW 1207   2.043   1.286   2.228
  103SOL    HW1 1208   2.120   1.350   2.234
  103SOL    HW2 1209   1.968   1.329   2.176
  104SOL     OW 1210   0.920   4.217   1.978
  104SOL    HW1 1211   0.982   4.195   1.902
  104SOL    HW2 1212   0.965   4.199   2.065
  105SOL     OW 1213   5.601   1.803   6.670
  105SOL    HW1 1214   5.598   1.870   6.744
  105SOL    HW2 1215   5.536   1.829   6.599
  106SOL     OW 1216   5.358   5.181   1.813
  106SOL    HW1 1217   5.280   5.196   1.752
  106SOL    HW2 1218   5.433   5.138   1.763
  107SOL     OW 1219   6.801   1.418   0.331
  107SOL    HW1 1220   6.765   1.378   0.247
  107SOL    HW2 1221   6.726   1.429   0.397
  108SOL     OW 1222   1.775   0.753   4.864
  108SOL    HW1 1223   1.699   0.689   4.864
  108SOL    HW2 1224   1.830   0.740   4.781
  109SOL     OW 1225   3.606   1.186   3.137
  109SOL    HW1 1226   3.561   1.226   3.057
  109SOL    HW2 1227   3.593   1.087   3.136
  110SOL     OW 1228   2.514   4.445   5.870
  110SOL    HW1 1229   2.542   4.360   5.914
  110SOL    HW2 1230   2.588   4.478   5.812
  111SOL     OW 1231   5.540   1.510   2.411
  111SOL    HW1 1232   5.466   1.577   2.413
  111SOL    HW2 1233   5.502   1.419   2.393
  112SOL     OW 1234   4.383   0.017   6.929
  112SOL    HW1 1235   4.395   0.114   6.949
  112SOL    HW2 1236   4.287   7.023   6.908
  113SOL     OW 1237   6.323   5.967   2.704
  113SOL    HW1 1238   6.344   5.872   2.678
  113SOL    HW2 1239   6.368   5.988   2.791
  114SOL     OW 1240   1.264   4.208   3.750
  114SOL    HW1 1241   1.303   4.186   3.661
  114SOL    HW2 1242   1.176   4.254   3.738
  115SOL     OW 1243   5.747   0.813   3.464
  115SOL    HW1 1244   5.714   0.719   3.471
  115SOL    HW2 1245   5.844   0.816   3.488
  116SOL     OW 1246   0.912   5.857   1.242
  116SOL    HW1 1247   1.007   5.874   1.269
  116SOL    HW2 1248   0.859   5.828   1.323
  117SOL     OW 1249   2.906   1.324   0.082
  117SOL    HW1 1250   2.822   1.284   0.121
  117SOL    HW2 1251   2.885   1.414   0.044
  118SOL     OW 1252   0.984   1.266   3.304
  118SOL    HW1 1253   1.043   1.345   3.319
  118SOL    HW2 1254   1.021   1.187   3.353
  119SOL     OW 1255   6.754   6.952   6.789
  119SOL    HW1 1256   6.835   6.895   6.790
  119SOL    HW2 1257   6.777   0.017   6.752
  120SOL     OW 1258   4.768   0.758   5.218
  120SOL    HW1 1259   4.806   0.761   5.311
  120SOL    HW2 1260   4.773   0.664   5.184
  121SOL     OW 1261   1.310   3.260   7.004
  121SOL    HW1 1262   1.383   3.208   6.961
  121SOL    HW2 1263   1.329   3.358   6.995
  122SOL     OW 1264   1.528   4.120   0.125
  122SOL    HW1 1265   1.529   4.207   0.173
  122SOL    HW2 1266   1.442   4.110   0.075
  123SOL     OW 1267   1.092   1.305   1.464
  123SOL    HW1 1268   1.134   1.214   1.473
  123SOL    HW2 1269   1.150   1.373   1.507
  124SOL     OW 1270   2.889   2.109   0.949
  124SOL    HW1 1271   2.882   2.157   1.037
  124SOL    HW2 1272   2.801   2.114   0.902
  125SOL     OW 1273   2.994   2.642   6.852
  125SOL    HW1 1274   2.934   2.674   6.778
  125SOL    HW2 1275   3.031   2.720   6.902
  126SOL     OW 1276   3.764   2.939   3.445
  126SOL    HW1 1277   3.840   2.990   3.404
  126SOL    HW2 1278   3.776   2.841   3.427
  127SOL     OW 1279   0.027   5.915   6.331
  127SOL    HW1 1280   7.010   5.880   6.248
  127SOL    HW2 1281   0.124   5.937   6.313
  128SOL     OW 1282   4.574   3.867   1.439
  128SOL    HW1 1283   4.526   3.783   1.464
  128SOL    HW2 1284   4.565   3.882   1.340
  129SOL     OW 1285   1.986   6.170   1.263
  129SOL    HW1 1286   2.025   6.095   1.209
  129SOL    HW2 1287   2.015   6.161   1.358
  130SOL     OW 1288   5.445   1.861   4.785
  130SOL    HW1 1289   5.483   1.847   4.694
  130SOL    HW2 1290   5.461   1.955   4.814
  131SOL     OW 1291   0.461   1.967   3.799
  131SOL    HW1 1292   0.415   2.013   3.724
  131SOL    HW2 1293   0.448   2.019   3.884
  132SOL     OW 1294   3.270   4.057   1.872
  132SOL    HW1 1295   3.198   4.031   1.937
  132SOL    HW2 1296   3.352   4.003   1.890
  133SOL     OW 1297   5.260   7.014   4.902
  133SOL    HW1 1298   5.228   7.013   4.807
  133SOL    HW2 1299   5.272   0.083   4.932
  134SOL     OW 1300   6.056   0.914   2.128
  134SOL    HW1 1301   6.107   0.970   2.193
  134SOL    HW2 1302   5.969   0.958   2.108
  135SOL     OW 1303   4.947   3.545   4.398
  135SOL    HW1 1304   4.979   3.544   4.493
  135SOL    HW2 1305   4.964   3.635   4.357
  136SOL     OW 1306   2.693   6.515   4.337
  136SOL    HW1 1307   2.744   6.450   4.281
  136SOL    HW2 1308   2.722   6.608   4.316
  137SOL     OW 1309   3.355   2.090   4.867
  137SOL    HW1 1310   3.267   2.135   4.880
  137SOL    HW2 1311   3.400   2.079   4.956
  138SOL     OW 1312   0.954   5.277   4.924
  138SOL    HW1 1313   1.030   5.218   4.895
  138SOL    HW2 1314   0.920   5.328   4.845
  139SOL     OW 1315   2.136   6.049   6.785
  139SOL    HW1 1316   2.050   6.091   6.757
  139SOL    HW2 1317   2.148   5.961   6.738
  140SOL     OW 1318   2.605   0.742   3.039
  140SOL    HW1 1319   2.661   0.681   2.983
  140SOL    HW2 1320   2.523   0.767   2.989
  141SOL     OW 1321   6.805   4.118   0.391
  141SOL    HW1 1322   6.738   4.190   0.375
  141SOL    HW2 1323   6.776   4.034   0.343
  142SOL     OW 1324   0.873   4.201   1.572
  142SOL    HW1 1325   0.935   4.135   1.615
  142SOL    HW2 1326   0.926   4.276   1.533
  143SOL     OW 1327   5.867   6.873   1.569
  143SOL    HW1 1328   5.865   6.972   1.581
  143SOL    HW2 1329   5.862   6.828   1.658
  144SOL     OW 1330   2.725   4.676   3.973
  144SOL    HW1 1331   2.688   4.709   4.059
  144SOL    HW2 1332   2.809   4.727   3.951
  145SOL     OW 1333   6.673   4.921   2.731
  145SOL    HW1 1334   6.761   4.933   2.778
  145SOL    HW2 1335   6.684   4.854   2.657
  146SOL     OW 1336   6.422   1.915   5.651
  146SOL    HW1 1337   6.508   1.906   5.701
  146SOL    HW2 1338   6.424   1.854   5.571
  147SOL     OW 1339   5.007   1.187   5.278
  147SOL    HW1 1340   4.912   1.158   5.291
  147SOL    HW2 1341   5.009   1.279   5.241
  148SOL     OW 1342   1.478   4.598   1.195
  148SOL    HW1 1343   1.419   4.675   1.219
  148SOL    HW2 1344   1.477   4.585   1.096
  149SOL     OW 1345   2.498   2.247   5.291
  149SOL    HW1 1346   2.522   2.163   5.340
  149SOL    HW2 1347   2.581   2.296   5.266
  150SOL     OW 1348   4.663   1.159   5.524
  150SOL    HW1 1349   4.578   1.155   5.470
  150SOL    HW2 1350   4.721   1.081   5.501
  151SOL     OW 1351   4.059   2.022   0.767
  151SOL    HW1 1352   4.044   1.926   0.743
  151SOL    HW2 1353   4.126   2.061   0.703
  152SOL     OW 1354   1.152   1.125   6.845
  152SOL    HW1 1355   1.175   1.106   6.750
  152SOL    HW2 1356   1.227   1.175   6.888
  153SOL     OW 1357   2.305   1.373   3.824
  153SOL    HW1 1358   2.340   1.417   3.907
  153SOL    HW2 1359   2.357   1.405   3.745
  154SOL     OW 1360   6.110   2.036   1.313
  154SOL    HW1 1361   6.120   2.077   1.404
  154SOL    HW2 1362   6.027   1.980   1.311
  155SOL     OW 1363   0.334   0.217   2.289
  155SOL    HW1 1364   0.281   0.140   2.323
  155SOL    HW2 1365   0.278   0.300   2.289
  156SOL     OW 1366   4.498   1.017   0.081
  156SOL    HW1 1367   4.567   1.085   0.105
  156SOL    HW2 1368   4.539   0.926   0.080
  157SOL     OW 1369   5.112   3.975   0.496
  157SOL    HW1 1370   5.199   3.926   0.495
  157SOL    HW2 1371   5.089   4.002   0.589
  158SOL     OW 1372   1.210   3.099   2.798
  158SOL    HW1 1373   1.209   3.154   2.882
  158SOL    HW2 1374   1.117   3.077   2.770
  159SOL     OW 1375   5.056   5.576   0.642
  159SOL    HW1 1376   4.965   5.569   0.602
  159SOL    HW2 1377   5.082   5.488   0.682
  160SOL     OW 1378   5.812   0.341   0.630
  160SOL    HW1 1379   5.770   0.307   0.714
  160SOL    HW2 1380   5.767   0.426   0.603
  161SOL     OW 1381   0.909   7.003   0.059
  161SOL    HW1 1382   0.897   0.037   0.139
  161SOL    HW2 1383   0.979   6.935   0.079
  162SOL     OW 1384   2.342   6.447   0.106
  162SOL    HW1 1385   2.426   6.393   0.101
  162SOL    HW2 1386   2.361   6.540   0.075
  163SOL     OW 1387   6.405   4.389   3.346
  163SOL    HW1 1388   6.407   4.290   3.332
  163SOL    HW2 1389   6.344   4.411   3.422
  164SOL     OW 1390   1.523   1.846   2.641
  164SOL    HW1 1391   1.568   1.765   2.603
  164SOL    HW2 1392   1.430   1.851   2.606
  165SOL     OW 1393   0.446   5.881   2.550
  165SOL    HW1 1394   0.480   5.882   2.644
  165SOL    HW2 1395   0.523   5.889   2.486
  166SOL     OW 1396   6.436   4.092   2.295
  166SOL    HW1 1397   6.530   4.120   2.277
  166SOL    HW2 1398   6.384   4.170   2.330
  167SOL     OW 1399   5.212   1.492   0.425
  167SOL    HW1 1400   5.231   1.570   0.485
  167SOL    HW2 1401   5.113   1.487   0.408
  168SOL     OW 1402   4.894   3.692   1.974
  168SOL    HW1 1403   4.839   3.608   1.974
  168SOL    HW2 1404   4.978   3.676   1.923
  169SOL     OW 1405   5.798   2.800   1.121
  169SOL    HW1 1406   5.724   2.733   1.128
  169SOL    HW2 1407   5.831   2.804   1.027
  170SOL     OW 1408   1.338   5.188   2.972
  170SOL    HW1 1409   1.263   5.136   3.013
  170SOL    HW2 1410   1.425   5.146   2.998
  171SOL     OW 1411   2.375   3.449   0.685
  171SOL    HW1 1412   2.406   3.354   0.681
  171SOL    HW2 1413   2.354   3.481   0.592
  172SOL     OW 1414   5.701   2.245   1.709
  172SOL    HW1 1415   5.776   2.302   1.677
  172SOL    HW2 1416   5.630   2.303   1.749
  173SOL     OW 1417   6.454   1.552   5.001
  173SOL    HW1 1418   6.453   1.566   4.901
  173SOL    HW2 1419   6.497   1.464   5.022
  174SOL     OW 1420   5.554   5.780   5.253
  174SOL    HW1 1421   5.621   5.846   5.288
  174SOL    HW2 1422   5.523   5.721   5.327
  175SOL     OW 1423   1.503   0.454   0.597
  175SOL    HW1 1424   1.580   0.479   0.539
  175SOL    HW2 1425   1.418   0.482   0.552
  176SOL     OW 1426   4.950   4.785   2.398
  176SOL    HW1 1427   4.960   4.708   2.461
  176SOL    HW2 1428   4.855   4.789   2.365
  177SOL     OW 1429   5.562   1.891   4.509
  177SOL    HW1 1430   5.569   1.978   4.461
  177SOL    HW2 1431   5.515   1.824   4.451
  178SOL     OW 1432   2.176   6.474   4.836
  178SOL    HW1 1433   2.270   6.444   4.846
  178SOL    HW2 1434   2.166   6.566   4.874
  179SOL     OW 1435   4.294   5.393   0.554
  179SOL    HW1 1436   4.333   5.326   0.491
  179SOL    HW2 1437   4.288   5.482   0.509
  180SOL     OW 1438   4.091   0.405   1.054
  180SOL    HW1 1439   4.032   0.480   1.025
  180SOL    HW2 1440   4.082   0.329   0.988
  181SOL     OW 1441   3.146   2.273   5.469
  181SOL    HW1 1442   3.146   2.173   5.471
  181SOL    HW2 1443   3.192   2.304   5.386
  182SOL     OW 1444   5.572   2.535   0.177
  182SOL    HW1 1445   5.669   2.559   0.170
  182SOL    HW2 1446   5.532   2.582   0.256
  183SOL     OW 1447   3.588   1.664   4.593
  183SOL    HW1 1448   3.638   1.646   4.509
  183SOL    HW2 1449   3.531   1.746   4.581
  184SOL     OW 1450   0.483   6.607   3.487
  184SOL    HW1 1451   0.501   6.553   3.569
  184SOL    HW2 1452   0.419   6.558   3.428
  185SOL     OW 1453   0.402   1.804   4.065
  185SOL    HW1 1454   0.447   1.844   3.986
  185SOL    HW2 1455   0.470   1.785   4.136
  186SOL     OW 1456   5.295   5.473   4.461
  186SOL    HW1 1457   5.287   5.545   4.392
  186SOL    HW2 1458   5.308   5.513   4.551
  187SOL     OW 1459   4.033   5.603   2.832
  187SOL    HW1 1460   4.017   5.694   2.794
  187SOL    HW2 1461   4.073   5.612   2.923
  188SOL     OW 1462   2.471   2.268   2.724
  188SOL    HW1 1463   2.462   2.330   2.646
  188SOL    HW2 1464   2.427   2.181   2.702
  189SOL     OW 1465   6.612   5.481   6.877
  189SOL    HW1 1466   6.647   5.412   6.814
  189SOL    HW2 1467   6.648   5.464   6.969
  190SOL     OW 1468   6.267   5.704   0.396
  190SOL    HW1 1469   6.251   5.684   0.299
  190SOL    HW2 1470   6.185   5.745   0.436
  191SOL     OW 1471   6.246   0.813   6.188
  191SOL    HW1 1472   6.300   0.754   6.247
  191SOL    HW2 1473   6.304   0.851   6.116
  192SOL     OW 1474   0.123   5.164   1.048
  192SOL    HW1 1475   0.124   5.258   1.016
  192SOL    HW2 1476   0.054   5.154   1.120
  193SOL     OW 1477   3.245   4.922   6.784
  193SOL    HW1 1478   3.286   4.910   6.693
  193SOL    HW2 1479   3.301   4.986   6.837
  194SOL     OW 1480   3.817   6.613   2.017
  194SOL    HW1 1481   3.849   6.707   2.001
  194SOL    HW2 1482   3.723   6.604   1.984
  195SOL     OW 1483   3.169   0.764   1.612
  195SOL    HW1 1484   3.235   0.813   1.669
  195SOL    HW2 1485   3.130   0.827   1.544
  196SOL     OW 1486   2.386   1.060   6.365
  196SOL    HW1 1487   2.457   1.130   6.363
  196SOL    HW2 1488   2.296   1.102   6.356
  197SOL     OW 1489   2.215   6.209   0.102
  197SOL    HW1 1490   2.276   6.288   0.110
  197SOL    HW2 1491   2.141   6.231   0.038
  198SOL     OW 1492   4.419   5.874   0.613
  198SOL    HW1 1493   4.432   5.933   0.693
  198SOL    HW2 1494   4.339   5.816   0.627
  199SOL     OW 1495   5.454   0.464   2.333
  199SOL    HW1 1496   5.492   0.525   2.263
  199SOL    HW2 1497   5.380   0.411   2.293
  200SOL     OW 1498   1.314   3.546   2.030
  200SOL    HW1 1499   1.267   3.467   1.993
  200SOL    HW2 1500   1.308   3.545   2.130
  201SOL     OW 1501   2.745   0.971   0.092
  201SOL    HW1 1502   2.713   1.064   0.108
  201SOL    HW2 1503   2.825   0.972   0.032
  202SOL     OW 1504   4.614   6.632   4.084
  202SOL    HW1 1505   4.709   6.665   4.085
  202SOL    HW2 1506   4.586   6.611   4.177
  203SOL     OW 1507   5.020   3.522   6.028
  203SOL    HW1 1508   4.925   3.539   6.001
  203SOL    HW2 1509   5.081   3.561   5.959
  204SOL     OW 1510   1.426   0.224   0.421
  204SOL    HW1 1511   1.454   0.307   0.373
  204SOL    HW2 1512   1.507   0.169   0.442
  205SOL     OW 1513   6.648   1.511   0.955
  205SOL    HW1 1514   6.695   1.582   1.007
  205SOL    HW2 1515   6.704   1.429   0.953
  206SOL     OW 1516   0.732   4.554   0.934
  206SOL    HW1 1517   0.740   4.606   0.848
  206SOL    HW2 1518   0.781   4.468   0.925
  207SOL     OW 1519   4.302   0.254   5.932
  207SOL    HW1 1520   4.368   0.327   5.949
  207SOL    HW2 1521   4.218   0.293   5.896
  208SOL     OW 1522   5.187   4.801   5.682
  208SOL    HW1 1523   5.262   4.814   5.746
  208SOL    HW2 1524   5.159   4.705   5.682
  209SOL     OW 1525   0.237   6.199   5.727
  209SOL    HW1 1526   0.263   6.105   5.752
  209SOL    HW2 1527   0.159   6.196   5.664
  210SOL     OW 1528   3.836   2.139   2.258
  210SOL    HW1 1529   3.748   2.123   2.212
  210SOL    HW2 1530   3.903   2.170   2.190
  211SOL     OW 1531   0.801   1.203   1.728
  211SOL    HW1 1532   0.731   1.274   1.732
  211SOL    HW2 1533   0.758   1.113   1.729
  212SOL     OW 1534   0.452   4.518   3.279
  212SOL    HW1 1535   0.515   4.595   3.284
  212SOL    HW2 1536   0.360   4.549   3.304
  213SOL     OW 1537   4.988   1.239   0.384
  213SOL    HW1 1538   4.889   1.244   0.384
  213SOL    HW2 1539   5.022   1.243   0.478
  214SOL     OW 1540   0.636   6.953   3.336
  214SOL    HW1 1541   0.711   6.888   3.320
  214SOL    HW2 1542   0.554   6.922   3.287
  215SOL     OW 1543   4.097   3.141   2.044
  215SOL    HW1 1544   4.019   3.081   2.026
  215SOL    HW2 1545   4.154   3.100   2.115
  216SOL     OW 1546   1.439   0.132   4.530
  216SOL    HW1 1547   1.389   0.047   4.549
  216SOL    HW2 1548   1.453   0.181   4.616
  217SOL     OW 1549   1.841   2.846   4.263
  217SOL    HW1 1550   1.893   2.761   4.270
  217SOL    HW2 1551   1.891   2.912   4.207
  218SOL     OW 1552   1.243   2.411   4.266
  218SOL    HW1 1553   1.337   2.425   4.297
  218SOL    HW2 1554   1.242   2.340   4.196
  219SOL     OW 1555   3.536   4.391   0.739
  219SOL    HW1 1556   3.556   4.408   0.642
  219SOL    HW2 1557   3.533   4.293   0.755
  220SOL     OW 1558   2.394   5.352   6.682
  220SOL    HW1 1559   2.410   5.384   6.589
  220SOL    HW2 1560   2.299   5.368   6.707
  221SOL     OW 1561   5.501   3.276   3.843
  221SOL    HW1 1562   5.584   3.277   3.787
  221SOL    HW2 1563   5.522   3.313   3.933
  222SOL     OW 1564   1.710   5.492   5.034
  222SOL    HW1 1565   1.659   5.493   5.120
  222SOL    HW2 1566   1.784   5.425   5.040
  223SOL     OW 1567   6.823   3.601   2.036
  223SOL    HW1 1568   6.879   3.567   1.960
  223SOL    HW2 1569   6.846   3.697   2.055
  224SOL     OW 1570   2.642   2.288   2.238
  224SOL    HW1 1571   2.717   2.309   2.175
  224SOL    HW2 1572   2.680   2.260   2.326
  225SOL     OW 1573   5.626   1.191   0.224
  225SOL    HW1 1574   5.595   1.274   0.178
  225SOL    HW2 1575   5.714   1.209   0.269
  226SOL     OW 1576   1.165   6.808   0.734
  226SOL    HW1 1577   1.138   6.712   0.737
  226SOL    HW2 1578   1.225   6.828   0.812
  227SOL     OW 1579   1.821   3.850   3.112
  227SOL    HW1 1580   1.871   3.928   3.151
  227SOL    HW2 1581   1.795   3.787   3.186
  228SOL     OW 1582   3.714   0.022   4.127
  228SOL    HW1 1583   3.806   0.006   4.094
  228SOL    HW2 1584   3.700   6.999   4.214
  229SOL     OW 1585   6.096   5.505   1.256
  229SOL    HW1 1586   6.054   5.485   1.167
  229SOL    HW2 1587   6.037   5.566   1.308
  230SOL     OW 1588   2.218   4.043   4.535
  230SOL    HW1 1589   2.176   3.977   4.472
  230SOL    HW2 1590   2.161   4.054   4.616
  231SOL     OW 1591   6.590   3.051   6.112
  231SOL    HW1 1592   6.652   3.037   6.189
  231SOL    HW2 1593   6.502   3.008   6.132
  232SOL     OW 1594   1.691   3.861   6.583
  232SOL    HW1 1595   1.654   3.829   6.670
  232SOL    HW2 1596   1.782   3.822   6.570
  233SOL     OW 1597   2.686   1.078   5.681
  233SOL    HW1 1598   2.779   1.047   5.702
  233SOL    HW2 1599   2.633   1.002   5.644
  234SOL     OW 1600   2.670   5.011   6.930
  234SOL    HW1 1601   2.758   4.972   6.903
  234SOL    HW2 1602   2.660   5.005   0.004
  235SOL     OW 1603   3.437   3.118   3.873
  235SOL    HW1 1604   3.340   3.096   3.860
  235SOL    HW2 1605   3.489   3.089   3.793
  236SOL     OW 1606   6.214   2.847   5.911
  236SOL    HW1 1607   6.204   2.781   5.986
  236SOL    HW2 1608   6.124   2.877   5.881
  237SOL     OW 1609   0.057   6.861   1.632
  237SOL    HW1 1610   6.983   6.870   1.629
  237SOL    HW2 1611   0.090   6.827   1.545
  238SOL     OW 1612   5.645   3.700   1.867
  238SOL    HW1 1613   5.615   3.746   1.951
  238SOL    HW2 1614   5.580   3.718   1.794
  239SOL     OW 1615   6.783   5.973   0.057
  239SOL    HW1 1616   6.699   5.924   0.035
  239SOL    HW2 1617   6.861   5.910   0.055
  240SOL     OW 1618   0.846   3.931   6.350
  240SOL    HW1 1619   0.827   4.017   6.399
  240SOL    HW2 1620   0.883   3.864   6.414
  241SOL     OW 1621   0.315   1.259   3.794
  241SOL    HW1 1622   0.408   1.245   3.829
  241SOL    HW2 1623   0.318   1.320   3.716
  242SOL     OW 1624   1.481   3.492   4.803
  242SOL    HW1 1625   1.543   3.463   4.876
  242SOL    HW2 1626   1.533   3.514   4.721
  243SOL     OW 1627   5.113   0.455   6.163
  243SOL    HW1 1628   5.085   0.549   6.181
  243SOL    HW2 1629   5.181   0.453   6.089
  244SOL     OW 1630   5.273   1.448   5.043
  244SOL    HW1 1631   5.286   1.377   5.113
  244SOL    HW2 1632   5.337   1.434   4.968
  245SOL     OW 1633   6.157   2.469   5.246
  245SOL    HW1 1634   6.140   2.413   5.327
  245SOL    HW2 1635   6.071   2.495   5.204
  246SOL     OW 1636   4.976   3.709   3.713
  246SOL    HW1 1637   4.924   3.779   3.664
  246SOL    HW2 1638   5.072   3.714   3.687
  247SOL     OW 1639   2.490   0.943   3.567
  247SOL    HW1 1640   2.582   0.907   3.554
  247SOL    HW2 1641   2.481   0.980   3.659
  248SOL     OW 1642   4.805   1.830   4.388
  248SOL    HW1 1643   4.853   1.799   4.470
  248SOL    HW2 1644   4.806   1.930   4.385
  249SOL     OW 1645   3.363   6.481   4.647
  249SOL    HW1 1646   3.318   6.393   4.665
  249SOL    HW2 1647   3.345   6.508   4.552
  250SOL     OW 1648   5.157   3.098   5.401
  250SOL    HW1 1649   5.157   3.030   5.475
  250SOL    HW2 1650   5.225   3.168   5.421
  251SOL     OW 1651   4.860   2.979   6.561
  251SOL    HW1 1652   4.955   2.952   6.549
  251SOL    HW2 1653   4.818   2.924   6.633
  252SOL     OW 1654   6.401   1.042   5.969
  252SOL    HW1 1655   6.445   1.019   6.056
  252SOL    HW2 1656   6.414   1.139   5.950
  253SOL     OW 1657   2.257   2.934   0.652
  253SOL    HW1 1658   2.191   2.920   0.577
  253SOL    HW2 1659   2.229   2.880   0.731
  254SOL     OW 1660   6.785   3.631   4.399
  254SOL    HW1 1661   6.820   3.576   4.323
  254SOL    HW2 1662   6.859   3.653   4.462
  255SOL     OW 1663   3.050   2.008   3.402
  255SOL    HW1 1664   3.033   2.039   3.308
  255SOL    HW2 1665   2.999   2.066   3.466
  256SOL     OW 1666   6.197   5.389   6.577
  256SOL    HW1 1667   6.109   5.404   6.622
  256SOL    HW2 1668   6.209   5.457   6.504
  257SOL     OW 1669   2.656   5.281   6.201
  257SOL    HW1 1670   2.653   5.183   6.178
  257SOL    HW2 1671   2.721   5.328   6.141
  258SOL     OW 1672   5.029   4.203   4.588
  258SOL    HW1 1673   5.014   4.120   4.534
  258SOL    HW2 1674   5.099   4.259   4.544
  259SOL     OW 1675   1.818   3.195   2.765
  259SOL    HW1 1676   1.812   3.231   2.671
  259SOL    HW2 1677   1.895   3.238   2.812
  260SOL     OW 1678   5.476   0.247   6.507
  260SOL    HW1 1679   5.433   0.159   6.489
  260SOL    HW2 1680   5.411   0.307   6.554
  261SOL     OW 1681   0.598   4.530   1.530
  261SOL    HW1 1682   0.604   4.534   1.630
  261SOL    HW2 1683   0.568   4.438   1.502
  262SOL     OW 1684   1.105   2.743   2.396
  262SOL    HW1 1685   1.153   2.796   2.467
  262SOL    HW2 1686   1.169   2.678   2.355
  263SOL     OW 1687   0.865   2.477   4.834
  263SOL    HW1 1688   0.864   2.523   4.745
  263SOL    HW2 1689   0.862   2.378   4.821
  264SOL     OW 1690   0.614   3.757   5.964
  264SOL    HW1 1691   0.591   3.753   6.061
  264SOL    HW2 1692   0.690   3.820   5.950
  265SOL     OW 1693   5.204   4.303   4.158
  265SOL    HW1 1694   5.246   4.366   4.092
  265SOL    HW2 1695   5.104   4.304   4.146
  266SOL     OW 1696   4.267   1.580   0.835
  266SOL    HW1 1697   4.181   1.543   0.870
  266SOL    HW2 1698   4.264   1.582   0.735
  267SOL     OW 1699   1.860   2.427   6.033
  267SOL    HW1 1700   1.874   2.519   6.069
  267SOL    HW2 1701   1.857   2.431   5.933
  268SOL     OW 1702   4.731   4.258   4.599
  268SOL    HW1 1703   4.823   4.218   4.603
  268SOL    HW2 1704   4.703   4.285   4.691
  269SOL     OW 1705   1.456   1.878   6.420
  269SOL    HW1 1706   1.479   1.973   6.399
  269SOL    HW2 1707   1.391   1.876   6.497
  270SOL     OW 1708   5.495   0.851   2.814
  270SOL    HW1 1709   5.430   0.796   2.866
  270SOL    HW2 1710   5.464   0.946   2.812
  271SOL     OW 1711   1.551   0.510   0.923
  271SOL    HW1 1712   1.649   0.529   0.911
  271SOL    HW2 1713   1.520   0.452   0.848
  272SOL     OW 1714   3.777   5.367   3.746
  272SOL    HW1 1715   3.749   5.336   3.655
  272SOL    HW2 1716   3.696   5.385   3.801
  273SOL     OW 1717   1.790   6.086   4.618
  273SOL    HW1 1718   1.732   6.064   4.697
  273SOL    HW2 1719   1.784   6.012   4.551
  274SOL     OW 1720   6.245   2.453   2.833
  274SOL    HW1 1721   6.308   2.507   2.776
  274SOL    HW2 1722   6.152   2.461   2.796
  275SOL     OW 1723   6.879   6.464   5.964
  275SOL    HW1 1724   6.883   6.475   6.063
  275SOL    HW2 1725   6.804   6.402   5.940
  276SOL     OW 1726   6.467   6.196   3.723
  276SOL    HW1 1727   6.488   6.141   3.642
  276SOL    HW2 1728   6.552   6.216   3.772
  277SOL     OW 1729   3.396   1.747   5.346
  277SOL    HW1 1730   3.415   1.834   5.392
  277SOL    HW2 1731   3.308   1.752   5.298
  278SOL     OW 1732   5.488   3.866   2.497
  278SOL    HW1 1733   5.461   3.912   2.413
  278SOL    HW2 1734   5.585   3.841   2.493
  279SOL     OW 1735   0.210   2.940   3.068
  279SOL    HW1 1736   0.185   2.921   2.973
  279SOL    HW2 1737   0.147   2.892   3.129
  280SOL     OW 1738   4.476   6.992   3.792
  280SOL    HW1 1739   4.549   6.926   3.811
  280SOL    HW2 1740   4.460   6.998   3.694
  281SOL     OW 1741   4.679   6.054   3.956
  281SOL    HW1 1742   4.586   6.064   3.923
  281SOL    HW2 1743   4.743   6.061   3.879
  282SOL     OW 1744   4.273   2.100   6.166
  282SOL    HW1 1745   4.340   2.055   6.107
  282SOL    HW2 1746   4.299   2.084   6.262
  283SOL     OW 1747   6.254   0.763   4.972
  283SOL    HW1 1748   6.282   0.674   5.007
  283SOL    HW2 1749   6.259   0.762   4.872
  284SOL     OW 1750   7.018   5.135   5.407
  284SOL    HW1 1751   6.952   5.130   5.482
  284SOL    HW2 1752   0.085   5.117   5.442
  285SOL     OW 1753   4.757   0.272   0.030
  285SOL    HW1 1754   4.784   0.362   7.024
  285SOL    HW2 1755   4.813   0.244   0.108
  286SOL     OW 1756   3.527   5.152   4.691
  286SOL    HW1 1757   3.518   5.076   4.627
  286SOL    HW2 1758   3.436   5.184   4.718
  287SOL     OW 1759   2.398   6.160   5.678
  287SOL    HW1 1760   2.481   6.203   5.712
  287SOL    HW2 1761   2.322   6.179   5.740
  288SOL     OW 1762   3.673   0.637   0.562
  288SOL    HW1 1763   3.714   0.655   0.473
  288SOL    HW2 1764   3.730   0.676   0.634
  289SOL     OW 1765   0.851   6.284   4.978
  289SOL    HW1 1766   0.894   6.355   5.034
  289SOL    HW2 1767   0.849   6.314   4.882
  290SOL     OW 1768   4.567   0.643   3.717
  290SOL    HW1 1769   4.602   0.692   3.637
  290SOL    HW2 1770   4.560   0.707   3.794
  291SOL     OW 1771   4.771   0.365   4.061
  291SOL    HW1 1772   4.745   0.375   3.965
  291SOL    HW2 1773   4.701   0.313   4.110
  292SOL     OW 1774   3.623   0.253   3.788
  292SOL    HW1 1775   3.630   0.267   3.886
  292SOL    HW2 1776   3.689   0.311   3.741
  293SOL     OW 1777   5.799   6.155   2.418
  293SOL    HW1 1778   5.834   6.080   2.475
  293SOL    HW2 1779   5.796   6.126   2.323
  294SOL     OW 1780   6.016   0.353   5.543
  294SOL    HW1 1781   6.012   0.453   5.540
  294SOL    HW2 1782   6.083   0.320   5.477
  295SOL     OW 1783   1.580   2.249   5.213
  295SOL    HW1 1784   1.593   2.348   5.227
  295SOL    HW2 1785   1.642   2.199   5.272
  296SOL     OW 1786   6.805   0.793   1.675
  296SOL    HW1 1787   6.791   0.803   1.576
  296SOL    HW2 1788   6.721   0.820   1.722
  297SOL     OW 1789   5.169   4.043   3.534
  297SOL    HW1 1790   5.242   4.077   3.475
  297SOL    HW2 1791   5.195   4.058   3.630
  298SOL     OW 1792   4.204   0.743   0.334
  298SOL    HW1 1793   4.303   0.739   0.319
  298SOL    HW2 1794   4.158   0.754   0.246
  299SOL     OW 1795   3.074   1.971   0.336
  299SOL    HW1 1796   3.079   1.948   0.433
  299SOL    HW2 1797   3.159   1.942   0.291
  300SOL     OW 1798   3.834   1.231   2.689
  300SOL    HW1 1799   3.888   1.285   2.625
  300SOL    HW2 1800   3.790   1.292   2.755
  301SOL     OW 1801   5.465   5.921   2.038
  301SOL    HW1 1802   5.495   6.010   2.002
  301SOL    HW2 1803   5.473   5.852   1.966
  302SOL     OW 1804   6.620   6.248   1.642
  302SOL    HW1 1805   6.589   6.160   1.606
  302SOL    HW2 1806   6.671   6.233   1.727
  303SOL     OW 1807   6.368   5.498   2.435
  303SOL    HW1 1808   6.284   5.482   2.381
  303SOL    HW2 1809   6.442   5.526   2.374
  304SOL     OW 1810   1.352   0.126   5.064
  304SOL    HW1 1811   1.413   0.047   5.067
  304SOL    HW2 1812   1.281   0.117   5.134
  305SOL     OW 1813   1.323   2.770   1.404
  305SOL    HW1 1814   1.345   2.847   1.343
  305SOL    HW2 1815   1.259   2.801   1.475
  306SOL     OW 1816   6.898   0.735   3.141
  306SOL    HW1 1817   6.886   0.772   3.233
  306SOL    HW2 1818   6.946   0.801   3.084
  307SOL     OW 1819   3.170   3.512   1.385
  307SOL    HW1 1820   3.121   3.568   1.452
  307SOL    HW2 1821   3.160   3.416   1.407
  308SOL     OW 1822   5.512   0.751   4.288
  308SOL    HW1 1823   5.593   0.803   4.315
  308SOL    HW2 1824   5.489   0.771   4.193
  309SOL     OW 1825   0.588   0.145   6.940
  309SOL    HW1 1826   0.658   0.216   6.952
  309SOL    HW2 1827   0.623   0.058   6.974
  310SOL     OW 1828   5.168   6.168   4.696
  310SOL    HW1 1829   5.239   6.222   4.651
  310SOL    HW2 1830   5.207   6.119   4.774
  311SOL     OW 1831   2.392   5.326   3.145
  311SOL    HW1 1832   2.314   5.346   3.087
  311SOL    HW2 1833   2.409   5.228   3.146
  312SOL     OW 1834   4.666   2.292   3.600
  312SOL    HW1 1835   4.725   2.298   3.520
  312SOL    HW2 1836   4.652   2.195   3.624
  313SOL     OW 1837   3.630   3.472   2.782
  313SOL    HW1 1838   3.654   3.511   2.871
  313SOL    HW2 1839   3.685   3.515   2.711
  314SOL     OW 1840   1.930   6.413   5.465
  314SOL    HW1 1841   1.974   6.347   5.405
  314SOL    HW2 1842   1.971   6.408   5.556
  315SOL     OW 1843   6.126   1.093   3.192
  315SOL    HW1 1844   6.068   1.140   3.258
  315SOL    HW2 1845   6.183   1.160   3.144
  316SOL     OW 1846   4.546   1.583   5.600
  316SOL    HW1 1847   4.606   1.662   5.614
  316SOL    HW2 1848   4.572   1.509   5.662
  317SOL     OW 1849   1.651   1.729   1.302
  317SOL    HW1 1850   1.640   1.638   1.263
  317SOL    HW2 1851   1.707   1.724   1.385
  318SOL     OW 1852   6.856   0.691   5.699
  318SOL    HW1 1853   6.796   0.722   5.625
  318SOL    HW2 1854   6.860   0.761   5.770
  319SOL     OW 1855   0.574   1.899   2.766
  319SOL    HW1 1856   0.576   1.840   2.847
  319SOL    HW2 1857   0.664   1.938   2.751
  320SOL     OW 1858   5.963   1.937   6.915
  320SOL    HW1 1859   5.986   1.840   6.922
  320SOL    HW2 1860   5.863   1.947   6.915
  321SOL     OW 1861   4.019   3.059   0.764
  321SOL    HW1 1862   4.079   3.029   0.690
  321SOL    HW2 1863   4.075   3.099   0.837
  322SOL     OW 1864   4.190   3.661   6.418
  322SOL    HW1 1865   4.114   3.681   6.480
  322SOL    HW2 1866   4.154   3.643   6.327
  323SOL     OW 1867   0.359   2.714   3.357
  323SOL    HW1 1868   0.386   2.806   3.326
  323SOL    HW2 1869   0.333   2.718   3.454
  324SOL     OW 1870   2.072   6.957   3.368
  324SOL    HW1 1871   1.980   6.921   3.386
  324SOL    HW2 1872   2.065   0.015   3.313
  325SOL     OW 1873   1.055   3.589   2.356
  325SOL    HW1 1874   1.136   3.596   2.414
  325SOL    HW2 1875   1.078   3.537   2.274
  326SOL     OW 1876   1.983   5.212   6.072
  326SOL    HW1 1877   1.974   5.115   6.052
  326SOL    HW2 1878   1.894   5.251   6.094
  327SOL     OW 1879   3.463   5.147   2.702
  327SOL    HW1 1880   3.539   5.199   2.741
  327SOL    HW2 1881   3.383   5.206   2.695
  328SOL     OW 1882   1.189   4.196   1.847
  328SOL    HW1 1883   1.281   4.188   1.808
  328SOL    HW2 1884   1.179   4.286   1.889
  329SOL     OW 1885   3.283   3.866   1.643
  329SOL    HW1 1886   3.262   3.798   1.713
  329SOL    HW2 1887   3.257   3.957   1.676
  330SOL     OW 1888   3.654   5.414   0.313
  330SOL    HW1 1889   3.722   5.365   0.367
  330SOL    HW2 1890   3.562   5.382   0.340
  331SOL     OW 1891   4.973   5.109   0.618
  331SOL    HW1 1892   5.041   5.080   0.550
  331SOL    HW2 1893   5.004   5.194   0.661
  332SOL     OW 1894   5.386   1.806   3.784
  332SOL    HW1 1895   5.401   1.707   3.785
  332SOL    HW2 1896   5.314   1.830   3.849
  333SOL     OW 1897   3.994   0.808   5.063
  333SOL    HW1 1898   4.042   0.737   5.013
  333SOL    HW2 1899   4.052   0.889   5.071
  334SOL     OW 1900   4.115   3.221   2.656
  334SOL    HW1 1901   4.081   3.314   2.645
  334SOL    HW2 1902   4.150   3.209   2.749
  335SOL     OW 1903   3.934   0.040   0.112
  335SOL    HW1 1904   3.923   6.966   0.100
  335SOL    HW2 1905   4.021   0.058   0.158
  336SOL     OW 1906   2.869   1.089   3.930
  336SOL    HW1 1907   2.841   1.168   3.876
  336SOL    HW2 1908   2.836   1.005   3.886
  337SOL     OW 1909   1.508   1.809   5.657
  337SOL    HW1 1910   1.601   1.831   5.686
  337SOL    HW2 1911   1.455   1.779   5.736
  338SOL     OW 1912   4.242   3.196   1.333
  338SOL    HW1 1913   4.287   3.164   1.416
  338SOL    HW2 1914   4.223   3.118   1.274
  339SOL     OW 1915   4.255   4.804   4.592
  339SOL    HW1 1916   4.287   4.775   4.682
  339SOL    HW2 1917   4.214   4.895   4.599
  340SOL     OW 1918   5.010   2.862   4.881
  340SOL    HW1 1919   4.960   2.936   4.835
  340SOL    HW2 1920   5.095   2.843   4.831
  341SOL     OW 1921   5.656   5.668   4.437
  341SOL    HW1 1922   5.675   5.723   4.356
  341SOL    HW2 1923   5.654   5.571   4.412
  342SOL     OW 1924   4.739   4.077   0.953
  342SOL    HW1 1925   4.689   4.158   0.924
  342SOL    HW2 1926   4.692   3.995   0.921
  343SOL     OW 1927   0.606   6.287   2.649
  343SOL    HW1 1928   0.593   6.385   2.664
  343SOL    HW2 1929   0.567   6.236   2.726
  344SOL     OW 1930   0.772   1.749   1.253
  344SOL    HW1 1931   0.843   1.811   1.219
  344SOL    HW2 1932   0.755   1.768   1.349
  345SOL     OW 1933   6.920   2.187   4.057
  345SOL    HW1 1934   6.994   2.243   4.093
  345SOL    HW2 1935   6.852   2.246   4.012
  346SOL     OW 1936   1.981   0.133   2.831
  346SOL    HW1 1937   2.071   0.098   2.805
  346SOL    HW2 1938   1.912   0.097   2.769
  347SOL     OW 1939   1.936   5.911   0.374
  347SOL    HW1 1940   1.899   5.992   0.418
  347SOL    HW2 1941   2.014   5.937   0.317
  348SOL     OW 1942   4.736   4.985   2.551
  348SOL    HW1 1943   4.749   4.938   2.464
  348SOL    HW2 1944   4.709   5.080   2.535
  349SOL     OW 1945   6.947   4.483   1.470
  349SOL    HW1 1946   7.020   4.538   1.510
  349SOL    HW2 1947   6.988   4.406   1.420
  350SOL     OW 1948   3.163   2.990   0.144
  350SOL    HW1 1949   3.144   2.908   0.199
  350SOL    HW2 1950   3.166   3.070   0.204
  351SOL     OW 1951   2.876   3.861   0.710
  351SOL    HW1 1952   2.822   3.781   0.685
  351SOL    HW2 1953   2.963   3.858   0.661
  352SOL     OW 1954   4.446   6.104   3.793
  352SOL    HW1 1955   4.369   6.043   3.775
  352SOL    HW2 1956   4.423   6.167   3.867
  353SOL     OW 1957   3.211   0.003   6.391
  353SOL    HW1 1958   3.235   0.084   6.445
  353SOL    HW2 1959   3.178   6.956   6.452
  354SOL     OW 1960   5.696   2.877   0.761
  354SOL    HW1 1961   5.756   2.886   0.681
  354SOL    HW2 1962   5.684   2.967   0.803
  355SOL     OW 1963   1.932   2.652   2.917
  355SOL    HW1 1964   1.961   2.632   3.011
  355SOL    HW2 1965   1.872   2.732   2.917
  356SOL     OW 1966   1.523   0.549   4.845
  356SOL    HW1 1967   1.424   0.549   4.863
  356SOL    HW2 1968   1.570   0.497   4.916
  357SOL     OW 1969   7.020   6.370   4.058
  357SOL    HW1 1970   6.983   6.386   3.966
  357SOL    HW2 1971   0.090   6.401   4.062
  358SOL     OW 1972   4.815   6.044   0.995
  358SOL    HW1 1973   4.779   5.956   0.965
  358SOL    HW2 1974   4.811   6.049   1.095
  359SOL     OW 1975   3.530   0.768   1.624
  359SOL    HW1 1976   3.495   0.861   1.631
  359SOL    HW2 1977   3.625   0.771   1.594
  360SOL     OW 1978   1.239   4.597   4.912
  360SOL    HW1 1979   1.260   4.606   5.009
  360SOL    HW2 1980   1.314   4.636   4.859
  361SOL     OW 1981   5.977   6.369   2.666
  361SOL    HW1 1982   5.928   6.441   2.617
  361SOL    HW2 1983   5.974   6.387   2.764
  362SOL     OW 1984   3.831   4.205   0.820
  362SOL    HW1 1985   3.812   4.298   0.851
  362SOL    HW2 1986   3.831   4.143   0.899
  363SOL     OW 1987   6.397   4.736   2.535
  363SOL    HW1 1988   6.347   4.784   2.463
  363SOL    HW2 1989   6.334   4.710   2.608
  364SOL     OW 1990   0.775   4.990   6.514
  364SOL    HW1 1991   0.846   5.044   6.560
  364SOL    HW2 1992   0.689   4.998   6.564
  365SOL     OW 1993   3.437   0.502   1.629
  365SOL    HW1 1994   3.381   0.469   1.554
  365SOL    HW2 1995   3.456   0.600   1.617
  366SOL     OW 1996   6.017   3.327   6.482
  366SOL    HW1 1997   6.008   3.370   6.392
  366SOL    HW2 1998   5.980   3.388   6.552
  367SOL     OW 1999   5.712   2.256   6.033
  367SOL    HW1 2000   5.620   2.224   6.014
  367SOL    HW2 2001   5.773   2.225   5.960
  368SOL     OW 2002   0.281   2.278   5.827
  368SOL    HW1 2003   0.193   2.244   5.796
  368SOL    HW2 2004   0.276   2.299   5.925
  369SOL     OW 2005   5.859   4.119   3.117
  369SOL    HW1 2006   5.814   4.136   3.205
  369SOL    HW2 2007   5.792   4.081   3.052
  370SOL     OW 2008   1.605   2.074   4.400
  370SOL    HW1 2009   1.641   2.141   4.465
  370SOL    HW2 2010   1.619   2.107   4.307
  371SOL     OW 2011   2.005   4.379   0.062
  371SOL    HW1 2012   1.961   4.454   0.111
  371SOL    HW2 2013   2.057   4.323   0.127
  372SOL     OW 2014   1.667   0.431   5.084
  372SOL    HW1 2015   1.734   0.415   5.011
  372SOL    HW2 2016   1.706   0.403   5.171
  373SOL     OW 2017   5.799   6.873   5.517
  373SOL    HW1 2018   5.736   6.927   5.462
  373SOL    HW2 2019   5.793   6.901   5.613
  374SOL     OW 2020   2.066   1.572   2.714
  374SOL    HW1 2021   2.025   1.494   2.668
  374SOL    HW2 2022   2.114   1.542   2.796
  375SOL     OW 2023   0.709   5.268   5.071
  375SOL    HW1 2024   0.654   5.186   5.082
  375SOL    HW2 2025   0.786   5.249   5.010
  376SOL     OW 2026   2.199   1.152   5.049
  376SOL    HW1 2027   2.180   1.076   5.111
  376SOL    HW2 2028   2.148   1.233   5.079
  377SOL     OW 2029   1.978   2.054   0.060
  377SOL    HW1 2030   2.044   2.058   7.010
  377SOL    HW2 2031   2.000   1.977   0.120
  378SOL     OW 2032   3.265   1.207   6.794
  378SOL    HW1 2033   3.319   1.257   6.727
  378SOL    HW2 2034   3.197   1.268   6.835
  379SOL     OW 2035   5.593   2.463   6.945
  379SOL    HW1 2036   5.593   2.537   6.877
  379SOL    HW2 2037   5.556   2.498   0.006
  380SOL     OW 2038   3.064   1.411   1.317
  380SOL    HW1 2039   3.085   1.330   1.263
  380SOL    HW2 2040   2.985   1.392   1.376
  381SOL     OW 2041   1.628   3.538   4.581
  381SOL    HW1 2042   1.631   3.589   4.494
  381SOL    HW2 2043   1.637   3.440   4.562
  382SOL     OW 2044   6.157   0.146   6.872
  382SOL    HW1 2045   6.060   0.124   6.889
  382SOL    HW2 2046   6.179   0.233   6.915
  383SOL     OW 2047   4.554   3.154   0.400
  383SOL    HW1 2048   4.552   3.177   0.497
  383SOL    HW2 2049   4.470   3.185   0.356
  384SOL     OW 2050   0.196   4.084   3.785
  384SOL    HW1 2051   0.211   4.182   3.784
  384SOL    HW2 2052   0.103   4.065   3.818
  385SOL     OW 2053   3.308   5.663   5.584
  385SOL    HW1 2054   3.275   5.602   5.656
  385SOL    HW2 2055   3.236   5.729   5.561
  386SOL     OW 2056   4.283   0.151   4.131
  386SOL    HW1 2057   4.286   0.246   4.163
  386SOL    HW2 2058   4.207   0.103   4.176
  387SOL     OW 2059   1.292   5.531   2.524
  387SOL    HW1 2060   1.375   5.550   2.473
  387SOL    HW2 2061   1.314   5.479   2.607
  388SOL     OW 2062   2.122   2.088   6.434
  388SOL    HW1 2063   2.175   2.137   6.503
  388SOL    HW2 2064   2.122   2.140   6.349
  389SOL     OW 2065   4.074   3.502   2.598
  389SOL    HW1 2066   4.094   3.554   2.681
  389SOL    HW2 2067   4.131   3.536   2.523
  390SOL     OW 2068   3.005   0.725   3.982
  390SOL    HW1 2069   3.029   0.628   3.987
  390SOL    HW2 2070   2.966   0.754   4.069
  391SOL     OW 2071   2.401   2.921   6.378
  391SOL    HW1 2072   2.325   2.938   6.441
  391SOL    HW2 2073   2.453   2.841   6.409
  392SOL     OW 2074   1.966   5.336   0.809
  392SOL    HW1 2075   2.032   5.296   0.873
  392SOL    HW2 2076   1.907   5.400   0.858
  393SOL     OW 2077   6.629   4.245   5.691
  393SOL    HW1 2078   6.694   4.206   5.757
  393SOL    HW2 2079   6.658   4.221   5.599
  394SOL     OW 2080   0.148   6.729   0.142
  394SOL    HW1 2081   0.107   6.817   0.118
  394SOL    HW2 2082   0.098   6.656   0.095
  395SOL     OW 2083   5.131   3.679   2.835
  395SOL    HW1 2084   5.172   3.604   2.886
  395SOL    HW2 2085   5.164   3.766   2.871
  396SOL     OW 2086   3.785   4.003   2.134
  396SOL    HW1 2087   3.876   3.984   2.097
  396SOL    HW2 2088   3.742   4.077   2.081
  397SOL     OW 2089   4.065   3.075   5.537
  397SOL    HW1 2090   4.090   3.164   5.574
  397SOL    HW2 2091   4.077   3.005   5.607
  398SOL     OW 2092   0.521   6.321   1.621
  398SOL    HW1 2093   0.564   6.341   1.533
  398SOL    HW2 2094   0.555   6.386   1.690
  399SOL     OW 2095   5.523   5.980   2.361
  399SOL    HW1 2096   5.565   6.046   2.423
  399SOL    HW2 2097   5.556   5.994   2.268
  400SOL     OW 2098   0.142   0.571   5.901
  400SOL    HW1 2099   0.103   0.479   5.912
  400SOL    HW2 2100   0.127   0.602   5.808
  401SOL     OW 2101   4.857   0.722   6.356
  401SOL    HW1 2102   4.927   0.755   6.293
  401SOL    HW2 2103   4.888   0.736   6.450
  402SOL     OW 2104   6.108   6.706   2.694
  402SOL    HW1 2105   6.095   6.669   2.602
  402SOL    HW2 2106   6.055   6.790   2.704
  403SOL     OW 2107   4.090   2.231   5.929
  403SOL    HW1 2108   4.078   2.189   6.019
  403SOL    HW2 2109   4.087   2.331   5.939
  404SOL     OW 2110   1.436   6.458   3.617
  404SOL    HW1 2111   1.533   6.483   3.623
  404SOL    HW2 2112   1.424   6.389   3.546
  405SOL     OW 2113   1.629   2.896   1.634
  405SOL    HW1 2114   1.623   2.896   1.534
  405SOL    HW2 2115   1.555   2.952   1.672
  406SOL     OW 2116   1.178   2.899   3.622
  406SOL    HW1 2117   1.142   2.892   3.529
  406SOL    HW2 2118   1.176   2.809   3.666
  407SOL     OW 2119   2.122   0.695   4.198
  407SOL    HW1 2120   2.030   0.696   4.158
  407SOL    HW2 2121   2.141   0.603   4.235
  408SOL     OW 2122   1.633   0.677   3.206
  408SOL    HW1 2123   1.682   0.591   3.221
  408SOL    HW2 2124   1.622   0.725   3.293
  409SOL     OW 2125   5.689   3.163   1.775
  409SOL    HW1 2126   5.655   3.076   1.741
  409SOL    HW2 2127   5.721   3.152   1.869
  410SOL     OW 2128   2.286   0.220   6.280
  410SOL    HW1 2129   2.307   0.168   6.362
  410SOL    HW2 2130   2.204   0.275   6.295
  411SOL     OW 2131   6.181   6.804   6.475
  411SOL    HW1 2132   6.157   6.888   6.426
  411SOL    HW2 2133   6.155   6.813   6.571
  412SOL     OW 2134   4.547   0.002   3.532
  412SOL    HW1 2135   4.471   0.000   3.468
  412SOL    HW2 2136   4.633   0.013   3.482
  413SOL     OW 2137   4.865   4.698   1.695
  413SOL    HW1 2138   4.935   4.693   1.624
  413SOL    HW2 2139   4.776   4.671   1.657
  414SOL     OW 2140   3.497   4.951   3.338
  414SOL    HW1 2141   3.419   4.942   3.399
  414SOL    HW2 2142   3.505   5.045   3.306
  415SOL     OW 2143   1.153   5.859   0.441
  415SOL    HW1 2144   1.200   5.944   0.461
  415SOL    HW2 2145   1.151   5.802   0.523
  416SOL     OW 2146   4.953   5.066   5.352
  416SOL    HW1 2147   4.932   4.986   5.409
  416SOL    HW2 2148   5.050   5.067   5.329
  417SOL     OW 2149   2.400   6.339   0.751
  417SOL    HW1 2150   2.456   6.261   0.780
  417SOL    HW2 2151   2.357   6.380   0.831
  418SOL     OW 2152   4.236   6.416   1.232
  418SOL    HW1 2153   4.215   6.501   1.279
  418SOL    HW2 2154   4.176   6.405   1.153
  419SOL     OW 2155   1.178   0.450   1.841
  419SOL    HW1 2156   1.094   0.396   1.848
  419SOL    HW2 2157   1.182   0.492   1.750
  420SOL     OW 2158   6.293   3.282   1.424
  420SOL    HW1 2159   6.294   3.335   1.339
  420SOL    HW2 2160   6.387   3.274   1.458
  421SOL     OW 2161   0.481   5.152   6.423
  421SOL    HW1 2162   0.529   5.124   6.340
  421SOL    HW2 2163   0.441   5.243   6.411
  422SOL     OW 2164   6.182   4.607   0.422
  422SOL    HW1 2165   6.186   4.525   0.478
  422SOL    HW2 2166   6.100   4.660   0.444
  423SOL     OW 2167   0.219   2.557   6.899
  423SOL    HW1 2168   0.169   2.473   6.916
  423SOL    HW2 2169   0.186   2.599   6.814
  424SOL     OW 2170   2.787   3.706   0.935
  424SOL    HW1 2171   2.829   3.771   0.872
  424SOL    HW2 2172   2.720   3.752   0.993
  425SOL     OW 2173   5.450   1.194   2.446
  425SOL    HW1 2174   5.428   1.191   2.348
  425SOL    HW2 2175   5.494   1.109   2.474
  426SOL     OW 2176   5.053   2.022   4.540
  426SOL    HW1 2177   5.091   2.115   4.550
  426SOL    HW2 2178   5.023   1.989   4.630
  427SOL     OW 2179   5.491   4.713   2.349
  427SOL    HW1 2180   5.396   4.717   2.381
  427SOL    HW2 2181   5.548   4.771   2.407
  428SOL     OW 2182   4.238   6.867   4.605
  428SOL    HW1 2183   4.212   6.963   4.615
  428SOL    HW2 2184   4.189   6.827   4.527
  429SOL     OW 2185   2.472   4.342   1.773
  429SOL    HW1 2186   2.489   4.404   1.849
  429SOL    HW2 2187   2.495   4.387   1.687
  430SOL     OW 2188   0.789   0.124   4.661
  430SOL    HW1 2189   0.719   0.153   4.596
  430SOL    HW2 2190   0.767   0.032   4.694
  431SOL     OW 2191   3.592   0.348   0.174
  431SOL    HW1 2192   3.588   0.251   0.149
  431SOL    HW2 2193   3.638   0.399   0.101
  432SOL     OW 2194   6.290   2.687   2.125
  432SOL    HW1 2195   6.361   2.631   2.082
  432SOL    HW2 2196   6.204   2.637   2.126
  433SOL     OW 2197   3.260   6.304   4.364
  433SOL    HW1 2198   3.196   6.284   4.290
  433SOL    HW2 2199   3.351   6.270   4.339
  434SOL     OW 2200   4.635   5.395   1.866
  434SOL    HW1 2201   4.577   5.444   1.932
  434SOL    HW2 2202   4.631   5.297   1.885
  435SOL     OW 2203   3.822   2.011   5.133
  435SOL    HW1 2204   3.842   2.106   5.159
  435SOL    HW2 2205   3.904   1.956   5.142
  436SOL     OW 2206   3.188   6.407   1.225
  436SOL    HW1 2207   3.212   6.362   1.310
  436SOL    HW2 2208   3.258   6.476   1.203
  437SOL     OW 2209   0.954   0.194   6.862
  437SOL    HW1 2210   0.918   0.175   6.771
  437SOL    HW2 2211   0.954   0.110   6.917
  438SOL     OW 2212   1.764   2.895   2.283
  438SOL    HW1 2213   1.735   2.989   2.304
  438SOL    HW2 2214   1.856   2.881   2.319
  439SOL     OW 2215   6.174   4.371   3.501
  439SOL    HW1 2216   6.141   4.460   3.471
  439SOL    HW2 2217   6.204   4.377   3.597
  440SOL     OW 2218   1.390   2.110   5.104
  440SOL    HW1 2219   1.471   2.148   5.149
  440SOL    HW2 2220   1.315   2.176   5.109
  441SOL     OW 2221   0.632   1.483   3.159
  441SOL    HW1 2222   0.640   1.518   3.252
  441SOL    HW2 2223   0.719   1.497   3.111
  442SOL     OW 2224   2.264   4.858   6.991
  442SOL    HW1 2225   2.282   4.952   6.961
  442SOL    HW2 2226   2.351   4.814   7.015
  443SOL     OW 2227   1.108   4.236   4.666
  443SOL    HW1 2228   1.199   4.260   4.699
  443SOL    HW2 2229   1.110   4.144   4.625
  444SOL     OW 2230   5.242   2.023   5.697
  444SOL    HW1 2231   5.174   1.952   5.682
  444SOL    HW2 2232   5.314   1.989   5.758
  445SOL     OW 2233   1.146   5.823   3.366
  445SOL    HW1 2234   1.189   5.733   3.358
  445SOL    HW2 2235   1.201   5.881   3.425
  446SOL     OW 2236   4.204   4.882   3.785
  446SOL    HW1 2237   4.234   4.959   3.841
  446SOL    HW2 2238   4.246   4.798   3.819
  447SOL     OW 2239   0.717   3.050   0.189
  447SOL    HW1 2240   0.623   3.082   0.201
  447SOL    HW2 2241   0.721   2.952   0.207
  448SOL     OW 2242   2.641   0.604   4.675
  448SOL    HW1 2243   2.714   0.638   4.735
  448SOL    HW2 2244   2.605   0.519   4.712
  449SOL     OW 2245   3.845   0.661   5.275
  449SOL    HW1 2246   3.872   0.747   5.232
  449SOL    HW2 2247   3.893   0.651   5.362
  450SOL     OW 2248   1.317   5.936   3.846
  450SOL    HW1 2249   1.356   5.914   3.936
  450SOL    HW2 2250   1.317   5.855   3.789
  451SOL     OW 2251   2.180   2.049   3.313
  451SOL    HW1 2252   2.175   1.964   3.261
  451SOL    HW2 2253   2.149   2.032   3.407
  452SOL     OW 2254   6.514   5.925   1.457
  452SOL    HW1 2255   6.552   5.837   1.482
  452SOL    HW2 2256   6.577   5.972   1.395
  453SOL     OW 2257   2.964   0.415   4.637
  453SOL    HW1 2258   3.040   0.384   4.579
  453SOL    HW2 2259   2.878   0.376   4.602
  454SOL     OW 2260   0.392   5.417   6.302
  454SOL    HW1 2261   0.321   5.423   6.232
  454SOL    HW2 2262   0.418   5.509   6.331
  455SOL     OW 2263   0.092   1.618   3.761
  455SOL    HW1 2264   0.016   1.555   3.776
  455SOL    HW2 2265   0.176   1.567   3.742
  456SOL     OW 2266   5.103   5.271   4.413
  456SOL    HW1 2267   5.122   5.364   4.445
  456SOL    HW2 2268   5.100   5.208   4.491
  457SOL     OW 2269   1.566   3.361   3.304
  457SOL    HW1 2270   1.569   3.380   3.402
  457SOL    HW2 2271   1.633   3.290   3.281
  458SOL     OW 2272   5.014   6.002   4.088
  458SOL    HW1 2273   5.044   6.093   4.118
  458SOL    HW2 2274   5.053   5.982   3.998
  459SOL     OW 2275   1.869   6.691   4.171
  459SOL    HW1 2276   1.894   6.719   4.263
  459SOL    HW2 2277   1.932   6.619   4.140
  460SOL     OW 2278   1.774   0.204   3.046
  460SOL    HW1 2279   1.816   0.234   2.960
  460SOL    HW2 2280   1.706   0.133   3.026
  461SOL     OW 2281   6.118   6.894   4.891
  461SOL    HW1 2282   6.122   6.951   4.973
  461SOL    HW2 2283   6.209   6.890   4.849
  462SOL     OW 2284   4.024   2.773   6.001
  462SOL    HW1 2285   4.114   2.754   6.040
  462SOL    HW2 2286   3.954   2.767   6.072
  463SOL     OW 2287   6.419   5.835   3.609
  463SOL    HW1 2288   6.376   5.767   3.550
  463SOL    HW2 2289   6.507   5.862   3.570
  464SOL     OW 2290   2.711   2.324   6.873
  464SOL    HW1 2291   2.631   2.265   6.881
  464SOL    HW2 2292   2.779   2.280   6.815
  465SOL     OW 2293   1.285   2.727   4.003
  465SOL    HW1 2294   1.239   2.705   3.917
  465SOL    HW2 2295   1.231   2.689   4.079
  466SOL     OW 2296   1.291   4.696   3.090
  466SOL    HW1 2297   1.201   4.660   3.063
  466SOL    HW2 2298   1.279   4.784   3.136
  467SOL     OW 2299   1.093   0.920   6.486
  467SOL    HW1 2300   1.050   0.936   6.397
  467SOL    HW2 2301   1.129   1.006   6.521
  468SOL     OW 2302   3.657   6.222   6.539
  468SOL    HW1 2303   3.611   6.273   6.612
  468SOL    HW2 2304   3.609   6.136   6.523
  469SOL     OW 2305   2.922   4.855   0.970
  469SOL    HW1 2306   2.876   4.767   0.978
  469SOL    HW2 2307   2.974   4.857   0.885
  470SOL     OW 2308   4.050   0.286   2.494
  470SOL    HW1 2309   4.079   0.382   2.498
  470SOL    HW2 2310   4.119   0.233   2.445
  471SOL     OW 2311   1.666   2.630   4.321
  471SOL    HW1 2312   1.715   2.548   4.292
  471SOL    HW2 2313   1.730   2.706   4.328
  472SOL     OW 2314   5.223   4.120   6.402
  472SOL    HW1 2315   5.262   4.131   6.494
  472SOL    HW2 2316   5.189   4.027   6.391
  473SOL     OW 2317   0.587   3.242   2.118
  473SOL    HW1 2318   0.549   3.317   2.173
  473SOL    HW2 2319   0.604   3.163   2.177
  474SOL     OW 2320   5.198   4.607   3.529
  474SOL    HW1 2321   5.198   4.670   3.607
  474SOL    HW2 2322   5.238   4.520   3.557
  475SOL     OW 2323   5.393   0.757   5.945
  475SOL    HW1 2324   5.440   0.720   6.025
  475SOL    HW2 2325   5.297   0.729   5.947
  476SOL     OW 2326   0.075   4.195   2.496
  476SOL    HW1 2327   0.004   4.254   2.456
  476SOL    HW2 2328   0.164   4.239   2.484
  477SOL     OW 2329   1.804   4.260   5.313
  477SOL    HW1 2330   1.793   4.176   5.366
  477SOL    HW2 2331   1.780   4.243   5.218
  478SOL     OW 2332   3.498   0.181   2.673
  478SOL    HW1 2333   3.578   0.121   2.671
  478SOL    HW2 2334   3.517   0.264   2.620
  479SOL     OW 2335   4.415   2.353   7.006
  479SOL    HW1 2336   4.329   2.366   6.957
  479SOL    HW2 2337   4.487   2.406   6.963
  480SOL     OW 2338   2.212   1.340   6.978
  480SOL    HW1 2339   2.132   1.281   6.990
  480SOL    HW2 2340   2.225   1.394   0.036
  481SOL     OW 2341   1.338   0.619   0.153
  481SOL    HW1 2342   1.368   0.613   0.058
  481SOL    HW2 2343   1.332   0.715   0.180
  482SOL     OW 2344   4.725   4.200   2.837
  482SOL    HW1 2345   4.685   4.288   2.812
  482SOL    HW2 2346   4.661   4.126   2.813
  483SOL     OW 2347   6.935   1.781   1.924
  483SOL    HW1 2348   6.889   1.817   2.005
  483SOL    HW2 2349   7.024   1.827   1.913
  484SOL     OW 2350   1.113   3.155   5.111
  484SOL    HW1 2351   1.176   3.155   5.189
  484SOL    HW2 2352   1.165   3.156   5.026
  485SOL     OW 2353   4.262   5.476   2.611
  485SOL    HW1 2354   4.306   5.553   2.658
  485SOL    HW2 2355   4.317   5.394   2.622
  486SOL     OW 2356   6.670   2.042   0.959
  486SOL    HW1 2357   6.613   2.032   0.878
  486SOL    HW2 2358   6.767   2.044   0.933
  487SOL     OW 2359   1.231   1.878   0.603
  487SOL    HW1 2360   1.197   1.861   0.696
  487SOL    HW2 2361   1.322   1.838   0.593
  488SOL     OW 2362   0.559   1.540   1.278
  488SOL    HW1 2363   0.642   1.585   1.245
  488SOL    HW2 2364   0.506   1.605   1.332
  489SOL     OW 2365   3.318   6.414   6.078
  489SOL    HW1 2366   3.220   6.422   6.094
  489SOL    HW2 2367   3.365   6.396   6.165
  490SOL     OW 2368   6.672   5.827   3.086
  490SOL    HW1 2369   6.709   5.739   3.056
  490SOL    HW2 2370   6.578   5.814   3.116
  491SOL     OW 2371   0.130   3.030   2.391
  491SOL    HW1 2372   0.175   2.943   2.371
  491SOL    HW2 2373   0.179   3.104   2.346
  492SOL     OW 2374   2.471   6.857   4.968
  492SOL    HW1 2375   2.421   6.942   4.951
  492SOL    HW2 2376   2.564   6.867   4.931
  493SOL     OW 2377   5.472   6.532   5.672
  493SOL    HW1 2378   5.567   6.556   5.692
  493SOL    HW2 2379   5.461   6.433   5.675
  494SOL     OW 2380   6.919   0.667   6.684
  494SOL    HW1 2381   6.949   0.585   6.731
  494SOL    HW2 2382   6.997   0.729   6.672
  495SOL     OW 2383   4.603   5.785   3.264
  495SOL    HW1 2384   4.659   5.812   3.343
  495SOL    HW2 2385   4.553   5.702   3.286
  496SOL     OW 2386   5.538   3.470   2.289
  496SOL    HW1 2387   5.466   3.419   2.243
  496SOL    HW2 2388   5.560   3.426   2.376
  497SOL     OW 2389   3.626   0.870   5.177
  497SOL    HW1 2390   3.601   0.782   5.218
  497SOL    HW2 2391   3.544   0.928   5.172
  498SOL     OW 2392   1.877   4.354   1.319
  498SOL    HW1 2393   1.811   4.283   1.341
  498SOL    HW2 2394   1.931   4.376   1.400
  499SOL     OW 2395   2.490   0.280   3.997
  499SOL    HW1 2396   2.391   0.287   3.985
  499SOL    HW2 2397   2.510   0.221   4.076
  500SOL     OW 2398   0.796   3.246   3.037
  500SOL    HW1 2399   0.797   3.159   3.086
  500SOL    HW2 2400   0.885   3.262   2.994
  501SOL     OW 2401   3.218   6.319   0.329
  501SOL    HW1 2402   3.166   6.397   0.292
  501SOL    HW2 2403   3.171   6.234   0.305
  502SOL     OW 2404   6.907   4.604   6.908
  502SOL    HW1 2405   6.830   4.575   6.964
  502SOL    HW2 2406   6.910   4.550   6.825
  503SOL     OW 2407   5.644   5.832   5.990
  503SOL    HW1 2408   5.684   5.749   5.951
  503SOL    HW2 2409   5.671   5.838   6.087
  504SOL     OW 2410   1.867   5.392   3.288
  504SOL    HW1 2411   1.908   5.473   3.246
  504SOL    HW2 2412   1.831   5.415   3.378
  505SOL     OW 2413   3.468   6.230   4.811
  505SOL    HW1 2414   3.368   6.233   4.810
  505SOL    HW2 2415   3.501   6.248   4.904
  506SOL     OW 2416   2.166   5.659   4.687
  506SOL    HW1 2417   2.197   5.582   4.631
  506SOL    HW2 2418   2.169   5.743   4.633
  507SOL     OW 2419   3.542   0.785   3.390
  507SOL    HW1 2420   3.528   0.760   3.485
  507SOL    HW2 2421   3.640   0.799   3.374
  508SOL     OW 2422   6.343   3.691   2.445
  508SOL    HW1 2423   6.397   3.742   2.378
  508SOL    HW2 2424   6.278   3.631   2.398
  509SOL     OW 2425   3.444   1.286   1.634
  509SOL    HW1 2426   3.378   1.360   1.617
  509SOL    HW2 2427   3.525   1.300   1.579
  510SOL     OW 2428   6.554   5.146   6.462
  510SOL    HW1 2429   6.627   5.101   6.514
  510SOL    HW2 2430   6.473   5.153   6.520
  511SOL     OW 2431   0.192   1.136   6.005
  511SOL    HW1 2432   0.142   1.166   5.924
  511SOL    HW2 2433   0.162   1.190   6.084
  512SOL     OW 2434   6.946   2.912   0.069
  512SOL    HW1 2435   7.003   2.904   7.012
  512SOL    HW2 2436   7.005   2.916   0.150
  513SOL     OW 2437   5.612   5.778   3.316
  513SOL    HW1 2438   5.585   5.719   3.239
  513SOL    HW2 2439   5.541   5.775   3.386
  514SOL     OW 2440   6.705   2.722   4.005
  514SOL    HW1 2441   6.705   2.787   3.929
  514SOL    HW2 2442   6.779   2.657   3.993
  515SOL     OW 2443   1.868   0.494   6.390
  515SOL    HW1 2444   1.840   0.537   6.475
  515SOL    HW2 2445   1.933   0.421   6.409
  516SOL     OW 2446   2.647   4.601   1.679
  516SOL    HW1 2447   2.572   4.640   1.733
  516SOL    HW2 2448   2.710   4.552   1.740
  517SOL     OW 2449   5.052   5.474   2.076
  517SOL    HW1 2450   4.996   5.480   1.993
  517SOL    HW2 2451   5.143   5.511   2.058
  518SOL     OW 2452   2.449   2.448   2.489
  518SOL    HW1 2453   2.442   2.544   2.517
  518SOL    HW2 2454   2.404   2.437   2.400
  519SOL     OW 2455   1.065   1.018   4.363
  519SOL    HW1 2456   1.079   1.117   4.360
  519SOL    HW2 2457   1.049   0.989   4.457
  520SOL     OW 2458   6.260   4.608   6.984
  520SOL    HW1 2459   6.317   4.651   6.914
  520SOL    HW2 2460   6.303   4.620   0.049
  521SOL     OW 2461   6.976   3.638   6.569
  521SOL    HW1 2462   7.012   3.545   6.568
  521SOL    HW2 2463   6.878   3.635   6.546
  522SOL     OW 2464   3.204   3.731   5.690
  522SOL    HW1 2465   3.143   3.657   5.720
  522SOL    HW2 2466   3.178   3.816   5.736
  523SOL     OW 2467   0.569   4.975   1.801
  523SOL    HW1 2468   0.661   4.998   1.771
  523SOL    HW2 2469   0.523   5.058   1.835
  524SOL     OW 2470   1.354   1.325   6.943
  524SOL    HW1 2471   1.446   1.291   6.920
  524SOL    HW2 2472   1.333   1.300   0.013
  525SOL     OW 2473   2.782   3.830   6.730
  525SOL    HW1 2474   2.729   3.827   6.645
  525SOL    HW2 2475   2.720   3.844   6.807
  526SOL     OW 2476   3.929   6.987   3.979
  526SOL    HW1 2477   3.997   0.019   3.931
  526SOL    HW2 2478   3.918   6.901   3.930
  527SOL     OW 2479   6.428   3.214   6.410
  527SOL    HW1 2480   6.339   3.249   6.439
  527SOL    HW2 2481   6.449   3.130   6.459
  528SOL     OW 2482   1.098   1.401   3.598
  528SOL    HW1 2483   1.071   1.305   3.598
  528SOL    HW2 2484   1.102   1.434   3.503
  529SOL     OW 2485   0.840   6.337   4.559
  529SOL    HW1 2486   0.927   6.301   4.593
  529SOL    HW2 2487   0.767   6.314   4.624
  530SOL     OW 2488   2.760   3.081   5.391
  530SOL    HW1 2489   2.709   3.151   5.342
  530SOL    HW2 2490   2.822   3.125   5.456
  531SOL     OW 2491   0.261   0.490   2.252
  531SOL    HW1 2492   0.247   0.531   2.343
  531SOL    HW2 2493   0.348   0.522   2.215
  532SOL     OW 2494   1.530   2.004   6.791
  532SOL    HW1 2495   1.591   1.993   6.869
  532SOL    HW2 2496   1.527   2.100   6.764
  533SOL     OW 2497   4.348   6.422   3.667
  533SOL    HW1 2498   4.298   6.345   3.705
  533SOL    HW2 2499   4.375   6.484   3.741
  534SOL     OW 2500   5.492   5.202   3.721
  534SOL    HW1 2501   5.434   5.282   3.733
  534SOL    HW2 2502   5.571   5.225   3.665
  535SOL     OW 2503   0.612   3.920   4.554
  535SOL    HW1 2504   0.588   3.887   4.463
  535SOL    HW2 2505   0.708   3.949   4.555
  536SOL     OW 2506   0.258   4.903   2.193
  536SOL    HW1 2507   0.297   4.817   2.160
  536SOL    HW2 2508   0.327   4.975   2.188
  537SOL     OW 2509   2.027   6.241   3.383
  537SOL    HW1 2510   2.009   6.324   3.435
  537SOL    HW2 2511   1.940   6.197   3.358
  538SOL     OW 2512   1.927   4.058   3.251
  538SOL    HW1 2513   1.974   4.042   3.338
  538SOL    HW2 2514   1.923   4.157   3.234
  539SOL     OW 2515   0.902   6.235   0.319
  539SOL    HW1 2516   0.826   6.270   0.264
  539SOL    HW2 2517   0.977   6.208   0.258
  540SOL     OW 2518   0.060   1.155   1.754
  540SOL    HW1 2519   0.135   1.114   1.701
  540SOL    HW2 2520   7.023   1.203   1.692
  541SOL     OW 2521   3.039   6.027   3.569
  541SOL    HW1 2522   3.044   5.975   3.483
  541SOL    HW2 2523   3.125   6.015   3.619
  542SOL     OW 2524   6.220   0.375   6.978
  542SOL    HW1 2525   6.308   0.353   7.019
  542SOL    HW2 2526   6.171   0.440   0.012
  543SOL     OW 2527   1.560   5.333   5.421
  543SOL    HW1 2528   1.654   5.302   5.427
  543SOL    HW2 2529   1.551   5.401   5.348
  544SOL     OW 2530   1.915   4.497   1.105
  544SOL    HW1 2531   1.991   4.456   1.054
  544SOL    HW2 2532   1.894   4.440   1.185
  545SOL     OW 2533   3.204   0.656   3.290
  545SOL    HW1 2534   3.165   0.726   3.230
  545SOL    HW2 2535   3.292   0.625   3.252
  546SOL     OW 2536   1.766   3.067   0.043
  546SOL    HW1 2537   1.831   3.106   0.109
  546SOL    HW2 2538   1.713   2.995   0.087
  547SOL     OW 2539   2.655   1.336   6.873
  547SOL    HW1 2540   2.583   1.269   6.886
  547SOL    HW2 2541   2.675   1.346   6.775
  548SOL     OW 2542   3.916   3.031   2.577
  548SOL    HW1 2543   3.910   2.991   2.485
  548SOL    HW2 2544   3.987   3.101   2.579
  549SOL     OW 2545   4.588   3.535   1.239
  549SOL    HW1 2546   4.552   3.443   1.252
  549SOL    HW2 2547   4.554   3.572   1.152
  550SOL     OW 2548   6.677   4.471   3.416
  550SOL    HW1 2549   6.681   4.551   3.356
  550SOL    HW2 2550   6.588   4.426   3.405
  551SOL     OW 2551   0.567   0.766   1.282
  551SOL    HW1 2552   0.610   0.845   1.326
  551SOL    HW2 2553   0.633   0.691   1.276
  552SOL     OW 2554   4.547   5.545   0.607
  552SOL    HW1 2555   4.494   5.626   0.584
  552SOL    HW2 2556   4.504   5.464   0.566
  553SOL     OW 2557   2.387   0.008   1.852
  553SOL    HW1 2558   2.445   0.044   1.925
  553SOL    HW2 2559   2.435   0.016   1.764
  554SOL     OW 2560   5.665   6.093   5.802
  554SOL    HW1 2561   5.715   6.125   5.721
  554SOL    HW2 2562   5.628   6.002   5.784
  555SOL     OW 2563   2.389   5.238   4.103
  555SOL    HW1 2564   2.361   5.198   4.190
  555SOL    HW2 2565   2.455   5.311   4.120
  556SOL     OW 2566   5.865   2.150   3.758
  556SOL    HW1 2567   5.877   2.058   3.721
  556SOL    HW2 2568   5.830   2.211   3.687
  557SOL     OW 2569   0.822   5.507   0.166
  557SOL    HW1 2570   0.870   5.486   0.251
  557SOL    HW2 2571   0.724   5.514   0.184
  558SOL     OW 2572   3.346   4.100   4.872
  558SOL    HW1 2573   3.299   4.099   4.960
  558SOL    HW2 2574   3.445   4.103   4.888
  559SOL     OW 2575   6.207   6.357   6.628
  559SOL    HW1 2576   6.288   6.409   6.652
  559SOL    HW2 2577   6.194   6.358   6.529
  560SOL     OW 2578   3.709   6.005   0.346
  560SOL    HW1 2579   3.650   5.924   0.356
  560SOL    HW2 2580   3.656   6.079   0.305
  561SOL     OW 2581   6.567   1.104   6.864
  561SOL    HW1 2582   6.593   1.092   6.768
  561SOL    HW2 2583   6.572   1.015   6.910
  562SOL     OW 2584   4.647   0.410   6.195
  562SOL    HW1 2585   4.722   0.473   6.177
  562SOL    HW2 2586   4.580   0.416   6.121
  563SOL     OW 2587   2.506   0.188   3.131
  563SOL    HW1 2588   2.581   0.241   3.091
  563SOL    HW2 2589   2.522   0.175   3.228
  564SOL     OW 2590   2.710   1.649   6.705
  564SOL    HW1 2591   2.676   1.680   6.616
  564SOL    HW2 2592   2.633   1.625   6.764
  565SOL     OW 2593   4.535   3.377   5.647
  565SOL    HW1 2594   4.575   3.422   5.567
  565SOL    HW2 2595   4.602   3.314   5.686
  566SOL     OW 2596   5.908   3.791   3.597
  566SOL    HW1 2597   5.855   3.720   3.553
  566SOL    HW2 2598   5.878   3.801   3.692
  567SOL     OW 2599   2.936   3.292   2.894
  567SOL    HW1 2600   2.961   3.372   2.840
  567SOL    HW2 2601   2.923   3.318   2.990
  568SOL     OW 2602   3.312   2.551   1.046
  568SOL    HW1 2603   3.317   2.496   1.130
  568SOL    HW2 2604   3.328   2.493   0.967
  569SOL     OW 2605   1.834   3.222   0.341
  569SOL    HW1 2606   1.798   3.283   0.270
  569SOL    HW2 2607   1.758   3.175   0.386
  570SOL     OW 2608   2.011   6.354   5.722
  570SOL    HW1 2609   1.913   6.345   5.738
  570SOL    HW2 2610   2.048   6.425   5.781
  571SOL     OW 2611   3.700   0.000   2.640
  571SOL    HW1 2612   3.754   6.965   2.699
  571SOL    HW2 2613   3.745   0.089   2.631
  572SOL     OW 2614   2.637   4.836   5.855
  572SOL    HW1 2615   2.550   4.804   5.818
  572SOL    HW2 2616   2.698   4.862   5.780
  573SOL     OW 2617   4.424   1.489   5.371
  573SOL    HW1 2618   4.474   1.518   5.452
  573SOL    HW2 2619   4.339   1.541   5.363
  574SOL     OW 2620   1.923   2.363   3.478
  574SOL    HW1 2621   2.013   2.405   3.480
  574SOL    HW2 2622   1.918   2.297   3.404
  575SOL     OW 2623   6.401   3.986   5.848
  575SOL    HW1 2624   6.368   3.930   5.924
  575SOL    HW2 2625   6.501   3.987   5.850
  576SOL     OW 2626   1.687   1.830   2.256
  576SOL    HW1 2627   1.755   1.864   2.191
  576SOL    HW2 2628   1.733   1.781   2.330
  577SOL     OW 2629   2.318   0.977   3.137
  577SOL    HW1 2630   2.362   0.918   3.068
  577SOL    HW2 2631   2.247   0.925   3.184
  578SOL     OW 2632   6.476   3.450   3.501
  578SOL    HW1 2633   6.414   3.374   3.481
  578SOL    HW2 2634   6.554   3.446   3.439
  579SOL     OW 2635   3.217   2.033   1.231
  579SOL    HW1 2636   3.300   2.086   1.249
  579SOL    HW2 2637   3.243   1.945   1.189
  580SOL     OW 2638   0.647   4.583   6.944
  580SOL    HW1 2639   0.637   4.571   0.018
  580SOL    HW2 2640   0.566   4.548   6.898
  581SOL     OW 2641   3.406   3.379   2.995
  581SOL    HW1 2642   3.479   3.312   3.008
  581SOL    HW2 2643   3.402   3.405   2.898
  582SOL     OW 2644   5.501   4.966   2.905
  582SOL    HW1 2645   5.571   4.894   2.904
  582SOL    HW2 2646   5.417   4.929   2.866
  583SOL     OW 2647   2.621   5.234   6.735
  583SOL    HW1 2648   2.533   5.281   6.724
  583SOL    HW2 2649   2.620   5.181   6.820
  584SOL     OW 2650   1.267   5.657   5.514
  584SOL    HW1 2651   1.198   5.589   5.489
  584SOL    HW2 2652   1.294   5.709   5.433
  585SOL     OW 2653   6.441   3.006   5.783
  585SOL    HW1 2654   6.488   3.079   5.832
  585SOL    HW2 2655   6.377   2.960   5.845
  586SOL     OW 2656   3.172   0.450   0.093
  586SOL    HW1 2657   3.102   0.463   0.164
  586SOL    HW2 2658   3.170   0.527   0.030
  587SOL     OW 2659   2.178   2.267   5.628
  587SOL    HW1 2660   2.189   2.273   5.728
  587SOL    HW2 2661   2.164   2.171   5.602
  588SOL     OW 2662   3.328   5.381   0.813
  588SOL    HW1 2663   3.372   5.426   0.891
  588SOL    HW2 2664   3.265   5.445   0.769
  589SOL     OW 2665   3.733   5.339   1.709
  589SOL    HW1 2666   3.801   5.279   1.667
  589SOL    HW2 2667   3.756   5.354   1.806
  590SOL     OW 2668   5.921   2.989   1.692
  590SOL    HW1 2669   6.005   3.043   1.684
  590SOL    HW2 2670   5.850   3.028   1.634
  591SOL     OW 2671   3.866   6.323   3.994
  591SOL    HW1 2672   3.849   6.418   4.018
  591SOL    HW2 2673   3.957   6.296   4.027
  592SOL     OW 2674   4.358   0.036   0.967
  592SOL    HW1 2675   4.404   0.122   0.943
  592SOL    HW2 2676   4.421   6.985   0.952
  593SOL     OW 2677   4.275   2.108   3.876
  593SOL    HW1 2678   4.224   2.127   3.792
  593SOL    HW2 2679   4.304   2.194   3.919
  594SOL     OW 2680   4.704   2.579   6.443
  594SOL    HW1 2681   4.615   2.538   6.463
  594SOL    HW2 2682   4.765   2.509   6.405
  595SOL     OW 2683   4.594   6.670   3.673
  595SOL    HW1 2684   4.505   6.683   3.716
  595SOL    HW2 2685   4.622   6.574   3.681
  596SOL     OW 2686   0.952   3.262   1.438
  596SOL    HW1 2687   0.903   3.324   1.377
  596SOL    HW2 2688   0.923   3.168   1.420
  597SOL     OW 2689   4.598   0.239   5.924
  597SOL    HW1 2690   4.598   0.178   6.004
  597SOL    HW2 2691   4.683   0.291   5.923
  598SOL     OW 2692   3.897   4.019   0.115
  598SOL    HW1 2693   3.995   4.038   0.107
  598SOL    HW2 2694   3.854   4.086   0.176
  599SOL     OW 2695   1.104   0.000   3.063
  599SOL    HW1 2696   1.011   7.022   3.027
  599SOL    HW2 2697   1.168   0.008   2.987
  600SOL     OW 2698   1.011   0.362   1.054
  600SOL    HW1 2699   1.003   0.273   1.009
  600SOL    HW2 2700   1.103   0.399   1.039
  601SOL     OW 2701   3.081   5.696   3.897
  601SOL    HW1 2702   3.176   5.712   3.870
  601SOL    HW2 2703   3.034   5.784   3.906
  602SOL     OW 2704   0.924   1.964   0.166
  602SOL    HW1 2705   0.949   2.050   0.122
  602SOL    HW2 2706   0.987   1.946   0.241
  603SOL     OW 2707   4.152   1.804   4.087
  603SOL    HW1 2708   4.102   1.825   4.003
  603SOL    HW2 2709   4.160   1.886   4.143
  604SOL     OW 2710   0.044   3.424   1.354
  604SOL    HW1 2711   0.038   3.481   1.273
  604SOL    HW2 2712   0.134   3.435   1.396
  605SOL     OW 2713   6.520   5.715   2.642
  605SOL    HW1 2714   6.593   5.779   2.619
  605SOL    HW2 2715   6.560   5.635   2.688
  606SOL     OW 2716   5.296   0.627   5.508
  606SOL    HW1 2717   5.299   0.647   5.410
  606SOL    HW2 2718   5.337   0.537   5.525
  607SOL     OW 2719   5.505   0.476   4.858
  607SOL    HW1 2720   5.535   0.543   4.927
  607SOL    HW2 2721   5.533   0.385   4.887
  608SOL     OW 2722   3.434   6.743   0.362
  608SOL    HW1 2723   3.461   6.839   0.367
  608SOL    HW2 2724   3.342   6.732   0.398
  609SOL     OW 2725   3.541   3.502   4.302
  609SOL    HW1 2726   3.466   3.568   4.293
  609SOL    HW2 2727   3.507   3.410   4.279
  610SOL     OW 2728   5.816   1.862   3.732
  610SOL    HW1 2729   5.892   1.798   3.724
  610SOL    HW2 2730   5.748   1.842   3.661
  611SOL     OW 2731   0.924   0.536   6.687
  611SOL    HW1 2732   0.870   0.581   6.616
  611SOL    HW2 2733   0.984   0.602   6.731
  612SOL     OW 2734   3.094   5.850   5.866
  612SOL    HW1 2735   3.143   5.935   5.882
  612SOL    HW2 2736   3.081   5.802   5.952
  613SOL     OW 2737   5.009   0.459   5.477
  613SOL    HW1 2738   5.027   0.510   5.393
  613SOL    HW2 2739   5.048   0.508   5.555
  614SOL     OW 2740   6.045   4.429   0.962
  614SOL    HW1 2741   6.099   4.362   1.013
  614SOL    HW2 2742   6.087   4.519   0.971
  615SOL     OW 2743   1.060   1.204   0.344
  615SOL    HW1 2744   1.158   1.182   0.347
  615SOL    HW2 2745   1.020   1.168   0.260
  616SOL     OW 2746   6.044   1.762   3.932
  616SOL    HW1 2747   6.006   1.821   4.003
  616SOL    HW2 2748   6.144   1.760   3.941
  617SOL     OW 2749   0.223   3.974   6.884
  617SOL    HW1 2750   0.303   4.030   6.906
  617SOL    HW2 2751   0.238   3.926   6.798
  618SOL     OW 2752   5.825   3.870   0.674
  618SOL    HW1 2753   5.784   3.841   0.760
  618SOL    HW2 2754   5.869   3.792   0.630
  619SOL     OW 2755   4.144   6.975   6.617
  619SOL    HW1 2756   4.120   6.980   6.714
  619SOL    HW2 2757   4.153   6.880   6.590
  620SOL     OW 2758   5.351   2.815   1.275
  620SOL    HW1 2759   5.300   2.848   1.196
  620SOL    HW2 2760   5.333   2.718   1.289
  621SOL     OW 2761   2.343   0.264   5.182
  621SOL    HW1 2762   2.439   0.237   5.192
  621SOL    HW2 2763   2.333   0.360   5.208
  622SOL     OW 2764   0.617   2.031   5.009
  622SOL    HW1 2765   0.553   2.000   5.080
  622SOL    HW2 2766   0.571   2.026   4.920
  623SOL     OW 2767   6.662   0.151   5.033
  623SOL    HW1 2768   6.747   0.100   5.027
  623SOL    HW2 2769   6.681   0.249   5.028
  624SOL     OW 2770   6.344   1.126   0.046
  624SOL    HW1 2771   6.421   1.127   7.008
  624SOL    HW2 2772   6.259   1.136   7.020
  625SOL     OW 2773   1.358   1.296   0.200
  625SOL    HW1 2774   1.317   1.210   0.228
  625SOL    HW2 2775   1.362   1.358   0.278
  626SOL     OW 2776   0.728   5.667   2.565
  626SOL    HW1 2777   0.691   5.751   2.524
  626SOL    HW2 2778   0.654   5.603   2.582
  627SOL     OW 2779   6.349   6.232   0.320
  627SOL    HW1 2780   6.441   6.206   0.291
  627SOL    HW2 2781   6.334   6.206   0.415
  628SOL     OW 2782   5.706   3.789   4.610
  628SOL    HW1 2783   5.630   3.728   4.590
  628SOL    HW2 2784   5.723   3.849   4.531
  629SOL     OW 2785   0.039   1.293   0.331
  629SOL    HW1 2786   0.012   1.202   0.363
  629SOL    HW2 2787   6.990   1.357   0.349
  630SOL     OW 2788   6.774   1.754   0.522
  630SOL    HW1 2789   6.685   1.732   0.482
  630SOL    HW2 2790   6.793   1.851   0.511
  631SOL     OW 2791   3.240   1.638   4.270
  631SOL    HW1 2792   3.281   1.547   4.280
  631SOL    HW2 2793   3.312   1.706   4.255
  632SOL     OW 2794   4.312   3.182   0.633
  632SOL    HW1 2795   4.325   3.085   0.612
  632SOL    HW2 2796   4.396   3.219   0.673
  633SOL     OW 2797   2.593   4.535   0.530
  633SOL    HW1 2798   2.634   4.616   0.572
  633SOL    HW2 2799   2.655   4.457   0.540
  634SOL     OW 2800   3.983   3.785   3.423
  634SOL    HW1 2801   3.957   3.816   3.515
  634SOL    HW2 2802   3.912   3.812   3.358
  635SOL     OW 2803   4.836   0.056   6.862
  635SOL    HW1 2804   4.910   0.090   6.803
  635SOL    HW2 2805   4.808   0.129   6.925
  636SOL     OW 2806   3.271   0.631   5.598
  636SOL    HW1 2807   3.263   0.601   5.693
  636SOL    HW2 2808   3.316   0.720   5.595
  637SOL     OW 2809   5.568   1.926   2.487
  637SOL    HW1 2810   5.605   2.001   2.541
  637SOL    HW2 2811   5.613   1.841   2.512
  638SOL     OW 2812   5.878   3.412   3.940
  638SOL    HW1 2813   5.816   3.421   4.018
  638SOL    HW2 2814   5.895   3.502   3.901
  639SOL     OW 2815   5.327   4.391   3.647
  639SOL    HW1 2816   5.381   4.445   3.711
  639SOL    HW2 2817   5.306   4.302   3.688
  640SOL     OW 2818   6.977   4.080   3.424
  640SOL    HW1 2819   6.945   4.013   3.356
  640SOL    HW2 2820   0.028   4.040   3.476
  641SOL     OW 2821   1.331   4.665   5.167
  641SOL    HW1 2822   1.349   4.748   5.114
  641SOL    HW2 2823   1.259   4.684   5.234
  642SOL     OW 2824   1.526   3.032   4.644
  642SOL    HW1 2825   1.559   3.117   4.684
  642SOL    HW2 2826   1.564   3.022   4.552
  643SOL     OW 2827   5.943   0.127   6.556
  643SOL    HW1 2828   5.923   0.216   6.597
  643SOL    HW2 2829   5.949   0.058   6.627
  644SOL     OW 2830   1.430   0.544   4.518
  644SOL    HW1 2831   1.395   0.511   4.606
  644SOL    HW2 2832   1.458   0.639   4.526
  645SOL     OW 2833   3.222   5.152   3.610
  645SOL    HW1 2834   3.202   5.054   3.600
  645SOL    HW2 2835   3.164   5.204   3.548
  646SOL     OW 2836   3.385   0.631   4.637
  646SOL    HW1 2837   3.296   0.637   4.684
  646SOL    HW2 2838   3.397   0.712   4.579
  647SOL     OW 2839   5.640   1.526   4.883
  647SOL    HW1 2840   5.681   1.600   4.938
  647SOL    HW2 2841   5.688   1.519   4.796
  648SOL     OW 2842   6.738   3.149   3.369
  648SOL    HW1 2843   6.693   3.174   3.283
  648SOL    HW2 2844   6.728   3.050   3.383
  649SOL     OW 2845   2.084   4.338   0.605
  649SOL    HW1 2846   2.097   4.239   0.609
  649SOL    HW2 2847   2.174   4.383   0.602
  650SOL     OW 2848   6.962   5.283   0.617
  650SOL    HW1 2849   0.026   5.249   0.648
  650SOL    HW2 2850   6.971   5.324   0.526
  651SOL     OW 2851   1.974   0.447   5.876
  651SOL    HW1 2852   2.009   0.356   5.853
  651SOL    HW2 2853   1.902   0.473   5.812
  652SOL     OW 2854   4.277   6.604   1.839
  652SOL    HW1 2855   4.223   6.551   1.904
  652SOL    HW2 2856   4.219   6.631   1.762
  653SOL     OW 2857   0.525   6.322   0.465
  653SOL    HW1 2858   0.467   6.404   0.469
  653SOL    HW2 2859   0.500   6.260   0.540
  654SOL     OW 2860   6.296   6.686   6.108
  654SOL    HW1 2861   6.334   6.686   6.200
  654SOL    HW2 2862   6.226   6.757   6.101
  655SOL     OW 2863   0.007   5.484   1.758
  655SOL    HW1 2864   6.962   5.422   1.724
  655SOL    HW2 2865   0.038   5.454   1.848
  656SOL     OW 2866   2.235   6.281   0.514
  656SOL    HW1 2867   2.288   6.356   0.554
  656SOL    HW2 2868   2.204   6.220   0.587
  657SOL     OW 2869   3.070   3.456   0.787
  657SOL    HW1 2870   3.143   3.398   0.822
  657SOL    HW2 2871   3.097   3.495   0.700
  658SOL     OW 2872   1.688   4.561   5.959
  658SOL    HW1 2873   1.663   4.651   5.925
  658SOL    HW2 2874   1.634   4.540   6.041
  659SOL     OW 2875   2.968   5.398   4.556
  659SOL    HW1 2876   2.958   5.311   4.605
  659SOL    HW2 2877   2.878   5.441   4.545
  660SOL     OW 2878   4.538   4.778   2.624
  660SOL    HW1 2879   4.601   4.853   2.607
  660SOL    HW2 2880   4.500   4.746   2.537
  661SOL     OW 2881   4.921   4.034   4.391
  661SOL    HW1 2882   5.013   3.994   4.394
  661SOL    HW2 2883   4.871   3.996   4.313
  662SOL     OW 2884   4.397   1.657   6.535
  662SOL    HW1 2885   4.384   1.734   6.597
  662SOL    HW2 2886   4.310   1.612   6.519
  663SOL     OW 2887   0.667   4.824   6.817
  663SOL    HW1 2888   0.599   4.837   6.744
  663SOL    HW2 2889   0.662   4.730   6.851
  664SOL     OW 2890   1.728   5.306   6.917
  664SOL    HW1 2891   1.656   5.267   6.974
  664SOL    HW2 2892   1.811   5.251   6.925
  665SOL     OW 2893   4.016   5.423   1.070
  665SOL    HW1 2894   4.016   5.327   1.041
  665SOL    HW2 2895   3.952   5.435   1.146
  666SOL     OW 2896   3.808   2.351   0.994
  666SOL    HW1 2897   3.868   2.272   0.981
  666SOL    HW2 2898   3.726   2.322   1.043
  667SOL     OW 2899   0.653   3.074   4.016
  667SOL    HW1 2900   0.650   2.997   3.954
  667SOL    HW2 2901   0.597   3.054   4.097
  668SOL     OW 2902   4.699   5.862   6.994
  668SOL    HW1 2903   4.769   5.933   7.008
  668SOL    HW2 2904   4.614   5.905   6.964
  669SOL     OW 2905   2.033   6.377   2.925
  669SOL    HW1 2906   1.973   6.298   2.916
  669SOL    HW2 2907   1.978   6.460   2.934
  670SOL     OW 2908   3.145   3.722   2.524
  670SOL    HW1 2909   3.063   3.779   2.520
  670SOL    HW2 2910   3.162   3.681   2.435
  671SOL     OW 2911   2.582   6.070   6.056
  671SOL    HW1 2912   2.625   6.058   6.146
  671SOL    HW2 2913   2.608   5.994   5.996
  672SOL     OW 2914   1.132   3.395   2.750
  672SOL    HW1 2915   1.163   3.463   2.817
  672SOL    HW2 2916   1.196   3.317   2.750
  673SOL     OW 2917   4.849   6.848   0.779
  673SOL    HW1 2918   4.832   6.749   0.771
  673SOL    HW2 2919   4.901   6.866   0.863
  674SOL     OW 2920   0.266   3.198   4.206
  674SOL    HW1 2921   0.279   3.270   4.138
  674SOL    HW2 2922   0.195   3.134   4.174
  675SOL     OW 2923   0.755   1.523   5.025
  675SOL    HW1 2924   0.740   1.501   5.121
  675SOL    HW2 2925   0.788   1.617   5.017
  676SOL     OW 2926   2.566   4.916   3.897
  676SOL    HW1 2927   2.492   4.939   3.959
  676SOL    HW2 2928   2.603   4.826   3.921
  677SOL     OW 2929   5.851   1.334   6.820
  677SOL    HW1 2930   5.826   1.426   6.791
  677SOL    HW2 2931   5.865   1.276   6.740
  678SOL     OW 2932   2.601   1.542   5.296
  678SOL    HW1 2933   2.636   1.472   5.358
  678SOL    HW2 2934   2.542   1.605   5.347
  679SOL     OW 2935   4.323   0.817   4.729
  679SOL    HW1 2936   4.408   0.863   4.754
  679SOL    HW2 2937   4.260   0.884   4.689
  680SOL     OW 2938   5.879   4.579   5.811
  680SOL    HW1 2939   5.948   4.651   5.805
  680SOL    HW2 2940   5.923   4.490   5.799
  681SOL     OW 2941   6.777   0.133   0.921
  681SOL    HW1 2942   6.729   0.145   1.008
  681SOL    HW2 2943   6.834   0.051   0.926
  682SOL     OW 2944   2.749   6.467   6.190
  682SOL    HW1 2945   2.793   6.520   6.118
  682SOL    HW2 2946   2.728   6.528   6.267
  683SOL     OW 2947   3.177   0.487   6.236
  683SOL    HW1 2948   3.086   0.488   6.194
  683SOL    HW2 2949   3.241   0.442   6.175
  684SOL     OW 2950   6.224   1.500   6.153
  684SOL    HW1 2951   6.251   1.405   6.140
  684SOL    HW2 2952   6.299   1.560   6.125
  685SOL     OW 2953   4.951   0.556   5.753
  685SOL    HW1 2954   4.920   0.465   5.779
  685SOL    HW2 2955   4.877   0.622   5.768
  686SOL     OW 2956   6.087   2.763   2.987
  686SOL    HW1 2957   6.152   2.701   3.031
  686SOL    HW2 2958   6.073   2.736   2.892
  687SOL     OW 2959   6.666   2.863   5.811
  687SOL    HW1 2960   6.568   2.885   5.816
  687SOL    HW2 2961   6.696   2.824   5.897
  688SOL     OW 2962   1.921   3.733   6.603
  688SOL    HW1 2963   1.921   3.705   6.700
  688SOL    HW2 2964   1.959   3.659   6.548
  689SOL     OW 2965   0.746   4.728   5.470
  689SOL    HW1 2966   0.659   4.713   5.517
  689SOL    HW2 2967   0.744   4.685   5.380
  690SOL     OW 2968   0.765   3.501   2.965
  690SOL    HW1 2969   0.760   3.406   2.997
  690SOL    HW2 2970   0.713   3.560   3.027
  691SOL     OW 2971   2.257   1.509   6.519
  691SOL    HW1 2972   2.185   1.477   6.457
  691SOL    HW2 2973   2.230   1.490   6.613
  692SOL     OW 2974   3.392   6.916   3.816
  692SOL    HW1 2975   3.446   6.958   3.743
  692SOL    HW2 2976   3.361   6.825   3.787
  693SOL     OW 2977   6.282   1.495   3.348
  693SOL    HW1 2978   6.365   1.438   3.343
  693SOL    HW2 2979   6.303   1.580   3.396
  694SOL     OW 2980   3.348   5.490   2.505
  694SOL    HW1 2981   3.341   5.578   2.458
  694SOL    HW2 2982   3.289   5.423   2.460
  695SOL     OW 2983   5.262   5.092   5.383
  695SOL    HW1 2984   5.245   5.190   5.374
  695SOL    HW2 2985   5.330   5.076   5.455
  696SOL     OW 2986   3.427   5.142   2.182
  696SOL    HW1 2987   3.471   5.131   2.092
  696SOL    HW2 2988   3.383   5.056   2.207
  697SOL     OW 2989   0.939   3.471   6.057
  697SOL    HW1 2990   0.877   3.411   6.006
  697SOL    HW2 2991   1.022   3.420   6.082
  698SOL     OW 2992   5.751   0.197   4.738
  698SOL    HW1 2993   5.794   0.114   4.774
  698SOL    HW2 2994   5.672   0.172   4.682
  699SOL     OW 2995   1.229   4.248   0.302
  699SOL    HW1 2996   1.319   4.283   0.279
  699SOL    HW2 2997   1.194   4.295   0.383
  700SOL     OW 2998   3.122   1.827   3.600
  700SOL    HW1 2999   3.053   1.755   3.611
  700SOL    HW2 3000   3.089   1.895   3.534
  701SOL     OW 3001   1.118   4.900   6.579
  701SOL    HW1 3002   1.051   4.971   6.603
  701SOL    HW2 3003   1.195   4.942   6.530
  702SOL     OW 3004   5.894   6.290   6.460
  702SOL    HW1 3005   5.966   6.354   6.433
  702SOL    HW2 3006   5.868   6.233   6.382
  703SOL     OW 3007   4.449   3.499   6.758
  703SOL    HW1 3008   4.542   3.465   6.776
  703SOL    HW2 3009   4.451   3.599   6.753
  704SOL     OW 3010   2.015   1.267   6.080
  704SOL    HW1 3011   1.970   1.255   5.992
  704SOL    HW2 3012   2.027   1.364   6.099
  705SOL     OW 3013   5.126   6.541   3.857
  705SOL    HW1 3014   5.068   6.621   3.869
  705SOL    HW2 3015   5.217   6.560   3.895
  706SOL     OW 3016   3.961   1.701   3.606
  706SOL    HW1 3017   4.012   1.619   3.580
  706SOL    HW2 3018   3.927   1.746   3.524
  707SOL     OW 3019   4.784   6.839   2.363
  707SOL    HW1 3020   4.706   6.857   2.423
  707SOL    HW2 3021   4.825   6.925   2.336
  708SOL     OW 3022   4.480   0.242   0.912
  708SOL    HW1 3023   4.563   0.200   0.950
  708SOL    HW2 3024   4.481   0.340   0.929
  709SOL     OW 3025   1.074   5.303   1.000
  709SOL    HW1 3026   1.101   5.348   0.915
  709SOL    HW2 3027   1.155   5.271   1.049
  710SOL     OW 3028   3.620   3.850   2.933
  710SOL    HW1 3029   3.577   3.766   2.966
  710SOL    HW2 3030   3.634   3.912   3.010
  711SOL     OW 3031   0.671   2.229   5.837
  711SOL    HW1 3032   0.693   2.132   5.831
  711SOL    HW2 3033   0.614   2.255   5.759
  712SOL     OW 3034   2.302   4.333   1.088
  712SOL    HW1 3035   2.271   4.238   1.084
  712SOL    HW2 3036   2.398   4.338   1.061
  713SOL     OW 3037   3.241   3.865   0.747
  713SOL    HW1 3038   3.169   3.869   0.816
  713SOL    HW2 3039   3.271   3.958   0.724
  714SOL     OW 3040   6.047   4.430   5.187
  714SOL    HW1 3041   6.077   4.508   5.242
  714SOL    HW2 3042   6.099   4.428   5.102
  715SOL     OW 3043   4.779   6.125   0.279
  715SOL    HW1 3044   4.784   6.179   0.363
  715SOL    HW2 3045   4.736   6.037   0.299
  716SOL     OW 3046   1.104   5.607   1.244
  716SOL    HW1 3047   1.031   5.637   1.182
  716SOL    HW2 3048   1.140   5.519   1.212
  717SOL     OW 3049   6.277   5.004   6.250
  717SOL    HW1 3050   6.195   4.948   6.259
  717SOL    HW2 3051   6.257   5.098   6.276
  718SOL     OW 3052   3.442   1.837   6.096
  718SOL    HW1 3053   3.499   1.906   6.141
  718SOL    HW2 3054   3.437   1.756   6.153
  719SOL     OW 3055   5.883   2.427   1.643
  719SOL    HW1 3056   5.975   2.437   1.682
  719SOL    HW2 3057   5.872   2.490   1.567
  720SOL     OW 3058   2.909   1.259   6.255
  720SOL    HW1 3059   2.976   1.185   6.251
  720SOL    HW2 3060   2.905   1.306   6.167
  721SOL     OW 3061   1.362   0.256   4.843
  721SOL    HW1 3062   1.265   0.278   4.831
  721SOL    HW2 3063   1.372   0.195   4.922
  722SOL     OW 3064   3.692   6.866   5.205
  722SOL    HW1 3065   3.730   6.808   5.133
  722SOL    HW2 3066   3.702   6.962   5.179
  723SOL     OW 3067   2.294   2.882   1.861
  723SOL    HW1 3068   2.224   2.866   1.930
  723SOL    HW2 3069   2.290   2.978   1.831
  724SOL     OW 3070   1.306   1.371   4.586
  724SOL    HW1 3071   1.362   1.450   4.560
  724SOL    HW2 3072   1.230   1.401   4.644
  725SOL     OW 3073   3.010   5.014   1.574
  725SOL    HW1 3074   3.028   4.970   1.662
  725SOL    HW2 3075   2.972   4.946   1.510
  726SOL     OW 3076   3.954   4.258   0.524
  726SOL    HW1 3077   3.892   4.227   0.597
  726SOL    HW2 3078   3.932   4.352   0.499
  727SOL     OW 3079   4.324   5.881   4.275
  727SOL    HW1 3080   4.406   5.842   4.315
  727SOL    HW2 3081   4.257   5.808   4.257
  728SOL     OW 3082   0.817   4.396   5.378
  728SOL    HW1 3083   0.744   4.356   5.434
  728SOL    HW2 3084   0.780   4.473   5.326
  729SOL     OW 3085   2.494   0.407   0.325
  729SOL    HW1 3086   2.494   0.373   0.419
  729SOL    HW2 3087   2.442   0.492   0.319
  730SOL     OW 3088   5.746   0.277   3.600
  730SOL    HW1 3089   5.784   0.202   3.545
  730SOL    HW2 3090   5.817   0.316   3.658
  731SOL     OW 3091   5.567   3.322   6.111
  731SOL    HW1 3092   5.646   3.359   6.063
  731SOL    HW2 3093   5.570   3.350   6.208
  732SOL     OW 3094   0.167   3.467   0.613
  732SOL    HW1 3095   0.242   3.438   0.672
  732SOL    HW2 3096   0.189   3.447   0.518
  733SOL     OW 3097   5.584   4.341   4.603
  733SOL    HW1 3098   5.559   4.345   4.507
  733SOL    HW2 3099   5.658   4.275   4.616
  734SOL     OW 3100   6.737   4.500   2.748
  734SOL    HW1 3101   6.683   4.520   2.830
  734SOL    HW2 3102   6.771   4.406   2.753
  735SOL     OW 3103   3.428   2.208   1.280
  735SOL    HW1 3104   3.470   2.206   1.371
  735SOL    HW2 3105   3.385   2.297   1.265
  736SOL     OW 3106   6.957   6.670   2.549
  736SOL    HW1 3107   6.875   6.691   2.603
  736SOL    HW2 3108   6.930   6.636   2.459
  737SOL     OW 3109   4.843   3.183   0.589
  737SOL    HW1 3110   4.878   3.136   0.669
  737SOL    HW2 3111   4.918   3.228   0.541
  738SOL     OW 3112   1.722   5.067   3.658
  738SOL    HW1 3113   1.706   5.123   3.576
  738SOL    HW2 3114   1.816   5.080   3.689
  739SOL     OW 3115   4.661   6.105   5.100
  739SOL    HW1 3116   4.589   6.133   5.165
  739SOL    HW2 3117   4.625   6.034   5.040
  740SOL     OW 3118   5.558   0.293   0.425
  740SOL    HW1 3119   5.605   0.363   0.478
  740SOL    HW2 3120   5.500   0.336   0.355
  741SOL     OW 3121   2.169   6.417   3.182
  741SOL    HW1 3122   2.122   6.365   3.253
  741SOL    HW2 3123   2.106   6.435   3.106
  742SOL     OW 3124   2.287   6.750   1.843
  742SOL    HW1 3125   2.366   6.689   1.848
  742SOL    HW2 3126   2.316   6.844   1.864
  743SOL     OW 3127   1.465   4.163   4.690
  743SOL    HW1 3128   1.500   4.086   4.745
  743SOL    HW2 3129   1.396   4.213   4.743
  744SOL     OW 3130   6.603   0.097   6.216
  744SOL    HW1 3131   6.506   0.112   6.194
  744SOL    HW2 3132   6.651   0.185   6.214
  745SOL     OW 3133   0.981   5.836   4.358
  745SOL    HW1 3134   1.066   5.787   4.377
  745SOL    HW2 3135   0.972   5.850   4.260
  746SOL     OW 3136   0.639   6.597   4.902
  746SOL    HW1 3137   0.608   6.685   4.940
  746SOL    HW2 3138   0.561   6.551   4.859
  747SOL     OW 3139   4.689   4.886   4.444
  747SOL    HW1 3140   4.670   4.789   4.426
  747SOL    HW2 3141   4.755   4.920   4.377
  748SOL     OW 3142   4.067   5.274   2.833
  748SOL    HW1 3143   4.081   5.180   2.803
  748SOL    HW2 3144   4.016   5.275   2.918
  749SOL     OW 3145   6.786   3.804   4.800
  749SOL    HW1 3146   6.833   3.779   4.715
  749SOL    HW2 3147   6.774   3.722   4.856
  750SOL     OW 3148   1.878   3.186   0.805
  750SOL    HW1 3149   1.949   3.251   0.833
  750SOL    HW2 3150   1.862   3.195   0.707
  751SOL     OW 3151   3.616   1.650   6.304
  751SOL    HW1 3152   3.685   1.647   6.377
  751SOL    HW2 3153   3.661   1.664   6.216
  752SOL     OW 3154   4.186   2.097   1.727
  752SOL    HW1 3155   4.255   2.119   1.795
  752SOL    HW2 3156   4.096   2.126   1.760
  753SOL     OW 3157   1.921   3.006   4.012
  753SOL    HW1 3158   1.868   3.074   4.062
  753SOL    HW2 3159   1.862   2.961   3.944
  754SOL     OW 3160   6.022   3.718   6.102
  754SOL    HW1 3161   5.999   3.624   6.129
  754SOL    HW2 3162   5.974   3.782   6.161
  755SOL     OW 3163   1.102   5.955   6.947
  755SOL    HW1 3164   1.122   5.953   6.849
  755SOL    HW2 3165   1.178   5.915   6.998
  756SOL     OW 3166   5.050   6.470   1.218
  756SOL    HW1 3167   5.107   6.480   1.136
  756SOL    HW2 3168   5.040   6.374   1.241
  757SOL     OW 3169   0.450   6.106   2.812
  757SOL    HW1 3170   0.426   6.022   2.862
  757SOL    HW2 3171   0.372   6.134   2.755
  758SOL     OW 3172   3.879   0.595   1.413
  758SOL    HW1 3173   3.889   0.657   1.335
  758SOL    HW2 3174   3.786   0.557   1.414
  759SOL     OW 3175   0.046   0.788   0.668
  759SOL    HW1 3176   0.054   0.704   0.723
  759SOL    HW2 3177   7.023   0.858   0.721
  760SOL     OW 3178   4.230   0.949   6.446
  760SOL    HW1 3179   4.200   0.855   6.435
  760SOL    HW2 3180   4.268   0.962   6.538
  761SOL     OW 3181   5.619   4.098   5.794
  761SOL    HW1 3182   5.599   4.044   5.876
  761SOL    HW2 3183   5.686   4.049   5.738
  762SOL     OW 3184   2.402   6.411   3.660
  762SOL    HW1 3185   2.444   6.321   3.674
  762SOL    HW2 3186   2.306   6.399   3.635
  763SOL     OW 3187   4.084   5.486   6.284
  763SOL    HW1 3188   4.056   5.525   6.196
  763SOL    HW2 3189   4.182   5.500   6.296
  764SOL     OW 3190   4.532   0.327   4.564
  764SOL    HW1 3191   4.578   0.386   4.498
  764SOL    HW2 3192   4.454   0.376   4.603
  765SOL     OW 3193   1.076   6.231   1.195
  765SOL    HW1 3194   1.049   6.239   1.291
  765SOL    HW2 3195   1.158   6.174   1.187
  766SOL     OW 3196   0.441   1.823   0.580
  766SOL    HW1 3197   0.436   1.783   0.488
  766SOL    HW2 3198   0.458   1.750   0.647
  767SOL     OW 3199   0.276   6.196   2.456
  767SOL    HW1 3200   0.289   6.104   2.494
  767SOL    HW2 3201   0.320   6.202   2.367
  768SOL     OW 3202   2.619   6.991   2.099
  768SOL    HW1 3203   2.582   7.022   2.187
  768SOL    HW2 3204   2.643   0.046   2.044
  769SOL     OW 3205   2.673   6.835   3.790
  769SOL    HW1 3206   2.749   6.896   3.766
  769SOL    HW2 3207   2.609   6.830   3.713
  770SOL     OW 3208   1.610   4.302   2.864
  770SOL    HW1 3209   1.595   4.380   2.804
  770SOL    HW2 3210   1.662   4.232   2.815
  771SOL     OW 3211   1.899   5.015   2.900
  771SOL    HW1 3212   1.863   4.939   2.955
  771SOL    HW2 3213   1.996   5.027   2.918
  772SOL     OW 3214   6.626   4.874   0.633
  772SOL    HW1 3215   6.682   4.956   0.628
  772SOL    HW2 3216   6.532   4.899   0.659
  773SOL     OW 3217   0.421   3.800   3.524
  773SOL    HW1 3218   0.478   3.743   3.466
  773SOL    HW2 3219   0.445   3.785   3.620
  774SOL     OW 3220   1.133   1.608   2.316
  774SOL    HW1 3221   1.039   1.602   2.284
  774SOL    HW2 3222   1.152   1.531   2.378
  775SOL     OW 3223   0.772   1.810   3.413
  775SOL    HW1 3224   0.756   1.877   3.485
  775SOL    HW2 3225   0.726   1.724   3.437
  776SOL     OW 3226   0.107   1.435   5.690
  776SOL    HW1 3227   0.078   1.496   5.616
  776SOL    HW2 3228   0.207   1.424   5.685
  777SOL     OW 3229   3.031   6.556   0.874
  777SOL    HW1 3230   3.098   6.562   0.948
  777SOL    HW2 3231   3.076   6.571   0.786
  778SOL     OW 3232   3.664   1.316   4.198
  778SOL    HW1 3233   3.732   1.390   4.198
  778SOL    HW2 3234   3.653   1.281   4.105
  779SOL     OW 3235   0.568   1.703   2.591
  779SOL    HW1 3236   0.640   1.634   2.602
  779SOL    HW2 3237   0.552   1.748   2.679
  780SOL     OW 3238   6.398   3.952   4.419
  780SOL    HW1 3239   6.490   3.936   4.452
  780SOL    HW2 3240   6.348   3.865   4.416
  781SOL     OW 3241   5.636   0.954   6.244
  781SOL    HW1 3242   5.622   1.033   6.185
  781SOL    HW2 3243   5.710   0.897   6.206
  782SOL     OW 3244   1.314   3.819   0.420
  782SOL    HW1 3245   1.259   3.844   0.341
  782SOL    HW2 3246   1.262   3.833   0.504
  783SOL     OW 3247   3.753   4.445   0.909
  783SOL    HW1 3248   3.760   4.544   0.918
  783SOL    HW2 3249   3.666   4.421   0.866
  784SOL     OW 3250   5.119   6.584   5.676
  784SOL    HW1 3251   5.078   6.664   5.722
  784SOL    HW2 3252   5.203   6.559   5.723
  785SOL     OW 3253   0.252   2.128   3.211
  785SOL    HW1 3254   0.339   2.170   3.234
  785SOL    HW2 3255   0.245   2.039   3.257
  786SOL     OW 3256   1.521   0.773   0.978
  786SOL    HW1 3257   1.445   0.807   0.922
  786SOL    HW2 3258   1.533   0.675   0.961
  787SOL     OW 3259   3.036   1.505   6.637
  787SOL    HW1 3260   3.107   1.525   6.570
  787SOL    HW2 3261   2.962   1.573   6.630
  788SOL     OW 3262   2.474   2.541   4.831
  788SOL    HW1 3263   2.464   2.629   4.878
  788SOL    HW2 3264   2.512   2.474   4.894
  789SOL     OW 3265   5.555   4.274   1.313
  789SOL    HW1 3266   5.549   4.341   1.240
  789SOL    HW2 3267   5.463   4.241   1.336
  790SOL     OW 3268   2.550   1.621   4.275
  790SOL    HW1 3269   2.544   1.529   4.236
  790SOL    HW2 3270   2.490   1.628   4.354
  791SOL     OW 3271   4.005   0.498   3.402
  791SOL    HW1 3272   4.009   0.537   3.310
  791SOL    HW2 3273   3.932   0.429   3.406
  792SOL     OW 3274   0.415   0.342   1.672
  792SOL    HW1 3275   0.441   0.257   1.718
  792SOL    HW2 3276   0.458   0.346   1.582
  793SOL     OW 3277   4.173   6.107   2.309
  793SOL    HW1 3278   4.082   6.139   2.284
  793SOL    HW2 3279   4.187   6.118   2.407
  794SOL     OW 3280   2.581   3.327   5.360
  794SOL    HW1 3281   2.491   3.284   5.366
  794SOL    HW2 3282   2.570   3.425   5.345
  795SOL     OW 3283   2.927   5.401   5.229
  795SOL    HW1 3284   2.929   5.304   5.206
  795SOL    HW2 3285   2.973   5.416   5.316
  796SOL     OW 3286   0.953   2.442   6.434
  796SOL    HW1 3287   0.924   2.533   6.462
  796SOL    HW2 3288   1.003   2.448   6.347
  797SOL     OW 3289   5.375   2.612   2.502
  797SOL    HW1 3290   5.287   2.566   2.508
  797SOL    HW2 3291   5.438   2.557   2.446
  798SOL     OW 3292   5.293   0.613   1.095
  798SOL    HW1 3293   5.233   0.693   1.103
  798SOL    HW2 3294   5.290   0.560   1.179
  799SOL     OW 3295   6.572   1.369   4.089
  799SOL    HW1 3296   6.593   1.272   4.072
  799SOL    HW2 3297   6.476   1.386   4.067
  800SOL     OW 3298   5.792   1.138   2.767
  800SOL    HW1 3299   5.729   1.196   2.715
  800SOL    HW2 3300   5.863   1.103   2.706
  801SOL     OW 3301   1.437   3.696   2.730
  801SOL    HW1 3302   1.489   3.765   2.780
  801SOL    HW2 3303   1.495   3.616   2.713
  802SOL     OW 3304   4.247   0.295   0.404
  802SOL    HW1 3305   4.262   0.394   0.406
  802SOL    HW2 3306   4.262   0.256   0.495
  803SOL     OW 3307   0.091   5.626   4.975
  803SOL    HW1 3308   0.104   5.540   4.926
  803SOL    HW2 3309   0.179   5.655   5.014
  804SOL     OW 3310   6.027   6.654   6.964
  804SOL    HW1 3311   6.034   6.561   6.926
  804SOL    HW2 3312   6.039   6.651   0.038
  805SOL     OW 3313   3.542   2.147   5.882
  805SOL    HW1 3314   3.556   2.050   5.861
  805SOL    HW2 3315   3.624   2.199   5.860
  806SOL     OW 3316   4.443   1.089   4.964
  806SOL    HW1 3317   4.399   1.017   5.017
  806SOL    HW2 3318   4.432   1.177   5.011
  807SOL     OW 3319   0.746   1.295   3.437
  807SOL    HW1 3320   0.750   1.248   3.526
  807SOL    HW2 3321   0.803   1.246   3.371
  808SOL     OW 3322   4.833   3.663   6.316
  808SOL    HW1 3323   4.884   3.713   6.246
  808SOL    HW2 3324   4.738   3.695   6.318
  809SOL     OW 3325   0.946   4.428   1.259
  809SOL    HW1 3326   0.858   4.401   1.220
  809SOL    HW2 3327   0.970   4.520   1.227
  810SOL     OW 3328   3.937   2.641   1.344
  810SOL    HW1 3329   3.865   2.669   1.408
  810SOL    HW2 3330   3.920   2.683   1.255
  811SOL     OW 3331   4.789   5.128   3.816
  811SOL    HW1 3332   4.868   5.098   3.762
  811SOL    HW2 3333   4.706   5.117   3.761
  812SOL     OW 3334   0.264   1.659   1.918
  812SOL    HW1 3335   0.238   1.621   2.007
  812SOL    HW2 3336   0.206   1.738   1.898
  813SOL     OW 3337   3.580   4.952   4.218
  813SOL    HW1 3338   3.538   4.977   4.131
  813SOL    HW2 3339   3.679   4.969   4.212
  814SOL     OW 3340   5.224   6.345   3.264
  814SOL    HW1 3341   5.280   6.421   3.296
  814SOL    HW2 3342   5.182   6.369   3.176
  815SOL     OW 3343   6.762   3.119   2.826
  815SOL    HW1 3344   6.817   3.084   2.750
  815SOL    HW2 3345   6.780   3.217   2.838
  816SOL     OW 3346   6.707   0.071   0.015
  816SOL    HW1 3347   6.707   7.022   6.973
  816SOL    HW2 3348   6.758   0.043   0.096
  817SOL     OW 3349   1.767   3.694   1.993
  817SOL    HW1 3350   1.843   3.644   1.951
  817SOL    HW2 3351   1.693   3.631   2.015
  818SOL     OW 3352   6.648   3.246   0.978
  818SOL    HW1 3353   6.702   3.266   0.897
  818SOL    HW2 3354   6.642   3.328   1.036
  819SOL     OW 3355   6.143   2.973   3.763
  819SOL    HW1 3356   6.173   3.047   3.824
  819SOL    HW2 3357   6.100   2.901   3.818
  820SOL     OW 3358   1.648   2.550   6.275
  820SOL    HW1 3359   1.556   2.586   6.265
  820SOL    HW2 3360   1.659   2.511   6.367
  821SOL     OW 3361   2.581   4.939   0.531
  821SOL    HW1 3362   2.578   4.932   0.432
  821SOL    HW2 3363   2.610   5.031   0.557
  822SOL     OW 3364   1.046   5.388   4.557
  822SOL    HW1 3365   1.080   5.319   4.620
  822SOL    HW2 3366   0.965   5.354   4.509
  823SOL     OW 3367   4.950   4.501   6.664
  823SOL    HW1 3368   4.865   4.504   6.716
  823SOL    HW2 3369   5.028   4.499   6.727
  824SOL     OW 3370   5.689   0.908   5.458
  824SOL    HW1 3371   5.592   0.910   5.481
  824SOL    HW2 3372   5.727   1.000   5.464
  825SOL     OW 3373   1.603   4.059   1.142
  825SOL    HW1 3374   1.557   4.147   1.154
  825SOL    HW2 3375   1.626   4.046   1.045
  826SOL     OW 3376   5.600   3.786   0.413
  826SOL    HW1 3377   5.633   3.762   0.504
  826SOL    HW2 3378   5.663   3.749   0.345
  827SOL     OW 3379   2.846   5.514   6.170
  827SOL    HW1 3380   2.830   5.547   6.077
  827SOL    HW2 3381   2.944   5.502   6.185
  828SOL     OW 3382   6.195   0.257   5.383
  828SOL    HW1 3383   6.162   0.280   5.292
  828SOL    HW2 3384   6.292   0.280   5.389
  829SOL     OW 3385   2.909   3.723   4.339
  829SOL    HW1 3386   2.981   3.670   4.383
  829SOL    HW2 3387   2.894   3.808   4.390
  830SOL     OW 3388   4.746   4.963   5.981
  830SOL    HW1 3389   4.687   5.037   6.015
  830SOL    HW2 3390   4.784   4.988   5.892
  831SOL     OW 3391   0.031   0.430   4.975
  831SOL    HW1 3392   6.958   0.437   4.992
  831SOL    HW2 3393   0.073   0.520   4.978
  832SOL     OW 3394   1.403   0.873   0.225
  832SOL    HW1 3395   1.500   0.897   0.225
  832SOL    HW2 3396   1.357   0.920   0.149
  833SOL     OW 3397   0.440   5.643   6.011
  833SOL    HW1 3398   0.492   5.719   6.050
  833SOL    HW2 3399   0.430   5.656   5.913
  834SOL     OW 3400   3.805   4.221   1.406
  834SOL    HW1 3401   3.773   4.278   1.481
  834SOL    HW2 3402   3.745   4.232   1.327
  835SOL     OW 3403   3.376   6.898   4.118
  835SOL    HW1 3404   3.368   6.900   4.018
  835SOL    HW2 3405   3.287   6.920   4.159
  836SOL     OW 3406   3.282   6.435   6.611
  836SOL    HW1 3407   3.354   6.463   6.674
  836SOL    HW2 3408   3.248   6.344   6.637
  837SOL     OW 3409   5.007   6.384   6.357
  837SOL    HW1 3410   4.919   6.337   6.364
  837SOL    HW2 3411   5.027   6.429   6.444
  838SOL     OW 3412   0.940   0.641   4.657
  838SOL    HW1 3413   0.985   0.608   4.739
  838SOL    HW2 3414   0.929   0.566   4.592
  839SOL     OW 3415   2.825   1.872   2.075
  839SOL    HW1 3416   2.785   1.958   2.046
  839SOL    HW2 3417   2.868   1.883   2.165
  840SOL     OW 3418   5.911   0.285   5.833
  840SOL    HW1 3419   5.929   0.329   5.745
  840SOL    HW2 3420   5.948   0.342   5.906
  841SOL     OW 3421   5.831   4.511   0.512
  841SOL    HW1 3422   5.849   4.491   0.608
  841SOL    HW2 3423   5.736   4.540   0.501
  842SOL     OW 3424   4.355   5.139   4.249
  842SOL    HW1 3425   4.256   5.154   4.250
  842SOL    HW2 3426   4.379   5.072   4.319
  843SOL     OW 3427   4.538   2.373   6.670
  843SOL    HW1 3428   4.555   2.439   6.744
  843SOL    HW2 3429   4.485   2.417   6.597
  844SOL     OW 3430   4.777   6.723   1.062
  844SOL    HW1 3431   4.839   6.769   1.126
  844SOL    HW2 3432   4.712   6.667   1.113
  845SOL     OW 3433   6.517   3.342   4.111
  845SOL    HW1 3434   6.493   3.364   4.017
  845SOL    HW2 3435   6.526   3.243   4.121
  846SOL     OW 3436   5.355   1.535   6.512
  846SOL    HW1 3437   5.332   1.543   6.609
  846SOL    HW2 3438   5.314   1.452   6.475
  847SOL     OW 3439   6.512   3.361   0.479
  847SOL    HW1 3440   6.561   3.273   0.472
  847SOL    HW2 3441   6.487   3.377   0.574
  848SOL     OW 3442   6.327   1.318   6.442
  848SOL    HW1 3443   6.303   1.354   6.352
  848SOL    HW2 3444   6.404   1.370   6.480
  849SOL     OW 3445   0.780   5.579   5.521
  849SOL    HW1 3446   0.763   5.493   5.472
  849SOL    HW2 3447   0.762   5.564   5.619
  850SOL     OW 3448   5.020   0.657   3.245
  850SOL    HW1 3449   5.052   0.565   3.264
  850SOL    HW2 3450   5.050   0.719   3.318
  851SOL     OW 3451   7.002   1.597   1.099
  851SOL    HW1 3452   6.920   1.649   1.073
  851SOL    HW2 3453   6.977   1.530   1.170
  852SOL     OW 3454   2.677   2.540   0.012
  852SOL    HW1 3455   2.686   2.495   6.949
  852SOL    HW2 3456   2.644   2.474   0.080
  853SOL     OW 3457   1.162   3.875   3.222
  853SOL    HW1 3458   1.152   3.778   3.243
  853SOL    HW2 3459   1.110   3.929   3.288
  854SOL     OW 3460   5.042   6.017   2.376
  854SOL    HW1 3461   4.945   6.012   2.353
  854SOL    HW2 3462   5.070   6.113   2.382
  855SOL     OW 3463   6.064   6.910   1.197
  855SOL    HW1 3464   5.975   6.954   1.187
  855SOL    HW2 3465   6.052   6.820   1.238
  856SOL     OW 3466   2.356   1.446   5.196
  856SOL    HW1 3467   2.314   1.474   5.110
  856SOL    HW2 3468   2.456   1.449   5.186
  857SOL     OW 3469   5.796   5.282   1.176
  857SOL    HW1 3470   5.794   5.296   1.077
  857SOL    HW2 3471   5.729   5.342   1.219
  858SOL     OW 3472   2.520   4.531   1.961
  858SOL    HW1 3473   2.474   4.612   1.996
  858SOL    HW2 3474   2.619   4.541   1.969
  859SOL     OW 3475   5.718   5.258   6.820
  859SOL    HW1 3476   5.655   5.272   6.896
  859SOL    HW2 3477   5.671   5.212   6.745
  860SOL     OW 3478   4.373   4.446   0.881
  860SOL    HW1 3479   4.355   4.540   0.912
  860SOL    HW2 3480   4.321   4.428   0.798
  861SOL     OW 3481   1.903   0.076   4.756
  861SOL    HW1 3482   1.863   0.104   4.669
  861SOL    HW2 3483   1.855   0.122   4.831
  862SOL     OW 3484   6.443   3.777   5.324
  862SOL    HW1 3485   6.371   3.828   5.278
  862SOL    HW2 3486   6.413   3.682   5.338
  863SOL     OW 3487   1.215   0.202   0.577
  863SOL    HW1 3488   1.301   0.230   0.535
  863SOL    HW2 3489   1.227   0.112   0.621
  864SOL     OW 3490   5.506   4.462   3.845
  864SOL    HW1 3491   5.499   4.561   3.839
  864SOL    HW2 3492   5.510   4.435   3.941
  865SOL     OW 3493   0.942   6.797   5.004
  865SOL    HW1 3494   0.871   6.784   5.073
  865SOL    HW2 3495   0.919   6.746   4.922
  866SOL     OW 3496   1.898   1.887   1.445
  866SOL    HW1 3497   1.985   1.837   1.442
  866SOL    HW2 3498   1.894   1.951   1.367
  867SOL     OW 3499   3.336   2.465   1.315
  867SOL    HW1 3500   3.243   2.499   1.327
  867SOL    HW2 3501   3.390   2.487   1.396
  868SOL     OW 3502   6.253   6.453   0.875
  868SOL    HW1 3503   6.320   6.512   0.829
  868SOL    HW2 3504   6.300   6.396   0.942
  869SOL     OW 3505   6.690   5.480   2.713
  869SOL    HW1 3506   6.696   5.408   2.643
  869SOL    HW2 3507   6.641   5.445   2.792
  870SOL     OW 3508   6.054   4.170   0.740
  870SOL    HW1 3509   5.958   4.144   0.729
  870SOL    HW2 3510   6.085   4.144   0.831
  871SOL     OW 3511   6.636   2.789   2.125
  871SOL    HW1 3512   6.553   2.801   2.071
  871SOL    HW2 3513   6.715   2.822   2.073
  872SOL     OW 3514   6.341   3.903   4.044
  872SOL    HW1 3515   6.262   3.965   4.048
  872SOL    HW2 3516   6.313   3.812   4.076
  873SOL     OW 3517   4.306   0.063   2.722
  873SOL    HW1 3518   4.299   6.989   2.735
  873SOL    HW2 3519   4.234   0.109   2.774
  874SOL     OW 3520   1.412   3.844   5.620
  874SOL    HW1 3521   1.347   3.785   5.668
  874SOL    HW2 3522   1.378   3.939   5.622
  875SOL     OW 3523   4.911   4.069   1.174
  875SOL    HW1 3524   4.903   3.971   1.195
  875SOL    HW2 3525   4.856   4.091   1.094
  876SOL     OW 3526   6.872   4.429   3.071
  876SOL    HW1 3527   6.787   4.479   3.085
  876SOL    HW2 3528   6.916   4.413   3.160
  877SOL     OW 3529   4.580   4.719   6.791
  877SOL    HW1 3530   4.633   4.733   6.874
  877SOL    HW2 3531   4.640   4.684   6.718
  878SOL     OW 3532   3.727   5.746   6.389
  878SOL    HW1 3533   3.766   5.666   6.344
  878SOL    HW2 3534   3.762   5.751   6.483
  879SOL     OW 3535   4.118   2.225   2.438
  879SOL    HW1 3536   4.045   2.270   2.388
  879SOL    HW2 3537   4.102   2.126   2.439
  880SOL     OW 3538   3.268   4.606   0.157
  880SOL    HW1 3539   3.341   4.605   0.088
  880SOL    HW2 3540   3.265   4.518   0.204
  881SOL     OW 3541   4.136   4.746   5.220
  881SOL    HW1 3542   4.079   4.814   5.173
  881SOL    HW2 3543   4.099   4.727   5.311
  882SOL     OW 3544   2.018   1.407   4.199
  882SOL    HW1 3545   1.960   1.462   4.260
  882SOL    HW2 3546   2.012   1.311   4.227
  883SOL     OW 3547   4.557   5.209   5.064
  883SOL    HW1 3548   4.489   5.143   5.031
  883SOL    HW2 3549   4.510   5.290   5.100
  884SOL     OW 3550   6.719   3.802   2.240
  884SOL    HW1 3551   6.621   3.821   2.234
  884SOL    HW2 3552   6.767   3.852   2.168
  885SOL     OW 3553   5.643   6.381   0.058
  885SOL    HW1 3554   5.552   6.393   0.018
  885SOL    HW2 3555   5.706   6.349   7.012
  886SOL     OW 3556   4.503   0.943   0.559
  886SOL    HW1 3557   4.532   0.886   0.481
  886SOL    HW2 3558   4.405   0.962   0.551
  887SOL     OW 3559   4.146   6.281   5.573
  887SOL    HW1 3560   4.050   6.262   5.596
  887SOL    HW2 3561   4.160   6.265   5.475
  888SOL     OW 3562   6.803   6.589   3.265
  888SOL    HW1 3563   6.842   6.604   3.356
  888SOL    HW2 3564   6.704   6.576   3.273
  889SOL     OW 3565   0.250   6.961   5.780
  889SOL    HW1 3566   0.154   6.938   5.768
  889SOL    HW2 3567   0.273   6.964   5.877
  890SOL     OW 3568   2.831   4.755   2.134
  890SOL    HW1 3569   2.753   4.815   2.147
  890SOL    HW2 3570   2.816   4.697   2.054
  891SOL     OW 3571   6.066   3.567   1.410
  891SOL    HW1 3572   6.083   3.528   1.500
  891SOL    HW2 3573   6.070   3.667   1.416
  892SOL     OW 3574   4.204   3.708   0.471
  892SOL    HW1 3575   4.188   3.761   0.388
  892SOL    HW2 3576   4.124   3.712   0.530
  893SOL     OW 3577   2.074   0.638   1.076
  893SOL    HW1 3578   2.142   0.596   1.015
  893SOL    HW2 3579   2.121   0.694   1.145
  894SOL     OW 3580   2.186   4.154   4.066
  894SOL    HW1 3581   2.175   4.063   4.028
  894SOL    HW2 3582   2.229   4.214   3.998
  895SOL     OW 3583   1.844   0.026   4.226
  895SOL    HW1 3584   1.796   7.014   4.306
  895SOL    HW2 3585   1.794   0.001   4.143
  896SOL     OW 3586   5.934   5.892   3.946
  896SOL    HW1 3587   5.890   5.952   4.013
  896SOL    HW2 3588   6.020   5.858   3.984
  897SOL     OW 3589   4.724   1.400   0.713
  897SOL    HW1 3590   4.677   1.416   0.800
  897SOL    HW2 3591   4.779   1.481   0.690
  898SOL     OW 3592   4.827   5.817   4.058
  898SOL    HW1 3593   4.902   5.872   4.094
  898SOL    HW2 3594   4.755   5.876   4.022
  899SOL     OW 3595   0.535   5.156   0.157
  899SOL    HW1 3596   0.591   5.106   0.091
  899SOL    HW2 3597   0.487   5.230   0.111
  900SOL     OW 3598   5.977   5.785   1.741
  900SOL    HW1 3599   5.894   5.838   1.754
  900SOL    HW2 3600   6.028   5.820   1.663
  901SOL     OW 3601   0.308   1.892   4.718
  901SOL    HW1 3602   0.212   1.906   4.693
  901SOL    HW2 3603   0.313   1.829   4.796
  902SOL     OW 3604   0.375   0.824   6.459
  902SOL    HW1 3605   0.453   0.859   6.511
  902SOL    HW2 3606   0.388   0.845   6.362
  903SOL     OW 3607   6.646   4.358   0.053
  903SOL    HW1 3608   6.641   4.457   0.041
  903SOL    HW2 3609   6.695   4.317   7.001
  904SOL     OW 3610   1.538   1.958   4.072
  904SOL    HW1 3611   1.600   2.037   4.073
  904SOL    HW2 3612   1.446   1.988   4.046
  905SOL     OW 3613   5.304   2.664   6.885
  905SOL    HW1 3614   5.229   2.699   6.829
  905SOL    HW2 3615   5.390   2.673   6.834
  906SOL     OW 3616   0.365   4.191   6.927
  906SOL    HW1 3617   0.462   4.173   6.946
  906SOL    HW2 3618   0.352   4.289   6.913
  907SOL     OW 3619   6.005   2.395   2.972
  907SOL    HW1 3620   6.006   2.495   2.968
  907SOL    HW2 3621   5.959   2.366   3.057
  908SOL     OW 3622   1.426   0.162   4.150
  908SOL    HW1 3623   1.371   0.246   4.143
  908SOL    HW2 3624   1.499   0.166   4.082
  909SOL     OW 3625   2.660   1.019   0.595
  909SOL    HW1 3626   2.606   0.940   0.627
  909SOL    HW2 3627   2.715   0.991   0.517
  910SOL     OW 3628   1.816   0.555   0.889
  910SOL    HW1 3629   1.876   0.623   0.931
  910SOL    HW2 3630   1.853   0.529   0.800
  911SOL     OW 3631   0.412   4.737   1.203
  911SOL    HW1 3632   0.398   4.810   1.136
  911SOL    HW2 3633   0.335   4.734   1.266
  912SOL     OW 3634   0.926   1.625   5.751
  912SOL    HW1 3635   0.943   1.692   5.823
  912SOL    HW2 3636   0.827   1.608   5.743
  913SOL     OW 3637   1.994   0.747   3.411
  913SOL    HW1 3638   1.965   0.757   3.507
  913SOL    HW2 3639   2.069   0.810   3.393
  914SOL     OW 3640   2.373   5.635   4.910
  914SOL    HW1 3641   2.349   5.572   4.985
  914SOL    HW2 3642   2.293   5.652   4.853
  915SOL     OW 3643   0.592   3.300   0.645
  915SOL    HW1 3644   0.675   3.270   0.598
  915SOL    HW2 3645   0.599   3.279   0.742
  916SOL     OW 3646   2.091   2.049   1.641
  916SOL    HW1 3647   2.118   1.999   1.559
  916SOL    HW2 3648   1.999   2.086   1.628
  917SOL     OW 3649   3.946   0.848   1.227
  917SOL    HW1 3650   3.923   0.862   1.131
  917SOL    HW2 3651   4.045   0.860   1.239
  918SOL     OW 3652   3.171   6.188   6.727
  918SOL    HW1 3653   3.100   6.175   6.659
  918SOL    HW2 3654   3.245   6.123   6.711
  919SOL     OW 3655   1.483   6.497   1.892
  919SOL    HW1 3656   1.420   6.419   1.895
  919SOL    HW2 3657   1.436   6.576   1.852
  920SOL     OW 3658   2.386   0.814   2.872
  920SOL    HW1 3659   2.300   0.855   2.842
  920SOL    HW2 3660   2.434   0.776   2.793
  921SOL     OW 3661   5.687   4.389   4.065
  921SOL    HW1 3662   5.696   4.299   4.108
  921SOL    HW2 3663   5.697   4.460   4.134
  922SOL     OW 3664   3.407   3.629   6.740
  922SOL    HW1 3665   3.462   3.630   6.823
  922SOL    HW2 3666   3.424   3.712   6.687
  923SOL     OW 3667   2.602   6.266   0.151
  923SOL    HW1 3668   2.671   6.315   0.099
  923SOL    HW2 3669   2.591   6.174   0.114
  924SOL     OW 3670   5.491   3.120   2.315
  924SOL    HW1 3671   5.530   3.047   2.259
  924SOL    HW2 3672   5.391   3.117   2.308
  925SOL     OW 3673   6.877   1.854   5.760
  925SOL    HW1 3674   6.827   1.870   5.675
  925SOL    HW2 3675   6.870   1.758   5.786
  926SOL     OW 3676   5.816   0.137   0.406
  926SOL    HW1 3677   5.825   0.222   0.457
  926SOL    HW2 3678   5.900   0.084   0.414
  927SOL     OW 3679   4.930   4.312   4.122
  927SOL    HW1 3680   4.877   4.381   4.073
  927SOL    HW2 3681   4.901   4.309   4.217
  928SOL     OW 3682   1.368   0.048   0.736
  928SOL    HW1 3683   1.415   7.004   0.682
  928SOL    HW2 3684   1.416   0.135   0.729
  929SOL     OW 3685   6.773   2.558   2.255
  929SOL    HW1 3686   6.705   2.624   2.223
  929SOL    HW2 3687   6.774   2.558   2.355
  930SOL     OW 3688   6.535   5.167   4.161
  930SOL    HW1 3689   6.478   5.108   4.103
  930SOL    HW2 3690   6.626   5.127   4.170
  931SOL     OW 3691   0.292   3.516   3.092
  931SOL    HW1 3692   0.302   3.568   3.007
  931SOL    HW2 3693   0.305   3.418   3.073
  932SOL     OW 3694   3.492   6.174   1.973
  932SOL    HW1 3695   3.586   6.193   2.000
  932SOL    HW2 3696   3.491   6.132   1.882
  933SOL     OW 3697   1.036   4.498   3.544
  933SOL    HW1 3698   0.947   4.464   3.575
  933SOL    HW2 3699   1.025   4.545   3.456
  934SOL     OW 3700   2.610   1.513   4.608
  934SOL    HW1 3701   2.654   1.423   4.603
  934SOL    HW2 3702   2.676   1.580   4.643
  935SOL     OW 3703   4.555   4.035   5.843
  935SOL    HW1 3704   4.602   4.059   5.758
  935SOL    HW2 3705   4.591   4.091   5.918
  936SOL     OW 3706   0.283   6.734   0.620
  936SOL    HW1 3707   0.317   6.729   0.714
  936SOL    HW2 3708   0.290   6.828   0.586
  937SOL     OW 3709   4.503   1.867   4.674
  937SOL    HW1 3710   4.409   1.833   4.683
  937SOL    HW2 3711   4.504   1.948   4.616
  938SOL     OW 3712   0.270   4.189   6.604
  938SOL    HW1 3713   0.186   4.168   6.653
  938SOL    HW2 3714   0.308   4.275   6.636
  939SOL     OW 3715   5.150   1.272   6.099
  939SOL    HW1 3716   5.241   1.284   6.139
  939SOL    HW2 3717   5.157   1.214   6.017
  940SOL     OW 3718   6.947   1.664   2.864
  940SOL    HW1 3719   6.984   1.754   2.840
  940SOL    HW2 3720   6.930   1.661   2.963
  941SOL     OW 3721   6.136   0.999   3.630
  941SOL    HW1 3722   6.207   0.953   3.684
  941SOL    HW2 3723   6.047   0.958   3.650
  942SOL     OW 3724   4.867   0.087   4.959
  942SOL    HW1 3725   4.790   0.126   4.909
  942SOL    HW2 3726   4.853   7.014   4.970
  943SOL     OW 3727   0.297   3.198   2.024
  943SOL    HW1 3728   0.245   3.234   2.101
  943SOL    HW2 3729   0.395   3.199   2.046
  944SOL     OW 3730   6.429   3.285   4.854
  944SOL    HW1 3731   6.443   3.383   4.871
  944SOL    HW2 3732   6.489   3.232   4.913
  945SOL     OW 3733   5.086   4.670   4.533
  945SOL    HW1 3734   5.047   4.705   4.447
  945SOL    HW2 3735   5.012   4.641   4.594
  946SOL     OW 3736   5.999   2.866   6.148
  946SOL    HW1 3737   5.927   2.832   6.087
  946SOL    HW2 3738   5.989   2.965   6.160
  947SOL     OW 3739   3.021   3.527   5.773
  947SOL    HW1 3740   3.051   3.433   5.761
  947SOL    HW2 3741   2.982   3.539   5.864
  948SOL     OW 3742   4.242   0.979   0.506
  948SOL    HW1 3743   4.220   0.896   0.454
  948SOL    HW2 3744   4.169   1.047   0.492
  949SOL     OW 3745   6.740   6.077   5.968
  949SOL    HW1 3746   6.687   5.993   5.956
  949SOL    HW2 3747   6.696   6.151   5.916
  950SOL     OW 3748   3.958   5.262   2.519
  950SOL    HW1 3749   4.016   5.234   2.442
  950SOL    HW2 3750   3.922   5.181   2.565
  951SOL     OW 3751   1.013   0.279   2.099
  951SOL    HW1 3752   1.042   0.373   2.118
  951SOL    HW2 3753   0.914   0.274   2.096
  952SOL     OW 3754   5.333   1.884   2.655
  952SOL    HW1 3755   5.322   1.961   2.719
  952SOL    HW2 3756   5.391   1.912   2.579
  953SOL     OW 3757   4.212   5.673   5.690
  953SOL    HW1 3758   4.159   5.641   5.612
  953SOL    HW2 3759   4.176   5.631   5.774
  954SOL     OW 3760   6.123   0.304   0.987
  954SOL    HW1 3761   6.105   0.214   0.948
  954SOL    HW2 3762   6.162   0.364   0.917
  955SOL     OW 3763   0.803   5.034   3.956
  955SOL    HW1 3764   0.733   4.995   3.897
  955SOL    HW2 3765   0.893   5.003   3.926
  956SOL     OW 3766   1.098   1.595   1.160
  956SOL    HW1 3767   1.170   1.569   1.095
  956SOL    HW2 3768   1.018   1.536   1.146
  957SOL     OW 3769   1.588   4.837   5.105
  957SOL    HW1 3770   1.648   4.875   5.175
  957SOL    HW2 3771   1.639   4.771   5.049
  958SOL     OW 3772   5.123   1.866   0.865
  958SOL    HW1 3773   5.131   1.768   0.885
  958SOL    HW2 3774   5.212   1.903   0.840
  959SOL     OW 3775   2.924   4.820   3.066
  959SOL    HW1 3776   2.841   4.828   3.012
  959SOL    HW2 3777   2.905   4.770   3.150
  960SOL     OW 3778   1.158   5.712   4.016
  960SOL    HW1 3779   1.167   5.644   4.088
  960SOL    HW2 3780   1.246   5.758   4.003
  961SOL     OW 3781   4.244   6.634   2.232
  961SOL    HW1 3782   4.324   6.686   2.202
  961SOL    HW2 3783   4.233   6.643   2.331
  962SOL     OW 3784   1.415   1.453   3.519
  962SOL    HW1 3785   1.342   1.461   3.586
  962SOL    HW2 3786   1.503   1.449   3.566
  963SOL     OW 3787   6.091   0.317   0.588
  963SOL    HW1 3788   6.143   0.316   0.503
  963SOL    HW2 3789   6.006   0.369   0.574
  964SOL     OW 3790   5.595   3.108   0.874
  964SOL    HW1 3791   5.675   3.163   0.897
  964SOL    HW2 3792   5.526   3.120   0.945
  965SOL     OW 3793   6.061   1.939   0.718
  965SOL    HW1 3794   6.070   1.991   0.803
  965SOL    HW2 3795   6.124   1.975   0.650
  966SOL     OW 3796   5.849   1.569   2.756
  966SOL    HW1 3797   5.783   1.605   2.823
  966SOL    HW2 3798   5.852   1.469   2.763
  967SOL     OW 3799   1.469   5.499   0.647
  967SOL    HW1 3800   1.565   5.489   0.619
  967SOL    HW2 3801   1.410   5.450   0.582
  968SOL     OW 3802   4.552   2.482   2.327
  968SOL    HW1 3803   4.592   2.534   2.252
  968SOL    HW2 3804   4.568   2.531   2.413
  969SOL     OW 3805   3.424   5.891   5.188
  969SOL    HW1 3806   3.341   5.843   5.160
  969SOL    HW2 3807   3.482   5.907   5.108
  970SOL     OW 3808   5.026   1.458   5.181
  970SOL    HW1 3809   5.114   1.479   5.139
  970SOL    HW2 3810   4.971   1.541   5.187
  971SOL     OW 3811   0.163   1.305   2.592
  971SOL    HW1 3812   0.108   1.368   2.647
  971SOL    HW2 3813   0.175   1.219   2.641
  972SOL     OW 3814   5.846   4.398   0.781
  972SOL    HW1 3815   5.932   4.366   0.821
  972SOL    HW2 3816   5.819   4.484   0.824
  973SOL     OW 3817   0.508   4.933   6.577
  973SOL    HW1 3818   0.473   4.872   6.506
  973SOL    HW2 3819   0.511   5.027   6.544
  974SOL     OW 3820   3.958   0.866   2.147
  974SOL    HW1 3821   3.973   0.800   2.220
  974SOL    HW2 3822   3.931   0.818   2.064
  975SOL     OW 3823   2.814   6.282   6.412
  975SOL    HW1 3824   2.798   6.345   6.336
  975SOL    HW2 3825   2.811   6.333   6.498
  976SOL     OW 3826   6.766   2.599   2.541
  976SOL    HW1 3827   6.715   2.522   2.581
  976SOL    HW2 3828   6.761   2.678   2.602
  977SOL     OW 3829   2.019   1.584   4.433
  977SOL    HW1 3830   2.033   1.578   4.532
  977SOL    HW2 3831   1.928   1.621   4.415
  978SOL     OW 3832   5.264   4.102   4.734
  978SOL    HW1 3833   5.339   4.146   4.784
  978SOL    HW2 3834   5.176   4.134   4.772
  979SOL     OW 3835   6.250   1.299   3.091
  979SOL    HW1 3836   6.260   1.387   3.137
  979SOL    HW2 3837   6.249   1.312   2.992
  980SOL     OW 3838   5.428   2.153   3.575
  980SOL    HW1 3839   5.371   2.191   3.648
  980SOL    HW2 3840   5.524   2.160   3.599
  981SOL     OW 3841   1.650   2.026   4.846
  981SOL    HW1 3842   1.667   1.976   4.931
  981SOL    HW2 3843   1.604   2.112   4.867
  982SOL     OW 3844   1.945   2.408   2.775
  982SOL    HW1 3845   1.950   2.505   2.799
  982SOL    HW2 3846   1.870   2.365   2.827
  983SOL     OW 3847   6.116   2.726   3.577
  983SOL    HW1 3848   6.130   2.726   3.676
  983SOL    HW2 3849   6.184   2.786   3.534
  984SOL     OW 3850   3.534   0.412   5.049
  984SOL    HW1 3851   3.485   0.370   4.973
  984SOL    HW2 3852   3.603   0.475   5.014
  985SOL     OW 3853   4.615   4.619   6.523
  985SOL    HW1 3854   4.582   4.528   6.546
  985SOL    HW2 3855   4.715   4.618   6.516
  986SOL     OW 3856   5.436   5.520   0.034
  986SOL    HW1 3857   5.530   5.546   0.058
  986SOL    HW2 3858   5.375   5.539   0.111
  987SOL     OW 3859   3.984   6.894   1.026
  987SOL    HW1 3860   4.012   6.910   1.120
  987SOL    HW2 3861   3.995   6.797   1.003
  988SOL     OW 3862   4.173   2.509   1.264
  988SOL    HW1 3863   4.091   2.556   1.296
  988SOL    HW2 3864   4.253   2.547   1.310
  989SOL     OW 3865   0.359   0.942   5.939
  989SOL    HW1 3866   0.293   1.012   5.966
  989SOL    HW2 3867   0.392   0.961   5.847
  990SOL     OW 3868   5.148   6.854   3.690
  990SOL    HW1 3869   5.223   6.818   3.745
  990SOL    HW2 3870   5.123   6.788   3.619
  991SOL     OW 3871   1.668   1.859   5.076
  991SOL    HW1 3872   1.706   1.851   5.168
  991SOL    HW2 3873   1.596   1.791   5.063
  992SOL     OW 3874   0.879   3.282   0.556
  992SOL    HW1 3875   0.894   3.334   0.472
  992SOL    HW2 3876   0.877   3.184   0.535
  993SOL     OW 3877   2.145   5.106   2.673
  993SOL    HW1 3878   2.064   5.143   2.719
  993SOL    HW2 3879   2.159   5.154   2.586
  994SOL     OW 3880   3.498   3.619   3.055
  994SOL    HW1 3881   3.555   3.608   3.137
  994SOL    HW2 3882   3.444   3.536   3.041
  995SOL     OW 3883   2.575   2.627   6.320
  995SOL    HW1 3884   2.552   2.648   6.415
  995SOL    HW2 3885   2.510   2.560   6.284
  996SOL     OW 3886   1.823   3.843   3.894
  996SOL    HW1 3887   1.814   3.782   3.815
  996SOL    HW2 3888   1.749   3.823   3.959
  997SOL     OW 3889   0.132   0.076   1.494
  997SOL    HW1 3890   0.123   0.170   1.527
  997SOL    HW2 3891   0.100   0.012   1.565
  998SOL     OW 3892   4.799   0.060   3.395
  998SOL    HW1 3893   4.857   0.044   3.315
  998SOL    HW2 3894   4.829   0.003   3.471
  999SOL     OW 3895   5.210   5.203   1.475
  999SOL    HW1 3896   5.236   5.108   1.456
  999SOL    HW2 3897   5.140   5.205   1.547
 1000SOL     OW 3898   0.778   1.033   2.514
 1000SOL    HW1 3899   0.730   1.040   2.602
 1000SOL    HW2 3900   0.825   0.945   2.509
 1001SOL     OW 3901   4.513   6.844   6.590
 1001SOL    HW1 3902   4.541   6.784   6.665
 1001SOL    HW2 3903   4.419   6.876   6.606
 1002SOL     OW 3904   5.345   1.801   6.455
 1002SOL    HW1 3905   5.375   1.844   6.370
 1002SOL    HW2 3906   5.359   1.702   6.449
 1003SOL     OW 3907   2.810   6.983   1.617
 1003SOL    HW1 3908   2.823   7.010   1.521
 1003SOL    HW2 3909   2.896   6.946   1.652
 1004SOL     OW 3910   6.672   0.584   0.151
 1004SOL    HW1 3911   6.661   0.564   0.053
 1004SOL    HW2 3912   6.636   0.675   0.170
 1005SOL     OW 3913   6.716   0.928   2.949
 1005SOL    HW1 3914   6.745   0.976   2.866
 1005SOL    HW2 3915   6.709   0.994   3.024
 1006SOL     OW 3916   2.355   6.073   1.376
 1006SOL    HW1 3917   2.340   5.977   1.357
 1006SOL    HW2 3918   2.321   6.094   1.468
 1007SOL     OW 3919   6.156   0.109   3.623
 1007SOL    HW1 3920   6.082   0.078   3.681
 1007SOL    HW2 3921   6.241   0.114   3.676
 1008SOL     OW 3922   1.193   2.997   4.291
 1008SOL    HW1 3923   1.209   3.090   4.324
 1008SOL    HW2 3924   1.094   2.980   4.286
 1009SOL     OW 3925   6.922   5.557   3.818
 1009SOL    HW1 3926   6.878   5.641   3.847
 1009SOL    HW2 3927   6.855   5.499   3.771
 1010SOL     OW 3928   4.182   2.683   0.281
 1010SOL    HW1 3929   4.161   2.725   0.193
 1010SOL    HW2 3930   4.203   2.586   0.267
 1011SOL     OW 3931   2.782   5.582   3.111
 1011SOL    HW1 3932   2.696   5.633   3.112
 1011SOL    HW2 3933   2.769   5.494   3.065
 1012SOL     OW 3934   6.693   5.256   0.314
 1012SOL    HW1 3935   6.610   5.275   0.365
 1012SOL    HW2 3936   6.692   5.161   0.281
 1013SOL     OW 3937   0.533   1.528   6.589
 1013SOL    HW1 3938   0.620   1.523   6.639
 1013SOL    HW2 3939   0.526   1.618   6.544
 1014SOL     OW 3940   5.234   5.881   0.078
 1014SOL    HW1 3941   5.184   5.872   7.017
 1014SOL    HW2 3942   5.238   5.792   0.123
 1015SOL     OW 3943   3.052   6.808   5.278
 1015SOL    HW1 3944   2.953   6.819   5.264
 1015SOL    HW2 3945   3.101   6.859   5.207
 1016SOL     OW 3946   2.390   3.036   0.922
 1016SOL    HW1 3947   2.327   3.064   0.994
 1016SOL    HW2 3948   2.399   3.110   0.854
 1017SOL     OW 3949   4.577   2.821   0.467
 1017SOL    HW1 3950   4.512   2.888   0.432
 1017SOL    HW2 3951   4.640   2.794   0.394
 1018SOL     OW 3952   1.706   3.468   4.036
 1018SOL    HW1 3953   1.726   3.422   3.950
 1018SOL    HW2 3954   1.762   3.551   4.042
 1019SOL     OW 3955   0.637   1.093   0.216
 1019SOL    HW1 3956   0.545   1.065   0.244
 1019SOL    HW2 3957   0.701   1.017   0.229
 1020SOL     OW 3958   1.370   6.974   1.200
 1020SOL    HW1 3959   1.298   0.019   1.203
 1020SOL    HW2 3960   1.459   7.018   1.191
 1021SOL     OW 3961   6.096   0.956   0.709
 1021SOL    HW1 3962   6.048   1.038   0.740
 1021SOL    HW2 3963   6.054   0.875   0.749
 1022SOL     OW 3964   4.117   5.056   6.038
 1022SOL    HW1 3965   4.094   5.074   6.134
 1022SOL    HW2 3966   4.212   5.024   6.032
 1023SOL     OW 3967   6.770   6.724   2.751
 1023SOL    HW1 3968   6.691   6.784   2.741
 1023SOL    HW2 3969   6.833   6.764   2.818
 1024SOL     OW 3970   6.635   2.775   4.437
 1024SOL    HW1 3971   6.725   2.732   4.436
 1024SOL    HW2 3972   6.638   2.859   4.491
 1025SOL     OW 3973   3.784   4.240   0.266
 1025SOL    HW1 3974   3.765   4.163   0.327
 1025SOL    HW2 3975   3.883   4.254   0.260
 1026SOL     OW 3976   1.211   1.499   0.644
 1026SOL    HW1 3977   1.286   1.465   0.587
 1026SOL    HW2 3978   1.168   1.577   0.597
 1027SOL     OW 3979   3.152   5.919   1.487
 1027SOL    HW1 3980   3.172   5.969   1.571
 1027SOL    HW2 3981   3.155   5.821   1.506
 1028SOL     OW 3982   3.139   5.981   0.099
 1028SOL    HW1 3983   3.087   6.049   0.151
 1028SOL    HW2 3984   3.082   5.944   0.026
 1029SOL     OW 3985   1.874   0.705   0.339
 1029SOL    HW1 3986   1.816   0.773   0.293
 1029SOL    HW2 3987   1.964   0.704   0.297
 1030SOL     OW 3988   3.880   3.216   3.075
 1030SOL    HW1 3989   3.936   3.294   3.103
 1030SOL    HW2 3990   3.857   3.224   2.978
 1031SOL     OW 3991   4.641   5.150   1.088
 1031SOL    HW1 3992   4.652   5.052   1.102
 1031SOL    HW2 3993   4.726   5.197   1.111
 1032SOL     OW 3994   1.353   1.902   4.928
 1032SOL    HW1 3995   1.379   1.969   4.998
 1032SOL    HW2 3996   1.429   1.890   4.864
 1033SOL     OW 3997   1.400   6.854   1.678
 1033SOL    HW1 3998   1.458   6.886   1.752
 1033SOL    HW2 3999   1.442   6.775   1.634
 1034SOL     OW 4000   1.758   6.597   4.706
 1034SOL    HW1 4001   1.750   6.694   4.681
 1034SOL    HW2 4002   1.786   6.544   4.626
 1035SOL     OW 4003   2.677   1.953   3.347
 1035SOL    HW1 4004   2.652   2.045   3.377
 1035SOL    HW2 4005   2.730   1.959   3.263
 1036SOL     OW 4006   3.628   0.296   1.163
 1036SOL    HW1 4007   3.710   0.268   1.213
 1036SOL    HW2 4008   3.587   0.217   1.118
 1037SOL     OW 4009   1.150   1.165   1.006
 1037SOL    HW1 4010   1.075   1.224   1.035
 1037SOL    HW2 4011   1.220   1.221   0.962
 1038SOL     OW 4012   0.959   0.956   5.647
 1038SOL    HW1 4013   0.984   0.867   5.608
 1038SOL    HW2 4014   0.867   0.981   5.615
 1039SOL     OW 4015   4.449   2.382   5.548
 1039SOL    HW1 4016   4.417   2.396   5.454
 1039SOL    HW2 4017   4.518   2.450   5.570
 1040SOL     OW 4018   5.491   3.120   3.048
 1040SOL    HW1 4019   5.532   3.164   3.127
 1040SOL    HW2 4020   5.400   3.158   3.031
 1041SOL     OW 4021   6.714   6.867   4.357
 1041SOL    HW1 4022   6.745   6.798   4.292
 1041SOL    HW2 4023   6.774   6.946   4.352
 1042SOL     OW 4024   3.709   5.002   2.853
 1042SOL    HW1 4025   3.719   5.100   2.869
 1042SOL    HW2 4026   3.705   4.954   2.941
 1043SOL     OW 4027   4.196   1.249   5.896
 1043SOL    HW1 4028   4.172   1.152   5.897
 1043SOL    HW2 4029   4.136   1.299   5.958
 1044SOL     OW 4030   4.392   2.563   1.743
 1044SOL    HW1 4031   4.420   2.498   1.673
 1044SOL    HW2 4032   4.472   2.590   1.798
 1045SOL     OW 4033   2.843   0.209   1.254
 1045SOL    HW1 4034   2.752   0.226   1.216
 1045SOL    HW2 4035   2.842   0.126   1.309
 1046SOL     OW 4036   2.350   6.830   6.516
 1046SOL    HW1 4037   2.335   6.798   6.609
 1046SOL    HW2 4038   2.319   6.760   6.451
 1047SOL     OW 4039   1.437   5.436   3.026
 1047SOL    HW1 4040   1.417   5.496   2.948
 1047SOL    HW2 4041   1.373   5.359   3.027
 1048SOL     OW 4042   4.564   5.577   5.226
 1048SOL    HW1 4043   4.647   5.573   5.170
 1048SOL    HW2 4044   4.488   5.535   5.176
 1049SOL     OW 4045   0.515   4.302   4.622
 1049SOL    HW1 4046   0.541   4.280   4.716
 1049SOL    HW2 4047   0.499   4.217   4.572
 1050SOL     OW 4048   2.483   5.520   0.824
 1050SOL    HW1 4049   2.389   5.487   0.820
 1050SOL    HW2 4050   2.542   5.448   0.860
 1051SOL     OW 4051   3.911   4.561   0.502
 1051SOL    HW1 4052   3.895   4.597   0.594
 1051SOL    HW2 4053   3.985   4.612   0.459
 1052SOL     OW 4054   4.578   0.156   4.130
 1052SOL    HW1 4055   4.500   0.194   4.081
 1052SOL    HW2 4056   4.551   0.133   4.223
 1053SOL     OW 4057   5.640   5.769   3.588
 1053SOL    HW1 4058   5.566   5.736   3.646
 1053SOL    HW2 4059   5.696   5.833   3.639
 1054SOL     OW 4060   2.399   4.890   5.605
 1054SOL    HW1 4061   2.334   4.875   5.680
 1054SOL    HW2 4062   2.399   4.810   5.545
 1055SOL     OW 4063   5.388   6.282   4.649
 1055SOL    HW1 4064   5.411   6.308   4.742
 1055SOL    HW2 4065   5.436   6.197   4.625
 1056SOL     OW 4066   1.345   6.527   5.561
 1056SOL    HW1 4067   1.313   6.610   5.607
 1056SOL    HW2 4068   1.435   6.502   5.596
 1057SOL     OW 4069   3.100   3.764   3.234
 1057SOL    HW1 4070   3.174   3.742   3.297
 1057SOL    HW2 4071   3.074   3.682   3.183
 1058SOL     OW 4072   4.643   1.337   2.800
 1058SOL    HW1 4073   4.555   1.384   2.794
 1058SOL    HW2 4074   4.671   1.307   2.709
 1059SOL     OW 4075   3.068   0.572   1.820
 1059SOL    HW1 4076   3.063   0.618   1.909
 1059SOL    HW2 4077   3.052   0.638   1.747
 1060SOL     OW 4078   0.270   3.884   5.633
 1060SOL    HW1 4079   0.322   3.841   5.559
 1060SOL    HW2 4080   0.187   3.832   5.651
 1061SOL     OW 4081   4.370   4.567   1.138
 1061SOL    HW1 4082   4.426   4.504   1.084
 1061SOL    HW2 4083   4.306   4.515   1.195
 1062SOL     OW 4084   7.000   6.142   5.911
 1062SOL    HW1 4085   6.927   6.123   5.977
 1062SOL    HW2 4086   6.966   6.128   5.818
 1063SOL     OW 4087   1.152   3.995   1.236
 1063SOL    HW1 4088   1.213   3.958   1.167
 1063SOL    HW2 4089   1.058   3.967   1.217
 1064SOL     OW 4090   0.857   3.644   2.534
 1064SOL    HW1 4091   0.843   3.574   2.604
 1064SOL    HW2 4092   0.940   3.623   2.482
 1065SOL     OW 4093   4.395   0.665   5.188
 1065SOL    HW1 4094   4.461   0.698   5.121
 1065SOL    HW2 4095   4.444   0.628   5.267
 1066SOL     OW 4096   5.019   0.285   4.149
 1066SOL    HW1 4097   4.970   0.213   4.199
 1066SOL    HW2 4098   4.953   0.343   4.102
 1067SOL     OW 4099   1.285   2.930   0.749
 1067SOL    HW1 4100   1.295   3.023   0.785
 1067SOL    HW2 4101   1.268   2.867   0.825
 1068SOL     OW 4102   5.895   3.576   1.916
 1068SOL    HW1 4103   5.817   3.639   1.914
 1068SOL    HW2 4104   5.876   3.497   1.858
 1069SOL     OW 4105   4.679   4.893   1.148
 1069SOL    HW1 4106   4.744   4.884   1.224
 1069SOL    HW2 4107   4.704   4.829   1.075
 1070SOL     OW 4108   1.023   0.848   6.208
 1070SOL    HW1 4109   1.121   0.828   6.201
 1070SOL    HW2 4110   0.980   0.834   6.119
 1071SOL     OW 4111   3.820   0.771   3.447
 1071SOL    HW1 4112   3.881   0.844   3.478
 1071SOL    HW2 4113   3.839   0.752   3.350
 1072SOL     OW 4114   1.949   6.039   2.343
 1072SOL    HW1 4115   1.980   6.018   2.436
 1072SOL    HW2 4116   1.909   5.958   2.302
 1073SOL     OW 4117   3.349   5.708   2.336
 1073SOL    HW1 4118   3.363   5.791   2.391
 1073SOL    HW2 4119   3.299   5.732   2.253
 1074SOL     OW 4120   1.935   5.705   1.860
 1074SOL    HW1 4121   1.966   5.724   1.953
 1074SOL    HW2 4122   1.835   5.711   1.857
 1075SOL     OW 4123   5.060   5.058   3.281
 1075SOL    HW1 4124   5.059   5.158   3.281
 1075SOL    HW2 4125   4.984   5.023   3.226
 1076SOL     OW 4126   0.723   4.617   5.221
 1076SOL    HW1 4127   0.776   4.572   5.149
 1076SOL    HW2 4128   0.627   4.622   5.194
 1077SOL     OW 4129   6.000   6.957   0.292
 1077SOL    HW1 4130   6.092   6.996   0.294
 1077SOL    HW2 4131   5.998   6.872   0.346
 1078SOL     OW 4132   1.310   1.022   2.159
 1078SOL    HW1 4133   1.339   1.116   2.145
 1078SOL    HW2 4134   1.213   1.020   2.183
 1079SOL     OW 4135   1.720   5.150   3.381
 1079SOL    HW1 4136   1.753   5.226   3.325
 1079SOL    HW2 4137   1.770   5.067   3.357
 1080SOL     OW 4138   2.223   4.653   3.403
 1080SOL    HW1 4139   2.178   4.728   3.452
 1080SOL    HW2 4140   2.240   4.680   3.309
 1081SOL     OW 4141   0.067   1.625   5.475
 1081SOL    HW1 4142   0.079   1.721   5.501
 1081SOL    HW2 4143   7.001   1.613   5.435
 1082SOL     OW 4144   1.531   0.356   5.792
 1082SOL    HW1 4145   1.476   0.438   5.801
 1082SOL    HW2 4146   1.586   0.342   5.874
 1083SOL     OW 4147   3.714   4.132   1.873
 1083SOL    HW1 4148   3.801   4.093   1.843
 1083SOL    HW2 4149   3.688   4.205   1.810
 1084SOL     OW 4150   6.612   5.410   0.570
 1084SOL    HW1 4151   6.557   5.447   0.496
 1084SOL    HW2 4152   6.707   5.441   0.560
 1085SOL     OW 4153   1.936   4.086   3.836
 1085SOL    HW1 4154   1.892   4.002   3.866
 1085SOL    HW2 4155   1.912   4.104   3.740
 1086SOL     OW 4156   6.071   5.421   3.183
 1086SOL    HW1 4157   5.983   5.469   3.175
 1086SOL    HW2 4158   6.055   5.329   3.219
 1087SOL     OW 4159   5.101   3.019   5.697
 1087SOL    HW1 4160   5.053   3.106   5.689
 1087SOL    HW2 4161   5.115   2.997   5.793
 1088SOL     OW 4162   6.276   4.602   3.222
 1088SOL    HW1 4163   6.303   4.664   3.296
 1088SOL    HW2 4164   6.314   4.511   3.239
 1089SOL     OW 4165   0.522   0.426   4.552
 1089SOL    HW1 4166   0.474   0.444   4.466
 1089SOL    HW2 4167   0.620   0.444   4.540
 1090SOL     OW 4168   2.847   1.418   4.263
 1090SOL    HW1 4169   2.757   1.388   4.231
 1090SOL    HW2 4170   2.895   1.465   4.190
 1091SOL     OW 4171   1.981   2.060   3.796
 1091SOL    HW1 4172   1.928   1.997   3.852
 1091SOL    HW2 4173   1.920   2.128   3.755
 1092SOL     OW 4174   2.017   3.883   1.593
 1092SOL    HW1 4175   2.029   3.888   1.493
 1092SOL    HW2 4176   2.047   3.793   1.625
 1093SOL     OW 4177   1.915   1.809   2.796
 1093SOL    HW1 4178   1.905   1.815   2.696
 1093SOL    HW2 4179   1.955   1.720   2.819
 1094SOL     OW 4180   0.097   6.458   2.827
 1094SOL    HW1 4181   0.173   6.449   2.763
 1094SOL    HW2 4182   0.012   6.434   2.781
 1095SOL     OW 4183   6.231   2.273   6.064
 1095SOL    HW1 4184   6.289   2.346   6.099
 1095SOL    HW2 4185   6.245   2.264   5.965
 1096SOL     OW 4186   3.474   4.925   1.617
 1096SOL    HW1 4187   3.502   4.997   1.553
 1096SOL    HW2 4188   3.376   4.937   1.638
 1097SOL     OW 4189   1.017   4.718   4.837
 1097SOL    HW1 4190   1.097   4.662   4.859
 1097SOL    HW2 4191   0.998   4.780   4.914
 1098SOL     OW 4192   5.128   2.489   0.782
 1098SOL    HW1 4193   5.206   2.498   0.720
 1098SOL    HW2 4194   5.062   2.424   0.744
 1099SOL     OW 4195   4.165   1.548   4.998
 1099SOL    HW1 4196   4.112   1.632   5.008
 1099SOL    HW2 4197   4.140   1.484   5.071
 1100SOL     OW 4198   1.588   1.591   6.343
 1100SOL    HW1 4199   1.520   1.656   6.378
 1100SOL    HW2 4200   1.543   1.523   6.286
 1101SOL     OW 4201   5.421   3.168   1.082
 1101SOL    HW1 4202   5.348   3.103   1.098
 1101SOL    HW2 4203   5.382   3.256   1.053
 1102SOL     OW 4204   1.253   4.979   4.082
 1102SOL    HW1 4205   1.350   4.977   4.055
 1102SOL    HW2 4206   1.196   4.954   4.004
 1103SOL     OW 4207   2.436   0.651   1.723
 1103SOL    HW1 4208   2.355   0.650   1.664
 1103SOL    HW2 4209   2.408   0.645   1.819
 1104SOL     OW 4210   2.061   4.269   6.251
 1104SOL    HW1 4211   2.029   4.340   6.189
 1104SOL    HW2 4212   2.146   4.230   6.216
 1105SOL     OW 4213   4.621   4.162   6.174
 1105SOL    HW1 4214   4.584   4.204   6.256
 1105SOL    HW2 4215   4.720   4.154   6.182
 1106SOL     OW 4216   1.317   1.902   6.651
 1106SOL    HW1 4217   1.248   1.871   6.717
 1106SOL    HW2 4218   1.402   1.923   6.700
 1107SOL     OW 4219   0.516   0.528   6.517
 1107SOL    HW1 4220   0.523   0.442   6.467
 1107SOL    HW2 4221   0.428   0.533   6.564
 1108SOL     OW 4222   2.736   0.511   5.594
 1108SOL    HW1 4223   2.816   0.560   5.559
 1108SOL    HW2 4224   2.686   0.572   5.656
 1109SOL     OW 4225   4.014   5.274   4.585
 1109SOL    HW1 4226   4.063   5.354   4.619
 1109SOL    HW2 4227   3.915   5.289   4.595
 1110SOL     OW 4228   3.458   1.837   2.009
 1110SOL    HW1 4229   3.484   1.780   2.088
 1110SOL    HW2 4230   3.365   1.871   2.022
 1111SOL     OW 4231   5.397   6.053   6.880
 1111SOL    HW1 4232   5.374   6.034   6.976
 1111SOL    HW2 4233   5.433   6.146   6.872
 1112SOL     OW 4234   5.969   1.084   2.560
 1112SOL    HW1 4235   5.980   1.160   2.497
 1112SOL    HW2 4236   6.021   1.005   2.526
 1113SOL     OW 4237   6.378   3.128   2.242
 1113SOL    HW1 4238   6.359   3.086   2.154
 1113SOL    HW2 4239   6.292   3.136   2.294
 1114SOL     OW 4240   4.637   1.319   6.528
 1114SOL    HW1 4241   4.570   1.320   6.602
 1114SOL    HW2 4242   4.726   1.346   6.564
 1115SOL     OW 4243   4.384   2.906   0.297
 1115SOL    HW1 4244   4.342   2.995   0.311
 1115SOL    HW2 4245   4.316   2.834   0.308
 1116SOL     OW 4246   5.377   5.349   4.131
 1116SOL    HW1 4247   5.474   5.372   4.122
 1116SOL    HW2 4248   5.336   5.406   4.202
 1117SOL     OW 4249   2.926   2.692   1.467
 1117SOL    HW1 4250   2.939   2.712   1.564
 1117SOL    HW2 4251   2.830   2.672   1.449
 1118SOL     OW 4252   0.882   4.969   2.734
 1118SOL    HW1 4253   0.976   5.003   2.729
 1118SOL    HW2 4254   0.818   5.045   2.720
 1119SOL     OW 4255   3.666   3.887   1.279
 1119SOL    HW1 4256   3.597   3.936   1.333
 1119SOL    HW2 4257   3.745   3.867   1.337
 1120SOL     OW 4258   5.318   6.734   5.878
 1120SOL    HW1 4259   5.375   6.689   5.809
 1120SOL    HW2 4260   5.312   6.832   5.857
 1121SOL     OW 4261   5.222   3.128   2.226
 1121SOL    HW1 4262   5.278   3.202   2.188
 1121SOL    HW2 4263   5.135   3.124   2.178
 1122SOL     OW 4264   4.972   2.592   6.118
 1122SOL    HW1 4265   5.033   2.537   6.173
 1122SOL    HW2 4266   5.009   2.685   6.108
 1123SOL     OW 4267   4.409   1.417   2.063
 1123SOL    HW1 4268   4.439   1.349   1.996
 1123SOL    HW2 4269   4.450   1.506   2.041
 1124SOL     OW 4270   0.278   4.133   4.805
 1124SOL    HW1 4271   0.258   4.054   4.865
 1124SOL    HW2 4272   0.303   4.211   4.862
 1125SOL     OW 4273   2.720   2.083   5.122
 1125SOL    HW1 4274   2.651   2.154   5.112
 1125SOL    HW2 4275   2.676   1.993   5.116
 1126SOL     OW 4276   4.817   6.669   6.512
 1126SOL    HW1 4277   4.888   6.739   6.505
 1126SOL    HW2 4278   4.739   6.695   6.455
 1127SOL     OW 4279   3.414   4.330   5.883
 1127SOL    HW1 4280   3.345   4.350   5.814
 1127SOL    HW2 4281   3.479   4.405   5.888
 1128SOL     OW 4282   4.351   2.067   4.227
 1128SOL    HW1 4283   4.395   2.010   4.158
 1128SOL    HW2 4284   4.359   2.023   4.316
 1129SOL     OW 4285   3.656   0.068   0.089
 1129SOL    HW1 4286   3.745   0.086   0.131
 1129SOL    HW2 4287   3.629   6.998   0.107
 1130SOL     OW 4288   1.704   4.152   0.528
 1130SOL    HW1 4289   1.745   4.115   0.611
 1130SOL    HW2 4290   1.775   4.197   0.473
 1131SOL     OW 4291   0.642   6.688   5.847
 1131SOL    HW1 4292   0.645   6.598   5.804
 1131SOL    HW2 4293   0.716   6.695   5.914
 1132SOL     OW 4294   5.118   0.442   6.984
 1132SOL    HW1 4295   5.070   0.495   0.029
 1132SOL    HW2 4296   5.082   0.467   6.894
 1133SOL     OW 4297   6.855   2.062   1.471
 1133SOL    HW1 4298   6.911   1.990   1.511
 1133SOL    HW2 4299   6.867   2.063   1.372
 1134SOL     OW 4300   5.697   1.919   6.907
 1134SOL    HW1 4301   5.673   2.016   6.917
 1134SOL    HW2 4302   5.651   1.866   6.978
 1135SOL     OW 4303   3.177   1.972   2.761
 1135SOL    HW1 4304   3.217   2.046   2.816
 1135SOL    HW2 4305   3.081   1.992   2.744
 1136SOL     OW 4306   2.890   4.858   4.363
 1136SOL    HW1 4307   2.908   4.897   4.453
 1136SOL    HW2 4308   2.960   4.888   4.299
 1137SOL     OW 4309   1.057   2.629   0.024
 1137SOL    HW1 4310   0.975   2.684   0.013
 1137SOL    HW2 4311   1.082   2.625   0.121
 1138SOL     OW 4312   1.809   2.422   5.781
 1138SOL    HW1 4313   1.854   2.442   5.693
 1138SOL    HW2 4314   1.717   2.460   5.780
 1139SOL     OW 4315   2.214   6.446   2.698
 1139SOL    HW1 4316   2.158   6.400   2.629
 1139SOL    HW2 4317   2.180   6.422   2.789
 1140SOL     OW 4318   4.148   2.256   2.731
 1140SOL    HW1 4319   4.202   2.319   2.787
 1140SOL    HW2 4320   4.179   2.260   2.636
 1141SOL     OW 4321   5.959   5.632   6.154
 1141SOL    HW1 4322   5.958   5.625   6.055
 1141SOL    HW2 4323   5.874   5.677   6.185
 1142SOL     OW 4324   5.121   0.412   4.766
 1142SOL    HW1 4325   5.194   0.440   4.704
 1142SOL    HW2 4326   5.039   0.388   4.713
 1143SOL     OW 4327   3.855   2.165   2.752
 1143SOL    HW1 4328   3.938   2.220   2.747
 1143SOL    HW2 4329   3.800   2.180   2.669
 1144SOL     OW 4330   0.123   4.391   4.516
 1144SOL    HW1 4331   0.223   4.390   4.520
 1144SOL    HW2 4332   0.087   4.339   4.593
 1145SOL     OW 4333   0.007   5.176   3.476
 1145SOL    HW1 4334   0.059   5.118   3.413
 1145SOL    HW2 4335   0.071   5.228   3.533
 1146SOL     OW 4336   5.437   1.492   1.224
 1146SOL    HW1 4337   5.384   1.424   1.173
 1146SOL    HW2 4338   5.375   1.548   1.280
 1147SOL     OW 4339   1.687   3.856   0.848
 1147SOL    HW1 4340   1.728   3.775   0.889
 1147SOL    HW2 4341   1.758   3.909   0.802
 1148SOL     OW 4342   2.965   5.842   6.470
 1148SOL    HW1 4343   2.965   5.787   6.554
 1148SOL    HW2 4344   2.891   5.811   6.410
 1149SOL     OW 4345   5.585   3.240   3.271
 1149SOL    HW1 4346   5.532   3.189   3.339
 1149SOL    HW2 4347   5.682   3.236   3.295
 1150SOL     OW 4348   2.154   4.442   1.401
 1150SOL    HW1 4349   2.138   4.528   1.352
 1150SOL    HW2 4350   2.243   4.406   1.377
 1151SOL     OW 4351   5.729   5.605   6.666
 1151SOL    HW1 4352   5.805   5.540   6.677
 1151SOL    HW2 4353   5.689   5.624   6.756
 1152SOL     OW 4354   1.249   6.960   4.579
 1152SOL    HW1 4355   1.187   0.013   4.585
 1152SOL    HW2 4356   1.278   6.934   4.671
 1153SOL     OW 4357   2.373   6.558   2.505
 1153SOL    HW1 4358   2.309   6.515   2.568
 1153SOL    HW2 4359   2.347   6.537   2.411
 1154SOL     OW 4360   0.194   3.175   1.663
 1154SOL    HW1 4361   0.225   3.148   1.571
 1154SOL    HW2 4362   0.180   3.274   1.666
 1155SOL     OW 4363   3.414   5.669   0.113
 1155SOL    HW1 4364   3.385   5.735   0.044
 1155SOL    HW2 4365   3.447   5.717   0.194
 1156SOL     OW 4366   2.154   0.439   3.517
 1156SOL    HW1 4367   2.120   0.532   3.514
 1156SOL    HW2 4368   2.252   0.438   3.499
 1157SOL     OW 4369   6.918   2.459   4.265
 1157SOL    HW1 4370   6.992   2.396   4.243
 1157SOL    HW2 4371   6.839   2.407   4.299
 1158SOL     OW 4372   5.734   5.276   5.571
 1158SOL    HW1 4373   5.698   5.330   5.495
 1158SOL    HW2 4374   5.746   5.181   5.542
 1159SOL     OW 4375   4.399   0.334   2.848
 1159SOL    HW1 4376   4.388   0.245   2.805
 1159SOL    HW2 4377   4.309   0.374   2.865
 1160SOL     OW 4378   3.937   3.603   1.454
 1160SOL    HW1 4379   3.936   3.589   1.355
 1160SOL    HW2 4380   4.014   3.662   1.479
 1161SOL     OW 4381   5.175   6.996   5.254
 1161SOL    HW1 4382   5.165   6.916   5.195
 1161SOL    HW2 4383   5.117   0.045   5.220
 1162SOL     OW 4384   3.903   2.848   0.948
 1162SOL    HW1 4385   3.953   2.879   0.867
 1162SOL    HW2 4386   3.948   2.768   0.986
 1163SOL     OW 4387   5.231   2.183   2.348
 1163SOL    HW1 4388   5.264   2.250   2.282
 1163SOL    HW2 4389   5.283   2.193   2.433
 1164SOL     OW 4390   5.348   2.619   3.742
 1164SOL    HW1 4391   5.304   2.553   3.802
 1164SOL    HW2 4392   5.287   2.697   3.729
 1165SOL     OW 4393   1.527   3.721   3.720
 1165SOL    HW1 4394   1.551   3.808   3.677
 1165SOL    HW2 4395   1.435   3.728   3.760
 1166SOL     OW 4396   3.664   1.269   6.942
 1166SOL    HW1 4397   3.575   1.226   6.953
 1166SOL    HW2 4398   3.703   1.289   0.008
 1167SOL     OW 4399   2.899   0.135   5.445
 1167SOL    HW1 4400   2.906   0.152   5.347
 1167SOL    HW2 4401   2.871   0.041   5.461
 1168SOL     OW 4402   5.951   0.041   2.439
 1168SOL    HW1 4403   6.024   6.999   2.428
 1168SOL    HW2 4404   5.990   0.127   2.473
 1169SOL     OW 4405   0.107   2.937   0.284
 1169SOL    HW1 4406   0.062   2.887   0.358
 1169SOL    HW2 4407   0.199   2.964   0.312
 1170SOL     OW 4408   3.896   0.612   1.963
 1170SOL    HW1 4409   3.983   0.655   1.938
 1170SOL    HW2 4410   3.861   0.561   1.884
 1171SOL     OW 4411   2.947   5.836   0.699
 1171SOL    HW1 4412   2.938   5.926   0.741
 1171SOL    HW2 4413   3.041   5.803   0.710
 1172SOL     OW 4414   3.069   3.632   3.819
 1172SOL    HW1 4415   3.043   3.621   3.723
 1172SOL    HW2 4416   3.150   3.691   3.825
 1173SOL     OW 4417   3.539   0.405   5.669
 1173SOL    HW1 4418   3.602   0.328   5.681
 1173SOL    HW2 4419   3.562   0.453   5.585
 1174SOL     OW 4420   2.284   5.927   0.993
 1174SOL    HW1 4421   2.302   5.928   0.895
 1174SOL    HW2 4422   2.359   5.973   1.041
 1175SOL     OW 4423   5.382   4.150   0.003
 1175SOL    HW1 4424   5.398   4.248   0.018
 1175SOL    HW2 4425   5.284   4.132   0.006
 1176SOL     OW 4426   6.061   4.894   0.727
 1176SOL    HW1 4427   6.125   4.825   0.762
 1176SOL    HW2 4428   6.108   4.981   0.716
 1177SOL     OW 4429   0.182   2.217   5.031
 1177SOL    HW1 4430   0.201   2.295   5.090
 1177SOL    HW2 4431   0.265   2.193   4.980
 1178SOL     OW 4432   4.719   4.162   1.800
 1178SOL    HW1 4433   4.626   4.184   1.829
 1178SOL    HW2 4434   4.720   4.145   1.702
 1179SOL     OW 4435   2.424   4.274   0.790
 1179SOL    HW1 4436   2.348   4.333   0.763
 1179SOL    HW2 4437   2.463   4.308   0.876
 1180SOL     OW 4438   2.762   0.879   3.544
 1180SOL    HW1 4439   2.774   0.873   3.643
 1180SOL    HW2 4440   2.772   0.975   3.515
 1181SOL     OW 4441   1.233   3.755   4.663
 1181SOL    HW1 4442   1.138   3.781   4.645
 1181SOL    HW2 4443   1.267   3.699   4.587
 1182SOL     OW 4444   1.707   4.483   3.050
 1182SOL    HW1 4445   1.681   4.404   2.994
 1182SOL    HW2 4446   1.674   4.567   3.007
 1183SOL     OW 4447   4.643   5.569   2.505
 1183SOL    HW1 4448   4.654   5.668   2.502
 1183SOL    HW2 4449   4.653   5.537   2.599
 1184SOL     OW 4450   3.296   2.777   5.634
 1184SOL    HW1 4451   3.290   2.858   5.575
 1184SOL    HW2 4452   3.211   2.724   5.626
 1185SOL     OW 4453   2.265   0.145   0.216
 1185SOL    HW1 4454   2.244   0.243   0.219
 1185SOL    HW2 4455   2.294   0.120   0.124
 1186SOL     OW 4456   5.968   0.021   5.907
 1186SOL    HW1 4457   5.960   0.107   5.856
 1186SOL    HW2 4458   5.904   6.979   5.870
 1187SOL     OW 4459   5.246   6.421   5.386
 1187SOL    HW1 4460   5.171   6.373   5.342
 1187SOL    HW2 4461   5.249   6.516   5.353
 1188SOL     OW 4462   2.987   6.630   6.548
 1188SOL    HW1 4463   2.929   6.562   6.592
 1188SOL    HW2 4464   3.038   6.587   6.473
 1189SOL     OW 4465   4.738   1.311   2.537
 1189SOL    HW1 4466   4.720   1.383   2.471
 1189SOL    HW2 4467   4.686   1.229   2.512
 1190SOL     OW 4468   4.240   4.763   4.334
 1190SOL    HW1 4469   4.246   4.788   4.431
 1190SOL    HW2 4470   4.157   4.709   4.318
 1191SOL     OW 4471   3.647   5.063   5.977
 1191SOL    HW1 4472   3.554   5.076   5.941
 1191SOL    HW2 4473   3.646   4.988   6.043
 1192SOL     OW 4474   5.384   4.588   2.816
 1192SOL    HW1 4475   5.469   4.639   2.807
 1192SOL    HW2 4476   5.306   4.648   2.800
 1193SOL     OW 4477   6.409   6.925   4.456
 1193SOL    HW1 4478   6.473   6.887   4.390
 1193SOL    HW2 4479   6.440   7.017   4.483
 1194SOL     OW 4480   0.117   1.117   0.682
 1194SOL    HW1 4481   0.075   1.093   0.595
 1194SOL    HW2 4482   0.122   1.217   0.691
 1195SOL     OW 4483   6.171   1.997   0.391
 1195SOL    HW1 4484   6.152   1.899   0.399
 1195SOL    HW2 4485   6.218   2.029   0.473
 1196SOL     OW 4486   0.033   4.975   1.850
 1196SOL    HW1 4487   6.965   4.960   1.816
 1196SOL    HW2 4488   0.087   4.892   1.838
 1197SOL     OW 4489   3.714   5.903   5.719
 1197SOL    HW1 4490   3.619   5.916   5.746
 1197SOL    HW2 4491   3.736   5.963   5.642
 1198SOL     OW 4492   2.176   2.778   2.075
 1198SOL    HW1 4493   2.149   2.697   2.023
 1198SOL    HW2 4494   2.252   2.756   2.136
 1199SOL     OW 4495   4.025   3.629   3.121
 1199SOL    HW1 4496   4.031   3.728   3.103
 1199SOL    HW2 4497   4.057   3.610   3.214
 1200SOL     OW 4498   4.169   3.906   5.232
 1200SOL    HW1 4499   4.105   3.906   5.309
 1200SOL    HW2 4500   4.259   3.937   5.263
 1201SOL     OW 4501   0.929   1.400   4.570
 1201SOL    HW1 4502   0.989   1.401   4.650
 1201SOL    HW2 4503   0.856   1.333   4.584
 1202SOL     OW 4504   5.947   0.618   6.306
 1202SOL    HW1 4505   5.893   0.548   6.352
 1202SOL    HW2 4506   6.039   0.620   6.344
 1203SOL     OW 4507   5.394   6.952   0.926
 1203SOL    HW1 4508   5.391   6.861   0.886
 1203SOL    HW2 4509   5.488   6.972   0.955
 1204SOL     OW 4510   4.236   1.338   0.583
 1204SOL    HW1 4511   4.170   1.292   0.523
 1204SOL    HW2 4512   4.250   1.283   0.665
 1205SOL     OW 4513   5.425   3.410   6.820
 1205SOL    HW1 4514   5.434   3.472   6.898
 1205SOL    HW2 4515   5.458   3.319   6.845
 1206SOL     OW 4516   1.964   1.321   5.105
 1206SOL    HW1 4517   1.882   1.306   5.049
 1206SOL    HW2 4518   1.991   1.417   5.099
 1207SOL     OW 4519   6.624   6.490   1.033
 1207SOL    HW1 4520   6.658   6.523   1.121
 1207SOL    HW2 4521   6.566   6.559   0.991
 1208SOL     OW 4522   3.804   4.037   2.462
 1208SOL    HW1 4523   3.897   4.073   2.464
 1208SOL    HW2 4524   3.775   4.014   2.554
 1209SOL     OW 4525   5.934   6.140   5.376
 1209SOL    HW1 4526   5.910   6.166   5.282
 1209SOL    HW2 4527   5.916   6.218   5.437
 1210SOL     OW 4528   4.086   0.147   2.886
 1210SOL    HW1 4529   4.064   0.119   2.980
 1210SOL    HW2 4530   4.018   0.214   2.855
 1211SOL     OW 4531   1.776   3.597   3.742
 1211SOL    HW1 4532   1.782   3.512   3.690
 1211SOL    HW2 4533   1.690   3.643   3.721
 1212SOL     OW 4534   0.460   3.119   5.420
 1212SOL    HW1 4535   0.549   3.160   5.398
 1212SOL    HW2 4536   0.444   3.128   5.519
 1213SOL     OW 4537   6.135   2.708   4.926
 1213SOL    HW1 4538   6.205   2.661   4.873
 1213SOL    HW2 4539   6.090   2.643   4.988
 1214SOL     OW 4540   1.598   3.065   4.041
 1214SOL    HW1 4541   1.651   3.037   4.122
 1214SOL    HW2 4542   1.501   3.045   4.056
 1215SOL     OW 4543   2.048   4.099   2.241
 1215SOL    HW1 4544   1.958   4.125   2.205
 1215SOL    HW2 4545   2.113   4.091   2.166
 1216SOL     OW 4546   0.377   6.937   1.404
 1216SOL    HW1 4547   0.287   6.905   1.432
 1216SOL    HW2 4548   0.367   7.016   1.344
 1217SOL     OW 4549   1.190   6.427   0.997
 1217SOL    HW1 4550   1.214   6.342   1.044
 1217SOL    HW2 4551   1.229   6.504   1.047
 1218SOL     OW 4552   1.260   2.987   4.665
 1218SOL    HW1 4553   1.359   2.990   4.652
 1218SOL    HW2 4554   1.239   2.935   4.748
 1219SOL     OW 4555   4.224   5.075   0.863
 1219SOL    HW1 4556   4.244   5.170   0.837
 1219SOL    HW2 4557   4.309   5.023   0.869
 1220SOL     OW 4558   5.236   3.774   2.407
 1220SOL    HW1 4559   5.331   3.805   2.402
 1220SOL    HW2 4560   5.199   3.764   2.315
 1221SOL     OW 4561   6.125   3.702   6.639
 1221SOL    HW1 4562   6.170   3.776   6.590
 1221SOL    HW2 4563   6.181   3.674   6.717
 1222SOL     OW 4564   6.869   0.096   0.624
 1222SOL    HW1 4565   6.952   0.118   0.676
 1222SOL    HW2 4566   6.822   0.180   0.598
 1223SOL     OW 4567   5.580   0.792   0.591
 1223SOL    HW1 4568   5.498   0.848   0.577
 1223SOL    HW2 4569   5.638   0.835   0.661
 1224SOL     OW 4570   3.696   6.640   6.673
 1224SOL    HW1 4571   3.784   6.593   6.669
 1224SOL    HW2 4572   3.708   6.730   6.713
 1225SOL     OW 4573   3.955   1.957   1.132
 1225SOL    HW1 4574   3.939   2.026   1.203
 1225SOL    HW2 4575   4.053   1.949   1.115
 1226SOL     OW 4576   5.694   6.784   0.806
 1226SOL    HW1 4577   5.596   6.769   0.813
 1226SOL    HW2 4578   5.737   6.769   0.895
 1227SOL     OW 4579   5.994   4.898   5.714
 1227SOL    HW1 4580   6.015   4.866   5.806
 1227SOL    HW2 4581   5.994   4.820   5.651
 1228SOL     OW 4582   4.303   3.145   1.830
 1228SOL    HW1 4583   4.220   3.143   1.885
 1228SOL    HW2 4584   4.363   3.219   1.862
 1229SOL     OW 4585   1.333   7.007   2.261
 1229SOL    HW1 4586   1.364   0.054   2.199
 1229SOL    HW2 4587   1.234   7.002   2.258
 1230SOL     OW 4588   5.452   5.635   2.877
 1230SOL    HW1 4589   5.532   5.679   2.837
 1230SOL    HW2 4590   5.373   5.651   2.818
 1231SOL     OW 4591   1.852   2.849   6.291
 1231SOL    HW1 4592   1.878   2.941   6.263
 1231SOL    HW2 4593   1.893   2.782   6.229
 1232SOL     OW 4594   4.236   1.063   5.229
 1232SOL    HW1 4595   4.303   1.091   5.298
 1232SOL    HW2 4596   4.205   1.144   5.178
 1233SOL     OW 4597   0.734   5.112   3.557
 1233SOL    HW1 4598   0.674   5.127   3.479
 1233SOL    HW2 4599   0.828   5.136   3.533
 1234SOL     OW 4600   6.971   2.880   6.783
 1234SOL    HW1 4601   6.962   2.980   6.785
 1234SOL    HW2 4602   6.889   2.839   6.823
 1235SOL     OW 4603   6.328   5.156   6.622
 1235SOL    HW1 4604   6.293   5.241   6.582
 1235SOL    HW2 4605   6.266   5.124   6.693
 1236SOL     OW 4606   3.344   1.606   0.547
 1236SOL    HW1 4607   3.386   1.523   0.511
 1236SOL    HW2 4608   3.407   1.683   0.538
 1237SOL     OW 4609   1.637   0.051   4.913
 1237SOL    HW1 4610   1.564   7.007   4.923
 1237SOL    HW2 4611   1.599   0.134   4.872
 1238SOL     OW 4612   0.330   6.479   3.291
 1238SOL    HW1 4613   0.386   6.399   3.311
 1238SOL    HW2 4614   0.301   6.477   3.195
 1239SOL     OW 4615   6.887   5.304   4.622
 1239SOL    HW1 4616   6.934   5.391   4.606
 1239SOL    HW2 4617   6.881   5.253   4.536
 1240SOL     OW 4618   5.987   5.572   2.313
 1240SOL    HW1 4619   5.894   5.534   2.304
 1240SOL    HW2 4620   6.028   5.539   2.398
 1241SOL     OW 4621   0.125   4.760   4.587
 1241SOL    HW1 4622   0.159   4.713   4.505
 1241SOL    HW2 4623   0.040   4.716   4.617
 1242SOL     OW 4624   2.084   3.913   6.807
 1242SOL    HW1 4625   2.174   3.951   6.784
 1242SOL    HW2 4626   2.018   3.940   6.737
 1243SOL     OW 4627   6.855   2.568   5.213
 1243SOL    HW1 4628   6.776   2.559   5.275
 1243SOL    HW2 4629   6.913   2.644   5.244
 1244SOL     OW 4630   5.710   6.593   5.474
 1244SOL    HW1 4631   5.747   6.664   5.415
 1244SOL    HW2 4632   5.682   6.633   5.561
 1245SOL     OW 4633   5.422   5.813   1.159
 1245SOL    HW1 4634   5.430   5.760   1.243
 1245SOL    HW2 4635   5.334   5.794   1.115
 1246SOL     OW 4636   4.501   1.136   1.534
 1246SOL    HW1 4637   4.450   1.197   1.595
 1246SOL    HW2 4638   4.583   1.103   1.582
 1247SOL     OW 4639   6.430   6.488   4.597
 1247SOL    HW1 4640   6.353   6.519   4.652
 1247SOL    HW2 4641   6.397   6.443   4.514
 1248SOL     OW 4642   0.641   6.279   4.734
 1248SOL    HW1 4643   0.600   6.218   4.666
 1248SOL    HW2 4644   0.590   6.272   4.820
 1249SOL     OW 4645   0.067   4.020   1.249
 1249SOL    HW1 4646   0.020   3.976   1.326
 1249SOL    HW2 4647   0.073   3.955   1.173
 1250SOL     OW 4648   6.023   3.502   5.171
 1250SOL    HW1 4649   5.998   3.592   5.207
 1250SOL    HW2 4650   6.045   3.510   5.074
 1251SOL     OW 4651   2.231   1.341   2.823
 1251SOL    HW1 4652   2.262   1.434   2.841
 1251SOL    HW2 4653   2.265   1.281   2.896
 1252SOL     OW 4654   3.411   5.453   6.794
 1252SOL    HW1 4655   3.366   5.429   6.880
 1252SOL    HW2 4656   3.508   5.472   6.812
 1253SOL     OW 4657   3.108   0.649   1.238
 1253SOL    HW1 4658   3.046   0.618   1.310
 1253SOL    HW2 4659   3.163   0.571   1.206
 1254SOL     OW 4660   6.043   1.438   3.324
 1254SOL    HW1 4661   6.028   1.346   3.362
 1254SOL    HW2 4662   6.140   1.458   3.322
 1255SOL     OW 4663   5.643   2.614   5.102
 1255SOL    HW1 4664   5.667   2.528   5.147
 1255SOL    HW2 4665   5.699   2.688   5.140
 1256SOL     OW 4666   6.774   6.071   3.178
 1256SOL    HW1 4667   6.748   5.978   3.154
 1256SOL    HW2 4668   6.710   6.136   3.138
 1257SOL     OW 4669   0.096   4.588   4.315
 1257SOL    HW1 4670   0.003   4.616   4.338
 1257SOL    HW2 4671   0.134   4.533   4.389
 1258SOL     OW 4672   2.043   5.962   3.416
 1258SOL    HW1 4673   2.013   6.053   3.445
 1258SOL    HW2 4674   2.072   5.966   3.320
 1259SOL     OW 4675   4.018   6.918   4.873
 1259SOL    HW1 4676   4.101   6.896   4.925
 1259SOL    HW2 4677   3.998   7.016   4.883
 1260SOL     OW 4678   3.166   0.852   2.057
 1260SOL    HW1 4679   3.097   0.822   1.990
 1260SOL    HW2 4680   3.129   0.841   2.149
 1261SOL     OW 4681   6.992   3.624   0.258
 1261SOL    HW1 4682   6.922   3.596   0.324
 1261SOL    HW2 4683   0.050   3.652   0.308
 1262SOL     OW 4684   4.393   4.852   1.133
 1262SOL    HW1 4685   4.396   4.759   1.097
 1262SOL    HW2 4686   4.484   4.878   1.166
 1263SOL     OW 4687   6.177   2.314   1.369
 1263SOL    HW1 4688   6.152   2.241   1.305
 1263SOL    HW2 4689   6.208   2.394   1.317
 1264SOL     OW 4690   0.399   4.247   3.057
 1264SOL    HW1 4691   0.317   4.243   3.114
 1264SOL    HW2 4692   0.396   4.174   2.989
 1265SOL     OW 4693   0.023   4.332   4.007
 1265SOL    HW1 4694   0.006   4.234   4.017
 1265SOL    HW2 4695   0.106   4.356   4.057
 1266SOL     OW 4696   2.865   1.743   4.668
 1266SOL    HW1 4697   2.870   1.719   4.765
 1266SOL    HW2 4698   2.806   1.823   4.656
 1267SOL     OW 4699   6.208   5.665   2.148
 1267SOL    HW1 4700   6.113   5.647   2.124
 1267SOL    HW2 4701   6.222   5.647   2.245
 1268SOL     OW 4702   5.406   2.285   0.303
 1268SOL    HW1 4703   5.334   2.354   0.296
 1268SOL    HW2 4704   5.495   2.329   0.290
 1269SOL     OW 4705   6.743   6.696   5.398
 1269SOL    HW1 4706   6.761   6.603   5.366
 1269SOL    HW2 4707   6.646   6.716   5.387
 1270SOL     OW 4708   2.068   3.870   4.392
 1270SOL    HW1 4709   2.023   3.797   4.443
 1270SOL    HW2 4710   2.001   3.918   4.336
 1271SOL     OW 4711   3.693   1.805   2.971
 1271SOL    HW1 4712   3.628   1.766   3.036
 1271SOL    HW2 4713   3.720   1.896   3.001
 1272SOL     OW 4714   0.405   6.039   0.958
 1272SOL    HW1 4715   0.376   5.956   0.912
 1272SOL    HW2 4716   0.465   6.016   1.034
 1273SOL     OW 4717   2.342   3.665   7.018
 1273SOL    HW1 4718   2.358   3.708   6.930
 1273SOL    HW2 4719   2.419   3.605   0.015
 1274SOL     OW 4720   0.384   3.003   1.796
 1274SOL    HW1 4721   0.353   2.922   1.845
 1274SOL    HW2 4722   0.306   3.055   1.763
 1275SOL     OW 4723   4.540   0.255   3.859
 1275SOL    HW1 4724   4.502   0.164   3.841
 1275SOL    HW2 4725   4.481   0.324   3.816
 1276SOL     OW 4726   6.875   0.470   3.948
 1276SOL    HW1 4727   6.917   0.384   3.917
 1276SOL    HW2 4728   6.930   0.509   4.022
 1277SOL     OW 4729   0.903   0.674   4.241
 1277SOL    HW1 4730   0.979   0.737   4.224
 1277SOL    HW2 4731   0.872   0.636   4.154
 1278SOL     OW 4732   1.943   1.904   5.057
 1278SOL    HW1 4733   1.970   1.991   5.016
 1278SOL    HW2 4734   1.846   1.908   5.081
 1279SOL     OW 4735   2.100   6.832   0.729
 1279SOL    HW1 4736   2.200   6.835   0.721
 1279SOL    HW2 4737   2.075   6.823   0.825
 1280SOL     OW 4738   2.645   6.575   3.595
 1280SOL    HW1 4739   2.547   6.562   3.613
 1280SOL    HW2 4740   2.673   6.515   3.520
 1281SOL     OW 4741   0.912   5.584   2.743
 1281SOL    HW1 4742   0.980   5.653   2.770
 1281SOL    HW2 4743   0.842   5.628   2.687
 1282SOL     OW 4744   0.597   0.723   0.699
 1282SOL    HW1 4745   0.589   0.652   0.768
 1282SOL    HW2 4746   0.527   0.709   0.629
 1283SOL     OW 4747   5.354   3.708   5.433
 1283SOL    HW1 4748   5.383   3.627   5.484
 1283SOL    HW2 4749   5.429   3.741   5.377
 1284SOL     OW 4750   3.193   2.881   1.831
 1284SOL    HW1 4751   3.280   2.930   1.837
 1284SOL    HW2 4752   3.207   2.797   1.778
 1285SOL     OW 4753   5.713   3.691   6.222
 1285SOL    HW1 4754   5.618   3.708   6.249
 1285SOL    HW2 4755   5.773   3.697   6.302
 1286SOL     OW 4756   4.161   4.697   2.428
 1286SOL    HW1 4757   4.247   4.646   2.432
 1286SOL    HW2 4758   4.115   4.677   2.341
 1287SOL     OW 4759   5.849   4.494   6.695
 1287SOL    HW1 4760   5.864   4.574   6.637
 1287SOL    HW2 4761   5.751   4.482   6.712
 1288SOL     OW 4762   7.021   2.988   1.120
 1288SOL    HW1 4763   0.020   2.893   1.140
 1288SOL    HW2 4764   6.926   2.992   1.088
 1289SOL     OW 4765   0.454   6.046   1.566
 1289SOL    HW1 4766   0.484   6.142   1.572
 1289SOL    HW2 4767   0.506   5.991   1.631
 1290SOL     OW 4768   0.432   1.061   0.449
 1290SOL    HW1 4769   0.356   1.114   0.411
 1290SOL    HW2 4770   0.503   1.124   0.482
 1291SOL     OW 4771   1.653   5.003   6.119
 1291SOL    HW1 4772   1.621   4.918   6.160
 1291SOL    HW2 4773   1.724   4.983   6.051
 1292SOL     OW 4774   6.649   4.893   2.182
 1292SOL    HW1 4775   6.579   4.939   2.236
 1292SOL    HW2 4776   6.739   4.930   2.205
 1293SOL     OW 4777   3.056   1.600   6.238
 1293SOL    HW1 4778   3.014   1.661   6.306
 1293SOL    HW2 4779   2.986   1.565   6.176
 1294SOL     OW 4780   0.532   3.218   0.908
 1294SOL    HW1 4781   0.493   3.128   0.887
 1294SOL    HW2 4782   0.593   3.210   0.987
 1295SOL     OW 4783   6.274   3.928   2.624
 1295SOL    HW1 4784   6.302   3.846   2.575
 1295SOL    HW2 4785   6.335   3.943   2.702
 1296SOL     OW 4786   4.399   1.558   6.152
 1296SOL    HW1 4787   4.444   1.547   6.240
 1296SOL    HW2 4788   4.414   1.476   6.096
 1297SOL     OW 4789   5.388   0.835   6.305
 1297SOL    HW1 4790   5.478   0.873   6.285
 1297SOL    HW2 4791   5.396   0.736   6.320
 1298SOL     OW 4792   6.213   3.276   3.013
 1298SOL    HW1 4793   6.208   3.320   3.103
 1298SOL    HW2 4794   6.186   3.180   3.022
 1299SOL     OW 4795   1.447   4.271   3.100
 1299SOL    HW1 4796   1.475   4.189   3.150
 1299SOL    HW2 4797   1.480   4.266   3.006
 1300SOL     OW 4798   3.781   3.557   2.064
 1300SOL    HW1 4799   3.755   3.535   1.970
 1300SOL    HW2 4800   3.845   3.487   2.097
 1301SOL     OW 4801   1.180   6.095   2.657
 1301SOL    HW1 4802   1.129   6.019   2.616
 1301SOL    HW2 4803   1.257   6.119   2.598
 1302SOL     OW 4804   2.941   6.710   4.831
 1302SOL    HW1 4805   2.856   6.657   4.823
 1302SOL    HW2 4806   3.013   6.653   4.870
 1303SOL     OW 4807   4.186   1.639   0.569
 1303SOL    HW1 4808   4.208   1.730   0.533
 1303SOL    HW2 4809   4.216   1.570   0.503
 1304SOL     OW 4810   2.106   1.383   6.339
 1304SOL    HW1 4811   2.033   1.442   6.305
 1304SOL    HW2 4812   2.081   1.287   6.326
 1305SOL     OW 4813   5.984   6.025   6.864
 1305SOL    HW1 4814   6.053   6.060   6.928
 1305SOL    HW2 4815   6.012   6.049   6.770
 1306SOL     OW 4816   0.950   4.932   5.473
 1306SOL    HW1 4817   1.044   4.900   5.484
 1306SOL    HW2 4818   0.889   4.853   5.465
 1307SOL     OW 4819   1.710   3.162   3.818
 1307SOL    HW1 4820   1.685   3.079   3.769
 1307SOL    HW2 4821   1.661   3.165   3.906
 1308SOL     OW 4822   3.905   6.050   4.663
 1308SOL    HW1 4823   3.905   6.012   4.755
 1308SOL    HW2 4824   3.978   6.007   4.609
 1309SOL     OW 4825   5.622   2.896   5.326
 1309SOL    HW1 4826   5.665   2.985   5.334
 1309SOL    HW2 4827   5.543   2.903   5.265
 1310SOL     OW 4828   5.787   3.574   4.830
 1310SOL    HW1 4829   5.798   3.610   4.737
 1310SOL    HW2 4830   5.789   3.474   4.828
 1311SOL     OW 4831   6.523   6.563   4.085
 1311SOL    HW1 4832   6.585   6.506   4.138
 1311SOL    HW2 4833   6.532   6.659   4.114
 1312SOL     OW 4834   0.723   0.713   6.540
 1312SOL    HW1 4835   0.685   0.806   6.541
 1312SOL    HW2 4836   0.651   0.646   6.557
 1313SOL     OW 4837   2.228   5.789   5.844
 1313SOL    HW1 4838   2.172   5.720   5.798
 1313SOL    HW2 4839   2.204   5.880   5.811
 1314SOL     OW 4840   2.028   1.538   5.580
 1314SOL    HW1 4841   2.020   1.478   5.500
 1314SOL    HW2 4842   1.942   1.538   5.630
 1315SOL     OW 4843   0.619   1.215   0.593
 1315SOL    HW1 4844   0.563   1.297   0.580
 1315SOL    HW2 4845   0.658   1.216   0.685
 1316SOL     OW 4846   2.564   6.891   2.812
 1316SOL    HW1 4847   2.645   6.948   2.803
 1316SOL    HW2 4848   2.500   6.934   2.876
 1317SOL     OW 4849   1.299   4.310   4.845
 1317SOL    HW1 4850   1.380   4.311   4.904
 1317SOL    HW2 4851   1.245   4.393   4.862
 1318SOL     OW 4852   0.309   0.812   0.499
 1318SOL    HW1 4853   0.236   0.837   0.562
 1318SOL    HW2 4854   0.344   0.894   0.454
 1319SOL     OW 4855   6.847   1.828   0.085
 1319SOL    HW1 4856   6.763   1.777   0.106
 1319SOL    HW2 4857   6.850   1.848   7.012
 1320SOL     OW 4858   5.808   4.361   0.083
 1320SOL    HW1 4859   5.891   4.351   0.028
 1320SOL    HW2 4860   5.815   4.303   0.165
 1321SOL     OW 4861   3.999   2.381   0.041
 1321SOL    HW1 4862   4.000   2.307   6.998
 1321SOL    HW2 4863   3.921   2.441   0.023
 1322SOL     OW 4864   5.491   1.111   3.450
 1322SOL    HW1 4865   5.431   1.128   3.372
 1322SOL    HW2 4866   5.449   1.042   3.510
 1323SOL     OW 4867   5.153   1.929   5.300
 1323SOL    HW1 4868   5.151   2.008   5.362
 1323SOL    HW2 4869   5.235   1.932   5.243
 1324SOL     OW 4870   1.395   2.120   1.867
 1324SOL    HW1 4871   1.304   2.096   1.831
 1324SOL    HW2 4872   1.409   2.073   1.954
 1325SOL     OW 4873   2.845   6.871   2.519
 1325SOL    HW1 4874   2.810   6.778   2.511
 1325SOL    HW2 4875   2.880   6.902   2.430
 1326SOL     OW 4876   4.662   2.627   4.762
 1326SOL    HW1 4877   4.744   2.576   4.739
 1326SOL    HW2 4878   4.588   2.563   4.785
 1327SOL     OW 4879   2.948   5.594   2.857
 1327SOL    HW1 4880   2.882   5.629   2.923
 1327SOL    HW2 4881   2.907   5.519   2.805
 1328SOL     OW 4882   0.897   2.979   0.503
 1328SOL    HW1 4883   0.997   2.976   0.502
 1328SOL    HW2 4884   0.861   2.899   0.457
 1329SOL     OW 4885   6.444   1.836   0.339
 1329SOL    HW1 4886   6.491   1.915   0.378
 1329SOL    HW2 4887   6.457   1.835   0.240
 1330SOL     OW 4888   6.693   0.135   1.186
 1330SOL    HW1 4889   6.642   0.198   1.245
 1330SOL    HW2 4890   6.787   0.127   1.219
 1331SOL     OW 4891   4.928   2.028   3.265
 1331SOL    HW1 4892   4.893   2.118   3.291
 1331SOL    HW2 4893   4.859   1.980   3.210
 1332SOL     OW 4894   3.829   0.294   0.636
 1332SOL    HW1 4895   3.918   0.339   0.641
 1332SOL    HW2 4896   3.788   0.311   0.546
 1333SOL     OW 4897   3.822   4.242   5.682
 1333SOL    HW1 4898   3.837   4.237   5.583
 1333SOL    HW2 4899   3.870   4.322   5.719
 1334SOL     OW 4900   0.582   3.036   4.465
 1334SOL    HW1 4901   0.530   3.038   4.550
 1334SOL    HW2 4902   0.647   3.112   4.464
 1335SOL     OW 4903   2.548   6.298   2.369
 1335SOL    HW1 4904   2.599   6.326   2.450
 1335SOL    HW2 4905   2.609   6.295   2.290
 1336SOL     OW 4906   1.829   1.180   5.875
 1336SOL    HW1 4907   1.840   1.118   5.797
 1336SOL    HW2 4908   1.842   1.129   5.960
 1337SOL     OW 4909   0.946   2.463   5.113
 1337SOL    HW1 4910   0.964   2.560   5.130
 1337SOL    HW2 4911   0.904   2.452   5.023
 1338SOL     OW 4912   4.454   3.950   6.215
 1338SOL    HW1 4913   4.504   4.035   6.200
 1338SOL    HW2 4914   4.356   3.970   6.217
 1339SOL     OW 4915   0.053   6.135   0.179
 1339SOL    HW1 4916   0.034   6.038   0.194
 1339SOL    HW2 4917   0.003   6.190   0.246
 1340SOL     OW 4918   1.090   1.740   1.381
 1340SOL    HW1 4919   1.099   1.674   1.307
 1340SOL    HW2 4920   1.029   1.703   1.451
 1341SOL     OW 4921   4.246   0.463   5.493
 1341SOL    HW1 4922   4.324   0.512   5.452
 1341SOL    HW2 4923   4.168   0.525   5.499
 1342SOL     OW 4924   1.282   5.779   6.380
 1342SOL    HW1 4925   1.209   5.845   6.363
 1342SOL    HW2 4926   1.265   5.733   6.468
 1343SOL     OW 4927   3.714   6.610   2.567
 1343SOL    HW1 4928   3.794   6.558   2.596
 1343SOL    HW2 4929   3.742   6.677   2.498
 1344SOL     OW 4930   0.127   3.322   3.290
 1344SOL    HW1 4931   0.065   3.364   3.224
 1344SOL    HW2 4932   0.158   3.391   3.355
 1345SOL     OW 4933   0.455   1.224   3.465
 1345SOL    HW1 4934   0.434   1.149   3.527
 1345SOL    HW2 4935   0.553   1.223   3.444
 1346SOL     OW 4936   1.806   0.359   2.504
 1346SOL    HW1 4937   1.723   0.409   2.525
 1346SOL    HW2 4938   1.792   0.303   2.422
 1347SOL     OW 4939   6.412   6.442   3.657
 1347SOL    HW1 4940   6.322   6.460   3.617
 1347SOL    HW2 4941   6.421   6.344   3.675
 1348SOL     OW 4942   5.929   4.797   3.299
 1348SOL    HW1 4943   5.854   4.854   3.331
 1348SOL    HW2 4944   6.016   4.846   3.309
 1349SOL     OW 4945   5.110   2.789   6.723
 1349SOL    HW1 4946   5.024   2.740   6.736
 1349SOL    HW2 4947   5.154   2.757   6.638
 1350SOL     OW 4948   4.054   5.181   6.724
 1350SOL    HW1 4949   4.019   5.204   6.633
 1350SOL    HW2 4950   4.005   5.234   6.793
 1351SOL     OW 4951   0.977   0.834   3.083
 1351SOL    HW1 4952   0.960   0.761   3.017
 1351SOL    HW2 4953   0.940   0.920   3.047
 1352SOL     OW 4954   0.322   0.165   3.359
 1352SOL    HW1 4955   0.280   0.187   3.271
 1352SOL    HW2 4956   0.389   0.235   3.383
 1353SOL     OW 4957   0.094   4.384   6.194
 1353SOL    HW1 4958   0.150   4.327   6.254
 1353SOL    HW2 4959   0.082   4.336   6.106
 1354SOL     OW 4960   6.875   2.072   0.667
 1354SOL    HW1 4961   6.913   2.044   0.755
 1354SOL    HW2 4962   6.825   2.157   0.677
 1355SOL     OW 4963   5.254   3.572   6.364
 1355SOL    HW1 4964   5.171   3.518   6.346
 1355SOL    HW2 4965   5.295   3.544   6.450
 1356SOL     OW 4966   3.701   4.066   4.323
 1356SOL    HW1 4967   3.637   4.099   4.253
 1356SOL    HW2 4968   3.753   4.143   4.359
 1357SOL     OW 4969   2.655   3.310   6.018
 1357SOL    HW1 4970   2.576   3.270   6.066
 1357SOL    HW2 4971   2.663   3.406   6.043
 1358SOL     OW 4972   2.825   2.093   6.175
 1358SOL    HW1 4973   2.760   2.094   6.099
 1358SOL    HW2 4974   2.909   2.048   6.145
 1359SOL     OW 4975   6.544   4.240   1.558
 1359SOL    HW1 4976   6.601   4.207   1.483
 1359SOL    HW2 4977   6.514   4.333   1.538
 1360SOL     OW 4978   4.056   3.825   2.443
 1360SOL    HW1 4979   4.088   3.883   2.368
 1360SOL    HW2 4980   4.020   3.740   2.406
 1361SOL     OW 4981   6.996   0.006   6.337
 1361SOL    HW1 4982   7.002   0.072   6.413
 1361SOL    HW2 4983   6.950   6.949   6.369
 1362SOL     OW 4984   2.905   3.394   5.384
 1362SOL    HW1 4985   2.991   3.345   5.401
 1362SOL    HW2 4986   2.842   3.377   5.460
 1363SOL     OW 4987   6.677   6.366   4.209
 1363SOL    HW1 4988   6.663   6.284   4.264
 1363SOL    HW2 4989   6.759   6.413   4.241
 1364SOL     OW 4990   0.086   2.324   6.962
 1364SOL    HW1 4991   0.173   2.294   6.924
 1364SOL    HW2 4992   0.011   2.272   6.921
 1365SOL     OW 4993   0.974   3.522   5.689
 1365SOL    HW1 4994   1.001   3.511   5.593
 1365SOL    HW2 4995   0.908   3.452   5.714
 1366SOL     OW 4996   0.145   3.838   1.060
 1366SOL    HW1 4997   0.146   3.858   0.962
 1366SOL    HW2 4998   0.232   3.796   1.087
 1367SOL     OW 4999   1.118   5.089   3.101
 1367SOL    HW1 5000   1.130   5.024   3.176
 1367SOL    HW2 5001   1.068   5.169   3.133
 1368SOL     OW 5002   6.838   0.643   4.396
 1368SOL    HW1 5003   6.768   0.572   4.391
 1368SOL    HW2 5004   6.913   0.620   4.334
 1369SOL     OW 5005   2.435   5.972   1.811
 1369SOL    HW1 5006   2.522   5.997   1.853
 1369SOL    HW2 5007   2.370   5.945   1.881
 1370SOL     OW 5008   7.006   1.956   4.124
 1370SOL    HW1 5009   6.985   2.044   4.081
 1370SOL    HW2 5010   0.046   1.905   4.066
 1371SOL     OW 5011   4.905   1.227   4.744
 1371SOL    HW1 5012   4.907   1.312   4.798
 1371SOL    HW2 5013   4.934   1.151   4.802
 1372SOL     OW 5014   6.312   2.470   1.172
 1372SOL    HW1 5015   6.405   2.470   1.210
 1372SOL    HW2 5016   6.312   2.420   1.085
 1373SOL     OW 5017   5.611   1.743   0.822
 1373SOL    HW1 5018   5.615   1.747   0.922
 1373SOL    HW2 5019   5.582   1.831   0.786
 1374SOL     OW 5020   5.181   4.454   6.808
 1374SOL    HW1 5021   5.164   4.503   6.893
 1374SOL    HW2 5022   5.229   4.369   6.828
 1375SOL     OW 5023   6.928   6.759   6.421
 1375SOL    HW1 5024   6.830   6.756   6.439
 1375SOL    HW2 5025   6.976   6.705   6.491
 1376SOL     OW 5026   3.305   4.709   6.111
 1376SOL    HW1 5027   3.385   4.693   6.169
 1376SOL    HW2 5028   3.230   4.742   6.167
 1377SOL     OW 5029   1.153   2.671   3.763
 1377SOL    HW1 5030   1.177   2.603   3.695
 1377SOL    HW2 5031   1.068   2.645   3.809
 1378SOL     OW 5032   4.959   2.539   4.736
 1378SOL    HW1 5033   5.003   2.602   4.673
 1378SOL    HW2 5034   5.024   2.509   4.806
 1379SOL     OW 5035   4.858   5.724   3.148
 1379SOL    HW1 5036   4.792   5.684   3.211
 1379SOL    HW2 5037   4.813   5.792   3.091
 1380SOL     OW 5038   6.875   6.114   2.478
 1380SOL    HW1 5039   6.836   6.138   2.389
 1380SOL    HW2 5040   6.867   6.192   2.540
 1381SOL     OW 5041   5.784   1.624   6.806
 1381SOL    HW1 5042   5.722   1.687   6.760
 1381SOL    HW2 5043   5.854   1.676   6.854
 1382SOL     OW 5044   4.964   2.904   1.460
 1382SOL    HW1 5045   4.881   2.959   1.454
 1382SOL    HW2 5046   5.040   2.954   1.418
 1383SOL     OW 5047   0.606   6.836   1.300
 1383SOL    HW1 5048   0.522   6.874   1.339
 1383SOL    HW2 5049   0.674   6.827   1.373
 1384SOL     OW 5050   4.290   0.008   1.240
 1384SOL    HW1 5051   4.296   0.022   1.142
 1384SOL    HW2 5052   4.380   0.021   1.282
 1385SOL     OW 5053   2.061   4.490   3.553
 1385SOL    HW1 5054   2.119   4.557   3.507
 1385SOL    HW2 5055   2.018   4.431   3.485
 1386SOL     OW 5056   3.526   0.373   3.368
 1386SOL    HW1 5057   3.501   0.276   3.368
 1386SOL    HW2 5058   3.505   0.413   3.457
 1387SOL     OW 5059   2.829   5.594   2.379
 1387SOL    HW1 5060   2.901   5.663   2.373
 1387SOL    HW2 5061   2.762   5.621   2.448
 1388SOL     OW 5062   6.715   6.858   1.956
 1388SOL    HW1 5063   6.771   6.936   1.985
 1388SOL    HW2 5064   6.775   6.781   1.936
 1389SOL     OW 5065   6.084   2.151   3.921
 1389SOL    HW1 5066   6.140   2.231   3.942
 1389SOL    HW2 5067   5.997   2.180   3.881
 1390SOL     OW 5068   0.174   3.833   0.097
 1390SOL    HW1 5069   0.229   3.751   0.113
 1390SOL    HW2 5070   0.192   3.867   0.005
 1391SOL     OW 5071   6.047   6.969   4.442
 1391SOL    HW1 5072   6.133   6.937   4.402
 1391SOL    HW2 5073   5.993   7.015   4.372
 1392SOL     OW 5074   5.756   5.800   6.236
 1392SOL    HW1 5075   5.810   5.864   6.291
 1392SOL    HW2 5076   5.711   5.735   6.296
 1393SOL     OW 5077   6.091   5.118   5.596
 1393SOL    HW1 5078   6.056   5.137   5.504
 1393SOL    HW2 5079   6.036   5.046   5.639
 1394SOL     OW 5080   2.790   5.542   5.034
 1394SOL    HW1 5081   2.727   5.591   5.095
 1394SOL    HW2 5082   2.855   5.490   5.088
 1395SOL     OW 5083   2.446   4.225   5.680
 1395SOL    HW1 5084   2.507   4.281   5.624
 1395SOL    HW2 5085   2.492   4.203   5.766
 1396SOL     OW 5086   1.704   1.352   4.961
 1396SOL    HW1 5087   1.674   1.415   5.032
 1396SOL    HW2 5088   1.647   1.363   4.879
 1397SOL     OW 5089   0.359   0.545   3.530
 1397SOL    HW1 5090   0.433   0.557   3.465
 1397SOL    HW2 5091   0.301   0.626   3.530
 1398SOL     OW 5092   2.935   0.509   6.085
 1398SOL    HW1 5093   2.948   0.608   6.074
 1398SOL    HW2 5094   2.938   0.465   5.995
 1399SOL     OW 5095   3.400   6.020   0.569
 1399SOL    HW1 5096   3.448   6.074   0.500
 1399SOL    HW2 5097   3.311   5.991   0.532
 1400SOL     OW 5098   0.027   1.099   2.874
 1400SOL    HW1 5099   0.041   1.012   2.922
 1400SOL    HW2 5100   0.115   1.140   2.853
 1401SOL     OW 5101   6.880   2.321   4.623
 1401SOL    HW1 5102   6.816   2.288   4.693
 1401SOL    HW2 5103   6.828   2.360   4.547
 1402SOL     OW 5104   0.279   3.532   0.068
 1402SOL    HW1 5105   0.351   3.464   0.080
 1402SOL    HW2 5106   0.222   3.507   7.014
 1403SOL     OW 5107   2.157   2.514   1.568
 1403SOL    HW1 5108   2.232   2.547   1.625
 1403SOL    HW2 5109   2.110   2.439   1.614
 1404SOL     OW 5110   5.378   6.930   0.109
 1404SOL    HW1 5111   5.423   6.857   0.160
 1404SOL    HW2 5112   5.439   7.009   0.103
 1405SOL     OW 5113   2.043   3.808   1.034
 1405SOL    HW1 5114   2.061   3.889   0.979
 1405SOL    HW2 5115   2.099   3.732   1.001
 1406SOL     OW 5116   1.079   5.088   1.341
 1406SOL    HW1 5117   1.038   5.051   1.257
 1406SOL    HW2 5118   1.179   5.092   1.330
 1407SOL     OW 5119   0.243   1.942   2.453
 1407SOL    HW1 5120   0.322   1.990   2.492
 1407SOL    HW2 5121   0.272   1.853   2.418
 1408SOL     OW 5122   5.650   1.255   5.680
 1408SOL    HW1 5123   5.648   1.187   5.754
 1408SOL    HW2 5124   5.683   1.342   5.716
 1409SOL     OW 5125   0.894   1.128   4.779
 1409SOL    HW1 5126   0.973   1.145   4.721
 1409SOL    HW2 5127   0.830   1.067   4.732
 1410SOL     OW 5128   1.773   2.975   6.553
 1410SOL    HW1 5129   1.700   2.908   6.567
 1410SOL    HW2 5130   1.821   2.954   6.468
 1411SOL     OW 5131   2.863   6.616   1.808
 1411SOL    HW1 5132   2.765   6.635   1.804
 1411SOL    HW2 5133   2.912   6.697   1.841
 1412SOL     OW 5134   7.017   2.205   1.097
 1412SOL    HW1 5135   0.021   2.263   1.021
 1412SOL    HW2 5136   7.023   2.109   1.069
 1413SOL     OW 5137   1.603   1.439   5.218
 1413SOL    HW1 5138   1.628   1.358   5.270
 1413SOL    HW2 5139   1.553   1.503   5.277
 1414SOL     OW 5140   2.463   1.238   1.841
 1414SOL    HW1 5141   2.401   1.223   1.764
 1414SOL    HW2 5142   2.555   1.256   1.808
 1415SOL     OW 5143   2.203   0.600   4.573
 1415SOL    HW1 5144   2.121   0.644   4.609
 1415SOL    HW2 5145   2.277   0.608   4.640
 1416SOL     OW 5146   5.017   4.980   4.369
 1416SOL    HW1 5147   4.989   4.956   4.462
 1416SOL    HW2 5148   5.055   5.073   4.369
 1417SOL     OW 5149   2.850   2.151   0.480
 1417SOL    HW1 5150   2.898   2.191   0.559
 1417SOL    HW2 5151   2.917   2.122   0.412
 1418SOL     OW 5152   2.925   3.528   4.054
 1418SOL    HW1 5153   2.874   3.602   4.098
 1418SOL    HW2 5154   2.996   3.566   3.996
 1419SOL     OW 5155   2.059   6.244   5.273
 1419SOL    HW1 5156   2.042   6.271   5.178
 1419SOL    HW2 5157   2.153   6.269   5.298
 1420SOL     OW 5158   2.454   0.011   1.347
 1420SOL    HW1 5159   2.355   0.007   1.362
 1420SOL    HW2 5160   2.489   6.943   1.333
 1421SOL     OW 5161   1.886   3.853   3.533
 1421SOL    HW1 5162   1.900   3.807   3.445
 1421SOL    HW2 5163   1.789   3.858   3.553
 1422SOL     OW 5164   1.579   3.781   1.397
 1422SOL    HW1 5165   1.658   3.758   1.454
 1422SOL    HW2 5166   1.521   3.846   1.445
 1423SOL     OW 5167   5.536   6.255   3.237
 1423SOL    HW1 5168   5.576   6.184   3.294
 1423SOL    HW2 5169   5.476   6.313   3.293
 1424SOL     OW 5170   6.187   5.106   5.883
 1424SOL    HW1 5171   6.248   5.030   5.904
 1424SOL    HW2 5172   6.179   5.117   5.784
 1425SOL     OW 5173   0.928   6.529   5.115
 1425SOL    HW1 5174   0.963   6.525   5.208
 1425SOL    HW2 5175   0.968   6.607   5.067
 1426SOL     OW 5176   1.999   2.645   6.149
 1426SOL    HW1 5177   2.056   2.713   6.103
 1426SOL    HW2 5178   2.058   2.574   6.188
 1427SOL     OW 5179   0.441   6.791   3.675
 1427SOL    HW1 5180   0.417   6.879   3.635
 1427SOL    HW2 5181   0.496   6.738   3.610
 1428SOL     OW 5182   5.928   2.974   0.572
 1428SOL    HW1 5183   5.987   2.946   0.496
 1428SOL    HW2 5184   5.957   3.064   0.604
 1429SOL     OW 5185   4.998   2.152   0.300
 1429SOL    HW1 5186   5.066   2.157   0.228
 1429SOL    HW2 5187   4.910   2.183   0.265
 1430SOL     OW 5188   1.530   4.192   3.825
 1430SOL    HW1 5189   1.573   4.230   3.907
 1430SOL    HW2 5190   1.431   4.187   3.839
 1431SOL     OW 5191   2.313   2.151   1.025
 1431SOL    HW1 5192   2.412   2.155   1.014
 1431SOL    HW2 5193   2.269   2.186   0.942
 1432SOL     OW 5194   3.062   1.192   2.463
 1432SOL    HW1 5195   2.980   1.224   2.509
 1432SOL    HW2 5196   3.141   1.204   2.524
 1433SOL     OW 5197   4.300   0.980   5.746
 1433SOL    HW1 5198   4.381   0.928   5.717
 1433SOL    HW2 5199   4.275   1.045   5.675
 1434SOL     OW 5200   6.798   0.434   5.614
 1434SOL    HW1 5201   6.731   0.373   5.657
 1434SOL    HW2 5202   6.824   0.506   5.678
 1435SOL     OW 5203   6.223   0.015   3.371
 1435SOL    HW1 5204   6.200   7.005   3.462
 1435SOL    HW2 5205   6.203   0.113   3.368
 1436SOL     OW 5206   5.632   3.732   0.065
 1436SOL    HW1 5207   5.686   3.676   0.127
 1436SOL    HW2 5208   5.621   3.683   7.003
 1437SOL     OW 5209   2.962   2.228   3.587
 1437SOL    HW1 5210   2.864   2.221   3.609
 1437SOL    HW2 5211   2.976   2.304   3.524
 1438SOL     OW 5212   3.365   5.955   1.320
 1438SOL    HW1 5213   3.403   6.047   1.326
 1438SOL    HW2 5214   3.284   5.948   1.379
 1439SOL     OW 5215   6.925   5.680   1.214
 1439SOL    HW1 5216   6.972   5.648   1.132
 1439SOL    HW2 5217   6.829   5.698   1.193
 1440SOL     OW 5218   2.972   3.595   0.177
 1440SOL    HW1 5219   3.023   3.515   0.146
 1440SOL    HW2 5220   2.940   3.647   0.098
 1441SOL     OW 5221   6.060   0.733   3.962
 1441SOL    HW1 5222   5.976   0.704   3.915
 1441SOL    HW2 5223   6.052   0.829   3.986
 1442SOL     OW 5224   7.015   6.206   6.884
 1442SOL    HW1 5225   0.059   6.139   6.858
 1442SOL    HW2 5226   7.004   6.205   6.984
 1443SOL     OW 5227   0.932   2.967   3.001
 1443SOL    HW1 5228   1.001   2.963   3.073
 1443SOL    HW2 5229   0.850   2.917   3.030
 1444SOL     OW 5230   5.237   6.039   1.207
 1444SOL    HW1 5231   5.316   6.008   1.260
 1444SOL    HW2 5232   5.233   5.990   1.120
 1445SOL     OW 5233   0.996   2.580   3.030
 1445SOL    HW1 5234   1.018   2.644   3.104
 1445SOL    HW2 5235   0.953   2.630   2.955
 1446SOL     OW 5236   5.843   1.541   0.206
 1446SOL    HW1 5237   5.772   1.539   0.277
 1446SOL    HW2 5238   5.846   1.453   0.159
 1447SOL     OW 5239   6.292   6.132   4.216
 1447SOL    HW1 5240   6.328   6.083   4.136
 1447SOL    HW2 5241   6.265   6.225   4.189
 1448SOL     OW 5242   6.321   3.154   5.250
 1448SOL    HW1 5243   6.243   3.156   5.187
 1448SOL    HW2 5244   6.323   3.237   5.305
 1449SOL     OW 5245   1.468   3.209   5.991
 1449SOL    HW1 5246   1.535   3.186   5.920
 1449SOL    HW2 5247   1.458   3.309   5.996
 1450SOL     OW 5248   1.271   2.307   6.667
 1450SOL    HW1 5249   1.256   2.374   6.740
 1450SOL    HW2 5250   1.367   2.281   6.666
 1451SOL     OW 5251   0.921   6.042   2.322
 1451SOL    HW1 5252   0.947   5.973   2.389
 1451SOL    HW2 5253   0.859   6.108   2.364
 1452SOL     OW 5254   4.207   2.263   5.528
 1452SOL    HW1 5255   4.295   2.295   5.564
 1452SOL    HW2 5256   4.139   2.262   5.602
 1453SOL     OW 5257   0.576   4.331   5.847
 1453SOL    HW1 5258   0.654   4.323   5.785
 1453SOL    HW2 5259   0.546   4.240   5.875
 1454SOL     OW 5260   0.985   2.425   1.945
 1454SOL    HW1 5261   1.055   2.386   2.004
 1454SOL    HW2 5262   0.996   2.525   1.942
 1455SOL     OW 5263   1.624   6.949   2.099
 1455SOL    HW1 5264   1.652   6.869   2.151
 1455SOL    HW2 5265   1.608   6.924   2.003
 1456SOL     OW 5266   6.188   0.205   6.212
 1456SOL    HW1 5267   6.236   0.138   6.155
 1456SOL    HW2 5268   6.207   0.297   6.179
 1457SOL     OW 5269   0.933   5.889   0.796
 1457SOL    HW1 5270   0.880   5.964   0.756
 1457SOL    HW2 5271   0.872   5.832   0.852
 1458SOL     OW 5272   6.276   4.854   5.072
 1458SOL    HW1 5273   6.218   4.861   4.991
 1458SOL    HW2 5274   6.227   4.893   5.151
 1459SOL     OW 5275   3.940   0.002   5.666
 1459SOL    HW1 5276   4.037   0.004   5.641
 1459SOL    HW2 5277   3.930   6.992   5.759
 1460SOL     OW 5278   0.931   0.372   4.978
 1460SOL    HW1 5279   0.846   0.349   4.929
 1460SOL    HW2 5280   0.919   0.459   5.026
 1461SOL     OW 5281   6.956   3.966   2.459
 1461SOL    HW1 5282   6.875   4.009   2.420
 1461SOL    HW2 5283   7.011   4.036   2.506
 1462SOL     OW 5284   1.325   1.487   6.544
 1462SOL    HW1 5285   1.324   1.547   6.624
 1462SOL    HW2 5286   1.415   1.444   6.535
 1463SOL     OW 5287   0.855   5.435   5.970
 1463SOL    HW1 5288   0.783   5.477   5.915
 1463SOL    HW2 5289   0.916   5.506   6.006
 1464SOL     OW 5290   6.997   6.154   2.092
 1464SOL    HW1 5291   0.052   6.213   2.082
 1464SOL    HW2 5292   6.929   6.198   2.150
 1465SOL     OW 5293   1.589   0.961   3.956
 1465SOL    HW1 5294   1.541   0.918   3.880
 1465SOL    HW2 5295   1.574   1.060   3.953
 1466SOL     OW 5296   2.814   1.243   2.568
 1466SOL    HW1 5297   2.782   1.273   2.478
 1466SOL    HW2 5298   2.743   1.186   2.611
 1467SOL     OW 5299   1.813   1.317   3.875
 1467SOL    HW1 5300   1.906   1.352   3.873
 1467SOL    HW2 5301   1.772   1.324   3.784
 1468SOL     OW 5302   2.401   5.408   2.438
 1468SOL    HW1 5303   2.455   5.447   2.363
 1468SOL    HW2 5304   2.363   5.483   2.493
 1469SOL     OW 5305   6.602   0.578   3.443
 1469SOL    HW1 5306   6.616   0.653   3.507
 1469SOL    HW2 5307   6.509   0.542   3.452
 1470SOL     OW 5308   0.887   1.460   1.975
 1470SOL    HW1 5309   0.937   1.536   1.933
 1470SOL    HW2 5310   0.953   1.395   2.012
 1471SOL     OW 5311   0.885   0.254   0.682
 1471SOL    HW1 5312   0.926   0.197   0.611
 1471SOL    HW2 5313   0.927   0.345   0.681
 1472SOL     OW 5314   2.228   5.841   6.318
 1472SOL    HW1 5315   2.283   5.924   6.315
 1472SOL    HW2 5316   2.284   5.764   6.350
 1473SOL     OW 5317   3.471   5.324   5.643
 1473SOL    HW1 5318   3.561   5.367   5.638
 1473SOL    HW2 5319   3.445   5.291   5.553
 1474SOL     OW 5320   4.677   4.601   1.507
 1474SOL    HW1 5321   4.631   4.513   1.522
 1474SOL    HW2 5322   4.723   4.600   1.418
 1475SOL     OW 5323   5.561   0.887   0.938
 1475SOL    HW1 5324   5.641   0.920   0.888
 1475SOL    HW2 5325   5.580   0.796   0.975
 1476SOL     OW 5326   2.810   0.990   1.194
 1476SOL    HW1 5327   2.873   1.000   1.117
 1476SOL    HW2 5328   2.763   1.077   1.210
 1477SOL     OW 5329   3.733   6.404   6.328
 1477SOL    HW1 5330   3.730   6.312   6.368
 1477SOL    HW2 5331   3.657   6.458   6.364
 1478SOL     OW 5332   6.121   5.752   5.390
 1478SOL    HW1 5333   6.192   5.685   5.412
 1478SOL    HW2 5334   6.036   5.726   5.435
 1479SOL     OW 5335   2.659   3.229   1.276
 1479SOL    HW1 5336   2.624   3.299   1.214
 1479SOL    HW2 5337   2.755   3.246   1.295
 1480SOL     OW 5338   2.785   0.065   4.652
 1480SOL    HW1 5339   2.821   7.007   4.608
 1480SOL    HW2 5340   2.736   0.120   4.584
 1481SOL     OW 5341   6.172   3.193   5.912
 1481SOL    HW1 5342   6.197   3.229   6.002
 1481SOL    HW2 5343   6.224   3.242   5.842
 1482SOL     OW 5344   4.587   0.934   1.968
 1482SOL    HW1 5345   4.683   0.960   1.979
 1482SOL    HW2 5346   4.571   0.847   2.016
 1483SOL     OW 5347   5.210   2.439   5.548
 1483SOL    HW1 5348   5.168   2.525   5.574
 1483SOL    HW2 5349   5.275   2.455   5.474
 1484SOL     OW 5350   5.034   4.895   3.824
 1484SOL    HW1 5351   5.055   4.861   3.915
 1484SOL    HW2 5352   4.958   4.843   3.785
 1485SOL     OW 5353   4.953   0.379   4.531
 1485SOL    HW1 5354   5.008   0.456   4.499
 1485SOL    HW2 5355   4.900   0.342   4.455
 1486SOL     OW 5356   5.321   0.734   3.422
 1486SOL    HW1 5357   5.276   0.780   3.345
 1486SOL    HW2 5358   5.403   0.687   3.389
 1487SOL     OW 5359   0.272   2.149   6.855
 1487SOL    HW1 5360   0.306   2.148   6.761
 1487SOL    HW2 5361   0.261   2.056   6.888
 1488SOL     OW 5362   5.054   6.812   3.960
 1488SOL    HW1 5363   5.127   6.852   4.015
 1488SOL    HW2 5364   5.058   6.850   3.867
 1489SOL     OW 5365   3.679   5.521   6.846
 1489SOL    HW1 5366   3.698   5.465   6.765
 1489SOL    HW2 5367   3.730   5.484   6.923
 1490SOL     OW 5368   0.036   3.579   1.134
 1490SOL    HW1 5369   0.072   3.672   1.130
 1490SOL    HW2 5370   0.099   3.517   1.088
 1491SOL     OW 5371   6.555   4.341   2.407
 1491SOL    HW1 5372   6.458   4.363   2.418
 1491SOL    HW2 5373   6.604   4.424   2.379
 1492SOL     OW 5374   5.868   0.308   2.270
 1492SOL    HW1 5375   5.911   0.232   2.220
 1492SOL    HW2 5376   5.832   0.374   2.204
 1493SOL     OW 5377   3.799   0.353   6.155
 1493SOL    HW1 5378   3.865   0.357   6.230
 1493SOL    HW2 5379   3.786   0.445   6.117
 1494SOL     OW 5380   5.233   2.671   6.491
 1494SOL    HW1 5381   5.263   2.694   6.398
 1494SOL    HW2 5382   5.140   2.635   6.489
 1495SOL     OW 5383   0.607   4.179   5.134
 1495SOL    HW1 5384   0.609   4.198   5.232
 1495SOL    HW2 5385   0.559   4.092   5.118
 1496SOL     OW 5386   1.627   1.365   0.515
 1496SOL    HW1 5387   1.691   1.417   0.573
 1496SOL    HW2 5388   1.634   1.268   0.538
 1497SOL     OW 5389   5.294   2.831   2.082
 1497SOL    HW1 5390   5.380   2.807   2.128
 1497SOL    HW2 5391   5.234   2.878   2.147
 1498SOL     OW 5392   2.595   4.296   0.025
 1498SOL    HW1 5393   2.519   4.233   0.009
 1498SOL    HW2 5394   2.593   4.327   0.120
 1499SOL     OW 5395   0.394   2.668   5.682
 1499SOL    HW1 5396   0.311   2.704   5.723
 1499SOL    HW2 5397   0.395   2.690   5.584
 1500SOL     OW 5398   0.422   6.845   6.852
 1500SOL    HW1 5399   0.494   6.900   6.811
 1500SOL    HW2 5400   0.453   6.808   6.939
 1501SOL     OW 5401   6.032   2.275   6.468
 1501SOL    HW1 5402   6.001   2.183   6.445
 1501SOL    HW2 5403   5.994   2.302   6.556
 1502SOL     OW 5404   4.767   0.877   6.994
 1502SOL    HW1 5405   4.775   0.901   0.066
 1502SOL    HW2 5406   4.681   0.828   6.978
 1503SOL     OW 5407   1.681   3.003   2.594
 1503SOL    HW1 5408   1.741   3.083   2.591
 1503SOL    HW2 5409   1.735   2.922   2.619
 1504SOL     OW 5410   0.491   0.484   4.296
 1504SOL    HW1 5411   0.542   0.567   4.273
 1504SOL    HW2 5412   0.549   0.404   4.283
 1505SOL     OW 5413   4.514   0.248   5.670
 1505SOL    HW1 5414   4.535   0.236   5.767
 1505SOL    HW2 5415   4.532   0.343   5.643
 1506SOL     OW 5416   0.797   6.666   0.249
 1506SOL    HW1 5417   0.764   6.643   0.341
 1506SOL    HW2 5418   0.887   6.708   0.256
 1507SOL     OW 5419   0.331   1.899   6.056
 1507SOL    HW1 5420   0.382   1.843   5.990
 1507SOL    HW2 5421   0.237   1.910   6.025
 1508SOL     OW 5422   6.256   1.444   1.260
 1508SOL    HW1 5423   6.313   1.365   1.236
 1508SOL    HW2 5424   6.162   1.414   1.275
 1509SOL     OW 5425   4.266   1.974   4.878
 1509SOL    HW1 5426   4.215   1.974   4.793
 1509SOL    HW2 5427   4.298   2.067   4.898
 1510SOL     OW 5428   4.828   6.811   5.036
 1510SOL    HW1 5429   4.922   6.802   5.070
 1510SOL    HW2 5430   4.792   6.721   5.014
 1511SOL     OW 5431   4.176   3.531   4.137
 1511SOL    HW1 5432   4.273   3.517   4.118
 1511SOL    HW2 5433   4.146   3.466   4.207
 1512SOL     OW 5434   6.368   5.746   1.245
 1512SOL    HW1 5435   6.276   5.769   1.279
 1512SOL    HW2 5436   6.421   5.830   1.233
 1513SOL     OW 5437   4.171   0.672   4.488
 1513SOL    HW1 5438   4.202   0.701   4.578
 1513SOL    HW2 5439   4.084   0.715   4.466
 1514SOL     OW 5440   3.917   2.949   5.256
 1514SOL    HW1 5441   3.979   2.871   5.269
 1514SOL    HW2 5442   3.970   3.031   5.234
 1515SOL     OW 5443   5.344   1.698   2.378
 1515SOL    HW1 5444   5.284   1.629   2.339
 1515SOL    HW2 5445   5.320   1.714   2.474
 1516SOL     OW 5446   6.078   5.449   5.830
 1516SOL    HW1 5447   6.136   5.523   5.796
 1516SOL    HW2 5448   5.991   5.451   5.781
 1517SOL     OW 5449   4.534   6.264   2.873
 1517SOL    HW1 5450   4.538   6.233   2.779
 1517SOL    HW2 5451   4.606   6.333   2.889
 1518SOL     OW 5452   0.056   2.028   0.488
 1518SOL    HW1 5453   6.998   2.003   0.537
 1518SOL    HW2 5454   0.089   2.116   0.521
 1519SOL     OW 5455   6.478   4.482   1.471
 1519SOL    HW1 5456   6.473   4.580   1.492
 1519SOL    HW2 5457   6.527   4.469   1.385
 1520SOL     OW 5458   0.287   4.479   1.761
 1520SOL    HW1 5459   0.385   4.463   1.776
 1520SOL    HW2 5460   0.255   4.419   1.688
 1521SOL     OW 5461   2.601   4.670   6.507
 1521SOL    HW1 5462   2.580   4.578   6.541
 1521SOL    HW2 5463   2.683   4.705   6.554
 1522SOL     OW 5464   5.807   5.831   5.014
 1522SOL    HW1 5465   5.771   5.763   5.078
 1522SOL    HW2 5466   5.898   5.859   5.044
 1523SOL     OW 5467   3.912   6.688   6.935
 1523SOL    HW1 5468   3.889   6.593   6.911
 1523SOL    HW2 5469   3.921   6.742   6.851
 1524SOL     OW 5470   2.146   1.659   1.959
 1524SOL    HW1 5471   2.208   1.606   1.902
 1524SOL    HW2 5472   2.135   1.614   2.047
 1525SOL     OW 5473   6.194   3.264   0.208
 1525SOL    HW1 5474   6.268   3.315   0.164
 1525SOL    HW2 5475   6.231   3.180   0.249
 1526SOL     OW 5476   7.014   1.233   6.436
 1526SOL    HW1 5477   0.048   1.271   6.507
 1526SOL    HW2 5478   7.008   1.134   6.448
 1527SOL     OW 5479   3.397   1.410   4.330
 1527SOL    HW1 5480   3.474   1.361   4.287
 1527SOL    HW2 5481   3.402   1.399   4.429
 1528SOL     OW 5482   4.237   4.842   2.905
 1528SOL    HW1 5483   4.235   4.804   2.997
 1528SOL    HW2 5484   4.197   4.777   2.841
 1529SOL     OW 5485   4.367   0.395   0.062
 1529SOL    HW1 5486   4.404   0.359   7.001
 1529SOL    HW2 5487   4.413   0.352   0.139
 1530SOL     OW 5488   3.825   1.829   2.297
 1530SOL    HW1 5489   3.733   1.793   2.285
 1530SOL    HW2 5490   3.861   1.859   2.208
 1531SOL     OW 5491   4.726   0.457   5.430
 1531SOL    HW1 5492   4.821   0.434   5.406
 1531SOL    HW2 5493   4.664   0.399   5.378
 1532SOL     OW 5494   3.708   4.210   5.949
 1532SOL    HW1 5495   3.650   4.289   5.935
 1532SOL    HW2 5496   3.740   4.175   5.861
 1533SOL     OW 5497   6.655   5.035   0.118
 1533SOL    HW1 5498   6.620   4.951   0.160
 1533SOL    HW2 5499   6.587   5.070   0.054
 1534SOL     OW 5500   3.012   6.101   6.497
 1534SOL    HW1 5501   2.992   6.003   6.489
 1534SOL    HW2 5502   2.932   6.153   6.469
 1535SOL     OW 5503   5.276   5.903   4.171
 1535SOL    HW1 5504   5.184   5.931   4.144
 1535SOL    HW2 5505   5.319   5.976   4.224
 1536SOL     OW 5506   3.753   5.169   6.336
 1536SOL    HW1 5507   3.704   5.135   6.416
 1536SOL    HW2 5508   3.715   5.129   6.253
 1537SOL     OW 5509   4.424   5.734   4.078
 1537SOL    HW1 5510   4.405   5.814   4.136
 1537SOL    HW2 5511   4.508   5.689   4.109
 1538SOL     OW 5512   3.077   0.014   6.714
 1538SOL    HW1 5513   3.058   0.095   6.659
 1538SOL    HW2 5514   3.072   0.037   6.811
 1539SOL     OW 5515   4.897   3.362   1.783
 1539SOL    HW1 5516   4.806   3.372   1.745
 1539SOL    HW2 5517   4.938   3.277   1.750
 1540SOL     OW 5518   0.072   6.485   5.163
 1540SOL    HW1 5519   7.005   6.458   5.194
 1540SOL    HW2 5520   0.124   6.519   5.241
 1541SOL     OW 5521   3.314   3.503   4.501
 1541SOL    HW1 5522   3.277   3.534   4.589
 1541SOL    HW2 5523   3.365   3.418   4.515
 1542SOL     OW 5524   6.346   1.138   2.580
 1542SOL    HW1 5525   6.434   1.133   2.533
 1542SOL    HW2 5526   6.343   1.070   2.653
 1543SOL     OW 5527   3.155   4.884   5.181
 1543SOL    HW1 5528   3.166   4.886   5.081
 1543SOL    HW2 5529   3.244   4.890   5.224
 1544SOL     OW 5530   3.016   3.385   3.464
 1544SOL    HW1 5531   3.071   3.359   3.385
 1544SOL    HW2 5532   3.044   3.332   3.544
 1545SOL     OW 5533   4.954   0.374   2.845
 1545SOL    HW1 5534   5.031   0.369   2.782
 1545SOL    HW2 5535   4.876   0.325   2.806
 1546SOL     OW 5536   4.291   6.636   5.586
 1546SOL    HW1 5537   4.245   6.554   5.621
 1546SOL    HW2 5538   4.222   6.706   5.567
 1547SOL     OW 5539   1.859   3.974   1.214
 1547SOL    HW1 5540   1.888   3.910   1.143
 1547SOL    HW2 5541   1.767   4.006   1.195
 1548SOL     OW 5542   5.590   4.262   6.532
 1548SOL    HW1 5543   5.618   4.170   6.559
 1548SOL    HW2 5544   5.618   4.279   6.438
 1549SOL     OW 5545   4.013   1.747   1.636
 1549SOL    HW1 5546   3.938   1.811   1.651
 1549SOL    HW2 5547   4.052   1.720   1.724
 1550SOL     OW 5548   2.446   3.774   0.392
 1550SOL    HW1 5549   2.502   3.846   0.433
 1550SOL    HW2 5550   2.353   3.808   0.379
 1551SOL     OW 5551   1.813   4.165   6.218
 1551SOL    HW1 5552   1.896   4.203   6.258
 1551SOL    HW2 5553   1.830   4.138   6.124
 1552SOL     OW 5554   2.229   5.424   0.743
 1552SOL    HW1 5555   2.131   5.418   0.725
 1552SOL    HW2 5556   2.262   5.336   0.779
 1553SOL     OW 5557   6.489   1.494   6.943
 1553SOL    HW1 5558   6.438   1.462   6.864
 1553SOL    HW2 5559   6.573   1.539   6.913
 1554SOL     OW 5560   3.370   2.005   3.351
 1554SOL    HW1 5561   3.421   1.938   3.404
 1554SOL    HW2 5562   3.281   2.022   3.395
 1555SOL     OW 5563   5.731   3.370   0.396
 1555SOL    HW1 5564   5.685   3.300   0.452
 1555SOL    HW2 5565   5.664   3.413   0.335
 1556SOL     OW 5566   3.060   2.510   0.111
 1556SOL    HW1 5567   3.042   2.545   0.019
 1556SOL    HW2 5568   3.054   2.410   0.111
 1557SOL     OW 5569   1.910   2.170   5.008
 1557SOL    HW1 5570   1.985   2.226   5.043
 1557SOL    HW2 5571   1.828   2.227   4.997
 1558SOL     OW 5572   5.985   0.717   4.705
 1558SOL    HW1 5573   5.939   0.632   4.680
 1558SOL    HW2 5574   5.922   0.774   4.758
 1559SOL     OW 5575   2.154   2.707   6.544
 1559SOL    HW1 5576   2.165   2.805   6.561
 1559SOL    HW2 5577   2.061   2.690   6.512
 1560SOL     OW 5578   0.042   0.864   5.939
 1560SOL    HW1 5579   0.030   0.801   6.016
 1560SOL    HW2 5580   0.139   0.887   5.930
 1561SOL     OW 5581   5.908   6.589   3.487
 1561SOL    HW1 5582   5.851   6.609   3.567
 1561SOL    HW2 5583   5.856   6.605   3.403
 1562SOL     OW 5584   5.246   5.942   2.812
 1562SOL    HW1 5585   5.345   5.948   2.802
 1562SOL    HW2 5586   5.207   5.901   2.730
 1563SOL     OW 5587   2.019   0.276   5.039
 1563SOL    HW1 5588   1.958   0.219   5.094
 1563SOL    HW2 5589   2.102   0.225   5.018
 1564SOL     OW 5590   1.377   1.978   3.407
 1564SOL    HW1 5591   1.363   1.916   3.330
 1564SOL    HW2 5592   1.303   2.045   3.411
 1565SOL     OW 5593   4.474   4.445   3.725
 1565SOL    HW1 5594   4.508   4.484   3.811
 1565SOL    HW2 5595   4.378   4.471   3.712
 1566SOL     OW 5596   6.209   4.657   2.734
 1566SOL    HW1 5597   6.131   4.719   2.725
 1566SOL    HW2 5598   6.215   4.626   2.829
 1567SOL     OW 5599   6.339   6.180   0.960
 1567SOL    HW1 5600   6.437   6.174   0.981
 1567SOL    HW2 5601   6.313   6.102   0.903
 1568SOL     OW 5602   1.391   6.547   6.701
 1568SOL    HW1 5603   1.440   6.516   6.619
 1568SOL    HW2 5604   1.347   6.470   6.745
 1569SOL     OW 5605   4.759   6.235   3.437
 1569SOL    HW1 5606   4.728   6.242   3.342
 1569SOL    HW2 5607   4.710   6.160   3.483
 1570SOL     OW 5608   1.569   0.183   1.254
 1570SOL    HW1 5609   1.537   0.225   1.339
 1570SOL    HW2 5610   1.505   0.202   1.180
 1571SOL     OW 5611   5.534   2.365   0.739
 1571SOL    HW1 5612   5.449   2.386   0.691
 1571SOL    HW2 5613   5.580   2.450   0.765
 1572SOL     OW 5614   0.139   6.777   1.382
 1572SOL    HW1 5615   0.182   6.690   1.405
 1572SOL    HW2 5616   0.075   6.764   1.306
 1573SOL     OW 5617   5.290   2.349   2.833
 1573SOL    HW1 5618   5.306   2.331   2.930
 1573SOL    HW2 5619   5.231   2.429   2.823
 1574SOL     OW 5620   6.177   0.790   1.920
 1574SOL    HW1 5621   6.258   0.846   1.901
 1574SOL    HW2 5622   6.124   0.832   1.994
 1575SOL     OW 5623   3.034   1.335   0.351
 1575SOL    HW1 5624   3.099   1.261   0.336
 1575SOL    HW2 5625   2.987   1.357   0.266
 1576SOL     OW 5626   0.659   6.751   3.823
 1576SOL    HW1 5627   0.671   6.791   3.914
 1576SOL    HW2 5628   0.583   6.797   3.776
 1577SOL     OW 5629   3.407   1.867   4.568
 1577SOL    HW1 5630   3.308   1.877   4.577
 1577SOL    HW2 5631   3.452   1.945   4.611
 1578SOL     OW 5632   5.939   3.763   5.262
 1578SOL    HW1 5633   5.990   3.798   5.183
 1578SOL    HW2 5634   5.931   3.836   5.330
 1579SOL     OW 5635   6.986   1.973   2.823
 1579SOL    HW1 5636   6.954   2.066   2.840
 1579SOL    HW2 5637   0.054   1.963   2.859
 1580SOL     OW 5638   2.449   3.597   5.375
 1580SOL    HW1 5639   2.411   3.628   5.463
 1580SOL    HW2 5640   2.513   3.665   5.340
 1581SOL     OW 5641   0.266   4.559   5.208
 1581SOL    HW1 5642   0.264   4.467   5.248
 1581SOL    HW2 5643   0.357   4.576   5.171
 1582SOL     OW 5644   1.498   6.589   4.357
 1582SOL    HW1 5645   1.449   6.675   4.357
 1582SOL    HW2 5646   1.434   6.513   4.370
 1583SOL     OW 5647   0.899   3.918   3.640
 1583SOL    HW1 5648   0.921   3.910   3.737
 1583SOL    HW2 5649   0.869   3.830   3.604
 1584SOL     OW 5650   1.148   6.723   4.795
 1584SOL    HW1 5651   1.165   6.718   4.697
 1584SOL    HW2 5652   1.072   6.662   4.819
 1585SOL     OW 5653   5.830   1.251   3.647
 1585SOL    HW1 5654   5.772   1.239   3.566
 1585SOL    HW2 5655   5.773   1.256   3.729
 1586SOL     OW 5656   3.152   3.970   1.004
 1586SOL    HW1 5657   3.122   3.907   1.075
 1586SOL    HW2 5658   3.252   3.970   0.998
 1587SOL     OW 5659   2.517   5.244   0.047
 1587SOL    HW1 5660   2.605   5.198   0.059
 1587SOL    HW2 5661   2.463   5.234   0.131
 1588SOL     OW 5662   5.167   1.334   3.075
 1588SOL    HW1 5663   5.110   1.298   3.001
 1588SOL    HW2 5664   5.215   1.259   3.120
 1589SOL     OW 5665   6.369   4.022   2.914
 1589SOL    HW1 5666   6.428   4.043   2.991
 1589SOL    HW2 5667   6.313   4.103   2.892
 1590SOL     OW 5668   2.621   6.593   5.823
 1590SOL    HW1 5669   2.563   6.534   5.879
 1590SOL    HW2 5670   2.712   6.600   5.865
 1591SOL     OW 5671   0.736   4.834   2.949
 1591SOL    HW1 5672   0.796   4.855   2.872
 1591SOL    HW2 5673   0.660   4.777   2.918
 1592SOL     OW 5674   2.592   4.559   1.409
 1592SOL    HW1 5675   2.508   4.504   1.406
 1592SOL    HW2 5676   2.610   4.586   1.503
 1593SOL     OW 5677   0.808   6.250   4.010
 1593SOL    HW1 5678   0.811   6.231   4.108
 1593SOL    HW2 5679   0.712   6.249   3.980
 1594SOL     OW 5680   6.889   5.655   2.650
 1594SOL    HW1 5681   6.866   5.730   2.589
 1594SOL    HW2 5682   6.806   5.600   2.667
 1595SOL     OW 5683   1.278   5.174   6.739
 1595SOL    HW1 5684   1.249   5.114   6.665
 1595SOL    HW2 5685   1.213   5.250   6.749
 1596SOL     OW 5686   0.492   3.013   4.983
 1596SOL    HW1 5687   0.560   3.076   5.020
 1596SOL    HW2 5688   0.537   2.928   4.956
 1597SOL     OW 5689   2.361   5.723   0.031
 1597SOL    HW1 5690   2.408   5.674   6.983
 1597SOL    HW2 5691   2.266   5.740   0.004
 1598SOL     OW 5692   0.909   3.648   0.139
 1598SOL    HW1 5693   0.939   3.687   0.226
 1598SOL    HW2 5694   0.987   3.637   0.078
 1599SOL     OW 5695   4.988   4.305   5.689
 1599SOL    HW1 5696   5.032   4.393   5.671
 1599SOL    HW2 5697   5.040   4.256   5.760
 1600SOL     OW 5698   5.277   1.760   5.061
 1600SOL    HW1 5699   5.275   1.678   5.004
 1600SOL    HW2 5700   5.317   1.738   5.150
 1601SOL     OW 5701   0.425   5.116   4.518
 1601SOL    HW1 5702   0.478   5.126   4.434
 1601SOL    HW2 5703   0.482   5.142   4.596
 1602SOL     OW 5704   2.173   5.535   4.107
 1602SOL    HW1 5705   2.226   5.619   4.093
 1602SOL    HW2 5706   2.104   5.527   4.035
 1603SOL     OW 5707   0.555   5.998   2.165
 1603SOL    HW1 5708   0.545   5.899   2.177
 1603SOL    HW2 5709   0.475   6.045   2.203
 1604SOL     OW 5710   6.042   4.740   6.995
 1604SOL    HW1 5711   6.049   4.804   0.046
 1604SOL    HW2 5712   6.118   4.676   6.997
 1605SOL     OW 5713   6.380   6.487   2.546
 1605SOL    HW1 5714   6.420   6.428   2.617
 1605SOL    HW2 5715   6.289   6.454   2.522
 1606SOL     OW 5716   3.373   0.227   4.849
 1606SOL    HW1 5717   3.286   0.182   4.869
 1606SOL    HW2 5718   3.377   0.252   4.752
 1607SOL     OW 5719   4.453   2.561   0.472
 1607SOL    HW1 5720   4.481   2.647   0.431
 1607SOL    HW2 5721   4.528   2.524   0.528
 1608SOL     OW 5722   1.499   0.843   5.370
 1608SOL    HW1 5723   1.531   0.811   5.281
 1608SOL    HW2 5724   1.414   0.796   5.394
 1609SOL     OW 5725   4.277   0.858   0.100
 1609SOL    HW1 5726   4.345   0.927   0.076
 1609SOL    HW2 5727   4.266   0.794   0.024
 1610SOL     OW 5728   6.311   3.907   5.116
 1610SOL    HW1 5729   6.364   3.857   5.048
 1610SOL    HW2 5730   6.355   3.995   5.134
 1611SOL     OW 5731   3.659   3.483   1.562
 1611SOL    HW1 5732   3.611   3.568   1.544
 1611SOL    HW2 5733   3.752   3.489   1.525
 1612SOL     OW 5734   3.202   1.315   5.505
 1612SOL    HW1 5735   3.168   1.384   5.568
 1612SOL    HW2 5736   3.294   1.287   5.532
 1613SOL     OW 5737   1.759   6.030   1.849
 1613SOL    HW1 5738   1.679   6.063   1.900
 1613SOL    HW2 5739   1.729   5.982   1.768
 1614SOL     OW 5740   6.413   3.625   0.413
 1614SOL    HW1 5741   6.322   3.662   0.392
 1614SOL    HW2 5742   6.406   3.528   0.433
 1615SOL     OW 5743   6.270   4.707   0.766
 1615SOL    HW1 5744   6.225   4.682   0.852
 1615SOL    HW2 5745   6.295   4.624   0.716
 1616SOL     OW 5746   3.976   2.277   5.704
 1616SOL    HW1 5747   4.007   2.235   5.789
 1616SOL    HW2 5748   3.880   2.305   5.714
 1617SOL     OW 5749   6.370   0.056   1.394
 1617SOL    HW1 5750   6.325   0.068   1.305
 1617SOL    HW2 5751   6.370   6.984   1.418
 1618SOL     OW 5752   0.682   3.734   0.700
 1618SOL    HW1 5753   0.651   3.667   0.767
 1618SOL    HW2 5754   0.605   3.794   0.675
 1619SOL     OW 5755   1.265   1.879   3.867
 1619SOL    HW1 5756   1.303   1.946   3.803
 1619SOL    HW2 5757   1.272   1.788   3.827
 1620SOL     OW 5758   1.882   5.973   0.834
 1620SOL    HW1 5759   1.874   6.060   0.785
 1620SOL    HW2 5760   1.941   5.911   0.783
 1621SOL     OW 5761   0.448   1.434   0.564
 1621SOL    HW1 5762   0.358   1.390   0.556
 1621SOL    HW2 5763   0.460   1.499   0.489
 1622SOL     OW 5764   1.113   2.552   4.813
 1622SOL    HW1 5765   1.015   2.538   4.830
 1622SOL    HW2 5766   1.145   2.484   4.748
 1623SOL     OW 5767   2.701   3.088   5.825
 1623SOL    HW1 5768   2.613   3.077   5.779
 1623SOL    HW2 5769   2.702   3.175   5.875
 1624SOL     OW 5770   3.523   1.031   5.827
 1624SOL    HW1 5771   3.521   1.058   5.731
 1624SOL    HW2 5772   3.435   0.992   5.853
 1625SOL     OW 5773   1.285   5.773   2.119
 1625SOL    HW1 5774   1.240   5.694   2.077
 1625SOL    HW2 5775   1.220   5.822   2.177
 1626SOL     OW 5776   3.143   1.989   6.721
 1626SOL    HW1 5777   3.112   1.974   6.627
 1626SOL    HW2 5778   3.077   1.950   6.785
 1627SOL     OW 5779   6.473   2.155   4.153
 1627SOL    HW1 5780   6.530   2.099   4.212
 1627SOL    HW2 5781   6.400   2.197   4.207
 1628SOL     OW 5782   4.516   4.965   6.689
 1628SOL    HW1 5783   4.578   5.016   6.629
 1628SOL    HW2 5784   4.544   4.869   6.691
 1629SOL     OW 5785   3.128   1.833   4.595
 1629SOL    HW1 5786   3.077   1.918   4.578
 1629SOL    HW2 5787   3.064   1.757   4.606
 1630SOL     OW 5788   1.204   6.346   5.411
 1630SOL    HW1 5789   1.246   6.416   5.469
 1630SOL    HW2 5790   1.106   6.361   5.406
 1631SOL     OW 5791   0.451   1.235   6.088
 1631SOL    HW1 5792   0.387   1.311   6.099
 1631SOL    HW2 5793   0.413   1.168   6.024
 1632SOL     OW 5794   0.313   1.677   0.126
 1632SOL    HW1 5795   0.215   1.688   0.143
 1632SOL    HW2 5796   0.327   1.633   0.037
 1633SOL     OW 5797   5.113   2.036   3.801
 1633SOL    HW1 5798   5.168   2.102   3.750
 1633SOL    HW2 5799   5.056   1.984   3.738
 1634SOL     OW 5800   4.180   5.226   5.672
 1634SOL    HW1 5801   4.128   5.243   5.756
 1634SOL    HW2 5802   4.249   5.297   5.661
 1635SOL     OW 5803   6.265   5.539   5.421
 1635SOL    HW1 5804   6.260   5.444   5.451
 1635SOL    HW2 5805   6.258   5.542   5.321
 1636SOL     OW 5806   2.138   4.158   1.493
 1636SOL    HW1 5807   2.158   4.084   1.430
 1636SOL    HW2 5808   2.115   4.241   1.441
 1637SOL     OW 5809   6.677   0.650   2.994
 1637SOL    HW1 5810   6.743   0.629   3.066
 1637SOL    HW2 5811   6.684   0.747   2.969
 1638SOL     OW 5812   0.758   4.089   4.085
 1638SOL    HW1 5813   0.724   4.175   4.049
 1638SOL    HW2 5814   0.749   4.017   4.016
 1639SOL     OW 5815   4.826   0.055   2.687
 1639SOL    HW1 5816   4.812   0.070   2.589
 1639SOL    HW2 5817   4.783   0.128   2.739
 1640SOL     OW 5818   5.771   1.777   1.129
 1640SOL    HW1 5819   5.822   1.691   1.120
 1640SOL    HW2 5820   5.723   1.779   1.217
 1641SOL     OW 5821   5.399   3.003   3.874
 1641SOL    HW1 5822   5.411   3.099   3.851
 1641SOL    HW2 5823   5.466   2.948   3.823
 1642SOL     OW 5824   6.439   3.398   0.102
 1642SOL    HW1 5825   6.417   3.491   0.133
 1642SOL    HW2 5826   6.509   3.403   0.031
 1643SOL     OW 5827   2.892   5.681   4.118
 1643SOL    HW1 5828   2.851   5.613   4.058
 1643SOL    HW2 5829   2.991   5.685   4.102
 1644SOL     OW 5830   1.435   2.396   1.071
 1644SOL    HW1 5831   1.418   2.356   0.981
 1644SOL    HW2 5832   1.463   2.492   1.061
 1645SOL     OW 5833   3.102   6.586   4.977
 1645SOL    HW1 5834   3.015   6.589   5.026
 1645SOL    HW2 5835   3.177   6.575   5.042
 1646SOL     OW 5836   2.653   6.137   1.417
 1646SOL    HW1 5837   2.595   6.058   1.397
 1646SOL    HW2 5838   2.598   6.221   1.412
 1647SOL     OW 5839   5.338   2.246   4.323
 1647SOL    HW1 5840   5.269   2.174   4.310
 1647SOL    HW2 5841   5.292   2.330   4.353
 1648SOL     OW 5842   6.052   6.021   1.244
 1648SOL    HW1 5843   6.074   5.947   1.180
 1648SOL    HW2 5844   6.122   6.092   1.238
 1649SOL     OW 5845   3.563   0.693   3.649
 1649SOL    HW1 5846   3.663   0.687   3.643
 1649SOL    HW2 5847   3.523   0.604   3.625
 1650SOL     OW 5848   2.383   6.758   4.056
 1650SOL    HW1 5849   2.305   6.821   4.068
 1650SOL    HW2 5850   2.467   6.811   4.050
 1651SOL     OW 5851   0.892   1.136   1.319
 1651SOL    HW1 5852   0.970   1.188   1.355
 1651SOL    HW2 5853   0.839   1.194   1.257
 1652SOL     OW 5854   1.269   2.637   1.994
 1652SOL    HW1 5855   1.249   2.666   1.900
 1652SOL    HW2 5856   1.308   2.545   1.993
 1653SOL     OW 5857   0.353   6.517   1.892
 1653SOL    HW1 5858   0.309   6.499   1.803
 1653SOL    HW2 5859   0.340   6.437   1.951
 1654SOL     OW 5860   6.795   2.530   1.909
 1654SOL    HW1 5861   6.820   2.466   1.982
 1654SOL    HW2 5862   6.863   2.603   1.903
 1655SOL     OW 5863   5.561   3.827   5.637
 1655SOL    HW1 5864   5.622   3.889   5.589
 1655SOL    HW2 5865   5.611   3.744   5.662
 1656SOL     OW 5866   1.655   4.572   3.321
 1656SOL    HW1 5867   1.688   4.529   3.237
 1656SOL    HW2 5868   1.577   4.521   3.357
 1657SOL     OW 5869   0.067   1.475   4.404
 1657SOL    HW1 5870   0.100   1.510   4.316
 1657SOL    HW2 5871   0.062   1.376   4.401
 1658SOL     OW 5872   0.488   0.265   3.064
 1658SOL    HW1 5873   0.459   0.360   3.076
 1658SOL    HW2 5874   0.407   0.207   3.056
 1659SOL     OW 5875   3.746   1.659   6.055
 1659SOL    HW1 5876   3.837   1.662   6.014
 1659SOL    HW2 5877   3.684   1.610   5.993
 1660SOL     OW 5878   1.684   4.726   4.000
 1660SOL    HW1 5879   1.668   4.745   4.097
 1660SOL    HW2 5880   1.641   4.799   3.945
 1661SOL     OW 5881   3.221   1.459   1.550
 1661SOL    HW1 5882   3.230   1.548   1.595
 1661SOL    HW2 5883   3.152   1.466   1.478
 1662SOL     OW 5884   6.610   1.182   3.800
 1662SOL    HW1 5885   6.543   1.255   3.784
 1662SOL    HW2 5886   6.607   1.154   3.896
 1663SOL     OW 5887   2.799   1.419   3.264
 1663SOL    HW1 5888   2.825   1.480   3.189
 1663SOL    HW2 5889   2.713   1.450   3.304
 1664SOL     OW 5890   1.578   0.403   3.795
 1664SOL    HW1 5891   1.569   0.366   3.703
 1664SOL    HW2 5892   1.488   0.417   3.835
 1665SOL     OW 5893   6.702   1.524   2.571
 1665SOL    HW1 5894   6.779   1.571   2.528
 1665SOL    HW2 5895   6.710   1.531   2.670
 1666SOL     OW 5896   6.127   3.878   0.597
 1666SOL    HW1 5897   6.139   3.928   0.511
 1666SOL    HW2 5898   6.046   3.913   0.645
 1667SOL     OW 5899   5.430   6.719   0.835
 1667SOL    HW1 5900   5.455   6.638   0.888
 1667SOL    HW2 5901   5.378   6.691   0.754
 1668SOL     OW 5902   5.144   6.021   6.069
 1668SOL    HW1 5903   5.161   6.082   6.146
 1668SOL    HW2 5904   5.231   5.995   6.027
 1669SOL     OW 5905   6.309   0.010   0.793
 1669SOL    HW1 5906   6.316   6.954   0.850
 1669SOL    HW2 5907   6.214   0.042   0.792
 1670SOL     OW 5908   7.015   5.653   6.513
 1670SOL    HW1 5909   7.018   5.740   6.464
 1670SOL    HW2 5910   6.990   5.580   6.450
 1671SOL     OW 5911   4.401   2.395   0.765
 1671SOL    HW1 5912   4.375   2.443   0.681
 1671SOL    HW2 5913   4.366   2.444   0.844
 1672SOL     OW 5914   2.039   4.083   2.509
 1672SOL    HW1 5915   2.074   4.170   2.544
 1672SOL    HW2 5916   2.034   4.087   2.409
 1673SOL     OW 5917   0.665   2.557   4.427
 1673SOL    HW1 5918   0.674   2.554   4.328
 1673SOL    HW2 5919   0.664   2.464   4.464
 1674SOL     OW 5920   1.100   3.850   1.464
 1674SOL    HW1 5921   1.137   3.912   1.395
 1674SOL    HW2 5922   1.066   3.902   1.542
 1675SOL     OW 5923   4.222   6.969   6.199
 1675SOL    HW1 5924   4.218   7.000   6.104
 1675SOL    HW2 5925   4.269   6.881   6.203
 1676SOL     OW 5926   3.447   1.164   2.115
 1676SOL    HW1 5927   3.537   1.150   2.075
 1676SOL    HW2 5928   3.377   1.140   2.048
 1677SOL     OW 5929   4.268   2.740   5.620
 1677SOL    HW1 5930   4.326   2.682   5.677
 1677SOL    HW2 5931   4.178   2.750   5.662
 1678SOL     OW 5932   5.363   4.687   4.460
 1678SOL    HW1 5933   5.375   4.775   4.413
 1678SOL    HW2 5934   5.271   4.681   4.498
 1679SOL     OW 5935   2.133   3.499   4.837
 1679SOL    HW1 5936   2.209   3.533   4.893
 1679SOL    HW2 5937   2.095   3.575   4.783
 1680SOL     OW 5938   0.961   1.793   3.984
 1680SOL    HW1 5939   0.955   1.874   3.925
 1680SOL    HW2 5940   1.040   1.801   4.044
 1681SOL     OW 5941   6.465   5.984   1.156
 1681SOL    HW1 5942   6.393   6.045   1.189
 1681SOL    HW2 5943   6.471   5.990   1.057
 1682SOL     OW 5944   0.140   2.839   4.444
 1682SOL    HW1 5945   0.107   2.934   4.453
 1682SOL    HW2 5946   0.223   2.827   4.498
 1683SOL     OW 5947   3.683   5.656   1.091
 1683SOL    HW1 5948   3.714   5.591   1.160
 1683SOL    HW2 5949   3.751   5.729   1.081
 1684SOL     OW 5950   1.297   6.113   2.909
 1684SOL    HW1 5951   1.293   6.030   2.965
 1684SOL    HW2 5952   1.242   6.101   2.827
 1685SOL     OW 5953   3.046   1.145   6.555
 1685SOL    HW1 5954   3.116   1.152   6.483
 1685SOL    HW2 5955   3.091   1.141   6.644
 1686SOL     OW 5956   2.044   4.921   5.550
 1686SOL    HW1 5957   2.007   4.833   5.580
 1686SOL    HW2 5958   2.143   4.918   5.549
 1687SOL     OW 5959   2.158   3.348   1.507
 1687SOL    HW1 5960   2.138   3.348   1.409
 1687SOL    HW2 5961   2.258   3.346   1.520
 1688SOL     OW 5962   1.153   2.425   3.559
 1688SOL    HW1 5963   1.097   2.418   3.477
 1688SOL    HW2 5964   1.249   2.437   3.533
 1689SOL     OW 5965   3.863   0.920   1.671
 1689SOL    HW1 5966   3.810   0.905   1.588
 1689SOL    HW2 5967   3.843   1.011   1.707
 1690SOL     OW 5968   1.314   2.535   3.252
 1690SOL    HW1 5969   1.290   2.631   3.259
 1690SOL    HW2 5970   1.231   2.480   3.240
 1691SOL     OW 5971   4.878   3.704   3.191
 1691SOL    HW1 5972   4.826   3.782   3.227
 1691SOL    HW2 5973   4.875   3.629   3.256
 1692SOL     OW 5974   6.785   6.888   1.550
 1692SOL    HW1 5975   6.768   6.914   1.455
 1692SOL    HW2 5976   6.716   6.930   1.609
 1693SOL     OW 5977   1.185   2.288   2.073
 1693SOL    HW1 5978   1.217   2.300   2.167
 1693SOL    HW2 5979   1.262   2.301   2.010
 1694SOL     OW 5980   4.528   6.641   4.346
 1694SOL    HW1 5981   4.452   6.688   4.300
 1694SOL    HW2 5982   4.589   6.709   4.386
 1695SOL     OW 5983   2.640   1.293   5.425
 1695SOL    HW1 5984   2.622   1.328   5.517
 1695SOL    HW2 5985   2.567   1.229   5.399
 1696SOL     OW 5986   5.448   5.222   0.736
 1696SOL    HW1 5987   5.363   5.178   0.765
 1696SOL    HW2 5988   5.427   5.311   0.697
 1697SOL     OW 5989   6.425   6.669   2.230
 1697SOL    HW1 5990   6.397   6.754   2.186
 1697SOL    HW2 5991   6.455   6.688   2.323
 1698SOL     OW 5992   4.494   1.447   0.519
 1698SOL    HW1 5993   4.575   1.426   0.573
 1698SOL    HW2 5994   4.412   1.428   0.573
 1699SOL     OW 5995   2.936   1.056   2.265
 1699SOL    HW1 5996   2.974   1.117   2.334
 1699SOL    HW2 5997   2.976   0.964   2.276
 1700SOL     OW 5998   6.152   1.937   3.728
 1700SOL    HW1 5999   6.116   1.868   3.791
 1700SOL    HW2 6000   6.139   2.028   3.766
 1701SOL     OW 6001   5.012   3.297   5.266
 1701SOL    HW1 6002   4.965   3.276   5.180
 1701SOL    HW2 6003   5.076   3.224   5.287
 1702SOL     OW 6004   6.961   3.527   0.754
 1702SOL    HW1 6005   6.903   3.448   0.774
 1702SOL    HW2 6006   0.024   3.496   0.719
 1703SOL     OW 6007   3.451   4.065   3.137
 1703SOL    HW1 6008   3.367   4.060   3.191
 1703SOL    HW2 6009   3.430   4.097   3.044
 1704SOL     OW 6010   0.658   1.287   1.182
 1704SOL    HW1 6011   0.602   1.205   1.167
 1704SOL    HW2 6012   0.614   1.346   1.249
 1705SOL     OW 6013   3.491   2.058   2.245
 1705SOL    HW1 6014   3.394   2.076   2.261
 1705SOL    HW2 6015   3.522   2.108   2.164
 1706SOL     OW 6016   4.094   6.873   1.286
 1706SOL    HW1 6017   4.176   6.930   1.289
 1706SOL    HW2 6018   4.098   6.805   1.360
 1707SOL     OW 6019   4.379   1.397   2.756
 1707SOL    HW1 6020   4.401   1.437   2.667
 1707SOL    HW2 6021   4.284   1.366   2.756
 1708SOL     OW 6022   5.281   5.683   2.047
 1708SOL    HW1 6023   5.218   5.758   2.068
 1708SOL    HW2 6024   5.374   5.710   2.071
 1709SOL     OW 6025   2.756   5.918   1.805
 1709SOL    HW1 6026   2.800   6.003   1.776
 1709SOL    HW2 6027   2.683   5.895   1.741
 1710SOL     OW 6028   5.904   4.527   3.922
 1710SOL    HW1 6029   5.824   4.482   3.964
 1710SOL    HW2 6030   5.982   4.521   3.985
 1711SOL     OW 6031   1.538   4.480   5.159
 1711SOL    HW1 6032   1.635   4.507   5.159
 1711SOL    HW2 6033   1.481   4.561   5.176
 1712SOL     OW 6034   1.133   3.130   6.629
 1712SOL    HW1 6035   1.098   3.055   6.685
 1712SOL    HW2 6036   1.194   3.187   6.684
 1713SOL     OW 6037   3.310   1.814   1.053
 1713SOL    HW1 6038   3.243   1.797   0.981
 1713SOL    HW2 6039   3.400   1.826   1.012
 1714SOL     OW 6040   4.481   1.765   5.970
 1714SOL    HW1 6041   4.454   1.689   6.029
 1714SOL    HW2 6042   4.435   1.756   5.881
 1715SOL     OW 6043   6.688   3.849   2.505
 1715SOL    HW1 6044   6.700   3.948   2.514
 1715SOL    HW2 6045   6.715   3.820   2.413
 1716SOL     OW 6046   5.071   7.003   1.569
 1716SOL    HW1 6047   5.117   6.954   1.643
 1716SOL    HW2 6048   5.083   6.953   1.484
 1717SOL     OW 6049   1.975   6.258   6.420
 1717SOL    HW1 6050   1.997   6.161   6.435
 1717SOL    HW2 6051   1.876   6.270   6.416
 1718SOL     OW 6052   2.000   1.436   1.013
 1718SOL    HW1 6053   1.992   1.515   1.073
 1718SOL    HW2 6054   2.043   1.464   0.927
 1719SOL     OW 6055   2.412   4.379   1.340
 1719SOL    HW1 6056   2.356   4.375   1.256
 1719SOL    HW2 6057   2.472   4.299   1.343
 1720SOL     OW 6058   6.881   1.253   1.580
 1720SOL    HW1 6059   6.913   1.208   1.497
 1720SOL    HW2 6060   6.817   1.326   1.556
 1721SOL     OW 6061   1.199   6.369   2.658
 1721SOL    HW1 6062   1.256   6.350   2.577
 1721SOL    HW2 6063   1.170   6.282   2.699
 1722SOL     OW 6064   5.240   1.409   3.867
 1722SOL    HW1 6065   5.276   1.442   3.780
 1722SOL    HW2 6066   5.147   1.374   3.854
 1723SOL     OW 6067   6.803   2.724   3.185
 1723SOL    HW1 6068   6.789   2.688   3.093
 1723SOL    HW2 6069   6.897   2.753   3.196
 1724SOL     OW 6070   5.808   1.524   0.756
 1724SOL    HW1 6071   5.793   1.439   0.807
 1724SOL    HW2 6072   5.748   1.595   0.791
 1725SOL     OW 6073   2.939   5.049   0.536
 1725SOL    HW1 6074   2.973   5.143   0.541
 1725SOL    HW2 6075   2.944   5.018   0.441
 1726SOL     OW 6076   0.079   4.333   5.581
 1726SOL    HW1 6077   0.074   4.407   5.514
 1726SOL    HW2 6078   0.175   4.312   5.601
 1727SOL     OW 6079   3.326   3.078   4.430
 1727SOL    HW1 6080   3.233   3.095   4.396
 1727SOL    HW2 6081   3.338   2.979   4.445
 1728SOL     OW 6082   5.400   5.470   4.874
 1728SOL    HW1 6083   5.456   5.387   4.860
 1728SOL    HW2 6084   5.459   5.544   4.907
 1729SOL     OW 6085   2.050   3.734   4.007
 1729SOL    HW1 6086   2.096   3.687   3.932
 1729SOL    HW2 6087   1.970   3.783   3.972
 1730SOL     OW 6088   6.483   0.615   4.786
 1730SOL    HW1 6089   6.400   0.643   4.737
 1730SOL    HW2 6090   6.560   0.671   4.755
 1731SOL     OW 6091   0.855   5.509   2.214
 1731SOL    HW1 6092   0.885   5.520   2.309
 1731SOL    HW2 6093   0.899   5.578   2.157
 1732SOL     OW 6094   2.458   4.503   6.279
 1732SOL    HW1 6095   2.447   4.409   6.313
 1732SOL    HW2 6096   2.389   4.562   6.321
 1733SOL     OW 6097   1.257   3.576   2.578
 1733SOL    HW1 6098   1.308   3.626   2.647
 1733SOL    HW2 6099   1.202   3.505   2.622
 1734SOL     OW 6100   4.853   2.872   1.866
 1734SOL    HW1 6101   4.800   2.901   1.786
 1734SOL    HW2 6102   4.813   2.911   1.949
 1735SOL     OW 6103   5.581   5.477   1.194
 1735SOL    HW1 6104   5.494   5.446   1.157
 1735SOL    HW2 6105   5.571   5.495   1.292
 1736SOL     OW 6106   4.733   1.902   0.559
 1736SOL    HW1 6107   4.758   1.880   0.653
 1736SOL    HW2 6108   4.809   1.880   0.498
 1737SOL     OW 6109   2.825   0.454   4.238
 1737SOL    HW1 6110   2.919   0.465   4.269
 1737SOL    HW2 6111   2.822   0.446   4.138
 1738SOL     OW 6112   1.891   2.296   4.053
 1738SOL    HW1 6113   1.866   2.392   4.046
 1738SOL    HW2 6114   1.910   2.260   3.962
 1739SOL     OW 6115   4.792   2.878   5.186
 1739SOL    HW1 6116   4.699   2.912   5.200
 1739SOL    HW2 6117   4.791   2.807   5.115
 1740SOL     OW 6118   0.079   1.829   6.739
 1740SOL    HW1 6119   0.149   1.759   6.756
 1740SOL    HW2 6120   0.038   1.813   6.650
 1741SOL     OW 6121   2.701   1.016   3.017
 1741SOL    HW1 6122   2.655   1.032   2.930
 1741SOL    HW2 6123   2.701   0.918   3.037
 1742SOL     OW 6124   4.215   5.907   5.564
 1742SOL    HW1 6125   4.235   5.984   5.624
 1742SOL    HW2 6126   4.251   5.823   5.604
 1743SOL     OW 6127   2.073   1.287   1.865
 1743SOL    HW1 6128   2.121   1.208   1.904
 1743SOL    HW2 6129   2.125   1.370   1.885
 1744SOL     OW 6130   0.485   6.897   1.829
 1744SOL    HW1 6131   0.491   6.929   1.924
 1744SOL    HW2 6132   0.399   6.849   1.815
 1745SOL     OW 6133   6.908   0.836   4.212
 1745SOL    HW1 6134   6.888   0.860   4.117
 1745SOL    HW2 6135   6.993   0.880   4.241
 1746SOL     OW 6136   2.179   5.240   5.159
 1746SOL    HW1 6137   2.260   5.217   5.212
 1746SOL    HW2 6138   2.119   5.298   5.213
 1747SOL     OW 6139   5.245   6.892   2.417
 1747SOL    HW1 6140   5.183   6.862   2.344
 1747SOL    HW2 6141   5.252   6.820   2.486
 1748SOL     OW 6142   0.089   0.600   3.472
 1748SOL    HW1 6143   0.054   0.553   3.391
 1748SOL    HW2 6144   0.130   0.533   3.534
 1749SOL     OW 6145   2.876   6.565   5.149
 1749SOL    HW1 6146   2.864   6.477   5.194
 1749SOL    HW2 6147   2.869   6.639   5.217
 1750SOL     OW 6148   5.833   0.677   3.710
 1750SOL    HW1 6149   5.919   0.687   3.660
 1750SOL    HW2 6150   5.806   0.765   3.749
 1751SOL     OW 6151   3.469   5.455   4.468
 1751SOL    HW1 6152   3.469   5.470   4.369
 1751SOL    HW2 6153   3.468   5.356   4.486
 1752SOL     OW 6154   6.609   2.085   2.243
 1752SOL    HW1 6155   6.574   2.178   2.232
 1752SOL    HW2 6156   6.594   2.056   2.337
 1753SOL     OW 6157   0.256   1.957   0.847
 1753SOL    HW1 6158   0.239   1.903   0.765
 1753SOL    HW2 6159   0.347   1.999   0.841
 1754SOL     OW 6160   3.434   3.436   1.806
 1754SOL    HW1 6161   3.369   3.382   1.752
 1754SOL    HW2 6162   3.523   3.433   1.762
 1755SOL     OW 6163   5.708   5.141   2.059
 1755SOL    HW1 6164   5.648   5.215   2.086
 1755SOL    HW2 6165   5.665   5.053   2.080
 1756SOL     OW 6166   4.202   4.331   6.412
 1756SOL    HW1 6167   4.130   4.399   6.407
 1756SOL    HW2 6168   4.208   4.296   6.506
 1757SOL     OW 6169   2.674   6.046   4.650
 1757SOL    HW1 6170   2.726   6.127   4.621
 1757SOL    HW2 6171   2.580   6.053   4.617
 1758SOL     OW 6172   2.230   0.550   3.228
 1758SOL    HW1 6173   2.303   0.515   3.286
 1758SOL    HW2 6174   2.269   0.593   3.147
 1759SOL     OW 6175   1.018   4.904   6.035
 1759SOL    HW1 6176   1.066   4.895   6.122
 1759SOL    HW2 6177   1.067   4.851   5.965
 1760SOL     OW 6178   6.769   1.305   1.819
 1760SOL    HW1 6179   6.797   1.262   1.733
 1760SOL    HW2 6180   6.844   1.361   1.853
 1761SOL     OW 6181   0.067   0.228   0.071
 1761SOL    HW1 6182   0.077   0.326   0.088
 1761SOL    HW2 6183   0.014   0.186   0.145
 1762SOL     OW 6184   6.191   1.528   5.075
 1762SOL    HW1 6185   6.275   1.545   5.023
 1762SOL    HW2 6186   6.214   1.513   5.171
 1763SOL     OW 6187   1.739   3.705   4.775
 1763SOL    HW1 6188   1.702   3.651   4.700
 1763SOL    HW2 6189   1.771   3.794   4.740
 1764SOL     OW 6190   1.384   4.083   2.844
 1764SOL    HW1 6191   1.314   4.050   2.907
 1764SOL    HW2 6192   1.475   4.065   2.882
 1765SOL     OW 6193   3.725   2.335   6.770
 1765SOL    HW1 6194   3.685   2.414   6.814
 1765SOL    HW2 6195   3.800   2.364   6.710
 1766SOL     OW 6196   4.932   3.412   4.157
 1766SOL    HW1 6197   4.918   3.451   4.248
 1766SOL    HW2 6198   4.907   3.479   4.087
 1767SOL     OW 6199   5.763   3.705   2.836
 1767SOL    HW1 6200   5.702   3.627   2.851
 1767SOL    HW2 6201   5.857   3.678   2.856
 1768SOL     OW 6202   3.712   1.483   4.831
 1768SOL    HW1 6203   3.811   1.476   4.823
 1768SOL    HW2 6204   3.674   1.513   4.743
 1769SOL     OW 6205   4.277   2.247   4.902
 1769SOL    HW1 6206   4.308   2.278   4.813
 1769SOL    HW2 6207   4.280   2.323   4.967
 1770SOL     OW 6208   0.816   5.443   4.764
 1770SOL    HW1 6209   0.879   5.520   4.754
 1770SOL    HW2 6210   0.738   5.472   4.820
 1771SOL     OW 6211   2.759   5.370   0.315
 1771SOL    HW1 6212   2.675   5.407   0.277
 1771SOL    HW2 6213   2.770   5.401   0.409
 1772SOL     OW 6214   3.177   6.984   3.301
 1772SOL    HW1 6215   3.136   6.989   3.392
 1772SOL    HW2 6216   3.169   0.049   3.257
 1773SOL     OW 6217   2.621   5.017   6.106
 1773SOL    HW1 6218   2.629   4.935   6.050
 1773SOL    HW2 6219   2.534   5.062   6.086
 1774SOL     OW 6220   4.198   6.363   1.567
 1774SOL    HW1 6221   4.228   6.271   1.590
 1774SOL    HW2 6222   4.144   6.401   1.642
 1775SOL     OW 6223   1.154   4.820   4.276
 1775SOL    HW1 6224   1.183   4.891   4.211
 1775SOL    HW2 6225   1.212   4.825   4.358
 1776SOL     OW 6226   3.019   0.235   3.966
 1776SOL    HW1 6227   3.100   0.177   3.977
 1776SOL    HW2 6228   2.986   0.228   3.872
 1777SOL     OW 6229   3.027   5.087   5.818
 1777SOL    HW1 6230   3.027   5.167   5.757
 1777SOL    HW2 6231   3.112   5.036   5.804
 1778SOL     OW 6232   4.278   3.508   5.618
 1778SOL    HW1 6233   4.375   3.483   5.618
 1778SOL    HW2 6234   4.224   3.428   5.643
 1779SOL     OW 6235   4.140   1.030   4.663
 1779SOL    HW1 6236   4.202   1.081   4.603
 1779SOL    HW2 6237   4.079   0.973   4.608
 1780SOL     OW 6238   3.317   3.115   6.260
 1780SOL    HW1 6239   3.369   3.173   6.197
 1780SOL    HW2 6240   3.229   3.093   6.219
 1781SOL     OW 6241   4.751   5.806   3.520
 1781SOL    HW1 6242   4.698   5.732   3.563
 1781SOL    HW2 6243   4.806   5.852   3.589
 1782SOL     OW 6244   3.613   1.533   2.471
 1782SOL    HW1 6245   3.654   1.444   2.452
 1782SOL    HW2 6246   3.683   1.604   2.468
 1783SOL     OW 6247   1.568   4.819   6.299
 1783SOL    HW1 6248   1.642   4.757   6.328
 1783SOL    HW2 6249   1.528   4.863   6.379
 1784SOL     OW 6250   3.733   1.328   6.010
 1784SOL    HW1 6251   3.716   1.231   6.028
 1784SOL    HW2 6252   3.830   1.347   6.026
 1785SOL     OW 6253   6.384   4.720   3.452
 1785SOL    HW1 6254   6.306   4.671   3.493
 1785SOL    HW2 6255   6.373   4.818   3.467
 1786SOL     OW 6256   1.199   2.278   1.178
 1786SOL    HW1 6257   1.291   2.306   1.148
 1786SOL    HW2 6258   1.133   2.304   1.108
 1787SOL     OW 6259   2.491   1.017   4.875
 1787SOL    HW1 6260   2.395   0.991   4.866
 1787SOL    HW2 6261   2.502   1.076   4.955
 1788SOL     OW 6262   3.472   3.104   0.180
 1788SOL    HW1 6263   3.433   3.193   0.205
 1788SOL    HW2 6264   3.520   3.066   0.259
 1789SOL     OW 6265   6.308   2.264   3.365
 1789SOL    HW1 6266   6.250   2.251   3.445
 1789SOL    HW2 6267   6.318   2.362   3.347
 1790SOL     OW 6268   3.873   5.969   4.220
 1790SOL    HW1 6269   3.813   6.026   4.163
 1790SOL    HW2 6270   3.950   6.023   4.253
 1791SOL     OW 6271   6.791   0.962   3.758
 1791SOL    HW1 6272   6.878   1.005   3.779
 1791SOL    HW2 6273   6.716   1.020   3.789
 1792SOL     OW 6274   6.978   3.036   4.503
 1792SOL    HW1 6275   6.910   3.039   4.577
 1792SOL    HW2 6276   6.938   3.075   4.420
 1793SOL     OW 6277   6.808   6.669   3.572
 1793SOL    HW1 6278   6.802   6.712   3.662
 1793SOL    HW2 6279   6.777   6.574   3.579
 1794SOL     OW 6280   5.725   6.170   6.061
 1794SOL    HW1 6281   5.683   6.140   5.975
 1794SOL    HW2 6282   5.658   6.166   6.135
 1795SOL     OW 6283   1.036   2.614   1.188
 1795SOL    HW1 6284   1.091   2.549   1.136
 1795SOL    HW2 6285   0.941   2.582   1.192
 1796SOL     OW 6286   2.439   0.471   4.232
 1796SOL    HW1 6287   2.466   0.421   4.314
 1796SOL    HW2 6288   2.486   0.431   4.153
 1797SOL     OW 6289   1.525   0.402   6.751
 1797SOL    HW1 6290   1.444   0.378   6.698
 1797SOL    HW2 6291   1.607   0.396   6.693
 1798SOL     OW 6292   5.152   1.833   4.332
 1798SOL    HW1 6293   5.128   1.884   4.414
 1798SOL    HW2 6294   5.148   1.894   4.253
 1799SOL     OW 6295   6.383   1.721   6.108
 1799SOL    HW1 6296   6.292   1.749   6.076
 1799SOL    HW2 6297   6.453   1.765   6.051
 1800SOL     OW 6298   3.895   4.908   2.454
 1800SOL    HW1 6299   3.957   4.966   2.400
 1800SOL    HW2 6300   3.810   4.895   2.403
 1801SOL     OW 6301   0.152   0.542   2.506
 1801SOL    HW1 6302   0.071   0.601   2.513
 1801SOL    HW2 6303   0.133   0.454   2.548
 1802SOL     OW 6304   5.490   5.365   2.782
 1802SOL    HW1 6305   5.523   5.300   2.850
 1802SOL    HW2 6306   5.468   5.452   2.827
 1803SOL     OW 6307   0.643   6.314   6.549
 1803SOL    HW1 6308   0.665   6.286   6.643
 1803SOL    HW2 6309   0.702   6.390   6.522
 1804SOL     OW 6310   2.198   3.857   5.414
 1804SOL    HW1 6311   2.297   3.849   5.408
 1804SOL    HW2 6312   2.157   3.766   5.427
 1805SOL     OW 6313   6.419   4.357   5.454
 1805SOL    HW1 6314   6.464   4.375   5.542
 1805SOL    HW2 6315   6.360   4.277   5.462
 1806SOL     OW 6316   0.986   0.677   0.376
 1806SOL    HW1 6317   0.897   0.651   0.412
 1806SOL    HW2 6318   1.052   0.603   0.391
 1807SOL     OW 6319   5.019   2.663   5.491
 1807SOL    HW1 6320   5.008   2.570   5.456
 1807SOL    HW2 6321   4.937   2.716   5.470
 1808SOL     OW 6322   0.495   4.093   6.013
 1808SOL    HW1 6323   0.429   4.019   6.023
 1808SOL    HW2 6324   0.580   4.068   6.058
 1809SOL     OW 6325   2.139   2.466   4.504
 1809SOL    HW1 6326   2.227   2.506   4.529
 1809SOL    HW2 6327   2.151   2.405   4.425
 1810SOL     OW 6328   2.873   7.004   3.751
 1810SOL    HW1 6329   2.848   0.073   3.775
 1810SOL    HW2 6330   2.930   7.005   3.669
 1811SOL     OW 6331   5.266   4.719   3.767
 1811SOL    HW1 6332   5.179   4.762   3.795
 1811SOL    HW2 6333   5.326   4.788   3.727
 1812SOL     OW 6334   4.267   6.059   5.057
 1812SOL    HW1 6335   4.224   5.969   5.045
 1812SOL    HW2 6336   4.358   6.047   5.099
 1813SOL     OW 6337   6.469   5.422   0.794
 1813SOL    HW1 6338   6.513   5.420   0.704
 1813SOL    HW2 6339   6.508   5.350   0.852
 1814SOL     OW 6340   6.218   1.701   0.414
 1814SOL    HW1 6341   6.246   1.669   0.505
 1814SOL    HW2 6342   6.287   1.766   0.380
 1815SOL     OW 6343   6.072   2.108   2.111
 1815SOL    HW1 6344   6.101   2.125   2.205
 1815SOL    HW2 6345   5.973   2.119   2.104
 1816SOL     OW 6346   2.562   3.622   1.196
 1816SOL    HW1 6347   2.555   3.524   1.175
 1816SOL    HW2 6348   2.650   3.641   1.238
 1817SOL     OW 6349   3.821   0.234   2.615
 1817SOL    HW1 6350   3.768   0.263   2.535
 1817SOL    HW2 6351   3.918   0.246   2.596
 1818SOL     OW 6352   1.895   6.142   2.852
 1818SOL    HW1 6353   1.867   6.076   2.921
 1818SOL    HW2 6354   1.872   6.107   2.761
 1819SOL     OW 6355   0.667   5.061   1.493
 1819SOL    HW1 6356   0.667   5.110   1.406
 1819SOL    HW2 6357   0.597   4.990   1.491
 1820SOL     OW 6358   5.045   0.806   1.938
 1820SOL    HW1 6359   5.105   0.862   1.880
 1820SOL    HW2 6360   5.033   0.717   1.896
 1821SOL     OW 6361   0.866   0.793   2.028
 1821SOL    HW1 6362   0.922   0.808   1.946
 1821SOL    HW2 6363   0.769   0.799   2.003
 1822SOL     OW 6364   2.518   2.788   1.488
 1822SOL    HW1 6365   2.421   2.814   1.482
 1822SOL    HW2 6366   2.549   2.797   1.582
 1823SOL     OW 6367   3.022   6.016   2.905
 1823SOL    HW1 6368   3.042   5.918   2.904
 1823SOL    HW2 6369   3.039   6.053   2.996
 1824SOL     OW 6370   3.150   2.492   1.743
 1824SOL    HW1 6371   3.074   2.472   1.805
 1824SOL    HW2 6372   3.235   2.457   1.783
 1825SOL     OW 6373   1.333   1.556   3.224
 1825SOL    HW1 6374   1.346   1.538   3.127
 1825SOL    HW2 6375   1.419   1.540   3.273
 1826SOL     OW 6376   3.189   6.983   1.118
 1826SOL    HW1 6377   3.102   6.937   1.103
 1826SOL    HW2 6378   3.263   6.917   1.111
 1827SOL     OW 6379   6.762   5.844   2.109
 1827SOL    HW1 6380   6.819   5.766   2.086
 1827SOL    HW2 6381   6.752   5.904   2.029
 1828SOL     OW 6382   1.198   2.228   0.609
 1828SOL    HW1 6383   1.268   2.298   0.618
 1828SOL    HW2 6384   1.241   2.139   0.595
 1829SOL     OW 6385   3.830   0.291   3.424
 1829SOL    HW1 6386   3.734   0.265   3.416
 1829SOL    HW2 6387   3.886   0.209   3.435
 1830SOL     OW 6388   6.177   5.734   3.986
 1830SOL    HW1 6389   6.221   5.647   4.006
 1830SOL    HW2 6390   6.231   5.782   3.916
 1831SOL     OW 6391   6.000   0.133   2.072
 1831SOL    HW1 6392   5.939   0.147   1.994
 1831SOL    HW2 6393   6.095   0.140   2.043
 1832SOL     OW 6394   5.299   1.275   1.082
 1832SOL    HW1 6395   5.315   1.177   1.066
 1832SOL    HW2 6396   5.237   1.286   1.160
 1833SOL     OW 6397   5.393   0.382   5.577
 1833SOL    HW1 6398   5.397   0.347   5.483
 1833SOL    HW2 6399   5.476   0.354   5.625
 1834SOL     OW 6400   2.599   3.973   0.495
 1834SOL    HW1 6401   2.673   4.023   0.450
 1834SOL    HW2 6402   2.605   3.987   0.594
 1835SOL     OW 6403   1.411   4.034   1.393
 1835SOL    HW1 6404   1.461   4.096   1.332
 1835SOL    HW2 6405   1.334   3.994   1.344
 1836SOL     OW 6406   5.137   1.683   1.213
 1836SOL    HW1 6407   5.153   1.683   1.114
 1836SOL    HW2 6408   5.072   1.610   1.236
 1837SOL     OW 6409   1.167   2.374   4.614
 1837SOL    HW1 6410   1.219   2.432   4.551
 1837SOL    HW2 6411   1.070   2.378   4.591
 1838SOL     OW 6412   0.131   1.915   4.378
 1838SOL    HW1 6413   0.075   1.911   4.295
 1838SOL    HW2 6414   0.071   1.911   4.458
 1839SOL     OW 6415   5.200   2.652   5.045
 1839SOL    HW1 6416   5.233   2.677   5.136
 1839SOL    HW2 6417   5.118   2.595   5.054
 1840SOL     OW 6418   3.598   5.773   1.342
 1840SOL    HW1 6419   3.503   5.792   1.365
 1840SOL    HW2 6420   3.601   5.709   1.265
 1841SOL     OW 6421   2.388   1.869   4.148
 1841SOL    HW1 6422   2.375   1.792   4.210
 1841SOL    HW2 6423   2.300   1.895   4.108
 1842SOL     OW 6424   0.854   5.159   0.530
 1842SOL    HW1 6425   0.861   5.097   0.452
 1842SOL    HW2 6426   0.923   5.134   0.598
 1843SOL     OW 6427   0.228   2.172   4.366
 1843SOL    HW1 6428   0.213   2.206   4.459
 1843SOL    HW2 6429   0.170   2.091   4.351
 1844SOL     OW 6430   3.746   0.204   5.641
 1844SOL    HW1 6431   3.823   0.267   5.636
 1844SOL    HW2 6432   3.777   0.116   5.677
 1845SOL     OW 6433   1.980   6.837   4.897
 1845SOL    HW1 6434   1.945   6.931   4.900
 1845SOL    HW2 6435   1.935   6.783   4.968
 1846SOL     OW 6436   4.226   2.417   0.167
 1846SOL    HW1 6437   4.305   2.402   0.107
 1846SOL    HW2 6438   4.142   2.407   0.115
 1847SOL     OW 6439   1.062   0.523   5.865
 1847SOL    HW1 6440   1.036   0.467   5.944
 1847SOL    HW2 6441   1.109   0.606   5.897
 1848SOL     OW 6442   0.693   6.731   2.483
 1848SOL    HW1 6443   0.627   6.804   2.464
 1848SOL    HW2 6444   0.727   6.740   2.577
 1849SOL     OW 6445   3.603   1.919   0.780
 1849SOL    HW1 6446   3.698   1.950   0.789
 1849SOL    HW2 6447   3.541   1.996   0.796
 1850SOL     OW 6448   0.250   3.290   2.273
 1850SOL    HW1 6449   0.189   3.362   2.309
 1850SOL    HW2 6450   0.316   3.265   2.343
 1851SOL     OW 6451   0.595   2.185   1.468
 1851SOL    HW1 6452   0.693   2.173   1.456
 1851SOL    HW2 6453   0.559   2.113   1.528
 1852SOL     OW 6454   5.822   4.020   1.941
 1852SOL    HW1 6455   5.735   4.034   1.894
 1852SOL    HW2 6456   5.897   4.048   1.881
 1853SOL     OW 6457   0.251   3.229   3.079
 1853SOL    HW1 6458   0.257   3.129   3.077
 1853SOL    HW2 6459   0.236   3.260   3.173
 1854SOL     OW 6460   2.408   6.261   3.209
 1854SOL    HW1 6461   2.353   6.344   3.219
 1854SOL    HW2 6462   2.421   6.218   3.298
 1855SOL     OW 6463   5.005   4.210   6.681
 1855SOL    HW1 6464   4.971   4.304   6.682
 1855SOL    HW2 6465   5.041   4.186   6.771
 1856SOL     OW 6466   6.649   3.812   5.105
 1856SOL    HW1 6467   6.651   3.896   5.051
 1856SOL    HW2 6468   6.565   3.809   5.159
 1857SOL     OW 6469   4.039   1.017   5.985
 1857SOL    HW1 6470   4.015   1.068   6.068
 1857SOL    HW2 6471   4.023   0.919   6.001
 1858SOL     OW 6472   5.966   3.026   3.543
 1858SOL    HW1 6473   5.890   3.051   3.603
 1858SOL    HW2 6474   6.037   2.981   3.597
 1859SOL     OW 6475   4.106   1.509   3.457
 1859SOL    HW1 6476   4.070   1.420   3.429
 1859SOL    HW2 6477   4.135   1.560   3.376
 1860SOL     OW 6478   6.606   0.626   3.919
 1860SOL    HW1 6479   6.629   0.720   3.943
 1860SOL    HW2 6480   6.684   0.567   3.937
 1861SOL     OW 6481   5.499   0.178   2.302
 1861SOL    HW1 6482   5.405   0.165   2.336
 1861SOL    HW2 6483   5.543   0.252   2.353
 1862SOL     OW 6484   2.708   0.673   6.374
 1862SOL    HW1 6485   2.685   0.603   6.307
 1862SOL    HW2 6486   2.686   0.764   6.336
 1863SOL     OW 6487   1.996   1.180   1.055
 1863SOL    HW1 6488   1.998   1.278   1.038
 1863SOL    HW2 6489   2.066   1.135   0.998
 1864SOL     OW 6490   0.842   6.647   6.025
 1864SOL    HW1 6491   0.912   6.585   6.061
 1864SOL    HW2 6492   0.852   6.736   6.068
 1865SOL     OW 6493   3.575   0.229   6.044
 1865SOL    HW1 6494   3.507   0.296   6.017
 1865SOL    HW2 6495   3.662   0.275   6.061
 1866SOL     OW 6496   4.077   4.745   3.367
 1866SOL    HW1 6497   4.005   4.681   3.343
 1866SOL    HW2 6498   4.048   4.802   3.444
 1867SOL     OW 6499   0.460   3.725   6.978
 1867SOL    HW1 6500   0.431   3.728   6.882
 1867SOL    HW2 6501   0.418   3.646   7.022
 1868SOL     OW 6502   4.725   4.214   0.136
 1868SOL    HW1 6503   4.737   4.206   0.234
 1868SOL    HW2 6504   4.662   4.143   0.104
 1869SOL     OW 6505   5.867   2.651   5.553
 1869SOL    HW1 6506   5.801   2.658   5.629
 1869SOL    HW2 6507   5.951   2.609   5.587
 1870SOL     OW 6508   2.048   3.100   5.647
 1870SOL    HW1 6509   2.079   3.021   5.594
 1870SOL    HW2 6510   2.027   3.072   5.741
 1871SOL     OW 6511   0.519   0.891   6.877
 1871SOL    HW1 6512   0.439   0.883   6.936
 1871SOL    HW2 6513   0.551   0.799   6.852
 1872SOL     OW 6514   3.447   2.554   0.033
 1872SOL    HW1 6515   3.536   2.571   0.075
 1872SOL    HW2 6516   3.434   2.617   6.981
 1873SOL     OW 6517   4.916   1.863   6.019
 1873SOL    HW1 6518   4.892   1.836   5.926
 1873SOL    HW2 6519   5.015   1.869   6.028
 1874SOL     OW 6520   3.644   1.042   1.013
 1874SOL    HW1 6521   3.703   1.106   1.061
 1874SOL    HW2 6522   3.555   1.038   1.058
 1875SOL     OW 6523   0.306   1.273   0.308
 1875SOL    HW1 6524   0.350   1.328   0.237
 1875SOL    HW2 6525   0.206   1.278   0.297
 1876SOL     OW 6526   3.951   6.878   6.191
 1876SOL    HW1 6527   3.911   6.787   6.201
 1876SOL    HW2 6528   4.051   6.871   6.195
 1877SOL     OW 6529   0.480   0.102   2.602
 1877SOL    HW1 6530   0.483   0.190   2.555
 1877SOL    HW2 6531   0.385   0.069   2.607
 1878SOL     OW 6532   6.918   2.111   3.673
 1878SOL    HW1 6533   6.874   2.112   3.583
 1878SOL    HW2 6534   6.866   2.051   3.734
 1879SOL     OW 6535   1.443   4.566   4.089
 1879SOL    HW1 6536   1.538   4.576   4.060
 1879SOL    HW2 6537   1.440   4.537   4.185
 1880SOL     OW 6538   6.944   2.048   4.530
 1880SOL    HW1 6539   6.860   1.996   4.546
 1880SOL    HW2 6540   6.934   2.140   4.569
 1881SOL     OW 6541   5.836   1.714   3.221
 1881SOL    HW1 6542   5.916   1.704   3.162
 1881SOL    HW2 6543   5.862   1.699   3.316
 1882SOL     OW 6544   1.462   3.744   6.226
 1882SOL    HW1 6545   1.472   3.823   6.286
 1882SOL    HW2 6546   1.473   3.772   6.131
 1883SOL     OW 6547   0.181   1.882   3.314
 1883SOL    HW1 6548   0.119   1.859   3.389
 1883SOL    HW2 6549   0.191   1.804   3.253
 1884SOL     OW 6550   0.073   2.413   0.867
 1884SOL    HW1 6551   0.005   2.482   0.891
 1884SOL    HW2 6552   0.163   2.441   0.901
 1885SOL     OW 6553   1.855   2.071   6.305
 1885SOL    HW1 6554   1.931   2.064   6.369
 1885SOL    HW2 6555   1.872   2.146   6.241
 1886SOL     OW 6556   1.551   0.748   1.467
 1886SOL    HW1 6557   1.576   0.660   1.505
 1886SOL    HW2 6558   1.602   0.764   1.382
 1887SOL     OW 6559   1.189   6.053   4.874
 1887SOL    HW1 6560   1.125   5.979   4.850
 1887SOL    HW2 6561   1.182   6.071   4.973
 1888SOL     OW 6562   3.107   2.223   0.124
 1888SOL    HW1 6563   3.204   2.246   0.128
 1888SOL    HW2 6564   3.093   2.132   0.163
 1889SOL     OW 6565   0.107   3.023   5.874
 1889SOL    HW1 6566   0.119   3.116   5.840
 1889SOL    HW2 6567   0.009   3.004   5.887
 1890SOL     OW 6568   1.707   6.077   4.244
 1890SOL    HW1 6569   1.760   6.144   4.295
 1890SOL    HW2 6570   1.728   6.084   4.146
 1891SOL     OW 6571   5.503   2.606   1.984
 1891SOL    HW1 6572   5.591   2.652   1.996
 1891SOL    HW2 6573   5.512   2.534   1.915
 1892SOL     OW 6574   1.986   0.536   2.533
 1892SOL    HW1 6575   1.909   0.475   2.515
 1892SOL    HW2 6576   2.066   0.483   2.559
 1893SOL     OW 6577   3.237   3.753   1.214
 1893SOL    HW1 6578   3.276   3.832   1.262
 1893SOL    HW2 6579   3.208   3.685   1.281
 1894SOL     OW 6580   3.283   4.142   3.768
 1894SOL    HW1 6581   3.363   4.142   3.827
 1894SOL    HW2 6582   3.214   4.204   3.806
 1895SOL     OW 6583   4.596   0.472   1.715
 1895SOL    HW1 6584   4.565   0.563   1.686
 1895SOL    HW2 6585   4.614   0.472   1.813
 1896SOL     OW 6586   5.304   1.301   1.544
 1896SOL    HW1 6587   5.403   1.315   1.538
 1896SOL    HW2 6588   5.268   1.351   1.623
 1897SOL     OW 6589   2.097   5.615   1.369
 1897SOL    HW1 6590   2.076   5.611   1.466
 1897SOL    HW2 6591   2.012   5.624   1.316
 1898SOL     OW 6592   2.241   5.497   3.719
 1898SOL    HW1 6593   2.153   5.456   3.697
 1898SOL    HW2 6594   2.313   5.428   3.710
 1899SOL     OW 6595   0.448   1.735   1.524
 1899SOL    HW1 6596   0.448   1.748   1.623
 1899SOL    HW2 6597   0.354   1.721   1.492
 1900SOL     OW 6598   2.128   0.325   6.944
 1900SOL    HW1 6599   2.190   0.383   6.891
 1900SOL    HW2 6600   2.167   0.233   6.951
 1901SOL     OW 6601   1.907   1.951   0.628
 1901SOL    HW1 6602   1.933   2.017   0.557
 1901SOL    HW2 6603   1.984   1.937   0.690
 1902SOL     OW 6604   2.033   0.959   5.241
 1902SOL    HW1 6605   2.070   0.896   5.310
 1902SOL    HW2 6606   1.961   1.014   5.282
 1903SOL     OW 6607   0.449   3.753   2.643
 1903SOL    HW1 6608   0.522   3.770   2.710
 1903SOL    HW2 6609   0.416   3.841   2.608
 1904SOL     OW 6610   5.707   5.334   3.648
 1904SOL    HW1 6611   5.714   5.397   3.570
 1904SOL    HW2 6612   5.780   5.354   3.713
 1905SOL     OW 6613   0.905   0.119   3.464
 1905SOL    HW1 6614   0.965   0.145   3.389
 1905SOL    HW2 6615   0.881   0.022   3.456
 1906SOL     OW 6616   1.778   0.188   4.562
 1906SOL    HW1 6617   1.724   0.258   4.610
 1906SOL    HW2 6618   1.719   0.138   4.499
 1907SOL     OW 6619   3.733   1.473   2.126
 1907SOL    HW1 6620   3.773   1.517   2.046
 1907SOL    HW2 6621   3.636   1.495   2.131
 1908SOL     OW 6622   3.439   6.503   5.709
 1908SOL    HW1 6623   3.494   6.485   5.791
 1908SOL    HW2 6624   3.444   6.424   5.648
 1909SOL     OW 6625   1.064   3.598   3.139
 1909SOL    HW1 6626   1.043   3.598   3.041
 1909SOL    HW2 6627   1.154   3.557   3.153
 1910SOL     OW 6628   0.174   5.634   6.089
 1910SOL    HW1 6629   0.109   5.658   6.017
 1910SOL    HW2 6630   0.267   5.657   6.060
 1911SOL     OW 6631   0.260   3.836   4.912
 1911SOL    HW1 6632   0.290   3.775   4.986
 1911SOL    HW2 6633   0.181   3.888   4.942
 1912SOL     OW 6634   3.192   5.666   1.034
 1912SOL    HW1 6635   3.156   5.756   1.060
 1912SOL    HW2 6636   3.116   5.601   1.028
 1913SOL     OW 6637   2.194   0.158   4.757
 1913SOL    HW1 6638   2.095   0.145   4.755
 1913SOL    HW2 6639   2.220   0.229   4.691
 1914SOL     OW 6640   4.133   3.280   6.426
 1914SOL    HW1 6641   4.084   3.264   6.512
 1914SOL    HW2 6642   4.072   3.324   6.360
 1915SOL     OW 6643   3.793   2.609   5.588
 1915SOL    HW1 6644   3.844   2.562   5.516
 1915SOL    HW2 6645   3.740   2.684   5.549
 1916SOL     OW 6646   3.854   5.740   1.433
 1916SOL    HW1 6647   3.928   5.748   1.365
 1916SOL    HW2 6648   3.766   5.755   1.388
 1917SOL     OW 6649   2.321   2.999   6.869
 1917SOL    HW1 6650   2.329   2.949   6.956
 1917SOL    HW2 6651   2.408   3.046   6.850
 1918SOL     OW 6652   1.428   1.663   4.754
 1918SOL    HW1 6653   1.434   1.615   4.841
 1918SOL    HW2 6654   1.519   1.687   4.723
 1919SOL     OW 6655   1.442   1.439   1.916
 1919SOL    HW1 6656   1.408   1.527   1.883
 1919SOL    HW2 6657   1.541   1.446   1.932
 1920SOL     OW 6658   0.398   4.023   2.895
 1920SOL    HW1 6659   0.417   3.941   2.948
 1920SOL    HW2 6660   0.320   4.007   2.834
 1921SOL     OW 6661   1.885   3.596   6.832
 1921SOL    HW1 6662   1.844   3.509   6.859
 1921SOL    HW2 6663   1.972   3.608   6.881
 1922SOL     OW 6664   2.933   3.633   1.688
 1922SOL    HW1 6665   2.929   3.716   1.632
 1922SOL    HW2 6666   2.846   3.622   1.737
 1923SOL     OW 6667   4.159   1.767   6.264
 1923SOL    HW1 6668   4.251   1.802   6.245
 1923SOL    HW2 6669   4.164   1.701   6.340
 1924SOL     OW 6670   4.397   6.419   0.076
 1924SOL    HW1 6671   4.395   6.332   0.027
 1924SOL    HW2 6672   4.461   6.481   0.031
 1925SOL     OW 6673   1.213   4.672   0.825
 1925SOL    HW1 6674   1.311   4.690   0.830
 1925SOL    HW2 6675   1.185   4.669   0.728
 1926SOL     OW 6676   3.091   6.637   2.847
 1926SOL    HW1 6677   3.031   6.716   2.841
 1926SOL    HW2 6678   3.038   6.553   2.833
 1927SOL     OW 6679   2.611   4.907   0.275
 1927SOL    HW1 6680   2.649   4.987   0.229
 1927SOL    HW2 6681   2.631   4.825   0.221
 1928SOL     OW 6682   6.291   4.179   4.763
 1928SOL    HW1 6683   6.386   4.157   4.787
 1928SOL    HW2 6684   6.248   4.099   4.722
 1929SOL     OW 6685   2.680   0.311   1.567
 1929SOL    HW1 6686   2.612   0.379   1.538
 1929SOL    HW2 6687   2.768   0.331   1.522
 1930SOL     OW 6688   5.575   3.757   6.530
 1930SOL    HW1 6689   5.515   3.764   6.451
 1930SOL    HW2 6690   5.585   3.847   6.573
 1931SOL     OW 6691   0.710   2.415   0.521
 1931SOL    HW1 6692   0.698   2.329   0.571
 1931SOL    HW2 6693   0.718   2.395   0.423
 1932SOL     OW 6694   4.730   2.686   3.484
 1932SOL    HW1 6695   4.707   2.782   3.469
 1932SOL    HW2 6696   4.674   2.651   3.559
 1933SOL     OW 6697   1.261   3.193   0.908
 1933SOL    HW1 6698   1.351   3.233   0.926
 1933SOL    HW2 6699   1.220   3.162   0.994
 1934SOL     OW 6700   0.133   1.686   4.982
 1934SOL    HW1 6701   0.212   1.742   5.010
 1934SOL    HW2 6702   0.114   1.701   4.885
 1935SOL     OW 6703   4.922   5.059   3.527
 1935SOL    HW1 6704   4.998   5.058   3.462
 1935SOL    HW2 6705   4.898   4.965   3.551
 1936SOL     OW 6706   4.806   4.006   3.872
 1936SOL    HW1 6707   4.810   3.987   3.774
 1936SOL    HW2 6708   4.735   4.074   3.890
 1937SOL     OW 6709   4.084   6.167   0.196
 1937SOL    HW1 6710   4.025   6.240   0.162
 1937SOL    HW2 6711   4.081   6.166   0.296
 1938SOL     OW 6712   1.650   2.021   1.003
 1938SOL    HW1 6713   1.559   2.014   0.962
 1938SOL    HW2 6714   1.687   1.929   1.018
 1939SOL     OW 6715   6.510   6.705   4.782
 1939SOL    HW1 6716   6.413   6.683   4.776
 1939SOL    HW2 6717   6.559   6.658   4.709
 1940SOL     OW 6718   5.975   4.487   1.313
 1940SOL    HW1 6719   6.041   4.562   1.310
 1940SOL    HW2 6720   5.986   4.431   1.230
 1941SOL     OW 6721   1.703   2.775   3.946
 1941SOL    HW1 6722   1.690   2.844   4.018
 1941SOL    HW2 6723   1.751   2.696   3.984
 1942SOL     OW 6724   5.264   3.323   2.711
 1942SOL    HW1 6725   5.288   3.416   2.684
 1942SOL    HW2 6726   5.199   3.285   2.645
 1943SOL     OW 6727   1.568   0.462   2.895
 1943SOL    HW1 6728   1.483   0.499   2.932
 1943SOL    HW2 6729   1.586   0.372   2.935
 1944SOL     OW 6730   6.038   4.096   0.318
 1944SOL    HW1 6731   6.033   4.015   0.260
 1944SOL    HW2 6732   5.949   4.142   0.318
 1945SOL     OW 6733   3.980   5.768   6.982
 1945SOL    HW1 6734   3.959   5.810   0.046
 1945SOL    HW2 6735   3.931   5.681   6.974
 1946SOL     OW 6736   5.821   0.355   1.129
 1946SOL    HW1 6737   5.795   0.362   1.032
 1946SOL    HW2 6738   5.920   0.367   1.138
 1947SOL     OW 6739   5.497   6.031   3.860
 1947SOL    HW1 6740   5.567   6.017   3.790
 1947SOL    HW2 6741   5.530   5.997   3.948
 1948SOL     OW 6742   6.146   5.164   2.765
 1948SOL    HW1 6743   6.217   5.231   2.743
 1948SOL    HW2 6744   6.065   5.182   2.710
 1949SOL     OW 6745   3.954   3.265   0.070
 1949SOL    HW1 6746   4.008   3.275   7.011
 1949SOL    HW2 6747   3.859   3.250   0.046
 1950SOL     OW 6748   3.772   2.940   2.811
 1950SOL    HW1 6749   3.775   3.039   2.822
 1950SOL    HW2 6750   3.830   2.913   2.735
 1951SOL     OW 6751   0.106   4.645   6.105
 1951SOL    HW1 6752   0.076   4.550   6.115
 1951SOL    HW2 6753   0.160   4.671   6.186
 1952SOL     OW 6754   5.493   4.783   1.051
 1952SOL    HW1 6755   5.569   4.720   1.034
 1952SOL    HW2 6756   5.520   4.850   1.120
 1953SOL     OW 6757   6.833   1.734   6.197
 1953SOL    HW1 6758   6.831   1.634   6.186
 1953SOL    HW2 6759   6.926   1.767   6.180
 1954SOL     OW 6760   6.076   0.319   1.310
 1954SOL    HW1 6761   6.060   0.271   1.396
 1954SOL    HW2 6762   6.088   0.417   1.328
 1955SOL     OW 6763   0.248   0.884   2.406
 1955SOL    HW1 6764   0.338   0.928   2.415
 1955SOL    HW2 6765   0.251   0.818   2.331
 1956SOL     OW 6766   4.527   0.190   2.014
 1956SOL    HW1 6767   4.514   0.115   2.079
 1956SOL    HW2 6768   4.615   0.235   2.032
 1957SOL     OW 6769   5.259   4.524   3.997
 1957SOL    HW1 6770   5.252   4.572   3.910
 1957SOL    HW2 6771   5.299   4.584   4.066
 1958SOL     OW 6772   4.693   1.325   1.819
 1958SOL    HW1 6773   4.673   1.330   1.916
 1958SOL    HW2 6774   4.693   1.230   1.789
 1959SOL     OW 6775   0.487   6.951   4.002
 1959SOL    HW1 6776   0.562   7.004   3.963
 1959SOL    HW2 6777   0.419   7.012   4.042
 1960SOL     OW 6778   0.083   3.695   2.152
 1960SOL    HW1 6779   7.025   3.675   2.205
 1960SOL    HW2 6780   0.163   3.680   2.210
 1961SOL     OW 6781   5.883   4.159   4.675
 1961SOL    HW1 6782   5.906   4.247   4.635
 1961SOL    HW2 6783   5.967   4.105   4.687
 1962SOL     OW 6784   1.607   6.451   2.820
 1962SOL    HW1 6785   1.604   6.373   2.884
 1962SOL    HW2 6786   1.517   6.493   2.816
 1963SOL     OW 6787   1.489   1.949   1.294
 1963SOL    HW1 6788   1.523   1.995   1.376
 1963SOL    HW2 6789   1.557   1.885   1.260
 1964SOL     OW 6790   4.170   5.095   1.698
 1964SOL    HW1 6791   4.247   5.156   1.681
 1964SOL    HW2 6792   4.185   5.008   1.649
 1965SOL     OW 6793   1.805   2.590   4.570
 1965SOL    HW1 6794   1.787   2.592   4.668
 1965SOL    HW2 6795   1.853   2.505   4.547
 1966SOL     OW 6796   1.404   5.589   1.324
 1966SOL    HW1 6797   1.362   5.516   1.270
 1966SOL    HW2 6798   1.406   5.673   1.270
 1967SOL     OW 6799   6.460   2.643   4.065
 1967SOL    HW1 6800   6.555   2.642   4.032
 1967SOL    HW2 6801   6.425   2.737   4.061
 1968SOL     OW 6802   2.507   0.871   5.566
 1968SOL    HW1 6803   2.459   0.793   5.526
 1968SOL    HW2 6804   2.523   0.940   5.496
 1969SOL     OW 6805   3.309   0.865   1.332
 1969SOL    HW1 6806   3.259   0.784   1.301
 1969SOL    HW2 6807   3.407   0.844   1.338
 1970SOL     OW 6808   0.381   0.530   5.074
 1970SOL    HW1 6809   0.478   0.550   5.085
 1970SOL    HW2 6810   0.368   0.466   4.998
 1971SOL     OW 6811   0.524   1.081   5.759
 1971SOL    HW1 6812   0.593   1.153   5.752
 1971SOL    HW2 6813   0.530   1.021   5.679
 1972SOL     OW 6814   5.596   2.582   1.170
 1972SOL    HW1 6815   5.610   2.645   1.246
 1972SOL    HW2 6816   5.626   2.490   1.197
 1973SOL     OW 6817   2.668   4.098   1.617
 1973SOL    HW1 6818   2.692   4.001   1.615
 1973SOL    HW2 6819   2.612   4.120   1.537
 1974SOL     OW 6820   4.585   6.614   4.812
 1974SOL    HW1 6821   4.647   6.596   4.888
 1974SOL    HW2 6822   4.575   6.532   4.756
 1975SOL     OW 6823   2.152   1.914   3.948
 1975SOL    HW1 6824   2.089   1.972   3.897
 1975SOL    HW2 6825   2.106   1.880   4.030
 1976SOL     OW 6826   5.424   5.757   0.425
 1976SOL    HW1 6827   5.462   5.820   0.357
 1976SOL    HW2 6828   5.328   5.740   0.405
 1977SOL     OW 6829   1.739   3.449   5.455
 1977SOL    HW1 6830   1.673   3.521   5.434
 1977SOL    HW2 6831   1.813   3.450   5.389
 1978SOL     OW 6832   1.702   5.720   2.947
 1978SOL    HW1 6833   1.709   5.651   2.875
 1978SOL    HW2 6834   1.742   5.684   3.031
 1979SOL     OW 6835   5.196   5.360   0.002
 1979SOL    HW1 6836   5.255   5.438   7.007
 1979SOL    HW2 6837   5.101   5.387   7.019
 1980SOL     OW 6838   4.196   0.474   2.896
 1980SOL    HW1 6839   4.098   0.454   2.904
 1980SOL    HW2 6840   4.229   0.515   2.982
 1981SOL     OW 6841   5.624   2.893   2.537
 1981SOL    HW1 6842   5.544   2.860   2.586
 1981SOL    HW2 6843   5.600   2.975   2.484
 1982SOL     OW 6844   6.534   3.733   3.933
 1982SOL    HW1 6845   6.479   3.805   3.974
 1982SOL    HW2 6846   6.607   3.706   3.996
 1983SOL     OW 6847   1.289   0.543   1.334
 1983SOL    HW1 6848   1.377   0.506   1.365
 1983SOL    HW2 6849   1.292   0.557   1.235
 1984SOL     OW 6850   4.395   2.355   5.236
 1984SOL    HW1 6851   4.321   2.375   5.171
 1984SOL    HW2 6852   4.470   2.419   5.222
 1985SOL     OW 6853   0.016   5.898   1.973
 1985SOL    HW1 6854   7.019   5.995   1.982
 1985SOL    HW2 6855   0.051   5.880   1.881
 1986SOL     OW 6856   3.196   0.956   6.244
 1986SOL    HW1 6857   3.247   0.876   6.214
 1986SOL    HW2 6858   3.109   0.928   6.284
 1987SOL     OW 6859   2.245   1.695   3.806
 1987SOL    HW1 6860   2.268   1.623   3.872
 1987SOL    HW2 6861   2.223   1.779   3.855
 1988SOL     OW 6862   0.673   1.758   1.007
 1988SOL    HW1 6863   0.731   1.761   1.089
 1988SOL    HW2 6864   0.603   1.687   1.018
 1989SOL     OW 6865   1.988   5.879   4.136
 1989SOL    HW1 6866   1.913   5.943   4.155
 1989SOL    HW2 6867   1.959   5.786   4.158
 1990SOL     OW 6868   3.724   6.326   0.469
 1990SOL    HW1 6869   3.773   6.332   0.382
 1990SOL    HW2 6870   3.662   6.404   0.478
 1991SOL     OW 6871   1.957   5.521   0.121
 1991SOL    HW1 6872   1.893   5.596   0.103
 1991SOL    HW2 6873   2.011   5.503   0.039
 1992SOL     OW 6874   6.871   0.456   0.304
 1992SOL    HW1 6875   6.969   0.437   0.300
 1992SOL    HW2 6876   6.846   0.517   0.229
 1993SOL     OW 6877   3.240   1.905   5.154
 1993SOL    HW1 6878   3.329   1.870   5.125
 1993SOL    HW2 6879   3.175   1.901   5.078
 1994SOL     OW 6880   5.291   2.200   1.505
 1994SOL    HW1 6881   5.379   2.218   1.548
 1994SOL    HW2 6882   5.265   2.105   1.523
 1995SOL     OW 6883   5.552   2.805   3.733
 1995SOL    HW1 6884   5.483   2.734   3.717
 1995SOL    HW2 6885   5.641   2.773   3.700
 1996SOL     OW 6886   2.482   1.864   1.510
 1996SOL    HW1 6887   2.500   1.854   1.608
 1996SOL    HW2 6888   2.554   1.919   1.469
 1997SOL     OW 6889   3.259   1.606   3.595
 1997SOL    HW1 6890   3.220   1.698   3.598
 1997SOL    HW2 6891   3.198   1.543   3.642
 1998SOL     OW 6892   1.523   3.666   0.532
 1998SOL    HW1 6893   1.503   3.675   0.630
 1998SOL    HW2 6894   1.452   3.714   0.480
 1999SOL     OW 6895   0.926   0.626   5.093
 1999SOL    HW1 6896   1.017   0.635   5.134
 1999SOL    HW2 6897   0.877   0.713   5.103
 2000SOL     OW 6898   4.094   3.304   5.764
 2000SOL    HW1 6899   4.152   3.270   5.838
 2000SOL    HW2 6900   3.998   3.281   5.782
 2001SOL     OW 6901   2.053   1.155   0.061
 2001SOL    HW1 6902   2.011   1.073   0.023
 2001SOL    HW2 6903   2.060   1.146   0.160
 2002SOL     OW 6904   0.398   5.345   0.925
 2002SOL    HW1 6905   0.400   5.287   0.843
 2002SOL    HW2 6906   0.309   5.335   0.970
 2003SOL     OW 6907   6.809   4.950   1.742
 2003SOL    HW1 6908   6.789   4.967   1.645
 2003SOL    HW2 6909   6.823   4.852   1.756
 2004SOL     OW 6910   4.242   0.466   5.103
 2004SOL    HW1 6911   4.311   0.522   5.148
 2004SOL    HW2 6912   4.234   0.378   5.150
 2005SOL     OW 6913   0.196   4.881   6.912
 2005SOL    HW1 6914   0.198   4.782   6.901
 2005SOL    HW2 6915   0.236   4.925   6.832
 2006SOL     OW 6916   5.922   6.277   4.238
 2006SOL    HW1 6917   5.912   6.261   4.140
 2006SOL    HW2 6918   5.859   6.349   4.267
 2007SOL     OW 6919   5.324   4.159   1.386
 2007SOL    HW1 6920   5.252   4.142   1.319
 2007SOL    HW2 6921   5.296   4.123   1.475
 2008SOL     OW 6922   2.178   3.304   3.390
 2008SOL    HW1 6923   2.278   3.303   3.393
 2008SOL    HW2 6924   2.145   3.398   3.380
 2009SOL     OW 6925   5.440   6.337   2.501
 2009SOL    HW1 6926   5.402   6.389   2.578
 2009SOL    HW2 6927   5.440   6.240   2.523
 2010SOL     OW 6928   1.995   1.243   1.588
 2010SOL    HW1 6929   2.006   1.257   1.686
 2010SOL    HW2 6930   1.904   1.274   1.560
 2011SOL     OW 6931   0.439   1.308   4.918
 2011SOL    HW1 6932   0.536   1.291   4.936
 2011SOL    HW2 6933   0.430   1.396   4.870
 2012SOL     OW 6934   1.784   3.435   2.242
 2012SOL    HW1 6935   1.766   3.373   2.166
 2012SOL    HW2 6936   1.875   3.475   2.231
 2013SOL     OW 6937   6.760   3.284   3.613
 2013SOL    HW1 6938   6.822   3.363   3.607
 2013SOL    HW2 6939   6.779   3.221   3.539
 2014SOL     OW 6940   3.180   0.031   2.954
 2014SOL    HW1 6941   3.115   7.001   3.007
 2014SOL    HW2 6942   3.136   0.062   2.870
 2015SOL     OW 6943   3.625   6.463   0.039
 2015SOL    HW1 6944   3.557   6.394   0.015
 2015SOL    HW2 6945   3.580   6.549   0.062
 2016SOL     OW 6946   1.534   5.564   5.274
 2016SOL    HW1 6947   1.604   5.636   5.280
 2016SOL    HW2 6948   1.463   5.593   5.210
 2017SOL     OW 6949   4.418   0.494   3.323
 2017SOL    HW1 6950   4.490   0.435   3.359
 2017SOL    HW2 6951   4.345   0.502   3.391
 2018SOL     OW 6952   6.915   3.112   3.770
 2018SOL    HW1 6953   6.831   3.058   3.776
 2018SOL    HW2 6954   6.893   3.206   3.746
 2019SOL     OW 6955   6.204   4.025   6.278
 2019SOL    HW1 6956   6.113   3.984   6.289
 2019SOL    HW2 6957   6.195   4.118   6.243
 2020SOL     OW 6958   1.742   6.313   5.794
 2020SOL    HW1 6959   1.701   6.225   5.770
 2020SOL    HW2 6960   1.694   6.386   5.746
 2021SOL     OW 6961   6.257   6.596   4.136
 2021SOL    HW1 6962   6.346   6.565   4.102
 2021SOL    HW2 6963   6.267   6.631   4.229
 2022SOL     OW 6964   1.755   4.653   4.580
 2022SOL    HW1 6965   1.752   4.741   4.532
 2022SOL    HW2 6966   1.745   4.669   4.678
 2023SOL     OW 6967   0.718   0.371   6.827
 2023SOL    HW1 6968   0.810   0.380   6.787
 2023SOL    HW2 6969   0.653   0.348   6.755
 2024SOL     OW 6970   6.809   5.804   3.887
 2024SOL    HW1 6971   6.850   5.873   3.826
 2024SOL    HW2 6972   6.710   5.805   3.876
 2025SOL     OW 6973   3.131   0.474   4.032
 2025SOL    HW1 6974   3.224   0.494   4.000
 2025SOL    HW2 6975   3.104   0.383   3.999
 2026SOL     OW 6976   6.472   1.865   6.548
 2026SOL    HW1 6977   6.426   1.811   6.618
 2026SOL    HW2 6978   6.529   1.804   6.492
 2027SOL     OW 6979   0.654   6.392   1.411
 2027SOL    HW1 6980   0.634   6.398   1.313
 2027SOL    HW2 6981   0.739   6.441   1.431
 2028SOL     OW 6982   3.637   5.465   3.305
 2028SOL    HW1 6983   3.574   5.532   3.266
 2028SOL    HW2 6984   3.731   5.488   3.279
 2029SOL     OW 6985   6.674   2.442   6.856
 2029SOL    HW1 6986   6.633   2.362   6.812
 2029SOL    HW2 6987   6.626   2.525   6.826
 2030SOL     OW 6988   3.559   0.422   2.519
 2030SOL    HW1 6989   3.621   0.384   2.451
 2030SOL    HW2 6990   3.495   0.485   2.475
 2031SOL     OW 6991   0.089   6.425   2.423
 2031SOL    HW1 6992   0.000   6.457   2.457
 2031SOL    HW2 6993   0.111   6.337   2.466
 2032SOL     OW 6994   3.437   1.306   1.181
 2032SOL    HW1 6995   3.491   1.324   1.262
 2032SOL    HW2 6996   3.406   1.211   1.181
 2033SOL     OW 6997   2.205   0.557   0.840
 2033SOL    HW1 6998   2.275   0.628   0.826
 2033SOL    HW2 6999   2.148   0.551   0.758
 2034SOL     OW 7000   1.693   5.005   5.686
 2034SOL    HW1 7001   1.735   4.989   5.596
 2034SOL    HW2 7002   1.611   5.062   5.675
 2035SOL     OW 7003   6.714   6.837   2.258
 2035SOL    HW1 7004   6.661   6.867   2.179
 2035SOL    HW2 7005   6.653   6.826   2.337
 2036SOL     OW 7006   1.638   3.913   3.526
 2036SOL    HW1 7007   1.621   4.011   3.532
 2036SOL    HW2 7008   1.572   3.871   3.465
 2037SOL     OW 7009   6.336   2.943   6.142
 2037SOL    HW1 7010   6.279   2.915   6.064
 2037SOL    HW2 7011   6.303   2.897   6.225
 2038SOL     OW 7012   2.300   0.871   0.496
 2038SOL    HW1 7013   2.309   0.947   0.432
 2038SOL    HW2 7014   2.292   0.907   0.589
 2039SOL     OW 7015   0.289   6.500   2.991
 2039SOL    HW1 7016   0.338   6.415   3.007
 2039SOL    HW2 7017   0.202   6.481   2.946
 2040SOL     OW 7018   2.012   1.487   0.214
 2040SOL    HW1 7019   2.106   1.483   0.251
 2040SOL    HW2 7020   1.948   1.453   0.283
 2041SOL     OW 7021   1.051   0.331   5.416
 2041SOL    HW1 7022   0.996   0.376   5.344
 2041SOL    HW2 7023   0.998   0.256   5.456
 2042SOL     OW 7024   4.819   0.381   5.928
 2042SOL    HW1 7025   4.872   0.297   5.943
 2042SOL    HW2 7026   4.838   0.446   6.002
 2043SOL     OW 7027   6.378   2.418   2.407
 2043SOL    HW1 7028   6.363   2.516   2.393
 2043SOL    HW2 7029   6.429   2.381   2.330
 2044SOL     OW 7030   6.052   1.067   1.229
 2044SOL    HW1 7031   6.103   1.129   1.170
 2044SOL    HW2 7032   5.972   1.032   1.180
 2045SOL     OW 7033   1.195   5.590   4.637
 2045SOL    HW1 7034   1.270   5.543   4.683
 2045SOL    HW2 7035   1.141   5.524   4.584
 2046SOL     OW 7036   6.420   2.665   5.558
 2046SOL    HW1 7037   6.425   2.565   5.552
 2046SOL    HW2 7038   6.508   2.701   5.588
 2047SOL     OW 7039   6.085   2.556   0.880
 2047SOL    HW1 7040   6.103   2.648   0.915
 2047SOL    HW2 7041   6.168   2.500   0.889
 2048SOL     OW 7042   0.275   1.045   4.589
 2048SOL    HW1 7043   0.243   0.960   4.547
 2048SOL    HW2 7044   0.206   1.078   4.654
 2049SOL     OW 7045   5.119   1.361   4.562
 2049SOL    HW1 7046   5.115   1.340   4.464
 2049SOL    HW2 7047   5.027   1.382   4.595
 2050SOL     OW 7048   0.305   2.769   4.700
 2050SOL    HW1 7049   0.286   2.684   4.750
 2050SOL    HW2 7050   0.372   2.751   4.628
 2051SOL     OW 7051   1.858   6.037   0.042
 2051SOL    HW1 7052   1.939   6.031   7.009
 2051SOL    HW2 7053   1.871   6.110   0.110
 2052SOL     OW 7054   1.531   3.038   0.824
 2052SOL    HW1 7055   1.553   3.125   0.779
 2052SOL    HW2 7056   1.485   2.977   0.760
 2053SOL     OW 7057   1.381   5.340   5.043
 2053SOL    HW1 7058   1.424   5.309   4.959
 2053SOL    HW2 7059   1.420   5.291   5.121
 2054SOL     OW 7060   3.568   3.173   3.051
 2054SOL    HW1 7061   3.514   3.094   3.023
 2054SOL    HW2 7062   3.665   3.157   3.030
 2055SOL     OW 7063   6.813   2.653   4.842
 2055SOL    HW1 7064   6.831   2.577   4.903
 2055SOL    HW2 7065   6.781   2.618   4.754
 2056SOL     OW 7066   4.235   4.651   1.567
 2056SOL    HW1 7067   4.315   4.616   1.616
 2056SOL    HW2 7068   4.263   4.724   1.505
 2057SOL     OW 7069   5.098   3.295   4.923
 2057SOL    HW1 7070   5.011   3.256   4.954
 2057SOL    HW2 7071   5.168   3.224   4.924
 2058SOL     OW 7072   0.811   6.491   2.407
 2058SOL    HW1 7073   0.905   6.490   2.440
 2058SOL    HW2 7074   0.772   6.582   2.421
 2059SOL     OW 7075   2.698   0.237   5.634
 2059SOL    HW1 7076   2.714   0.335   5.650
 2059SOL    HW2 7077   2.774   0.200   5.580
 2060SOL     OW 7078   0.580   3.210   1.511
 2060SOL    HW1 7079   0.624   3.139   1.566
 2060SOL    HW2 7080   0.493   3.176   1.475
 2061SOL     OW 7081   1.944   2.274   2.167
 2061SOL    HW1 7082   1.954   2.369   2.197
 2061SOL    HW2 7083   2.025   2.222   2.194
 2062SOL     OW 7084   6.502   5.829   5.364
 2062SOL    HW1 7085   6.548   5.916   5.344
 2062SOL    HW2 7086   6.533   5.794   5.452
 2063SOL     OW 7087   1.321   6.807   4.382
 2063SOL    HW1 7088   1.302   6.863   4.462
 2063SOL    HW2 7089   1.294   6.856   4.300
 2064SOL     OW 7090   0.897   3.021   4.319
 2064SOL    HW1 7091   0.832   3.084   4.278
 2064SOL    HW2 7092   0.882   3.017   4.418
 2065SOL     OW 7093   5.371   3.380   5.899
 2065SOL    HW1 7094   5.328   3.460   5.857
 2065SOL    HW2 7095   5.444   3.411   5.960
 2066SOL     OW 7096   6.824   4.190   5.192
 2066SOL    HW1 7097   6.807   4.117   5.126
 2066SOL    HW2 7098   6.876   4.154   5.269
 2067SOL     OW 7099   6.004   5.053   1.372
 2067SOL    HW1 7100   5.910   5.040   1.406
 2067SOL    HW2 7101   6.005   5.043   1.272
 2068SOL     OW 7102   4.101   1.391   4.533
 2068SOL    HW1 7103   4.108   1.481   4.490
 2068SOL    HW2 7104   4.173   1.331   4.499
 2069SOL     OW 7105   0.579   2.263   3.825
 2069SOL    HW1 7106   0.483   2.260   3.853
 2069SOL    HW2 7107   0.629   2.189   3.871
 2070SOL     OW 7108   1.649   2.972   1.040
 2070SOL    HW1 7109   1.710   2.901   1.005
 2070SOL    HW2 7110   1.587   3.002   0.967
 2071SOL     OW 7111   6.046   1.822   6.311
 2071SOL    HW1 7112   6.104   1.880   6.254
 2071SOL    HW2 7113   6.008   1.747   6.256
 2072SOL     OW 7114   4.135   5.038   5.177
 2072SOL    HW1 7115   4.074   5.081   5.109
 2072SOL    HW2 7116   4.110   5.070   5.268
 2073SOL     OW 7117   3.507   6.133   5.761
 2073SOL    HW1 7118   3.542   6.171   5.847
 2073SOL    HW2 7119   3.459   6.047   5.780
 2074SOL     OW 7120   1.922   2.328   6.492
 2074SOL    HW1 7121   1.950   2.326   6.396
 2074SOL    HW2 7122   1.918   2.423   6.523
 2075SOL     OW 7123   6.537   1.910   3.312
 2075SOL    HW1 7124   6.473   1.862   3.372
 2075SOL    HW2 7125   6.631   1.886   3.338
 2076SOL     OW 7126   6.484   0.546   5.289
 2076SOL    HW1 7127   6.477   0.454   5.328
 2076SOL    HW2 7128   6.579   0.564   5.264
 2077SOL     OW 7129   6.100   1.927   1.742
 2077SOL    HW1 7130   6.059   2.017   1.758
 2077SOL    HW2 7131   6.027   1.860   1.723
 2078SOL     OW 7132   1.396   5.174   6.081
 2078SOL    HW1 7133   1.496   5.175   6.090
 2078SOL    HW2 7134   1.370   5.220   5.996
 2079SOL     OW 7135   5.713   0.840   2.085
 2079SOL    HW1 7136   5.771   0.851   2.166
 2079SOL    HW2 7137   5.769   0.848   2.003
 2080SOL     OW 7138   3.641   1.702   4.977
 2080SOL    HW1 7139   3.676   1.616   4.940
 2080SOL    HW2 7140   3.545   1.713   4.950
 2081SOL     OW 7141   1.017   6.428   3.964
 2081SOL    HW1 7142   1.100   6.378   3.989
 2081SOL    HW2 7143   0.937   6.370   3.983
 2082SOL     OW 7144   0.742   6.299   3.219
 2082SOL    HW1 7145   0.746   6.340   3.128
 2082SOL    HW2 7146   0.832   6.260   3.241
 2083SOL     OW 7147   0.622   5.680   4.052
 2083SOL    HW1 7148   0.554   5.750   4.031
 2083SOL    HW2 7149   0.713   5.721   4.052
 2084SOL     OW 7150   1.025   2.476   1.619
 2084SOL    HW1 7151   1.029   2.411   1.543
 2084SOL    HW2 7152   0.951   2.450   1.681
 2085SOL     OW 7153   4.912   6.198   0.805
 2085SOL    HW1 7154   4.857   6.141   0.866
 2085SOL    HW2 7155   4.944   6.279   0.855
 2086SOL     OW 7156   3.397   6.274   6.928
 2086SOL    HW1 7157   3.420   6.350   6.867
 2086SOL    HW2 7158   3.297   6.271   6.940
 2087SOL     OW 7159   4.120   2.116   0.181
 2087SOL    HW1 7160   4.120   2.216   0.182
 2087SOL    HW2 7161   4.042   2.083   0.234
 2088SOL     OW 7162   1.045   5.909   5.274
 2088SOL    HW1 7163   1.042   5.868   5.365
 2088SOL    HW2 7164   0.963   5.964   5.259
 2089SOL     OW 7165   3.864   2.251   5.331
 2089SOL    HW1 7166   3.846   2.345   5.361
 2089SOL    HW2 7167   3.815   2.187   5.391
 2090SOL     OW 7168   4.836   2.849   5.467
 2090SOL    HW1 7169   4.839   2.861   5.368
 2090SOL    HW2 7170   4.785   2.925   5.508
 2091SOL     OW 7171   6.800   6.044   1.205
 2091SOL    HW1 7172   6.870   5.972   1.207
 2091SOL    HW2 7173   6.844   6.133   1.191
 2092SOL     OW 7174   5.342   3.808   0.478
 2092SOL    HW1 7175   5.428   3.818   0.429
 2092SOL    HW2 7176   5.360   3.790   0.574
 2093SOL     OW 7177   3.700   2.109   2.491
 2093SOL    HW1 7178   3.775   2.102   2.426
 2093SOL    HW2 7179   3.615   2.127   2.442
 2094SOL     OW 7180   5.690   2.275   0.548
 2094SOL    HW1 7181   5.639   2.286   0.634
 2094SOL    HW2 7182   5.734   2.185   0.547
 2095SOL     OW 7183   6.087   5.981   3.479
 2095SOL    HW1 7184   6.044   5.908   3.531
 2095SOL    HW2 7185   6.172   5.947   3.438
 2096SOL     OW 7186   4.579   5.965   3.076
 2096SOL    HW1 7187   4.657   5.957   3.014
 2096SOL    HW2 7188   4.589   5.901   3.152
 2097SOL     OW 7189   3.028   4.049   6.475
 2097SOL    HW1 7190   2.929   4.042   6.467
 2097SOL    HW2 7191   3.069   4.032   6.385
 2098SOL     OW 7192   4.332   6.459   2.898
 2098SOL    HW1 7193   4.404   6.389   2.893
 2098SOL    HW2 7194   4.342   6.510   2.983
 2099SOL     OW 7195   4.395   1.876   0.247
 2099SOL    HW1 7196   4.419   1.970   0.223
 2099SOL    HW2 7197   4.302   1.873   0.283
 2100SOL     OW 7198   5.073   1.124   0.627
 2100SOL    HW1 7199   5.136   1.173   0.687
 2100SOL    HW2 7200   4.991   1.097   0.678
 2101SOL     OW 7201   6.954   6.267   1.067
 2101SOL    HW1 7202   6.989   6.221   0.986
 2101SOL    HW2 7203   6.934   6.363   1.046
 2102SOL     OW 7204   4.550   3.890   1.171
 2102SOL    HW1 7205   4.471   3.837   1.202
 2102SOL    HW2 7206   4.583   3.854   1.084
 2103SOL     OW 7207   2.949   3.683   0.440
 2103SOL    HW1 7208   2.862   3.732   0.438
 2103SOL    HW2 7209   2.969   3.646   0.349
 2104SOL     OW 7210   1.435   4.831   2.182
 2104SOL    HW1 7211   1.491   4.750   2.199
 2104SOL    HW2 7212   1.373   4.845   2.259
 2105SOL     OW 7213   4.214   4.559   6.927
 2105SOL    HW1 7214   4.143   4.620   6.963
 2105SOL    HW2 7215   4.253   4.598   6.844
 2106SOL     OW 7216   5.197   3.744   1.250
 2106SOL    HW1 7217   5.160   3.758   1.342
 2106SOL    HW2 7218   5.297   3.746   1.254
 2107SOL     OW 7219   5.929   3.243   5.462
 2107SOL    HW1 7220   5.987   3.183   5.516
 2107SOL    HW2 7221   5.892   3.316   5.520
 2108SOL     OW 7222   5.492   6.385   6.172
 2108SOL    HW1 7223   5.406   6.387   6.121
 2108SOL    HW2 7224   5.557   6.447   6.130
 2109SOL     OW 7225   2.935   5.379   2.255
 2109SOL    HW1 7226   2.883   5.463   2.269
 2109SOL    HW2 7227   3.018   5.382   2.310
 2110SOL     OW 7228   4.352   0.480   6.120
 2110SOL    HW1 7229   4.339   0.564   6.173
 2110SOL    HW2 7230   4.276   0.418   6.139
 2111SOL     OW 7231   1.056   2.550   5.661
 2111SOL    HW1 7232   0.960   2.524   5.658
 2111SOL    HW2 7233   1.088   2.574   5.569
 2112SOL     OW 7234   5.689   2.116   6.534
 2112SOL    HW1 7235   5.784   2.134   6.557
 2112SOL    HW2 7236   5.640   2.084   6.615
 2113SOL     OW 7237   2.099   6.996   4.459
 2113SOL    HW1 7238   2.053   0.059   4.469
 2113SOL    HW2 7239   2.130   6.965   4.549
 2114SOL     OW 7240   2.406   2.842   0.105
 2114SOL    HW1 7241   2.480   2.860   0.170
 2114SOL    HW2 7242   2.376   2.747   0.114
 2115SOL     OW 7243   0.874   4.701   2.120
 2115SOL    HW1 7244   0.841   4.618   2.073
 2115SOL    HW2 7245   0.974   4.701   2.121
 2116SOL     OW 7246   0.418   2.693   0.982
 2116SOL    HW1 7247   0.318   2.687   0.992
 2116SOL    HW2 7248   0.448   2.629   0.911
 2117SOL     OW 7249   5.150   3.031   1.324
 2117SOL    HW1 7250   5.170   3.034   1.227
 2117SOL    HW2 7251   5.231   3.002   1.375
 2118SOL     OW 7252   6.284   3.681   1.946
 2118SOL    HW1 7253   6.258   3.777   1.959
 2118SOL    HW2 7254   6.212   3.622   1.982
 2119SOL     OW 7255   1.443   1.055   6.801
 2119SOL    HW1 7256   1.530   1.091   6.835
 2119SOL    HW2 7257   1.459   0.996   6.722
 2120SOL     OW 7258   6.402   1.954   2.758
 2120SOL    HW1 7259   6.360   2.019   2.822
 2120SOL    HW2 7260   6.442   1.878   2.810
 2121SOL     OW 7261   2.409   2.132   6.233
 2121SOL    HW1 7262   2.351   2.053   6.216
 2121SOL    HW2 7263   2.385   2.206   6.169
 2122SOL     OW 7264   5.975   6.531   6.118
 2122SOL    HW1 7265   5.977   6.614   6.174
 2122SOL    HW2 7266   6.011   6.550   6.027
 2123SOL     OW 7267   6.773   6.429   2.448
 2123SOL    HW1 7268   6.768   6.499   2.377
 2123SOL    HW2 7269   6.682   6.413   2.485
 2124SOL     OW 7270   2.889   2.133   5.704
 2124SOL    HW1 7271   2.977   2.180   5.711
 2124SOL    HW2 7272   2.853   2.142   5.611
 2125SOL     OW 7273   1.777   5.978   3.042
 2125SOL    HW1 7274   1.728   5.892   3.025
 2125SOL    HW2 7275   1.873   5.958   3.061
 2126SOL     OW 7276   3.875   3.082   0.266
 2126SOL    HW1 7277   3.909   3.122   0.181
 2126SOL    HW2 7278   3.905   3.139   0.343
 2127SOL     OW 7279   6.861   2.113   5.407
 2127SOL    HW1 7280   6.950   2.151   5.430
 2127SOL    HW2 7281   6.870   2.049   5.330
 2128SOL     OW 7282   5.708   3.772   0.886
 2128SOL    HW1 7283   5.612   3.781   0.912
 2128SOL    HW2 7284   5.738   3.678   0.904
 2129SOL     OW 7285   5.047   4.040   3.982
 2129SOL    HW1 7286   5.027   4.122   4.035
 2129SOL    HW2 7287   4.967   4.015   3.927
 2130SOL     OW 7288   2.332   1.652   1.091
 2130SOL    HW1 7289   2.331   1.638   1.190
 2130SOL    HW2 7290   2.324   1.564   1.045
 2131SOL     OW 7291   5.568   2.058   0.329
 2131SOL    HW1 7292   5.645   2.113   0.363
 2131SOL    HW2 7293   5.488   2.117   0.318
 2132SOL     OW 7294   3.327   1.190   0.206
 2132SOL    HW1 7295   3.305   1.288   0.216
 2132SOL    HW2 7296   3.334   1.149   0.296
 2133SOL     OW 7297   2.574   2.420   1.504
 2133SOL    HW1 7298   2.661   2.401   1.548
 2133SOL    HW2 7299   2.584   2.499   1.442
 2134SOL     OW 7300   0.813   0.475   4.437
 2134SOL    HW1 7301   0.883   0.406   4.421
 2134SOL    HW2 7302   0.816   0.543   4.364
 2135SOL     OW 7303   0.602   2.027   4.035
 2135SOL    HW1 7304   0.687   1.997   4.079
 2135SOL    HW2 7305   0.547   2.078   4.102
 2136SOL     OW 7306   0.975   3.784   5.117
 2136SOL    HW1 7307   0.993   3.851   5.044
 2136SOL    HW2 7308   0.989   3.827   5.206
 2137SOL     OW 7309   0.744   6.910   5.189
 2137SOL    HW1 7310   0.784   7.000   5.168
 2137SOL    HW2 7311   0.782   6.876   5.274
 2138SOL     OW 7312   5.958   2.139   1.823
 2138SOL    HW1 7313   5.997   2.232   1.824
 2138SOL    HW2 7314   5.859   2.145   1.808
 2139SOL     OW 7315   3.579   0.803   3.978
 2139SOL    HW1 7316   3.545   0.874   4.040
 2139SOL    HW2 7317   3.550   0.824   3.885
 2140SOL     OW 7318   2.811   6.307   3.155
 2140SOL    HW1 7319   2.772   6.373   3.091
 2140SOL    HW2 7320   2.832   6.352   3.241
 2141SOL     OW 7321   6.598   2.431   1.748
 2141SOL    HW1 7322   6.669   2.469   1.807
 2141SOL    HW2 7323   6.636   2.359   1.690
 2142SOL     OW 7324   1.630   2.124   3.322
 2142SOL    HW1 7325   1.570   2.051   3.355
 2142SOL    HW2 7326   1.696   2.086   3.257
 2143SOL     OW 7327   3.848   6.189   1.390
 2143SOL    HW1 7328   3.777   6.145   1.335
 2143SOL    HW2 7329   3.937   6.177   1.347
 2144SOL     OW 7330   1.846   0.955   3.242
 2144SOL    HW1 7331   1.878   0.871   3.286
 2144SOL    HW2 7332   1.875   0.956   3.147
 2145SOL     OW 7333   3.315   5.688   3.562
 2145SOL    HW1 7334   3.300   5.784   3.586
 2145SOL    HW2 7335   3.234   5.653   3.514
 2146SOL     OW 7336   3.266   4.082   2.355
 2146SOL    HW1 7337   3.204   4.004   2.361
 2146SOL    HW2 7338   3.236   4.142   2.280
 2147SOL     OW 7339   0.027   1.528   0.096
 2147SOL    HW1 7340   6.985   1.565   0.161
 2147SOL    HW2 7341   0.018   1.428   0.093
 2148SOL     OW 7342   4.895   3.636   4.013
 2148SOL    HW1 7343   4.986   3.669   4.036
 2148SOL    HW2 7344   4.878   3.648   3.915
 2149SOL     OW 7345   3.543   0.432   1.875
 2149SOL    HW1 7346   3.604   0.508   1.900
 2149SOL    HW2 7347   3.521   0.439   1.778
 2150SOL     OW 7348   3.602   1.876   2.602
 2150SOL    HW1 7349   3.658   1.956   2.579
 2150SOL    HW2 7350   3.641   1.795   2.558
 2151SOL     OW 7351   3.496   2.387   5.368
 2151SOL    HW1 7352   3.480   2.328   5.288
 2151SOL    HW2 7353   3.492   2.331   5.451
 2152SOL     OW 7354   5.575   6.186   1.988
 2152SOL    HW1 7355   5.487   6.193   1.942
 2152SOL    HW2 7356   5.636   6.260   1.958
 2153SOL     OW 7357   4.578   1.281   3.908
 2153SOL    HW1 7358   4.570   1.376   3.936
 2153SOL    HW2 7359   4.524   1.223   3.970
 2154SOL     OW 7360   3.296   5.906   4.563
 2154SOL    HW1 7361   3.200   5.877   4.570
 2154SOL    HW2 7362   3.351   5.829   4.530
 2155SOL     OW 7363   1.551   5.180   0.044
 2155SOL    HW1 7364   1.458   5.161   0.013
 2155SOL    HW2 7365   1.589   5.098   0.087
 2156SOL     OW 7366   1.771   0.239   1.493
 2156SOL    HW1 7367   1.788   0.335   1.471
 2156SOL    HW2 7368   1.774   0.226   1.592
 2157SOL     OW 7369   6.594   1.087   4.744
 2157SOL    HW1 7370   6.536   1.150   4.795
 2157SOL    HW2 7371   6.606   1.002   4.796
 2158SOL     OW 7372   3.540   6.828   0.074
 2158SOL    HW1 7373   3.466   6.795   0.133
 2158SOL    HW2 7374   3.511   6.824   7.003
 2159SOL     OW 7375   1.492   6.898   5.148
 2159SOL    HW1 7376   1.591   6.901   5.165
 2159SOL    HW2 7377   1.450   6.835   5.213
 2160SOL     OW 7378   4.115   4.234   1.642
 2160SOL    HW1 7379   4.179   4.304   1.675
 2160SOL    HW2 7380   4.161   4.176   1.574
 2161SOL     OW 7381   4.864   3.509   3.362
 2161SOL    HW1 7382   4.881   3.483   3.457
 2161SOL    HW2 7383   4.916   3.449   3.301
 2162SOL     OW 7384   1.635   0.778   6.836
 2162SOL    HW1 7385   1.550   0.736   6.868
 2162SOL    HW2 7386   1.711   0.743   6.890
 2163SOL     OW 7387   1.202   6.449   6.393
 2163SOL    HW1 7388   1.148   6.436   6.475
 2163SOL    HW2 7389   1.232   6.544   6.387
 2164SOL     OW 7390   2.354   0.722   5.996
 2164SOL    HW1 7391   2.268   0.709   5.946
 2164SOL    HW2 7392   2.422   0.656   5.962
 2165SOL     OW 7393   1.690   0.726   2.399
 2165SOL    HW1 7394   1.650   0.805   2.354
 2165SOL    HW2 7395   1.643   0.709   2.486
 2166SOL     OW 7396   1.404   2.752   5.307
 2166SOL    HW1 7397   1.446   2.663   5.288
 2166SOL    HW2 7398   1.468   2.809   5.358
 2167SOL     OW 7399   3.073   0.541   2.229
 2167SOL    HW1 7400   2.995   0.485   2.257
 2167SOL    HW2 7401   3.148   0.483   2.198
 2168SOL     OW 7402   6.222   2.926   5.093
 2168SOL    HW1 7403   6.155   2.999   5.087
 2168SOL    HW2 7404   6.190   2.847   5.041
 2169SOL     OW 7405   5.521   2.311   6.355
 2169SOL    HW1 7406   5.553   2.353   6.271
 2169SOL    HW2 7407   5.598   2.273   6.406
 2170SOL     OW 7408   5.151   4.803   5.089
 2170SOL    HW1 7409   5.095   4.727   5.122
 2170SOL    HW2 7410   5.247   4.776   5.092
 2171SOL     OW 7411   6.692   2.799   7.005
 2171SOL    HW1 7412   6.789   2.798   0.005
 2171SOL    HW2 7413   6.645   2.725   0.028
 2172SOL     OW 7414   2.978   0.731   0.419
 2172SOL    HW1 7415   2.921   0.811   0.437
 2172SOL    HW2 7416   3.049   0.756   0.353
 2173SOL     OW 7417   4.059   0.297   5.773
 2173SOL    HW1 7418   4.098   0.261   5.688
 2173SOL    HW2 7419   4.049   0.222   5.839
 2174SOL     OW 7420   6.486   4.465   5.771
 2174SOL    HW1 7421   6.562   4.403   5.752
 2174SOL    HW2 7422   6.474   4.474   5.870
 2175SOL     OW 7423   3.196   0.844   3.819
 2175SOL    HW1 7424   3.120   0.812   3.875
 2175SOL    HW2 7425   3.178   0.823   3.723
 2176SOL     OW 7426   1.734   1.836   1.664
 2176SOL    HW1 7427   1.645   1.796   1.640
 2176SOL    HW2 7428   1.788   1.851   1.581
 2177SOL     OW 7429   6.494   1.361   2.209
 2177SOL    HW1 7430   6.439   1.426   2.262
 2177SOL    HW2 7431   6.556   1.410   2.148
 2178SOL     OW 7432   0.844   4.290   0.493
 2178SOL    HW1 7433   0.940   4.318   0.497
 2178SOL    HW2 7434   0.819   4.244   0.578
 2179SOL     OW 7435   1.676   5.774   3.957
 2179SOL    HW1 7436   1.691   5.732   3.868
 2179SOL    HW2 7437   1.669   5.703   4.027
 2180SOL     OW 7438   3.086   3.551   3.073
 2180SOL    HW1 7439   3.083   3.597   2.984
 2180SOL    HW2 7440   3.133   3.464   3.064
 2181SOL     OW 7441   4.348   4.947   5.986
 2181SOL    HW1 7442   4.353   4.900   5.898
 2181SOL    HW2 7443   4.434   4.994   6.004
 2182SOL     OW 7444   0.026   3.363   6.508
 2182SOL    HW1 7445   0.101   3.403   6.454
 2182SOL    HW2 7446   0.035   3.264   6.509
 2183SOL     OW 7447   2.832   2.973   0.698
 2183SOL    HW1 7448   2.919   2.975   0.748
 2183SOL    HW2 7449   2.837   3.038   0.622
 2184SOL     OW 7450   4.051   0.732   6.469
 2184SOL    HW1 7451   3.989   0.810   6.481
 2184SOL    HW2 7452   4.052   0.677   6.552
 2185SOL     OW 7453   1.783   1.522   0.649
 2185SOL    HW1 7454   1.772   1.613   0.689
 2185SOL    HW2 7455   1.877   1.512   0.615
 2186SOL     OW 7456   0.063   4.831   2.368
 2186SOL    HW1 7457   0.091   4.738   2.392
 2186SOL    HW2 7458   0.135   4.874   2.313
 2187SOL     OW 7459   0.136   1.411   1.433
 2187SOL    HW1 7460   0.132   1.387   1.530
 2187SOL    HW2 7461   0.196   1.347   1.385
 2188SOL     OW 7462   4.909   5.964   3.696
 2188SOL    HW1 7463   4.967   5.997   3.622
 2188SOL    HW2 7464   4.966   5.932   3.771
 2189SOL     OW 7465   1.787   6.856   5.881
 2189SOL    HW1 7466   1.854   6.812   5.940
 2189SOL    HW2 7467   1.697   6.817   5.897
 2190SOL     OW 7468   6.089   2.558   1.757
 2190SOL    HW1 7469   6.071   2.651   1.725
 2190SOL    HW2 7470   6.177   2.527   1.721
 2191SOL     OW 7471   3.520   2.536   6.234
 2191SOL    HW1 7472   3.438   2.592   6.245
 2191SOL    HW2 7473   3.579   2.547   6.314
 2192SOL     OW 7474   4.211   6.219   5.268
 2192SOL    HW1 7475   4.305   6.233   5.299
 2192SOL    HW2 7476   4.211   6.162   5.186
 2193SOL     OW 7477   0.046   5.390   5.829
 2193SOL    HW1 7478   0.129   5.403   5.775
 2193SOL    HW2 7479   0.070   5.362   5.922
 2194SOL     OW 7480   1.661   5.836   0.396
 2194SOL    HW1 7481   1.656   5.789   0.483
 2194SOL    HW2 7482   1.692   5.930   0.410
 2195SOL     OW 7483   0.726   6.305   1.839
 2195SOL    HW1 7484   0.753   6.367   1.765
 2195SOL    HW2 7485   0.719   6.356   1.924
 2196SOL     OW 7486   3.318   0.831   5.339
 2196SOL    HW1 7487   3.219   0.833   5.320
 2196SOL    HW2 7488   3.355   0.744   5.308
 2197SOL     OW 7489   4.605   4.555   1.943
 2197SOL    HW1 7490   4.557   4.593   1.864
 2197SOL    HW2 7491   4.566   4.466   1.966
 2198SOL     OW 7492   6.800   3.579   6.866
 2198SOL    HW1 7493   6.795   3.599   6.769
 2198SOL    HW2 7494   6.834   3.659   6.915
 2199SOL     OW 7495   4.790   6.580   0.698
 2199SOL    HW1 7496   4.852   6.519   0.747
 2199SOL    HW2 7497   4.837   6.618   0.619
 2200SOL     OW 7498   3.905   0.911   4.493
 2200SOL    HW1 7499   3.902   1.002   4.452
 2200SOL    HW2 7500   3.818   0.892   4.539
 2201SOL     OW 7501   6.011   3.830   1.906
 2201SOL    HW1 7502   5.948   3.903   1.934
 2201SOL    HW2 7503   5.976   3.742   1.939
 2202SOL     OW 7504   3.858   4.918   4.511
 2202SOL    HW1 7505   3.872   4.929   4.413
 2202SOL    HW2 7506   3.943   4.942   4.560
 2203SOL     OW 7507   3.653   2.046   3.105
 2203SOL    HW1 7508   3.740   2.094   3.093
 2203SOL    HW2 7509   3.629   2.043   3.202
 2204SOL     OW 7510   3.438   1.122   6.974
 2204SOL    HW1 7511   3.374   1.162   6.908
 2204SOL    HW2 7512   3.401   1.133   0.041
 2205SOL     OW 7513   1.168   0.151   6.611
 2205SOL    HW1 7514   1.182   0.091   6.690
 2205SOL    HW2 7515   1.209   0.240   6.630
 2206SOL     OW 7516   2.871   3.735   6.243
 2206SOL    HW1 7517   2.840   3.826   6.215
 2206SOL    HW2 7518   2.808   3.699   6.312
 2207SOL     OW 7519   1.120   4.025   6.427
 2207SOL    HW1 7520   1.170   4.061   6.506
 2207SOL    HW2 7521   1.024   4.011   6.451
 2208SOL     OW 7522   0.602   3.610   1.771
 2208SOL    HW1 7523   0.548   3.634   1.690
 2208SOL    HW2 7524   0.582   3.515   1.797
 2209SOL     OW 7525   1.824   6.010   6.684
 2209SOL    HW1 7526   1.764   6.039   6.758
 2209SOL    HW2 7527   1.772   6.001   6.599
 2210SOL     OW 7528   0.627   4.742   3.243
 2210SOL    HW1 7529   0.685   4.775   3.168
 2210SOL    HW2 7530   0.673   4.761   3.330
 2211SOL     OW 7531   5.819   1.446   5.371
 2211SOL    HW1 7532   5.740   1.501   5.398
 2211SOL    HW2 7533   5.823   1.440   5.272
 2212SOL     OW 7534   0.212   6.633   6.031
 2212SOL    HW1 7535   0.136   6.687   5.995
 2212SOL    HW2 7536   0.198   6.536   6.007
 2213SOL     OW 7537   4.129   2.229   4.305
 2213SOL    HW1 7538   4.209   2.169   4.304
 2213SOL    HW2 7539   4.155   2.318   4.341
 2214SOL     OW 7540   5.333   0.451   5.295
 2214SOL    HW1 7541   5.389   0.495   5.225
 2214SOL    HW2 7542   5.240   0.488   5.291
 2215SOL     OW 7543   6.661   1.628   5.590
 2215SOL    HW1 7544   6.687   1.557   5.656
 2215SOL    HW2 7545   6.667   1.718   5.634
 2216SOL     OW 7546   1.286   6.859   1.415
 2216SOL    HW1 7547   1.344   6.876   1.496
 2216SOL    HW2 7548   1.321   6.911   1.338
 2217SOL     OW 7549   4.211   0.168   0.711
 2217SOL    HW1 7550   4.135   0.169   0.776
 2217SOL    HW2 7551   4.297   0.170   0.762
 2218SOL     OW 7552   0.968   6.205   6.639
 2218SOL    HW1 7553   0.940   6.289   6.593
 2218SOL    HW2 7554   0.931   6.204   6.732
 2219SOL     OW 7555   1.582   4.021   3.158
 2219SOL    HW1 7556   1.671   3.982   3.134
 2219SOL    HW2 7557   1.535   3.961   3.223
 2220SOL     OW 7558   0.541   2.041   4.752
 2220SOL    HW1 7559   0.621   1.988   4.725
 2220SOL    HW2 7560   0.458   1.996   4.718
 2221SOL     OW 7561   6.593   1.949   1.211
 2221SOL    HW1 7562   6.642   1.969   1.126
 2221SOL    HW2 7563   6.526   2.021   1.228
 2222SOL     OW 7564   4.126   0.444   1.761
 2222SOL    HW1 7565   4.154   0.522   1.706
 2222SOL    HW2 7566   4.146   0.359   1.711
 2223SOL     OW 7567   6.389   5.209   3.408
 2223SOL    HW1 7568   6.454   5.284   3.416
 2223SOL    HW2 7569   6.387   5.177   3.314
 2224SOL     OW 7570   1.705   4.699   1.523
 2224SOL    HW1 7571   1.789   4.691   1.575
 2224SOL    HW2 7572   1.723   4.678   1.427
 2225SOL     OW 7573   5.959   4.655   2.468
 2225SOL    HW1 7574   5.983   4.710   2.388
 2225SOL    HW2 7575   5.960   4.713   2.549
 2226SOL     OW 7576   3.857   3.058   1.321
 2226SOL    HW1 7577   3.957   3.050   1.333
 2226SOL    HW2 7578   3.813   2.979   1.363
 2227SOL     OW 7579   6.822   4.134   5.875
 2227SOL    HW1 7580   6.766   4.145   5.957
 2227SOL    HW2 7581   6.911   4.097   5.900
 2228SOL     OW 7582   3.262   4.775   0.581
 2228SOL    HW1 7583   3.312   4.752   0.665
 2228SOL    HW2 7584   3.323   4.764   0.502
 2229SOL     OW 7585   4.527   1.495   4.178
 2229SOL    HW1 7586   4.532   1.425   4.250
 2229SOL    HW2 7587   4.433   1.503   4.146
 2230SOL     OW 7588   1.454   5.500   3.927
 2230SOL    HW1 7589   1.490   5.417   3.883
 2230SOL    HW2 7590   1.355   5.491   3.937
 2231SOL     OW 7591   1.872   1.109   2.319
 2231SOL    HW1 7592   1.840   1.048   2.246
 2231SOL    HW2 7593   1.939   1.173   2.282
 2232SOL     OW 7594   0.550   3.214   2.871
 2232SOL    HW1 7595   0.596   3.248   2.954
 2232SOL    HW2 7596   0.513   3.291   2.819
 2233SOL     OW 7597   3.405   5.211   0.460
 2233SOL    HW1 7598   3.444   5.200   0.551
 2233SOL    HW2 7599   3.381   5.307   0.446
 2234SOL     OW 7600   3.823   2.037   0.862
 2234SOL    HW1 7601   3.832   2.033   0.961
 2234SOL    HW2 7602   3.913   2.040   0.820
 2235SOL     OW 7603   1.170   0.053   6.358
 2235SOL    HW1 7604   1.250   0.078   6.303
 2235SOL    HW2 7605   1.174   0.100   6.446
 2236SOL     OW 7606   0.441   4.201   0.707
 2236SOL    HW1 7607   0.477   4.283   0.664
 2236SOL    HW2 7608   0.465   4.121   0.651
 2237SOL     OW 7609   6.768   3.396   4.550
 2237SOL    HW1 7610   6.676   3.358   4.557
 2237SOL    HW2 7611   6.766   3.479   4.494
 2238SOL     OW 7612   0.069   5.411   2.031
 2238SOL    HW1 7613   0.168   5.422   2.019
 2238SOL    HW2 7614   0.051   5.325   2.079
 2239SOL     OW 7615   4.285   4.642   3.588
 2239SOL    HW1 7616   4.204   4.674   3.538
 2239SOL    HW2 7617   4.362   4.702   3.570
 2240SOL     OW 7618   6.705   5.414   3.679
 2240SOL    HW1 7619   6.729   5.321   3.648
 2240SOL    HW2 7620   6.660   5.409   3.768
 2241SOL     OW 7621   0.165   6.348   2.176
 2241SOL    HW1 7622   0.231   6.275   2.194
 2241SOL    HW2 7623   0.128   6.382   2.262
 2242SOL     OW 7624   5.229   2.040   3.184
 2242SOL    HW1 7625   5.129   2.047   3.182
 2242SOL    HW2 7626   5.257   1.951   3.150
 2243SOL     OW 7627   2.773   6.248   4.482
 2243SOL    HW1 7628   2.769   6.347   4.469
 2243SOL    HW2 7629   2.815   6.206   4.402
 2244SOL     OW 7630   3.660   0.975   4.303
 2244SOL    HW1 7631   3.687   0.992   4.398
 2244SOL    HW2 7632   3.740   0.976   4.245
 2245SOL     OW 7633   6.943   2.343   2.119
 2245SOL    HW1 7634   6.933   2.362   2.217
 2245SOL    HW2 7635   6.999   2.261   2.106
 2246SOL     OW 7636   1.400   3.253   5.281
 2246SOL    HW1 7637   1.420   3.175   5.340
 2246SOL    HW2 7638   1.418   3.338   5.330
 2247SOL     OW 7639   2.072   2.076   5.394
 2247SOL    HW1 7640   2.099   2.169   5.369
 2247SOL    HW2 7641   2.152   2.016   5.391
 2248SOL     OW 7642   4.866   4.397   5.310
 2248SOL    HW1 7643   4.816   4.369   5.228
 2248SOL    HW2 7644   4.946   4.338   5.323
 2249SOL     OW 7645   5.517   5.981   2.798
 2249SOL    HW1 7646   5.563   6.019   2.718
 2249SOL    HW2 7647   5.575   5.996   2.879
 2250SOL     OW 7648   5.462   3.721   1.292
 2250SOL    HW1 7649   5.515   3.803   1.272
 2250SOL    HW2 7650   5.522   3.641   1.294
 2251SOL     OW 7651   6.056   1.695   6.987
 2251SOL    HW1 7652   6.028   1.649   0.046
 2251SOL    HW2 7653   6.101   1.629   6.926
 2252SOL     OW 7654   5.503   2.743   5.554
 2252SOL    HW1 7655   5.551   2.806   5.494
 2252SOL    HW2 7656   5.404   2.760   5.548
 2253SOL     OW 7657   2.473   3.190   6.648
 2253SOL    HW1 7658   2.533   3.182   6.728
 2253SOL    HW2 7659   2.459   3.287   6.627
 2254SOL     OW 7660   1.967   3.361   5.963
 2254SOL    HW1 7661   2.023   3.418   6.023
 2254SOL    HW2 7662   1.945   3.275   6.010
 2255SOL     OW 7663   5.981   2.888   1.962
 2255SOL    HW1 7664   5.975   2.951   1.885
 2255SOL    HW2 7665   6.057   2.914   2.021
 2256SOL     OW 7666   3.315   4.886   2.266
 2256SOL    HW1 7667   3.306   4.787   2.255
 2256SOL    HW2 7668   3.339   4.907   2.360
 2257SOL     OW 7669   1.308   3.578   4.461
 2257SOL    HW1 7670   1.284   3.554   4.366
 2257SOL    HW2 7671   1.351   3.500   4.505
 2258SOL     OW 7672   1.835   4.575   5.240
 2258SOL    HW1 7673   1.907   4.523   5.285
 2258SOL    HW2 7674   1.807   4.651   5.299
 2259SOL     OW 7675   5.895   4.222   6.341
 2259SOL    HW1 7676   5.933   4.208   6.433
 2259SOL    HW2 7677   5.801   4.255   6.349
 2260SOL     OW 7678   4.070   5.011   2.754
 2260SOL    HW1 7679   4.146   4.960   2.794
 2260SOL    HW2 7680   3.999   4.947   2.725
 2261SOL     OW 7681   5.475   6.496   0.983
 2261SOL    HW1 7682   5.563   6.479   0.938
 2261SOL    HW2 7683   5.465   6.435   1.061
 2262SOL     OW 7684   5.576   2.118   4.367
 2262SOL    HW1 7685   5.478   2.137   4.365
 2262SOL    HW2 7686   5.625   2.196   4.327
 2263SOL     OW 7687   1.769   5.608   5.584
 2263SOL    HW1 7688   1.731   5.696   5.554
 2263SOL    HW2 7689   1.695   5.541   5.593
 2264SOL     OW 7690   3.073   3.039   2.891
 2264SOL    HW1 7691   3.027   3.128   2.888
 2264SOL    HW2 7692   3.024   2.978   2.952
 2265SOL     OW 7693   0.012   1.297   2.267
 2265SOL    HW1 7694   0.099   1.261   2.235
 2265SOL    HW2 7695   6.970   1.223   2.273
 2266SOL     OW 7696   6.371   0.828   0.767
 2266SOL    HW1 7697   6.367   0.802   0.864
 2266SOL    HW2 7698   6.298   0.892   0.747
 2267SOL     OW 7699   5.798   2.389   4.943
 2267SOL    HW1 7700   5.821   2.291   4.945
 2267SOL    HW2 7701   5.699   2.400   4.955
 2268SOL     OW 7702   6.724   6.380   0.799
 2268SOL    HW1 7703   6.685   6.396   0.889
 2268SOL    HW2 7704   6.777   6.459   0.771
 2269SOL     OW 7705   6.337   6.100   5.684
 2269SOL    HW1 7706   6.263   6.064   5.628
 2269SOL    HW2 7707   6.322   6.075   5.780
 2270SOL     OW 7708   3.068   3.349   1.921
 2270SOL    HW1 7709   3.053   3.251   1.920
 2270SOL    HW2 7710   3.167   3.367   1.925
 2271SOL     OW 7711   5.796   4.255   1.494
 2271SOL    HW1 7712   5.710   4.238   1.446
 2271SOL    HW2 7713   5.864   4.289   1.429
 2272SOL     OW 7714   5.129   2.239   5.162
 2272SOL    HW1 7715   5.151   2.160   5.105
 2272SOL    HW2 7716   5.168   2.225   5.253
 2273SOL     OW 7717   0.221   0.138   3.087
 2273SOL    HW1 7718   0.217   0.038   3.083
 2273SOL    HW2 7719   0.152   0.177   3.026
 2274SOL     OW 7720   1.687   3.291   4.982
 2274SOL    HW1 7721   1.787   3.293   4.978
 2274SOL    HW2 7722   1.654   3.363   5.044
 2275SOL     OW 7723   4.975   6.002   4.557
 2275SOL    HW1 7724   5.045   6.072   4.545
 2275SOL    HW2 7725   5.016   5.911   4.546
 2276SOL     OW 7726   4.119   4.224   0.786
 2276SOL    HW1 7727   4.141   4.197   0.880
 2276SOL    HW2 7728   4.020   4.220   0.773
 2277SOL     OW 7729   3.155   3.297   5.500
 2277SOL    HW1 7730   3.190   3.311   5.592
 2277SOL    HW2 7731   3.209   3.351   5.435
 2278SOL     OW 7732   5.441   6.289   2.234
 2278SOL    HW1 7733   5.454   6.312   2.330
 2278SOL    HW2 7734   5.525   6.307   2.183
 2279SOL     OW 7735   5.508   3.306   4.528
 2279SOL    HW1 7736   5.517   3.269   4.436
 2279SOL    HW2 7737   5.411   3.321   4.548
 2280SOL     OW 7738   6.653   6.127   5.253
 2280SOL    HW1 7739   6.662   6.203   5.190
 2280SOL    HW2 7740   6.742   6.085   5.268
 2281SOL     OW 7741   3.713   1.927   1.968
 2281SOL    HW1 7742   3.695   2.024   1.987
 2281SOL    HW2 7743   3.627   1.876   1.974
 2282SOL     OW 7744   4.830   5.386   4.501
 2282SOL    HW1 7745   4.819   5.485   4.509
 2282SOL    HW2 7746   4.920   5.366   4.460
 2283SOL     OW 7747   6.669   3.822   3.167
 2283SOL    HW1 7748   6.749   3.831   3.108
 2283SOL    HW2 7749   6.620   3.910   3.170
 2284SOL     OW 7750   2.421   2.533   1.984
 2284SOL    HW1 7751   2.508   2.490   1.958
 2284SOL    HW2 7752   2.439   2.606   2.050
 2285SOL     OW 7753   1.736   3.671   0.332
 2285SOL    HW1 7754   1.735   3.753   0.275
 2285SOL    HW2 7755   1.671   3.681   0.407
 2286SOL     OW 7756   7.009   5.811   4.803
 2286SOL    HW1 7757   0.019   5.730   4.850
 2286SOL    HW2 7758   6.929   5.786   4.749
 2287SOL     OW 7759   2.191   2.557   0.905
 2287SOL    HW1 7760   2.277   2.523   0.943
 2287SOL    HW2 7761   2.205   2.649   0.869
 2288SOL     OW 7762   0.647   6.497   3.688
 2288SOL    HW1 7763   0.726   6.507   3.628
 2288SOL    HW2 7764   0.645   6.572   3.754
 2289SOL     OW 7765   5.214   1.887   2.235
 2289SOL    HW1 7766   5.136   1.911   2.294
 2289SOL    HW2 7767   5.273   1.823   2.283
 2290SOL     OW 7768   2.991   3.641   3.546
 2290SOL    HW1 7769   2.990   3.548   3.507
 2290SOL    HW2 7770   3.016   3.706   3.474
 2291SOL     OW 7771   1.995   1.675   1.161
 2291SOL    HW1 7772   2.080   1.728   1.159
 2291SOL    HW2 7773   1.992   1.621   1.245
 2292SOL     OW 7774   4.822   2.157   3.884
 2292SOL    HW1 7775   4.894   2.113   3.830
 2292SOL    HW2 7776   4.822   2.119   3.977
 2293SOL     OW 7777   5.687   1.435   1.120
 2293SOL    HW1 7778   5.691   1.377   1.038
 2293SOL    HW2 7779   5.593   1.441   1.153
 2294SOL     OW 7780   1.986   2.389   5.475
 2294SOL    HW1 7781   2.056   2.375   5.545
 2294SOL    HW2 7782   1.967   2.487   5.467
 2295SOL     OW 7783   6.515   0.285   1.309
 2295SOL    HW1 7784   6.445   0.247   1.369
 2295SOL    HW2 7785   6.471   0.328   1.230
 2296SOL     OW 7786   2.302   4.983   3.646
 2296SOL    HW1 7787   2.285   4.962   3.743
 2296SOL    HW2 7788   2.258   4.915   3.589
 2297SOL     OW 7789   5.295   4.771   5.420
 2297SOL    HW1 7790   5.277   4.790   5.517
 2297SOL    HW2 7791   5.285   4.856   5.368
 2298SOL     OW 7792   3.864   3.155   4.677
 2298SOL    HW1 7793   3.794   3.086   4.694
 2298SOL    HW2 7794   3.930   3.154   4.751
 2299SOL     OW 7795   5.482   3.088   4.958
 2299SOL    HW1 7796   5.554   3.091   4.888
 2299SOL    HW2 7797   5.393   3.090   4.913
 2300SOL     OW 7798   3.774   6.861   3.503
 2300SOL    HW1 7799   3.706   6.902   3.564
 2300SOL    HW2 7800   3.752   6.765   3.489
 2301SOL     OW 7801   3.486   3.253   4.231
 2301SOL    HW1 7802   3.435   3.250   4.145
 2301SOL    HW2 7803   3.428   3.221   4.306
 2302SOL     OW 7804   3.876   1.528   0.530
 2302SOL    HW1 7805   3.965   1.526   0.484
 2302SOL    HW2 7806   3.878   1.465   0.608
 2303SOL     OW 7807   2.660   2.925   1.159
 2303SOL    HW1 7808   2.665   3.020   1.191
 2303SOL    HW2 7809   2.691   2.920   1.064
 2304SOL     OW 7810   6.356   5.631   3.435
 2304SOL    HW1 7811   6.257   5.616   3.429
 2304SOL    HW2 7812   6.395   5.633   3.343
 2305SOL     OW 7813   1.559   1.213   4.033
 2305SOL    HW1 7814   1.498   1.283   4.069
 2305SOL    HW2 7815   1.640   1.256   3.993
 2306SOL     OW 7816   1.766   4.758   3.477
 2306SOL    HW1 7817   1.814   4.817   3.412
 2306SOL    HW2 7818   1.715   4.688   3.428
 2307SOL     OW 7819   1.030   3.190   5.649
 2307SOL    HW1 7820   1.086   3.121   5.693
 2307SOL    HW2 7821   1.087   3.268   5.623
 2308SOL     OW 7822   2.139   4.773   1.636
 2308SOL    HW1 7823   2.057   4.720   1.659
 2308SOL    HW2 7824   2.114   4.870   1.627
 2309SOL     OW 7825   1.639   0.214   3.963
 2309SOL    HW1 7826   1.681   0.133   3.922
 2309SOL    HW2 7827   1.608   0.276   3.891
 2310SOL     OW 7828   4.401   6.833   1.914
 2310SOL    HW1 7829   4.498   6.821   1.893
 2310SOL    HW2 7830   4.351   6.749   1.891
 2311SOL     OW 7831   2.617   6.024   0.341
 2311SOL    HW1 7832   2.613   6.103   0.280
 2311SOL    HW2 7833   2.526   6.007   0.379
 2312SOL     OW 7834   3.712   5.875   2.643
 2312SOL    HW1 7835   3.637   5.821   2.681
 2312SOL    HW2 7836   3.704   5.878   2.544
 2313SOL     OW 7837   5.127   5.115   2.925
 2313SOL    HW1 7838   5.115   5.038   2.988
 2313SOL    HW2 7839   5.098   5.088   2.834
 2314SOL     OW 7840   3.090   5.463   3.077
 2314SOL    HW1 7841   3.033   5.467   2.995
 2314SOL    HW2 7842   3.073   5.543   3.134
 2315SOL     OW 7843   4.822   3.095   6.102
 2315SOL    HW1 7844   4.736   3.112   6.054
 2315SOL    HW2 7845   4.808   3.102   6.200
 2316SOL     OW 7846   5.390   2.865   3.078
 2316SOL    HW1 7847   5.436   2.951   3.056
 2316SOL    HW2 7848   5.303   2.861   3.030
 2317SOL     OW 7849   1.156   4.665   2.374
 2317SOL    HW1 7850   1.056   4.666   2.385
 2317SOL    HW2 7851   1.192   4.757   2.387
 2318SOL     OW 7852   0.393   1.491   2.993
 2318SOL    HW1 7853   0.467   1.464   3.054
 2318SOL    HW2 7854   0.336   1.410   2.972
 2319SOL     OW 7855   1.853   3.970   4.270
 2319SOL    HW1 7856   1.896   4.060   4.268
 2319SOL    HW2 7857   1.754   3.980   4.261
 2320SOL     OW 7858   0.304   2.385   3.944
 2320SOL    HW1 7859   0.331   2.410   3.851
 2320SOL    HW2 7860   0.364   2.432   4.010
 2321SOL     OW 7861   2.745   6.876   4.931
 2321SOL    HW1 7862   2.782   6.949   4.990
 2321SOL    HW2 7863   2.820   6.831   4.883
 2322SOL     OW 7864   1.217   1.462   5.692
 2322SOL    HW1 7865   1.183   1.450   5.599
 2322SOL    HW2 7866   1.153   1.418   5.756
 2323SOL     OW 7867   4.361   5.584   3.293
 2323SOL    HW1 7868   4.305   5.652   3.341
 2323SOL    HW2 7869   4.365   5.501   3.347
 2324SOL     OW 7870   0.723   6.272   2.951
 2324SOL    HW1 7871   0.704   6.305   2.859
 2324SOL    HW2 7872   0.730   6.172   2.951
 2325SOL     OW 7873   1.097   3.680   1.107
 2325SOL    HW1 7874   1.019   3.738   1.129
 2325SOL    HW2 7875   1.121   3.692   1.011
 2326SOL     OW 7876   1.942   5.109   6.878
 2326SOL    HW1 7877   1.941   5.011   6.861
 2326SOL    HW2 7878   1.934   5.159   6.792
 2327SOL     OW 7879   5.028   2.554   4.180
 2327SOL    HW1 7880   4.937   2.577   4.213
 2327SOL    HW2 7881   5.067   2.633   4.133
 2328SOL     OW 7882   4.779   1.292   3.283
 2328SOL    HW1 7883   4.734   1.203   3.292
 2328SOL    HW2 7884   4.773   1.322   3.188
 2329SOL     OW 7885   1.159   5.495   4.164
 2329SOL    HW1 7886   1.140   5.466   4.258
 2329SOL    HW2 7887   1.168   5.414   4.106
 2330SOL     OW 7888   0.585   4.532   1.820
 2330SOL    HW1 7889   0.577   4.615   1.875
 2330SOL    HW2 7890   0.681   4.503   1.817
 2331SOL     OW 7891   0.369   4.047   5.313
 2331SOL    HW1 7892   0.429   4.017   5.387
 2331SOL    HW2 7893   0.399   4.007   5.227
 2332SOL     OW 7894   5.278   2.879   6.065
 2332SOL    HW1 7895   5.178   2.877   6.057
 2332SOL    HW2 7896   5.311   2.972   6.048
 2333SOL     OW 7897   1.274   5.330   3.306
 2333SOL    HW1 7898   1.347   5.261   3.306
 2333SOL    HW2 7899   1.185   5.284   3.307
 2334SOL     OW 7900   3.240   6.670   0.054
 2334SOL    HW1 7901   3.230   6.643   6.983
 2334SOL    HW2 7902   3.178   6.745   0.074
 2335SOL     OW 7903   5.176   0.004   3.353
 2335SOL    HW1 7904   5.151   0.041   3.264
 2335SOL    HW2 7905   5.197   0.078   3.416
 2336SOL     OW 7906   4.813   0.926   6.017
 2336SOL    HW1 7907   4.747   0.927   6.093
 2336SOL    HW2 7908   4.789   0.998   5.952
 2337SOL     OW 7909   5.398   0.513   3.158
 2337SOL    HW1 7910   5.312   0.474   3.190
 2337SOL    HW2 7911   5.463   0.519   3.234
 2338SOL     OW 7912   6.996   6.804   6.776
 2338SOL    HW1 7913   6.993   6.736   6.703
 2338SOL    HW2 7914   0.053   6.860   6.766
 2339SOL     OW 7915   3.693   4.584   6.884
 2339SOL    HW1 7916   3.681   4.491   6.920
 2339SOL    HW2 7917   3.721   4.579   6.788
 2340SOL     OW 7918   3.558   5.958   4.926
 2340SOL    HW1 7919   3.458   5.959   4.923
 2340SOL    HW2 7920   3.594   6.018   4.854
 2341SOL     OW 7921   5.615   5.047   0.884
 2341SOL    HW1 7922   5.591   4.952   0.902
 2341SOL    HW2 7923   5.532   5.101   0.869
 2342SOL     OW 7924   6.798   0.432   5.132
 2342SOL    HW1 7925   6.816   0.338   5.162
 2342SOL    HW2 7926   6.790   0.491   5.213
 2343SOL     OW 7927   1.130   5.727   0.904
 2343SOL    HW1 7928   1.059   5.665   0.937
 2343SOL    HW2 7929   1.089   5.815   0.880
 2344SOL     OW 7930   2.225   1.772   2.598
 2344SOL    HW1 7931   2.195   1.682   2.631
 2344SOL    HW2 7932   2.303   1.761   2.536
 2345SOL     OW 7933   1.262   0.835   4.660
 2345SOL    HW1 7934   1.282   0.809   4.754
 2345SOL    HW2 7935   1.339   0.809   4.601
 2346SOL     OW 7936   4.997   3.861   5.743
 2346SOL    HW1 7937   5.004   3.884   5.646
 2346SOL    HW2 7938   5.088   3.860   5.784
 2347SOL     OW 7939   1.727   3.263   2.041
 2347SOL    HW1 7940   1.650   3.323   2.017
 2347SOL    HW2 7941   1.794   3.264   1.968
 2348SOL     OW 7942   3.096   6.621   3.470
 2348SOL    HW1 7943   3.190   6.610   3.502
 2348SOL    HW2 7944   3.086   6.581   3.379
 2349SOL     OW 7945   0.005   6.770   5.930
 2349SOL    HW1 7946   6.953   6.707   5.924
 2349SOL    HW2 7947   6.999   6.858   5.965
 2350SOL     OW 7948   2.701   0.404   5.326
 2350SOL    HW1 7949   2.671   0.429   5.418
 2350SOL    HW2 7950   2.645   0.452   5.259
 2351SOL     OW 7951   2.527   4.786   3.616
 2351SOL    HW1 7952   2.543   4.816   3.711
 2351SOL    HW2 7953   2.457   4.845   3.575
 2352SOL     OW 7954   0.133   4.257   2.789
 2352SOL    HW1 7955   0.167   4.204   2.711
 2352SOL    HW2 7956   0.038   4.231   2.808
 2353SOL     OW 7957   2.600   4.218   5.975
 2353SOL    HW1 7958   2.691   4.250   6.000
 2353SOL    HW2 7959   2.594   4.120   5.991
 2354SOL     OW 7960   3.752   2.525   0.782
 2354SOL    HW1 7961   3.766   2.448   0.844
 2354SOL    HW2 7962   3.704   2.598   0.831
 2355SOL     OW 7963   0.354   6.539   0.447
 2355SOL    HW1 7964   0.361   6.610   0.517
 2355SOL    HW2 7965   0.287   6.566   0.378
 2356SOL     OW 7966   2.135   4.856   2.987
 2356SOL    HW1 7967   2.069   4.813   2.926
 2356SOL    HW2 7968   2.207   4.900   2.934
 2357SOL     OW 7969   5.314   4.167   2.532
 2357SOL    HW1 7970   5.314   4.114   2.447
 2357SOL    HW2 7971   5.226   4.211   2.544
 2358SOL     OW 7972   3.672   0.409   5.285
 2358SOL    HW1 7973   3.614   0.399   5.204
 2358SOL    HW2 7974   3.736   0.485   5.272
 2359SOL     OW 7975   2.863   1.750   5.586
 2359SOL    HW1 7976   2.802   1.799   5.649
 2359SOL    HW2 7977   2.815   1.732   5.501
 2360SOL     OW 7978   3.899   4.754   0.740
 2360SOL    HW1 7979   3.927   4.846   0.713
 2360SOL    HW2 7980   3.953   4.726   0.820
 2361SOL     OW 7981   3.370   6.614   2.916
 2361SOL    HW1 7982   3.417   6.637   2.831
 2361SOL    HW2 7983   3.275   6.644   2.911
 2362SOL     OW 7984   4.598   5.918   4.623
 2362SOL    HW1 7985   4.508   5.962   4.628
 2362SOL    HW2 7986   4.661   5.979   4.575
 2363SOL     OW 7987   3.451   3.364   6.976
 2363SOL    HW1 7988   3.409   3.326   6.893
 2363SOL    HW2 7989   3.520   3.301   7.010
 2364SOL     OW 7990   4.821   1.475   2.074
 2364SOL    HW1 7991   4.765   1.532   2.014
 2364SOL    HW2 7992   4.785   1.382   2.075
 2365SOL     OW 7993   5.057   3.508   4.702
 2365SOL    HW1 7994   5.105   3.476   4.784
 2365SOL    HW2 7995   5.017   3.598   4.720
 2366SOL     OW 7996   1.910   3.941   5.830
 2366SOL    HW1 7997   1.834   4.002   5.806
 2366SOL    HW2 7998   1.996   3.981   5.799
 2367SOL     OW 7999   0.713   3.571   6.518
 2367SOL    HW1 8000   0.685   3.639   6.585
 2367SOL    HW2 8001   0.736   3.616   6.432
 2368SOL     OW 8002   5.254   0.424   4.216
 2368SOL    HW1 8003   5.170   0.370   4.220
 2368SOL    HW2 8004   5.259   0.484   4.296
 2369SOL     OW 8005   3.644   1.336   3.631
 2369SOL    HW1 8006   3.710   1.290   3.689
 2369SOL    HW2 8007   3.637   1.432   3.659
 2370SOL     OW 8008   4.551   2.751   1.076
 2370SOL    HW1 8009   4.578   2.827   1.135
 2370SOL    HW2 8010   4.572   2.773   0.981
 2371SOL     OW 8011   0.837   6.763   2.715
 2371SOL    HW1 8012   0.912   6.827   2.702
 2371SOL    HW2 8013   0.841   6.725   2.807
 2372SOL     OW 8014   6.411   1.399   5.722
 2372SOL    HW1 8015   6.482   1.396   5.651
 2372SOL    HW2 8016   6.358   1.483   5.712
 2373SOL     OW 8017   6.372   0.596   6.298
 2373SOL    HW1 8018   6.393   0.564   6.391
 2373SOL    HW2 8019   6.446   0.570   6.236
 2374SOL     OW 8020   5.855   5.811   3.185
 2374SOL    HW1 8021   5.783   5.800   3.254
 2374SOL    HW2 8022   5.842   5.898   3.137
 2375SOL     OW 8023   0.703   0.586   3.714
 2375SOL    HW1 8024   0.789   0.543   3.742
 2375SOL    HW2 8025   0.646   0.519   3.667
 2376SOL     OW 8026   6.725   2.136   3.129
 2376SOL    HW1 8027   6.823   2.142   3.108
 2376SOL    HW2 8028   6.709   2.057   3.189
 2377SOL     OW 8029   3.495   4.678   6.279
 2377SOL    HW1 8030   3.539   4.767   6.261
 2377SOL    HW2 8031   3.564   4.606   6.276
 2378SOL     OW 8032   6.130   2.319   0.460
 2378SOL    HW1 8033   6.106   2.379   0.384
 2378SOL    HW2 8034   6.173   2.236   0.425
 2379SOL     OW 8035   0.253   5.254   0.535
 2379SOL    HW1 8036   0.259   5.165   0.581
 2379SOL    HW2 8037   0.276   5.326   0.600
 2380SOL     OW 8038   5.744   3.347   5.145
 2380SOL    HW1 8039   5.685   3.427   5.132
 2380SOL    HW2 8040   5.839   3.377   5.157
 2381SOL     OW 8041   2.241   4.662   4.967
 2381SOL    HW1 8042   2.159   4.632   4.918
 2381SOL    HW2 8043   2.245   4.615   5.056
 2382SOL     OW 8044   1.853   5.771   2.652
 2382SOL    HW1 8045   1.782   5.839   2.634
 2382SOL    HW2 8046   1.812   5.689   2.692
 2383SOL     OW 8047   5.137   6.018   5.467
 2383SOL    HW1 8048   5.085   6.010   5.552
 2383SOL    HW2 8049   5.100   6.093   5.412
 2384SOL     OW 8050   0.737   2.417   1.531
 2384SOL    HW1 8051   0.656   2.363   1.508
 2384SOL    HW2 8052   0.796   2.364   1.591
 2385SOL     OW 8053   0.549   2.073   0.491
 2385SOL    HW1 8054   0.514   2.083   0.398
 2385SOL    HW2 8055   0.517   1.986   0.529
 2386SOL     OW 8056   2.994   5.202   4.145
 2386SOL    HW1 8057   3.036   5.257   4.218
 2386SOL    HW2 8058   3.023   5.107   4.155
 2387SOL     OW 8059   0.540   2.766   3.578
 2387SOL    HW1 8060   0.440   2.760   3.578
 2387SOL    HW2 8061   0.577   2.694   3.518
 2388SOL     OW 8062   0.080   2.049   6.144
 2388SOL    HW1 8063   0.127   2.077   6.227
 2388SOL    HW2 8064   0.089   1.950   6.133
 2389SOL     OW 8065   5.738   5.150   4.443
 2389SOL    HW1 8066   5.834   5.135   4.466
 2389SOL    HW2 8067   5.681   5.110   4.515
 2390SOL     OW 8068   4.444   3.587   6.495
 2390SOL    HW1 8069   4.347   3.597   6.474
 2390SOL    HW2 8070   4.454   3.523   6.572
 2391SOL     OW 8071   3.367   3.784   6.453
 2391SOL    HW1 8072   3.396   3.712   6.390
 2391SOL    HW2 8073   3.277   3.762   6.489
 2392SOL     OW 8074   3.384   5.154   5.863
 2392SOL    HW1 8075   3.435   5.224   5.811
 2392SOL    HW2 8076   3.323   5.104   5.801
 2393SOL     OW 8077   4.021   5.456   1.884
 2393SOL    HW1 8078   4.101   5.399   1.863
 2393SOL    HW2 8079   3.977   5.485   1.800
 2394SOL     OW 8080   0.083   3.636   3.470
 2394SOL    HW1 8081   0.171   3.597   3.443
 2394SOL    HW2 8082   0.095   3.732   3.493
 2395SOL     OW 8083   0.416   3.502   6.728
 2395SOL    HW1 8084   0.493   3.524   6.789
 2395SOL    HW2 8085   0.446   3.434   6.661
 2396SOL     OW 8086   5.639   0.597   5.354
 2396SOL    HW1 8087   5.731   0.564   5.335
 2396SOL    HW2 8088   5.644   0.673   5.419
 2397SOL     OW 8089   0.621   5.202   5.813
 2397SOL    HW1 8090   0.709   5.162   5.840
 2397SOL    HW2 8091   0.577   5.241   5.894
 2398SOL     OW 8092   2.546   5.727   3.419
 2398SOL    HW1 8093   2.625   5.746   3.477
 2398SOL    HW2 8094   2.472   5.790   3.441
 2399SOL     OW 8095   2.694   2.185   3.662
 2399SOL    HW1 8096   2.637   2.180   3.580
 2399SOL    HW2 8097   2.649   2.243   3.730
 2400SOL     OW 8098   2.345   3.920   0.113
 2400SOL    HW1 8099   2.252   3.951   0.132
 2400SOL    HW2 8100   2.344   3.822   0.092
 2401SOL     OW 8101   3.190   7.002   4.278
 2401SOL    HW1 8102   3.270   0.031   4.304
 2401SOL    HW2 8103   3.115   0.038   4.253
 2402SOL     OW 8104   1.213   2.061   2.856
 2402SOL    HW1 8105   1.275   2.040   2.932
 2402SOL    HW2 8106   1.261   2.049   2.770
 2403SOL     OW 8107   3.457   3.472   0.910
 2403SOL    HW1 8108   3.531   3.404   0.915
 2403SOL    HW2 8109   3.413   3.480   0.999
 2404SOL     OW 8110   6.402   1.599   1.481
 2404SOL    HW1 8111   6.388   1.698   1.483
 2404SOL    HW2 8112   6.380   1.563   1.391
 2405SOL     OW 8113   2.688   4.662   6.821
 2405SOL    HW1 8114   2.739   4.684   6.738
 2405SOL    HW2 8115   2.700   4.565   6.842
 2406SOL     OW 8116   1.553   0.747   3.446
 2406SOL    HW1 8117   1.544   0.816   3.517
 2406SOL    HW2 8118   1.484   0.676   3.459
 2407SOL     OW 8119   4.528   2.125   3.358
 2407SOL    HW1 8120   4.489   2.214   3.383
 2407SOL    HW2 8121   4.563   2.080   3.440
 2408SOL     OW 8122   2.377   5.962   3.176
 2408SOL    HW1 8123   2.400   6.059   3.180
 2408SOL    HW2 8124   2.374   5.933   3.080
 2409SOL     OW 8125   2.390   2.795   1.136
 2409SOL    HW1 8126   2.486   2.822   1.138
 2409SOL    HW2 8127   2.334   2.869   1.174
 2410SOL     OW 8128   6.050   3.467   5.619
 2410SOL    HW1 8129   6.008   3.445   5.707
 2410SOL    HW2 8130   6.115   3.541   5.630
 2411SOL     OW 8131   2.779   4.305   6.466
 2411SOL    HW1 8132   2.819   4.377   6.410
 2411SOL    HW2 8133   2.830   4.295   6.551
 2412SOL     OW 8134   2.884   3.025   6.757
 2412SOL    HW1 8135   2.807   2.962   6.760
 2412SOL    HW2 8136   2.917   3.034   6.663
 2413SOL     OW 8137   6.588   3.205   5.905
 2413SOL    HW1 8138   6.604   3.159   5.992
 2413SOL    HW2 8139   6.583   3.304   5.920
 2414SOL     OW 8140   5.698   2.468   3.959
 2414SOL    HW1 8141   5.692   2.540   3.890
 2414SOL    HW2 8142   5.607   2.449   3.996
 2415SOL     OW 8143   2.465   6.669   0.485
 2415SOL    HW1 8144   2.381   6.717   0.457
 2415SOL    HW2 8145   2.503   6.621   0.407
 2416SOL     OW 8146   0.558   3.418   2.696
 2416SOL    HW1 8147   0.547   3.385   2.602
 2416SOL    HW2 8148   0.640   3.474   2.702
 2417SOL     OW 8149   4.587   2.531   6.888
 2417SOL    HW1 8150   4.686   2.549   6.891
 2417SOL    HW2 8151   4.539   2.615   6.866
 2418SOL     OW 8152   4.102   4.225   5.284
 2418SOL    HW1 8153   4.119   4.303   5.344
 2418SOL    HW2 8154   4.113   4.254   5.189
 2419SOL     OW 8155   2.148   6.891   4.145
 2419SOL    HW1 8156   2.068   6.854   4.098
 2419SOL    HW2 8157   2.139   6.875   4.243
 2420SOL     OW 8158   3.546   5.792   1.840
 2420SOL    HW1 8159   3.460   5.748   1.865
 2420SOL    HW2 8160   3.595   5.735   1.773
 2421SOL     OW 8161   3.791   6.306   3.499
 2421SOL    HW1 8162   3.741   6.266   3.576
 2421SOL    HW2 8163   3.888   6.312   3.521
 2422SOL     OW 8164   3.968   0.020   1.469
 2422SOL    HW1 8165   3.990   6.980   1.396
 2422SOL    HW2 8166   3.923   6.997   1.544
 2423SOL     OW 8167   2.080   5.619   1.631
 2423SOL    HW1 8168   2.020   5.639   1.708
 2423SOL    HW2 8169   2.106   5.523   1.632
 2424SOL     OW 8170   5.389   6.448   6.890
 2424SOL    HW1 8171   5.337   6.416   6.811
 2424SOL    HW2 8172   5.327   6.493   6.954
 2425SOL     OW 8173   4.830   5.526   5.555
 2425SOL    HW1 8174   4.848   5.465   5.632
 2425SOL    HW2 8175   4.861   5.483   5.470
 2426SOL     OW 8176   1.652   5.989   4.842
 2426SOL    HW1 8177   1.560   6.014   4.810
 2426SOL    HW2 8178   1.665   5.890   4.830
 2427SOL     OW 8179   4.737   6.172   6.408
 2427SOL    HW1 8180   4.771   6.110   6.338
 2427SOL    HW2 8181   4.639   6.159   6.420
 2428SOL     OW 8182   0.309   1.175   3.221
 2428SOL    HW1 8183   0.214   1.200   3.241
 2428SOL    HW2 8184   0.367   1.199   3.298
 2429SOL     OW 8185   5.182   5.124   2.425
 2429SOL    HW1 8186   5.252   5.075   2.373
 2429SOL    HW2 8187   5.146   5.199   2.369
 2430SOL     OW 8188   6.015   2.310   0.703
 2430SOL    HW1 8189   5.920   2.342   0.702
 2430SOL    HW2 8190   6.044   2.286   0.611
 2431SOL     OW 8191   5.847   1.554   2.142
 2431SOL    HW1 8192   5.843   1.624   2.213
 2431SOL    HW2 8193   5.916   1.577   2.074
 2432SOL     OW 8194   3.116   5.211   1.777
 2432SOL    HW1 8195   3.099   5.118   1.810
 2432SOL    HW2 8196   3.055   5.232   1.701
 2433SOL     OW 8197   0.644   5.737   0.301
 2433SOL    HW1 8198   0.592   5.734   0.386
 2433SOL    HW2 8199   0.689   5.826   0.293
 2434SOL     OW 8200   4.356   2.355   2.210
 2434SOL    HW1 8201   4.330   2.286   2.278
 2434SOL    HW2 8202   4.401   2.432   2.256
 2435SOL     OW 8203   5.470   5.922   0.215
 2435SOL    HW1 8204   5.544   5.966   0.162
 2435SOL    HW2 8205   5.391   5.908   0.156
 2436SOL     OW 8206   1.591   1.218   1.475
 2436SOL    HW1 8207   1.611   1.190   1.568
 2436SOL    HW2 8208   1.536   1.148   1.429
 2437SOL     OW 8209   5.719   5.605   2.100
 2437SOL    HW1 8210   5.687   5.642   2.187
 2437SOL    HW2 8211   5.682   5.513   2.088
 2438SOL     OW 8212   3.764   2.133   4.801
 2438SOL    HW1 8213   3.724   2.046   4.830
 2438SOL    HW2 8214   3.743   2.204   4.868
 2439SOL     OW 8215   0.212   5.756   6.824
 2439SOL    HW1 8216   0.133   5.695   6.818
 2439SOL    HW2 8217   0.296   5.703   6.811
 2440SOL     OW 8218   4.497   0.744   4.495
 2440SOL    HW1 8219   4.411   0.720   4.538
 2440SOL    HW2 8220   4.573   0.716   4.553
 2441SOL     OW 8221   5.278   0.721   6.974
 2441SOL    HW1 8222   5.262   0.740   0.046
 2441SOL    HW2 8223   5.318   0.630   6.964
 2442SOL     OW 8224   5.840   3.422   2.435
 2442SOL    HW1 8225   5.802   3.514   2.422
 2442SOL    HW2 8226   5.764   3.357   2.445
 2443SOL     OW 8227   2.392   0.880   6.576
 2443SOL    HW1 8228   2.396   0.940   6.496
 2443SOL    HW2 8229   2.388   0.784   6.545
 2444SOL     OW 8230   4.088   4.807   0.494
 2444SOL    HW1 8231   4.098   4.892   0.545
 2444SOL    HW2 8232   4.145   4.811   0.411
 2445SOL     OW 8233   6.076   1.625   2.017
 2445SOL    HW1 8234   6.126   1.712   2.029
 2445SOL    HW2 8235   6.142   1.552   1.997
 2446SOL     OW 8236   0.816   2.259   2.350
 2446SOL    HW1 8237   0.901   2.210   2.370
 2446SOL    HW2 8238   0.830   2.357   2.361
 2447SOL     OW 8239   2.166   0.474   0.560
 2447SOL    HW1 8240   2.265   0.490   0.566
 2447SOL    HW2 8241   2.141   0.456   0.465
 2448SOL     OW 8242   6.286   2.228   4.372
 2448SOL    HW1 8243   6.212   2.262   4.314
 2448SOL    HW2 8244   6.261   2.140   4.412
 2449SOL     OW 8245   1.206   3.772   1.956
 2449SOL    HW1 8246   1.113   3.742   1.974
 2449SOL    HW2 8247   1.269   3.696   1.971
 2450SOL     OW 8248   3.213   5.205   0.159
 2450SOL    HW1 8249   3.290   5.149   0.190
 2450SOL    HW2 8250   3.249   5.287   0.114
 2451SOL     OW 8251   1.017   0.058   3.821
 2451SOL    HW1 8252   0.997   7.018   3.747
 2451SOL    HW2 8253   1.116   0.073   3.826
 2452SOL     OW 8254   2.325   2.286   3.307
 2452SOL    HW1 8255   2.382   2.315   3.231
 2452SOL    HW2 8256   2.271   2.206   3.281
 2453SOL     OW 8257   6.761   2.816   0.766
 2453SOL    HW1 8258   6.737   2.843   0.673
 2453SOL    HW2 8259   6.678   2.813   0.822
 2454SOL     OW 8260   2.553   5.510   6.947
 2454SOL    HW1 8261   2.544   5.440   7.018
 2454SOL    HW2 8262   2.550   5.467   6.857
 2455SOL     OW 8263   3.802   1.141   0.554
 2455SOL    HW1 8264   3.734   1.128   0.627
 2455SOL    HW2 8265   3.756   1.160   0.468
 2456SOL     OW 8266   0.801   3.604   6.807
 2456SOL    HW1 8267   0.728   3.664   6.773
 2456SOL    HW2 8268   0.761   3.519   6.841
 2457SOL     OW 8269   6.093   1.135   5.571
 2457SOL    HW1 8270   6.103   1.104   5.477
 2457SOL    HW2 8271   6.013   1.090   5.613
 2458SOL     OW 8272   0.741   0.469   3.430
 2458SOL    HW1 8273   0.650   0.504   3.407
 2458SOL    HW2 8274   0.732   0.378   3.472
 2459SOL     OW 8275   2.847   6.243   5.456
 2459SOL    HW1 8276   2.808   6.323   5.502
 2459SOL    HW2 8277   2.845   6.258   5.357
 2460SOL     OW 8278   1.170   0.857   0.511
 2460SOL    HW1 8279   1.088   0.817   0.470
 2460SOL    HW2 8280   1.146   0.941   0.559
 2461SOL     OW 8281   4.965   6.859   4.394
 2461SOL    HW1 8282   4.913   6.918   4.455
 2461SOL    HW2 8283   5.057   6.898   4.380
 2462SOL     OW 8284   2.035   4.992   0.543
 2462SOL    HW1 8285   1.991   5.071   0.583
 2462SOL    HW2 8286   2.134   5.008   0.535
 2463SOL     OW 8287   6.795   2.008   0.286
 2463SOL    HW1 8288   6.851   2.091   0.278
 2463SOL    HW2 8289   6.821   1.943   0.216
 2464SOL     OW 8290   1.344   3.016   3.140
 2464SOL    HW1 8291   1.438   2.997   3.170
 2464SOL    HW2 8292   1.342   3.105   3.095
 2465SOL     OW 8293   6.706   6.024   6.246
 2465SOL    HW1 8294   6.614   5.984   6.241
 2465SOL    HW2 8295   6.733   6.055   6.155
 2466SOL     OW 8296   1.493   1.625   2.241
 2466SOL    HW1 8297   1.399   1.657   2.247
 2466SOL    HW2 8298   1.555   1.704   2.240
 2467SOL     OW 8299   4.958   1.811   5.734
 2467SOL    HW1 8300   4.915   1.901   5.728
 2467SOL    HW2 8301   5.022   1.800   5.657
 2468SOL     OW 8302   4.451   7.025   0.256
 2468SOL    HW1 8303   4.356   7.010   0.229
 2468SOL    HW2 8304   4.467   0.097   0.269
 2469SOL     OW 8305   3.767   3.398   5.435
 2469SOL    HW1 8306   3.804   3.436   5.519
 2469SOL    HW2 8307   3.827   3.420   5.358
 2470SOL     OW 8308   3.814   5.510   6.274
 2470SOL    HW1 8309   3.907   5.478   6.289
 2470SOL    HW2 8310   3.766   5.449   6.212
 2471SOL     OW 8311   3.123   6.903   0.101
 2471SOL    HW1 8312   3.074   6.970   0.046
 2471SOL    HW2 8313   3.212   6.939   0.128
 2472SOL     OW 8314   4.106   2.200   3.653
 2472SOL    HW1 8315   4.014   2.221   3.686
 2472SOL    HW2 8316   4.109   2.207   3.554
 2473SOL     OW 8317   1.305   4.093   5.669
 2473SOL    HW1 8318   1.342   4.174   5.715
 2473SOL    HW2 8319   1.290   4.114   5.572
 2474SOL     OW 8320   0.981   5.043   1.060
 2474SOL    HW1 8321   1.011   4.970   0.999
 2474SOL    HW2 8322   1.029   5.128   1.037
 2475SOL     OW 8323   4.705   0.451   1.993
 2475SOL    HW1 8324   4.666   0.470   2.083
 2475SOL    HW2 8325   4.804   0.438   2.002
 2476SOL     OW 8326   5.678   0.335   2.483
 2476SOL    HW1 8327   5.616   0.404   2.446
 2476SOL    HW2 8328   5.758   0.326   2.424
 2477SOL     OW 8329   4.031   0.938   3.494
 2477SOL    HW1 8330   3.982   1.000   3.555
 2477SOL    HW2 8331   4.079   0.991   3.424
 2478SOL     OW 8332   5.820   1.146   1.741
 2478SOL    HW1 8333   5.728   1.150   1.780
 2478SOL    HW2 8334   5.815   1.157   1.642
 2479SOL     OW 8335   1.114   3.045   2.129
 2479SOL    HW1 8336   1.055   3.123   2.146
 2479SOL    HW2 8337   1.203   3.060   2.172
 2480SOL     OW 8338   4.139   3.159   1.007
 2480SOL    HW1 8339   4.228   3.137   1.046
 2480SOL    HW2 8340   4.149   3.235   0.943
 2481SOL     OW 8341   3.377   6.766   1.122
 2481SOL    HW1 8342   3.438   6.733   1.194
 2481SOL    HW2 8343   3.373   6.699   1.048
 2482SOL     OW 8344   5.655   3.332   6.360
 2482SOL    HW1 8345   5.626   3.241   6.388
 2482SOL    HW2 8346   5.641   3.396   6.436
 2483SOL     OW 8347   2.095   1.814   6.805
 2483SOL    HW1 8348   2.123   1.802   6.710
 2483SOL    HW2 8349   2.131   1.901   6.839
 2484SOL     OW 8350   3.435   0.822   0.266
 2484SOL    HW1 8351   3.419   0.784   0.357
 2484SOL    HW2 8352   3.483   0.909   0.274
 2485SOL     OW 8353   5.078   3.090   0.768
 2485SOL    HW1 8354   5.077   3.189   0.781
 2485SOL    HW2 8355   5.172   3.057   0.770
 2486SOL     OW 8356   1.524   4.890   5.407
 2486SOL    HW1 8357   1.496   4.948   5.331
 2486SOL    HW2 8358   1.468   4.911   5.487
 2487SOL     OW 8359   4.735   6.622   0.330
 2487SOL    HW1 8360   4.687   6.535   0.322
 2487SOL    HW2 8361   4.668   6.696   0.330
 2488SOL     OW 8362   0.719   3.870   2.080
 2488SOL    HW1 8363   0.737   3.800   2.011
 2488SOL    HW2 8364   0.796   3.873   2.144
 2489SOL     OW 8365   0.747   5.946   3.930
 2489SOL    HW1 8366   0.739   5.925   3.833
 2489SOL    HW2 8367   0.688   6.024   3.952
 2490SOL     OW 8368   0.120   5.368   0.858
 2490SOL    HW1 8369   0.189   5.417   0.804
 2490SOL    HW2 8370   0.029   5.402   0.834
 2491SOL     OW 8371   3.251   4.175   0.303
 2491SOL    HW1 8372   3.165   4.217   0.331
 2491SOL    HW2 8373   3.313   4.245   0.267
 2492SOL     OW 8374   4.609   3.918   0.729
 2492SOL    HW1 8375   4.529   3.875   0.686
 2492SOL    HW2 8376   4.639   3.861   0.806
 2493SOL     OW 8377   6.476   6.958   1.839
 2493SOL    HW1 8378   6.563   6.921   1.870
 2493SOL    HW2 8379   6.490   7.011   1.755
 2494SOL     OW 8380   5.495   4.381   2.600
 2494SOL    HW1 8381   5.435   4.424   2.667
 2494SOL    HW2 8382   5.445   4.308   2.552
 2495SOL     OW 8383   5.167   6.170   3.708
 2495SOL    HW1 8384   5.141   6.083   3.664
 2495SOL    HW2 8385   5.131   6.246   3.653
 2496SOL     OW 8386   0.638   2.543   6.539
 2496SOL    HW1 8387   0.725   2.593   6.543
 2496SOL    HW2 8388   0.589   2.568   6.456
 2497SOL     OW 8389   0.617   0.251   0.651
 2497SOL    HW1 8390   0.577   0.174   0.702
 2497SOL    HW2 8391   0.717   0.250   0.663
 2498SOL     OW 8392   2.810   2.104   5.444
 2498SOL    HW1 8393   2.880   2.074   5.379
 2498SOL    HW2 8394   2.722   2.061   5.421
 2499SOL     OW 8395   5.961   3.166   1.921
 2499SOL    HW1 8396   5.880   3.190   1.975
 2499SOL    HW2 8397   6.034   3.136   1.982
 2500SOL     OW 8398   3.867   4.279   6.809
 2500SOL    HW1 8399   3.942   4.222   6.843
 2500SOL    HW2 8400   3.798   4.290   6.881
 2501SOL     OW 8401   5.070   5.348   0.805
 2501SOL    HW1 8402   4.986   5.374   0.851
 2501SOL    HW2 8403   5.115   5.275   0.857
 2502SOL     OW 8404   1.008   0.276   4.407
 2502SOL    HW1 8405   1.106   0.294   4.417
 2502SOL    HW2 8406   0.995   0.204   4.338
 2503SOL     OW 8407   2.321   6.613   4.284
 2503SOL    HW1 8408   2.353   6.672   4.210
 2503SOL    HW2 8409   2.362   6.642   4.370
 2504SOL     OW 8410   4.017   5.243   3.746
 2504SOL    HW1 8411   3.995   5.152   3.780
 2504SOL    HW2 8412   3.938   5.303   3.758
 2505SOL     OW 8413   6.973   6.909   2.827
 2505SOL    HW1 8414   0.034   6.899   2.877
 2505SOL    HW2 8415   6.904   6.950   2.887
 2506SOL     OW 8416   6.962   4.008   6.278
 2506SOL    HW1 8417   6.865   3.987   6.266
 2506SOL    HW2 8418   7.016   3.963   6.206
 2507SOL     OW 8419   6.523   3.141   0.161
 2507SOL    HW1 8420   6.493   3.074   0.093
 2507SOL    HW2 8421   6.477   3.228   0.145
 2508SOL     OW 8422   3.056   1.405   3.429
 2508SOL    HW1 8423   2.977   1.367   3.382
 2508SOL    HW2 8424   3.113   1.454   3.364
 2509SOL     OW 8425   0.166   4.119   0.547
 2509SOL    HW1 8426   0.264   4.139   0.539
 2509SOL    HW2 8427   0.132   4.086   0.459
 2510SOL     OW 8428   2.593   5.109   1.151
 2510SOL    HW1 8429   2.663   5.088   1.219
 2510SOL    HW2 8430   2.594   5.039   1.079
 2511SOL     OW 8431   3.552   2.122   3.944
 2511SOL    HW1 8432   3.641   2.099   3.982
 2511SOL    HW2 8433   3.485   2.130   4.017
 2512SOL     OW 8434   4.632   3.986   5.394
 2512SOL    HW1 8435   4.556   3.927   5.367
 2512SOL    HW2 8436   4.629   4.000   5.493
 2513SOL     OW 8437   2.058   4.559   4.769
 2513SOL    HW1 8438   2.121   4.488   4.738
 2513SOL    HW2 8439   2.022   4.609   4.690
 2514SOL     OW 8440   0.472   3.944   5.095
 2514SOL    HW1 8441   0.476   3.936   4.996
 2514SOL    HW2 8442   0.523   3.868   5.137
 2515SOL     OW 8443   0.959   6.433   0.513
 2515SOL    HW1 8444   1.051   6.445   0.475
 2515SOL    HW2 8445   0.908   6.368   0.457
 2516SOL     OW 8446   5.207   1.596   3.105
 2516SOL    HW1 8447   5.217   1.643   3.017
 2516SOL    HW2 8448   5.199   1.498   3.089
 2517SOL     OW 8449   0.586   6.920   6.209
 2517SOL    HW1 8450   0.545   6.833   6.182
 2517SOL    HW2 8451   0.581   6.984   6.132
 2518SOL     OW 8452   1.674   5.341   0.488
 2518SOL    HW1 8453   1.593   5.379   0.442
 2518SOL    HW2 8454   1.754   5.351   0.429
 2519SOL     OW 8455   3.586   6.542   1.890
 2519SOL    HW1 8456   3.587   6.462   1.830
 2519SOL    HW2 8457   3.549   6.517   1.980
 2520SOL     OW 8458   3.196   1.603   0.834
 2520SOL    HW1 8459   3.169   1.608   0.738
 2520SOL    HW2 8460   3.269   1.535   0.845
 2521SOL     OW 8461   2.975   0.604   5.529
 2521SOL    HW1 8462   3.052   0.648   5.575
 2521SOL    HW2 8463   2.996   0.594   5.431
 2522SOL     OW 8464   0.563   2.199   5.376
 2522SOL    HW1 8465   0.662   2.204   5.391
 2522SOL    HW2 8466   0.516   2.237   5.455
 2523SOL     OW 8467   0.847   2.787   1.009
 2523SOL    HW1 8468   0.773   2.773   1.074
 2523SOL    HW2 8469   0.928   2.819   1.057
 2524SOL     OW 8470   0.534   6.807   5.035
 2524SOL    HW1 8471   0.597   6.823   5.110
 2524SOL    HW2 8472   0.440   6.801   5.070
 2525SOL     OW 8473   0.806   2.367   5.374
 2525SOL    HW1 8474   0.857   2.287   5.405
 2525SOL    HW2 8475   0.857   2.413   5.301
 2526SOL     OW 8476   1.659   5.149   6.350
 2526SOL    HW1 8477   1.647   5.099   6.264
 2526SOL    HW2 8478   1.574   5.196   6.373
 2527SOL     OW 8479   5.320   6.225   5.762
 2527SOL    HW1 8480   5.242   6.233   5.700
 2527SOL    HW2 8481   5.388   6.162   5.724
 2528SOL     OW 8482   6.454   4.790   6.879
 2528SOL    HW1 8483   6.416   4.877   6.911
 2528SOL    HW2 8484   6.440   4.783   6.780
 2529SOL     OW 8485   6.501   6.187   6.541
 2529SOL    HW1 8486   6.469   6.208   6.448
 2529SOL    HW2 8487   6.426   6.150   6.594
 2530SOL     OW 8488   2.844   6.360   4.740
 2530SOL    HW1 8489   2.780   6.433   4.764
 2530SOL    HW2 8490   2.886   6.380   4.652
 2531SOL     OW 8491   5.224   5.975   4.909
 2531SOL    HW1 8492   5.197   5.887   4.868
 2531SOL    HW2 8493   5.321   5.971   4.934
 2532SOL     OW 8494   6.950   6.039   0.541
 2532SOL    HW1 8495   0.010   6.091   0.554
 2532SOL    HW2 8496   6.897   6.041   0.626
 2533SOL     OW 8497   3.828   6.557   4.105
 2533SOL    HW1 8498   3.773   6.639   4.089
 2533SOL    HW2 8499   3.828   6.535   4.203
 2534SOL     OW 8500   3.992   1.156   2.133
 2534SOL    HW1 8501   3.896   1.186   2.129
 2534SOL    HW2 8502   3.997   1.069   2.181
 2535SOL     OW 8503   3.369   2.978   5.454
 2535SOL    HW1 8504   3.428   3.058   5.446
 2535SOL    HW2 8505   3.298   2.982   5.383
 2536SOL     OW 8506   1.092   1.624   4.983
 2536SOL    HW1 8507   1.152   1.642   5.061
 2536SOL    HW2 8508   1.032   1.703   4.968
 2537SOL     OW 8509   3.655   0.564   6.396
 2537SOL    HW1 8510   3.564   0.523   6.401
 2537SOL    HW2 8511   3.671   0.598   6.303
 2538SOL     OW 8512   0.822   4.073   3.131
 2538SOL    HW1 8513   0.880   4.069   3.211
 2538SOL    HW2 8514   0.744   4.011   3.143
 2539SOL     OW 8515   5.951   1.049   4.705
 2539SOL    HW1 8516   5.888   0.981   4.743
 2539SOL    HW2 8517   6.023   1.068   4.771
 2540SOL     OW 8518   3.893   1.686   2.818
 2540SOL    HW1 8519   3.817   1.731   2.864
 2540SOL    HW2 8520   3.927   1.744   2.744
 2541SOL     OW 8521   2.501   0.601   5.259
 2541SOL    HW1 8522   2.475   0.618   5.164
 2541SOL    HW2 8523   2.570   0.668   5.287
 2542SOL     OW 8524   2.842   2.465   5.813
 2542SOL    HW1 8525   2.900   2.417   5.747
 2542SOL    HW2 8526   2.747   2.458   5.785
 2543SOL     OW 8527   1.287   0.810   2.789
 2543SOL    HW1 8528   1.323   0.762   2.710
 2543SOL    HW2 8529   1.337   0.782   2.871
 2544SOL     OW 8530   0.535   6.117   1.279
 2544SOL    HW1 8531   0.469   6.192   1.277
 2544SOL    HW2 8532   0.623   6.148   1.243
 2545SOL     OW 8533   0.808   0.053   2.429
 2545SOL    HW1 8534   0.730   7.016   2.427
 2545SOL    HW2 8535   0.792   0.130   2.367
 2546SOL     OW 8536   6.704   0.623   1.963
 2546SOL    HW1 8537   6.738   0.701   2.015
 2546SOL    HW2 8538   6.605   0.618   1.970
 2547SOL     OW 8539   6.767   4.715   0.223
 2547SOL    HW1 8540   6.823   4.634   0.201
 2547SOL    HW2 8541   6.726   4.704   0.313
 2548SOL     OW 8542   0.958   6.674   5.756
 2548SOL    HW1 8543   0.923   6.644   5.845
 2548SOL    HW2 8544   0.945   6.773   5.746
 2549SOL     OW 8545   1.797   0.274   1.098
 2549SOL    HW1 8546   1.771   0.298   1.005
 2549SOL    HW2 8547   1.716   0.257   1.153
 2550SOL     OW 8548   0.295   0.508   6.666
 2550SOL    HW1 8549   0.237   0.589   6.664
 2550SOL    HW2 8550   0.254   0.439   6.726
 2551SOL     OW 8551   3.047   5.273   0.432
 2551SOL    HW1 8552   3.025   5.360   0.387
 2551SOL    HW2 8553   3.096   5.214   0.369
 2552SOL     OW 8554   1.871   6.258   4.377
 2552SOL    HW1 8555   1.836   6.351   4.368
 2552SOL    HW2 8556   1.847   6.221   4.467
 2553SOL     OW 8557   4.755   3.534   5.983
 2553SOL    HW1 8558   4.682   3.514   6.048
 2553SOL    HW2 8559   4.734   3.618   5.933
 2554SOL     OW 8560   1.915   6.889   0.281
 2554SOL    HW1 8561   1.932   6.792   0.300
 2554SOL    HW2 8562   1.860   6.927   0.355
 2555SOL     OW 8563   5.133   6.806   5.045
 2555SOL    HW1 8564   5.173   6.878   4.988
 2555SOL    HW2 8565   5.170   6.718   5.016
 2556SOL     OW 8566   4.174   5.963   6.981
 2556SOL    HW1 8567   4.092   5.905   6.980
 2556SOL    HW2 8568   4.159   6.042   0.015
 2557SOL     OW 8569   1.993   4.573   6.881
 2557SOL    HW1 8570   2.083   4.610   6.857
 2557SOL    HW2 8571   2.003   4.510   6.958
 2558SOL     OW 8572   5.396   1.385   4.815
 2558SOL    HW1 8573   5.491   1.407   4.838
 2558SOL    HW2 8574   5.382   1.287   4.824
 2559SOL     OW 8575   0.602   4.281   4.895
 2559SOL    HW1 8576   0.606   4.246   4.989
 2559SOL    HW2 8577   0.690   4.323   4.871
 2560SOL     OW 8578   5.533   2.900   4.584
 2560SOL    HW1 8579   5.588   2.903   4.501
 2560SOL    HW2 8580   5.468   2.824   4.578
 2561SOL     OW 8581   3.129   5.952   5.038
 2561SOL    HW1 8582   3.080   5.919   5.119
 2561SOL    HW2 8583   3.070   6.016   4.988
 2562SOL     OW 8584   2.150   4.982   1.344
 2562SOL    HW1 8585   2.235   5.034   1.351
 2562SOL    HW2 8586   2.080   5.038   1.300
 2563SOL     OW 8587   3.595   1.927   0.258
 2563SOL    HW1 8588   3.651   1.850   0.290
 2563SOL    HW2 8589   3.637   1.968   0.178
 2564SOL     OW 8590   2.244   5.410   6.420
 2564SOL    HW1 8591   2.202   5.320   6.431
 2564SOL    HW2 8592   2.173   5.480   6.428
 2565SOL     OW 8593   1.385   0.172   6.979
 2565SOL    HW1 8594   1.360   0.147   0.047
 2565SOL    HW2 8595   1.327   0.247   6.947
 2566SOL     OW 8596   2.219   6.710   1.064
 2566SOL    HW1 8597   2.150   6.776   1.034
 2566SOL    HW2 8598   2.220   6.707   1.164
 2567SOL     OW 8599   1.006   0.700   0.906
 2567SOL    HW1 8600   0.970   0.788   0.874
 2567SOL    HW2 8601   0.945   0.662   0.976
 2568SOL     OW 8602   4.557   0.673   0.035
 2568SOL    HW1 8603   4.514   0.644   6.974
 2568SOL    HW2 8604   4.614   0.599   0.070
 2569SOL     OW 8605   3.071   1.261   2.051
 2569SOL    HW1 8606   3.078   1.326   2.127
 2569SOL    HW2 8607   2.991   1.203   2.063
 2570SOL     OW 8608   5.668   0.032   6.882
 2570SOL    HW1 8609   5.634   6.964   6.866
 2570SOL    HW2 8610   5.610   0.077   6.949
 2571SOL     OW 8611   2.404   4.408   4.916
 2571SOL    HW1 8612   2.357   4.321   4.899
 2571SOL    HW2 8613   2.342   4.483   4.893
 2572SOL     OW 8614   2.373   5.954   0.736
 2572SOL    HW1 8615   2.386   5.907   0.649
 2572SOL    HW2 8616   2.456   6.004   0.760
 2573SOL     OW 8617   6.994   1.846   1.628
 2573SOL    HW1 8618   6.921   1.808   1.686
 2573SOL    HW2 8619   6.992   1.801   1.539
 2574SOL     OW 8620   5.607   4.031   0.562
 2574SOL    HW1 8621   5.586   3.963   0.491
 2574SOL    HW2 8622   5.696   4.009   0.603
 2575SOL     OW 8623   5.348   5.456   0.977
 2575SOL    HW1 8624   5.439   5.458   0.935
 2575SOL    HW2 8625   5.345   5.384   1.046
 2576SOL     OW 8626   4.290   6.715   4.820
 2576SOL    HW1 8627   4.384   6.681   4.822
 2576SOL    HW2 8628   4.275   6.765   4.735
 2577SOL     OW 8629   3.873   6.410   2.206
 2577SOL    HW1 8630   3.846   6.458   2.123
 2577SOL    HW2 8631   3.805   6.428   2.278
 2578SOL     OW 8632   4.961   1.677   4.870
 2578SOL    HW1 8633   4.944   1.583   4.898
 2578SOL    HW2 8634   5.051   1.683   4.826
 2579SOL     OW 8635   1.745   6.784   3.046
 2579SOL    HW1 8636   1.735   6.803   3.144
 2579SOL    HW2 8637   1.791   6.697   3.033
 2580SOL     OW 8638   3.596   4.368   6.670
 2580SOL    HW1 8639   3.519   4.305   6.666
 2580SOL    HW2 8640   3.671   4.327   6.723
 2581SOL     OW 8641   2.045   5.005   1.906
 2581SOL    HW1 8642   2.089   5.028   1.819
 2581SOL    HW2 8643   1.974   4.937   1.891
 2582SOL     OW 8644   0.214   4.397   1.114
 2582SOL    HW1 8645   0.241   4.303   1.095
 2582SOL    HW2 8646   0.279   4.437   1.179
 2583SOL     OW 8647   1.455   1.836   6.154
 2583SOL    HW1 8648   1.509   1.772   6.099
 2583SOL    HW2 8649   1.479   1.825   6.251
 2584SOL     OW 8650   5.032   5.158   6.052
 2584SOL    HW1 8651   4.964   5.231   6.044
 2584SOL    HW2 8652   4.995   5.085   6.111
 2585SOL     OW 8653   3.828   3.337   0.640
 2585SOL    HW1 8654   3.780   3.415   0.601
 2585SOL    HW2 8655   3.830   3.346   0.740
 2586SOL     OW 8656   3.659   0.683   4.694
 2586SOL    HW1 8657   3.567   0.644   4.686
 2586SOL    HW2 8658   3.654   0.782   4.695
 2587SOL     OW 8659   6.349   0.842   3.466
 2587SOL    HW1 8660   6.267   0.861   3.412
 2587SOL    HW2 8661   6.352   0.744   3.488
 2588SOL     OW 8662   5.241   1.950   6.724
 2588SOL    HW1 8663   5.240   1.874   6.658
 2588SOL    HW2 8664   5.334   1.982   6.736
 2589SOL     OW 8665   1.379   6.680   5.294
 2589SOL    HW1 8666   1.405   6.613   5.363
 2589SOL    HW2 8667   1.397   6.642   5.203
 2590SOL     OW 8668   3.738   5.101   0.200
 2590SOL    HW1 8669   3.693   5.012   0.213
 2590SOL    HW2 8670   3.779   5.131   0.286
 2591SOL     OW 8671   6.951   4.655   2.933
 2591SOL    HW1 8672   6.987   4.633   2.843
 2591SOL    HW2 8673   6.920   4.572   2.978
 2592SOL     OW 8674   3.094   5.530   0.674
 2592SOL    HW1 8675   3.033   5.462   0.635
 2592SOL    HW2 8676   3.040   5.603   0.716
 2593SOL     OW 8677   4.454   6.016   6.932
 2593SOL    HW1 8678   4.481   6.069   7.013
 2593SOL    HW2 8679   4.363   5.978   6.946
 2594SOL     OW 8680   1.680   4.277   6.421
 2594SOL    HW1 8681   1.710   4.245   6.331
 2594SOL    HW2 8682   1.738   4.237   6.492
 2595SOL     OW 8683   0.147   0.967   4.245
 2595SOL    HW1 8684   0.206   1.007   4.175
 2595SOL    HW2 8685   0.198   0.896   4.295
 2596SOL     OW 8686   3.136   2.138   1.873
 2596SOL    HW1 8687   3.166   2.123   1.778
 2596SOL    HW2 8688   3.055   2.198   1.872
 2597SOL     OW 8689   0.738   5.352   6.499
 2597SOL    HW1 8690   0.777   5.393   6.417
 2597SOL    HW2 8691   0.787   5.268   6.521
 2598SOL     OW 8692   6.328   1.591   2.851
 2598SOL    HW1 8693   6.320   1.620   2.946
 2598SOL    HW2 8694   6.403   1.641   2.807
 2599SOL     OW 8695   1.631   5.953   0.922
 2599SOL    HW1 8696   1.730   5.964   0.912
 2599SOL    HW2 8697   1.586   6.041   0.906
 2600SOL     OW 8698   5.472   2.546   4.506
 2600SOL    HW1 8699   5.547   2.537   4.441
 2600SOL    HW2 8700   5.389   2.507   4.467
 2601SOL     OW 8701   1.818   1.488   1.700
 2601SOL    HW1 8702   1.825   1.531   1.790
 2601SOL    HW2 8703   1.722   1.489   1.670
 2602SOL     OW 8704   0.961   4.900   5.071
 2602SOL    HW1 8705   0.971   4.817   5.125
 2602SOL    HW2 8706   0.967   4.980   5.131
 2603SOL     OW 8707   3.124   1.252   2.832
 2603SOL    HW1 8708   3.184   1.276   2.908
 2603SOL    HW2 8709   3.179   1.229   2.752
 2604SOL     OW 8710   4.666   2.150   3.090
 2604SOL    HW1 8711   4.623   2.238   3.114
 2604SOL    HW2 8712   4.639   2.081   3.157
 2605SOL     OW 8713   1.883   2.785   2.578
 2605SOL    HW1 8714   1.798   2.735   2.594
 2605SOL    HW2 8715   1.934   2.792   2.664
 2606SOL     OW 8716   6.042   5.272   1.556
 2606SOL    HW1 8717   6.093   5.354   1.533
 2606SOL    HW2 8718   6.047   5.207   1.481
 2607SOL     OW 8719   0.734   1.734   1.539
 2607SOL    HW1 8720   0.769   1.816   1.584
 2607SOL    HW2 8721   0.635   1.731   1.548
 2608SOL     OW 8722   3.893   5.641   0.654
 2608SOL    HW1 8723   3.867   5.737   0.644
 2608SOL    HW2 8724   3.827   5.594   0.714
 2609SOL     OW 8725   6.045   1.342   2.192
 2609SOL    HW1 8726   6.001   1.406   2.128
 2609SOL    HW2 8727   6.030   1.374   2.286
 2610SOL     OW 8728   1.054   4.423   4.464
 2610SOL    HW1 8729   1.097   4.355   4.524
 2610SOL    HW2 8730   1.078   4.515   4.494
 2611SOL     OW 8731   4.473   6.248   0.580
 2611SOL    HW1 8732   4.405   6.311   0.617
 2611SOL    HW2 8733   4.427   6.179   0.523
 2612SOL     OW 8734   5.964   6.279   4.757
 2612SOL    HW1 8735   6.029   6.225   4.703
 2612SOL    HW2 8736   6.000   6.293   4.849
 2613SOL     OW 8737   2.335   5.102   5.999
 2613SOL    HW1 8738   2.330   5.110   6.099
 2613SOL    HW2 8739   2.270   5.165   5.957
 2614SOL     OW 8740   6.827   2.421   0.042
 2614SOL    HW1 8741   6.781   2.427   6.978
 2614SOL    HW2 8742   6.895   2.493   0.050
 2615SOL     OW 8743   0.904   3.215   2.183
 2615SOL    HW1 8744   0.916   3.219   2.282
 2615SOL    HW2 8745   0.830   3.150   2.162
 2616SOL     OW 8746   2.244   2.510   5.860
 2616SOL    HW1 8747   2.338   2.542   5.857
 2616SOL    HW2 8748   2.194   2.544   5.780
 2617SOL     OW 8749   4.408   1.167   0.322
 2617SOL    HW1 8750   4.433   1.094   0.258
 2617SOL    HW2 8751   4.408   1.131   0.415
 2618SOL     OW 8752   6.700   0.185   3.977
 2618SOL    HW1 8753   6.772   0.246   4.009
 2618SOL    HW2 8754   6.696   0.187   3.877
 2619SOL     OW 8755   4.547   1.634   1.997
 2619SOL    HW1 8756   4.592   1.695   2.063
 2619SOL    HW2 8757   4.505   1.689   1.924
 2620SOL     OW 8758   6.584   0.001   3.258
 2620SOL    HW1 8759   6.589   0.096   3.289
 2620SOL    HW2 8760   6.674   6.995   3.227
 2621SOL     OW 8761   1.008   5.553   2.451
 2621SOL    HW1 8762   0.947   5.537   2.528
 2621SOL    HW2 8763   1.102   5.535   2.477
 2622SOL     OW 8764   2.297   3.547   5.754
 2622SOL    HW1 8765   2.386   3.503   5.764
 2622SOL    HW2 8766   2.304   3.621   5.688
 2623SOL     OW 8767   0.969   1.013   5.172
 2623SOL    HW1 8768   1.008   0.986   5.085
 2623SOL    HW2 8769   0.973   1.112   5.182
 2624SOL     OW 8770   0.175   2.036   5.239
 2624SOL    HW1 8771   0.107   1.963   5.244
 2624SOL    HW2 8772   0.147   2.103   5.171
 2625SOL     OW 8773   2.444   3.780   5.618
 2625SOL    HW1 8774   2.524   3.782   5.678
 2625SOL    HW2 8775   2.461   3.836   5.538
 2626SOL     OW 8776   6.693   0.378   6.246
 2626SOL    HW1 8777   6.628   0.399   6.173
 2626SOL    HW2 8778   6.769   0.443   6.243
 2627SOL     OW 8779   2.239   1.122   5.837
 2627SOL    HW1 8780   2.209   1.045   5.780
 2627SOL    HW2 8781   2.245   1.092   5.932
 2628SOL     OW 8782   2.065   3.729   5.080
 2628SOL    HW1 8783   2.046   3.801   5.147
 2628SOL    HW2 8784   2.039   3.761   4.989
 2629SOL     OW 8785   3.795   3.506   2.539
 2629SOL    HW1 8786   3.891   3.500   2.568
 2629SOL    HW2 8787   3.769   3.421   2.493
 2630SOL     OW 8788   3.507   1.227   2.882
 2630SOL    HW1 8789   3.541   1.170   2.807
 2630SOL    HW2 8790   3.559   1.311   2.886
 2631SOL     OW 8791   5.004   1.067   6.499
 2631SOL    HW1 8792   4.943   1.124   6.444
 2631SOL    HW2 8793   5.096   1.070   6.461
 2632SOL     OW 8794   5.847   3.570   0.185
 2632SOL    HW1 8795   5.915   3.563   0.112
 2632SOL    HW2 8796   5.847   3.485   0.237
 2633SOL     OW 8797   6.698   2.219   4.789
 2633SOL    HW1 8798   6.613   2.221   4.737
 2633SOL    HW2 8799   6.688   2.271   4.873
 2634SOL     OW 8800   0.607   5.782   3.545
 2634SOL    HW1 8801   0.533   5.791   3.612
 2634SOL    HW2 8802   0.680   5.726   3.583
 2635SOL     OW 8803   6.652   5.587   4.182
 2635SOL    HW1 8804   6.658   5.529   4.264
 2635SOL    HW2 8805   6.581   5.552   4.121
 2636SOL     OW 8806   3.992   0.653   6.739
 2636SOL    HW1 8807   3.985   0.752   6.747
 2636SOL    HW2 8808   3.905   0.616   6.705
 2637SOL     OW 8809   6.390   1.573   3.935
 2637SOL    HW1 8810   6.386   1.671   3.950
 2637SOL    HW2 8811   6.429   1.555   3.844
 2638SOL     OW 8812   0.110   6.712   4.700
 2638SOL    HW1 8813   0.130   6.796   4.649
 2638SOL    HW2 8814   0.054   6.652   4.644
 2639SOL     OW 8815   6.558   5.886   6.640
 2639SOL    HW1 8816   6.597   5.972   6.607
 2639SOL    HW2 8817   6.566   5.882   6.739
 2640SOL     OW 8818   6.700   6.681   4.994
 2640SOL    HW1 8819   6.637   6.712   4.924
 2640SOL    HW2 8820   6.674   6.589   5.024
 2641SOL     OW 8821   5.068   2.377   1.499
 2641SOL    HW1 8822   5.150   2.319   1.498
 2641SOL    HW2 8823   5.089   2.463   1.547
 2642SOL     OW 8824   6.249   0.060   4.093
 2642SOL    HW1 8825   6.227   0.134   4.030
 2642SOL    HW2 8826   6.324   0.005   4.055
 2643SOL     OW 8827   1.206   3.623   3.649
 2643SOL    HW1 8828   1.220   3.722   3.647
 2643SOL    HW2 8829   1.197   3.592   3.743
 2644SOL     OW 8830   4.381   5.100   5.335
 2644SOL    HW1 8831   4.398   5.118   5.432
 2644SOL    HW2 8832   4.288   5.130   5.311
 2645SOL     OW 8833   5.187   5.106   3.725
 2645SOL    HW1 8834   5.128   5.036   3.764
 2645SOL    HW2 8835   5.280   5.072   3.719
 2646SOL     OW 8836   0.041   2.635   0.158
 2646SOL    HW1 8837   0.087   2.686   0.086
 2646SOL    HW2 8838   0.104   2.569   0.199
 2647SOL     OW 8839   5.859   0.118   1.585
 2647SOL    HW1 8840   5.805   0.165   1.515
 2647SOL    HW2 8841   5.956   0.137   1.570
 2648SOL     OW 8842   6.937   6.570   4.573
 2648SOL    HW1 8843   6.891   6.505   4.513
 2648SOL    HW2 8844   6.880   6.651   4.585
 2649SOL     OW 8845   6.134   3.044   1.397
 2649SOL    HW1 8846   6.138   3.017   1.493
 2649SOL    HW2 8847   6.178   3.134   1.386
 2650SOL     OW 8848   2.408   5.651   4.346
 2650SOL    HW1 8849   2.375   5.597   4.424
 2650SOL    HW2 8850   2.361   5.739   4.344
 2651SOL     OW 8851   2.977   1.432   0.614
 2651SOL    HW1 8852   3.007   1.528   0.610
 2651SOL    HW2 8853   3.004   1.386   0.529
 2652SOL     OW 8854   4.804   3.315   5.817
 2652SOL    HW1 8855   4.765   3.386   5.875
 2652SOL    HW2 8856   4.761   3.227   5.838
 2653SOL     OW 8857   4.534   5.840   5.878
 2653SOL    HW1 8858   4.567   5.927   5.841
 2653SOL    HW2 8859   4.533   5.771   5.806
 2654SOL     OW 8860   4.781   6.080   1.272
 2654SOL    HW1 8861   4.737   6.071   1.361
 2654SOL    HW2 8862   4.775   6.176   1.242
 2655SOL     OW 8863   4.656   5.566   3.658
 2655SOL    HW1 8864   4.578   5.556   3.720
 2655SOL    HW2 8865   4.739   5.539   3.706
 2656SOL     OW 8866   3.502   5.000   3.967
 2656SOL    HW1 8867   3.404   4.983   3.954
 2656SOL    HW2 8868   3.552   4.966   3.888
 2657SOL     OW 8869   2.047   3.399   0.811
 2657SOL    HW1 8870   1.975   3.419   0.744
 2657SOL    HW2 8871   2.110   3.331   0.773
 2658SOL     OW 8872   4.487   5.014   0.137
 2658SOL    HW1 8873   4.579   5.038   0.105
 2658SOL    HW2 8874   4.431   4.986   0.059
 2659SOL     OW 8875   4.784   3.207   5.455
 2659SOL    HW1 8876   4.738   3.295   5.438
 2659SOL    HW2 8877   4.867   3.202   5.399
 2660SOL     OW 8878   0.743   0.633   1.554
 2660SOL    HW1 8879   0.646   0.649   1.572
 2660SOL    HW2 8880   0.790   0.614   1.640
 2661SOL     OW 8881   1.861   6.681   1.703
 2661SOL    HW1 8882   1.927   6.695   1.778
 2661SOL    HW2 8883   1.833   6.770   1.667
 2662SOL     OW 8884   2.555   0.237   3.733
 2662SOL    HW1 8885   2.650   0.209   3.717
 2662SOL    HW2 8886   2.539   0.245   3.832
 2663SOL     OW 8887   4.399   5.380   6.436
 2663SOL    HW1 8888   4.491   5.399   6.471
 2663SOL    HW2 8889   4.337   5.363   6.512
 2664SOL     OW 8890   4.345   3.357   5.375
 2664SOL    HW1 8891   4.250   3.384   5.386
 2664SOL    HW2 8892   4.351   3.260   5.351
 2665SOL     OW 8893   2.222   3.530   5.221
 2665SOL    HW1 8894   2.190   3.601   5.158
 2665SOL    HW2 8895   2.292   3.568   5.281
 2666SOL     OW 8896   1.532   4.356   1.425
 2666SOL    HW1 8897   1.595   4.279   1.413
 2666SOL    HW2 8898   1.495   4.383   1.336
 2667SOL     OW 8899   0.855   5.487   3.999
 2667SOL    HW1 8900   0.768   5.464   4.043
 2667SOL    HW2 8901   0.916   5.531   4.065
 2668SOL     OW 8902   5.777   2.729   4.372
 2668SOL    HW1 8903   5.736   2.641   4.348
 2668SOL    HW2 8904   5.852   2.715   4.436
 2669SOL     OW 8905   3.582   5.945   6.735
 2669SOL    HW1 8906   3.629   5.966   6.821
 2669SOL    HW2 8907   3.487   5.921   6.754
 2670SOL     OW 8908   5.970   2.682   4.628
 2670SOL    HW1 8909   5.944   2.766   4.676
 2670SOL    HW2 8910   5.949   2.603   4.684
 2671SOL     OW 8911   4.828   5.398   6.059
 2671SOL    HW1 8912   4.812   5.424   5.964
 2671SOL    HW2 8913   4.762   5.444   6.118
 2672SOL     OW 8914   3.316   6.632   1.755
 2672SOL    HW1 8915   3.288   6.687   1.676
 2672SOL    HW2 8916   3.415   6.618   1.752
 2673SOL     OW 8917   5.658   1.926   2.166
 2673SOL    HW1 8918   5.736   1.986   2.148
 2673SOL    HW2 8919   5.635   1.930   2.263
 2674SOL     OW 8920   1.579   5.010   4.058
 2674SOL    HW1 8921   1.662   4.955   4.071
 2674SOL    HW2 8922   1.550   5.047   4.146
 2675SOL     OW 8923   0.117   6.642   4.357
 2675SOL    HW1 8924   0.195   6.590   4.392
 2675SOL    HW2 8925   0.035   6.618   4.409
 2676SOL     OW 8926   3.460   3.552   2.377
 2676SOL    HW1 8927   3.362   3.544   2.391
 2676SOL    HW2 8928   3.506   3.471   2.414
 2677SOL     OW 8929   2.761   5.043   1.359
 2677SOL    HW1 8930   2.683   5.028   1.420
 2677SOL    HW2 8931   2.820   4.963   1.360
 2678SOL     OW 8932   6.836   2.066   1.859
 2678SOL    HW1 8933   6.864   1.983   1.810
 2678SOL    HW2 8934   6.850   2.053   1.957
 2679SOL     OW 8935   1.579   4.488   2.689
 2679SOL    HW1 8936   1.586   4.585   2.712
 2679SOL    HW2 8937   1.517   4.477   2.611
 2680SOL     OW 8938   1.220   2.477   6.862
 2680SOL    HW1 8939   1.154   2.526   6.919
 2680SOL    HW2 8940   1.293   2.440   6.920
 2681SOL     OW 8941   1.112   2.871   4.864
 2681SOL    HW1 8942   1.088   2.788   4.914
 2681SOL    HW2 8943   1.186   2.919   4.911
 2682SOL     OW 8944   5.014   3.926   3.130
 2682SOL    HW1 8945   4.987   3.830   3.137
 2682SOL    HW2 8946   5.035   3.948   3.035
 2683SOL     OW 8947   2.283   4.617   2.329
 2683SOL    HW1 8948   2.218   4.542   2.317
 2683SOL    HW2 8949   2.262   4.666   2.414
 2684SOL     OW 8950   4.845   0.103   1.640
 2684SOL    HW1 8951   4.754   0.099   1.599
 2684SOL    HW2 8952   4.912   0.064   1.576
 2685SOL     OW 8953   6.186   4.941   5.313
 2685SOL    HW1 8954   6.271   4.964   5.360
 2685SOL    HW2 8955   6.124   5.020   5.317
 2686SOL     OW 8956   0.997   1.511   5.381
 2686SOL    HW1 8957   1.086   1.469   5.398
 2686SOL    HW2 8958   0.930   1.440   5.361
 2687SOL     OW 8959   3.581   6.451   0.895
 2687SOL    HW1 8960   3.574   6.363   0.850
 2687SOL    HW2 8961   3.556   6.524   0.831
 2688SOL     OW 8962   2.904   1.857   0.781
 2688SOL    HW1 8963   2.925   1.942   0.830
 2688SOL    HW2 8964   2.916   1.779   0.843
 2689SOL     OW 8965   0.348   3.995   2.487
 2689SOL    HW1 8966   0.437   4.026   2.451
 2689SOL    HW2 8967   0.275   4.052   2.449
 2690SOL     OW 8968   2.957   3.446   6.772
 2690SOL    HW1 8969   2.972   3.380   6.698
 2690SOL    HW2 8970   2.974   3.538   6.738
 2691SOL     OW 8971   7.016   4.444   3.775
 2691SOL    HW1 8972   7.016   4.397   3.863
 2691SOL    HW2 8973   6.921   4.459   3.746
 2692SOL     OW 8974   2.252   6.708   2.820
 2692SOL    HW1 8975   2.192   6.666   2.752
 2692SOL    HW2 8976   2.232   6.806   2.826
 2693SOL     OW 8977   2.116   4.510   4.250
 2693SOL    HW1 8978   2.076   4.519   4.159
 2693SOL    HW2 8979   2.204   4.464   4.244
 2694SOL     OW 8980   4.177   6.717   3.269
 2694SOL    HW1 8981   4.147   6.740   3.177
 2694SOL    HW2 8982   4.277   6.719   3.273
 2695SOL     OW 8983   5.724   7.001   2.849
 2695SOL    HW1 8984   5.745   0.043   2.921
 2695SOL    HW2 8985   5.668   0.019   2.778
 2696SOL     OW 8986   4.693   4.135   5.625
 2696SOL    HW1 8987   4.772   4.164   5.680
 2696SOL    HW2 8988   4.651   4.215   5.582
 2697SOL     OW 8989   4.521   2.017   2.613
 2697SOL    HW1 8990   4.603   2.074   2.612
 2697SOL    HW2 8991   4.542   1.930   2.658
 2698SOL     OW 8992   1.903   4.830   6.881
 2698SOL    HW1 8993   1.852   4.815   6.796
 2698SOL    HW2 8994   1.944   4.744   6.911
 2699SOL     OW 8995   2.548   6.386   1.100
 2699SOL    HW1 8996   2.533   6.482   1.077
 2699SOL    HW2 8997   2.647   6.369   1.107
 2700SOL     OW 8998   2.698   1.272   1.155
 2700SOL    HW1 8999   2.689   1.228   1.066
 2700SOL    HW2 9000   2.727   1.367   1.143
 2701SOL     OW 9001   5.181   2.146   5.472
 2701SOL    HW1 9002   5.177   2.244   5.489
 2701SOL    HW2 9003   5.210   2.098   5.555
 2702SOL     OW 9004   0.993   1.961   2.709
 2702SOL    HW1 9005   1.025   1.868   2.687
 2702SOL    HW2 9006   1.059   2.005   2.769
 2703SOL     OW 9007   1.382   5.607   1.585
 2703SOL    HW1 9008   1.395   5.604   1.486
 2703SOL    HW2 9009   1.423   5.690   1.622
 2704SOL     OW 9010   6.981   5.665   2.084
 2704SOL    HW1 9011   7.012   5.752   2.045
 2704SOL    HW2 9012   0.003   5.589   2.039
 2705SOL     OW 9013   6.598   0.743   5.034
 2705SOL    HW1 9014   6.639   0.735   4.943
 2705SOL    HW2 9015   6.499   0.749   5.025
 2706SOL     OW 9016   6.623   4.596   4.253
 2706SOL    HW1 9017   6.635   4.525   4.184
 2706SOL    HW2 9018   6.528   4.599   4.282
 2707SOL     OW 9019   4.085   0.039   4.286
 2707SOL    HW1 9020   3.995   0.069   4.317
 2707SOL    HW2 9021   4.088   6.964   4.287
 2708SOL     OW 9022   6.470   2.809   0.853
 2708SOL    HW1 9023   6.437   2.903   0.845
 2708SOL    HW2 9024   6.421   2.751   0.787
 2709SOL     OW 9025   5.127   0.119   6.488
 2709SOL    HW1 9026   5.213   0.068   6.492
 2709SOL    HW2 9027   5.121   0.181   6.566
 2710SOL     OW 9028   1.884   2.562   4.027
 2710SOL    HW1 9029   1.966   2.568   3.970
 2710SOL    HW2 9030   1.908   2.584   4.121
 2711SOL     OW 9031   3.166   0.912   3.546
 2711SOL    HW1 9032   3.246   0.949   3.500
 2711SOL    HW2 9033   3.086   0.919   3.486
 2712SOL     OW 9034   2.616   5.483   2.234
 2712SOL    HW1 9035   2.636   5.523   2.144
 2712SOL    HW2 9036   2.679   5.521   2.301
 2713SOL     OW 9037   3.903   3.963   6.515
 2713SOL    HW1 9038   3.919   3.921   6.426
 2713SOL    HW2 9039   3.823   3.921   6.557
 2714SOL     OW 9040   3.698   3.823   0.150
 2714SOL    HW1 9041   3.753   3.899   0.114
 2714SOL    HW2 9042   3.728   3.803   0.243
 2715SOL     OW 9043   5.586   2.214   1.014
 2715SOL    HW1 9044   5.677   2.190   1.051
 2715SOL    HW2 9045   5.596   2.282   0.942
 2716SOL     OW 9046   5.129   3.228   3.699
 2716SOL    HW1 9047   5.190   3.307   3.704
 2716SOL    HW2 9048   5.122   3.185   3.789
 2717SOL     OW 9049   0.912   7.024   2.081
 2717SOL    HW1 9050   0.913   0.046   1.993
 2717SOL    HW2 9051   0.975   0.045   2.144
 2718SOL     OW 9052   0.286   1.532   5.322
 2718SOL    HW1 9053   0.239   1.570   5.402
 2718SOL    HW2 9054   0.219   1.499   5.256
 2719SOL     OW 9055   1.059   4.473   1.695
 2719SOL    HW1 9056   0.995   4.503   1.624
 2719SOL    HW2 9057   1.114   4.397   1.661
 2720SOL     OW 9058   0.804   0.241   3.693
 2720SOL    HW1 9059   0.895   0.235   3.736
 2720SOL    HW2 9060   0.804   0.187   3.609
 2721SOL     OW 9061   3.482   6.576   3.169
 2721SOL    HW1 9062   3.576   6.542   3.179
 2721SOL    HW2 9063   3.454   6.567   3.073
 2722SOL     OW 9064   4.848   5.214   6.373
 2722SOL    HW1 9065   4.775   5.212   6.304
 2722SOL    HW2 9066   4.921   5.151   6.347
 2723SOL     OW 9067   2.259   6.445   6.652
 2723SOL    HW1 9068   2.261   6.468   6.555
 2723SOL    HW2 9069   2.180   6.386   6.671
 2724SOL     OW 9070   1.427   5.991   6.701
 2724SOL    HW1 9071   1.432   6.037   6.612
 2724SOL    HW2 9072   1.502   6.021   6.759
 2725SOL     OW 9073   5.469   3.625   4.656
 2725SOL    HW1 9074   5.473   3.557   4.730
 2725SOL    HW2 9075   5.463   3.717   4.695
 2726SOL     OW 9076   0.875   1.923   1.725
 2726SOL    HW1 9077   0.954   1.977   1.694
 2726SOL    HW2 9078   0.810   1.984   1.771
 2727SOL     OW 9079   1.563   3.732   4.397
 2727SOL    HW1 9080   1.591   3.825   4.423
 2727SOL    HW2 9081   1.466   3.720   4.417
 2728SOL     OW 9082   5.473   6.063   6.244
 2728SOL    HW1 9083   5.491   6.072   6.342
 2728SOL    HW2 9084   5.467   6.153   6.202
 2729SOL     OW 9085   6.617   6.560   0.387
 2729SOL    HW1 9086   6.672   6.643   0.375
 2729SOL    HW2 9087   6.611   6.512   0.299
 2730SOL     OW 9088   0.953   6.154   1.980
 2730SOL    HW1 9089   0.923   6.250   1.981
 2730SOL    HW2 9090   0.874   6.095   1.964
 2731SOL     OW 9091   3.195   3.321   3.266
 2731SOL    HW1 9092   3.272   3.384   3.254
 2731SOL    HW2 9093   3.230   3.230   3.289
 2732SOL     OW 9094   5.896   2.354   1.208
 2732SOL    HW1 9095   5.957   2.432   1.221
 2732SOL    HW2 9096   5.929   2.276   1.260
 2733SOL     OW 9097   0.370   1.723   5.102
 2733SOL    HW1 9098   0.352   1.643   5.159
 2733SOL    HW2 9099   0.384   1.803   5.161
 2734SOL     OW 9100   3.652   5.623   1.614
 2734SOL    HW1 9101   3.721   5.553   1.629
 2734SOL    HW2 9102   3.658   5.656   1.519
 2735SOL     OW 9103   1.572   2.144   1.460
 2735SOL    HW1 9104   1.499   2.163   1.526
 2735SOL    HW2 9105   1.572   2.215   1.389
 2736SOL     OW 9106   6.102   6.307   5.009
 2736SOL    HW1 9107   6.171   6.234   5.015
 2736SOL    HW2 9108   6.137   6.389   5.053
 2737SOL     OW 9109   2.695   3.576   6.071
 2737SOL    HW1 9110   2.692   3.656   6.131
 2737SOL    HW2 9111   2.790   3.556   6.048
 2738SOL     OW 9112   6.119   6.360   2.430
 2738SOL    HW1 9113   6.084   6.344   2.523
 2738SOL    HW2 9114   6.051   6.330   2.363
 2739SOL     OW 9115   0.499   5.075   0.833
 2739SOL    HW1 9116   0.572   5.085   0.900
 2739SOL    HW2 9117   0.536   5.032   0.750
 2740SOL     OW 9118   6.692   5.140   1.887
 2740SOL    HW1 9119   6.733   5.151   1.978
 2740SOL    HW2 9120   6.732   5.059   1.843
 2741SOL     OW 9121   0.035   1.932   4.768
 2741SOL    HW1 9122   0.032   2.001   4.839
 2741SOL    HW2 9123   6.989   1.951   4.700
 2742SOL     OW 9124   1.981   5.142   1.202
 2742SOL    HW1 9125   1.930   5.228   1.203
 2742SOL    HW2 9126   2.035   5.136   1.118
 2743SOL     OW 9127   6.748   4.572   2.277
 2743SOL    HW1 9128   6.717   4.645   2.339
 2743SOL    HW2 9129   6.752   4.607   2.184
 2744SOL     OW 9130   4.331   2.993   1.597
 2744SOL    HW1 9131   4.301   3.042   1.679
 2744SOL    HW2 9132   4.262   2.925   1.571
 2745SOL     OW 9133   6.574   1.362   5.507
 2745SOL    HW1 9134   6.591   1.456   5.476
 2745SOL    HW2 9135   6.652   1.304   5.482
 2746SOL     OW 9136   0.912   2.362   4.183
 2746SOL    HW1 9137   0.938   2.345   4.278
 2746SOL    HW2 9138   0.924   2.278   4.130
 2747SOL     OW 9139   4.686   5.632   6.831
 2747SOL    HW1 9140   4.693   5.717   6.883
 2747SOL    HW2 9141   4.627   5.647   6.752
 2748SOL     OW 9142   4.132   0.860   1.711
 2748SOL    HW1 9143   4.171   0.932   1.769
 2748SOL    HW2 9144   4.034   0.878   1.699
 2749SOL     OW 9145   0.187   4.696   0.972
 2749SOL    HW1 9146   0.242   4.780   0.981
 2749SOL    HW2 9147   0.249   4.618   0.965
 2750SOL     OW 9148   2.131   4.383   2.300
 2750SOL    HW1 9149   2.065   4.372   2.226
 2750SOL    HW2 9150   2.125   4.304   2.362
 2751SOL     OW 9151   1.343   2.204   1.603
 2751SOL    HW1 9152   1.268   2.171   1.661
 2751SOL    HW2 9153   1.334   2.303   1.591
 2752SOL     OW 9154   3.414   4.141   6.133
 2752SOL    HW1 9155   3.499   4.192   6.144
 2752SOL    HW2 9156   3.347   4.197   6.086
 2753SOL     OW 9157   6.835   6.022   4.943
 2753SOL    HW1 9158   6.864   6.026   5.039
 2753SOL    HW2 9159   6.888   5.952   4.895
 2754SOL     OW 9160   0.085   6.968   0.031
 2754SOL    HW1 9161   0.102   6.945   6.960
 2754SOL    HW2 9162   0.088   0.042   0.043
 2755SOL     OW 9163   3.961   0.083   3.110
 2755SOL    HW1 9164   3.865   0.110   3.103
 2755SOL    HW2 9165   3.986   0.072   3.206
 2756SOL     OW 9166   4.120   6.206   0.459
 2756SOL    HW1 9167   4.059   6.214   0.537
 2756SOL    HW2 9168   4.177   6.288   0.452
 2757SOL     OW 9169   1.934   6.783   0.969
 2757SOL    HW1 9170   1.846   6.801   0.925
 2757SOL    HW2 9171   1.927   6.803   1.067
 2758SOL     OW 9172   4.558   0.075   4.434
 2758SOL    HW1 9173   4.529   0.160   4.476
 2758SOL    HW2 9174   4.646   0.047   4.472
 2759SOL     OW 9175   5.516   6.496   5.296
 2759SOL    HW1 9176   5.578   6.533   5.365
 2759SOL    HW2 9177   5.424   6.487   5.335
 2760SOL     OW 9178   1.185   5.811   1.368
 2760SOL    HW1 9179   1.151   5.728   1.324
 2760SOL    HW2 9180   1.195   5.795   1.467
 2761SOL     OW 9181   2.162   4.643   4.483
 2761SOL    HW1 9182   2.132   4.627   4.389
 2761SOL    HW2 9183   2.219   4.567   4.513
 2762SOL     OW 9184   1.018   0.934   4.916
 2762SOL    HW1 9185   1.115   0.915   4.901
 2762SOL    HW2 9186   0.988   1.006   4.854
 2763SOL     OW 9187   5.456   1.291   3.985
 2763SOL    HW1 9188   5.508   1.238   3.917
 2763SOL    HW2 9189   5.376   1.331   3.941
 2764SOL     OW 9190   6.381   0.358   1.093
 2764SOL    HW1 9191   6.284   0.334   1.090
 2764SOL    HW2 9192   6.433   0.294   1.036
 2765SOL     OW 9193   5.534   0.100   0.632
 2765SOL    HW1 9194   5.553   0.162   0.556
 2765SOL    HW2 9195   5.450   0.128   0.678
 2766SOL     OW 9196   5.059   2.713   0.456
 2766SOL    HW1 9197   4.982   2.679   0.510
 2766SOL    HW2 9198   5.035   2.801   0.416
 2767SOL     OW 9199   6.889   4.864   6.867
 2767SOL    HW1 9200   6.885   4.765   6.881
 2767SOL    HW2 9201   6.940   4.906   6.941
 2768SOL     OW 9202   4.913   0.829   0.440
 2768SOL    HW1 9203   4.927   0.736   0.475
 2768SOL    HW2 9204   5.002   0.870   0.419
 2769SOL     OW 9205   0.459   4.006   3.864
 2769SOL    HW1 9206   0.363   4.007   3.834
 2769SOL    HW2 9207   0.514   4.058   3.799
 2770SOL     OW 9208   2.376   5.655   6.460
 2770SOL    HW1 9209   2.443   5.687   6.528
 2770SOL    HW2 9210   2.353   5.559   6.479
 2771SOL     OW 9211   5.834   1.157   2.147
 2771SOL    HW1 9212   5.822   1.127   2.242
 2771SOL    HW2 9213   5.925   1.199   2.137
 2772SOL     OW 9214   4.601   1.654   1.030
 2772SOL    HW1 9215   4.569   1.708   1.108
 2772SOL    HW2 9216   4.594   1.709   0.947
 2773SOL     OW 9217   5.865   2.733   5.295
 2773SOL    HW1 9218   5.781   2.787   5.293
 2773SOL    HW2 9219   5.874   2.688   5.384
 2774SOL     OW 9220   6.311   3.476   2.865
 2774SOL    HW1 9221   6.254   3.410   2.914
 2774SOL    HW2 9222   6.348   3.542   2.930
 2775SOL     OW 9223   0.356   5.329   6.844
 2775SOL    HW1 9224   0.306   5.382   6.776
 2775SOL    HW2 9225   0.351   5.232   6.821
 2776SOL     OW 9226   5.437   5.051   5.608
 2776SOL    HW1 9227   5.468   5.130   5.661
 2776SOL    HW2 9228   5.381   4.991   5.665
 2777SOL     OW 9229   2.683   0.861   2.047
 2777SOL    HW1 9230   2.648   0.873   1.954
 2777SOL    HW2 9231   2.612   0.887   2.112
 2778SOL     OW 9232   1.249   0.581   4.907
 2778SOL    HW1 9233   1.204   0.575   4.996
 2778SOL    HW2 9234   1.193   0.536   4.838
 2779SOL     OW 9235   4.913   6.450   0.905
 2779SOL    HW1 9236   5.010   6.453   0.929
 2779SOL    HW2 9237   4.862   6.513   0.963
 2780SOL     OW 9238   0.182   6.010   6.791
 2780SOL    HW1 9239   0.238   6.031   6.711
 2780SOL    HW2 9240   0.188   5.912   6.811
 2781SOL     OW 9241   6.268   5.352   1.413
 2781SOL    HW1 9242   6.322   5.412   1.473
 2781SOL    HW2 9243   6.221   5.407   1.344
 2782SOL     OW 9244   2.741   1.911   5.775
 2782SOL    HW1 9245   2.665   1.956   5.822
 2782SOL    HW2 9246   2.810   1.980   5.749
 2783SOL     OW 9247   6.056   3.106   4.677
 2783SOL    HW1 9248   6.121   3.100   4.602
 2783SOL    HW2 9249   6.014   3.017   4.693
 2784SOL     OW 9250   2.989   1.909   1.120
 2784SOL    HW1 9251   3.060   1.948   1.179
 2784SOL    HW2 9252   2.952   1.980   1.060
 2785SOL     OW 9253   6.047   1.647   0.705
 2785SOL    HW1 9254   5.957   1.609   0.725
 2785SOL    HW2 9255   6.046   1.746   0.721
 2786SOL     OW 9256   4.175   5.623   2.106
 2786SOL    HW1 9257   4.143   5.550   2.045
 2786SOL    HW2 9258   4.175   5.710   2.056
 2787SOL     OW 9259   2.784   2.646   6.612
 2787SOL    HW1 9260   2.815   2.660   6.518
 2787SOL    HW2 9261   2.811   2.555   6.642
 2788SOL     OW 9262   2.708   4.395   6.823
 2788SOL    HW1 9263   2.768   4.317   6.806
 2788SOL    HW2 9264   2.654   4.378   6.906
 2789SOL     OW 9265   2.224   3.029   3.422
 2789SOL    HW1 9266   2.179   3.119   3.418
 2789SOL    HW2 9267   2.211   2.990   3.514
 2790SOL     OW 9268   2.485   5.201   2.584
 2790SOL    HW1 9269   2.466   5.284   2.530
 2790SOL    HW2 9270   2.462   5.120   2.529
 2791SOL     OW 9271   1.240   3.883   4.251
 2791SOL    HW1 9272   1.303   3.821   4.204
 2791SOL    HW2 9273   1.273   3.977   4.243
 2792SOL     OW 9274   0.672   6.941   4.842
 2792SOL    HW1 9275   0.630   6.901   4.760
 2792SOL    HW2 9276   0.623   6.908   4.923
 2793SOL     OW 9277   4.877   3.032   2.837
 2793SOL    HW1 9278   4.893   3.129   2.822
 2793SOL    HW2 9279   4.821   3.020   2.919
 2794SOL     OW 9280   6.796   2.729   1.140
 2794SOL    HW1 9281   6.889   2.707   1.168
 2794SOL    HW2 9282   6.778   2.826   1.157
 2795SOL     OW 9283   2.235   3.200   0.709
 2795SOL    HW1 9284   2.272   3.107   0.718
 2795SOL    HW2 9285   2.226   3.224   0.613
 2796SOL     OW 9286   6.350   5.312   2.661
 2796SOL    HW1 9287   6.365   5.395   2.607
 2796SOL    HW2 9288   6.426   5.249   2.646
 2797SOL     OW 9289   4.750   5.370   4.199
 2797SOL    HW1 9290   4.825   5.358   4.135
 2797SOL    HW2 9291   4.784   5.366   4.293
 2798SOL     OW 9292   1.280   4.602   1.776
 2798SOL    HW1 9293   1.186   4.581   1.748
 2798SOL    HW2 9294   1.341   4.596   1.697
 2799SOL     OW 9295   0.009   6.589   6.961
 2799SOL    HW1 9296   6.950   6.536   6.977
 2799SOL    HW2 9297   7.023   6.645   6.879
 2800SOL     OW 9298   4.577   5.235   6.863
 2800SOL    HW1 9299   4.493   5.287   6.879
 2800SOL    HW2 9300   4.554   5.145   6.827
 2801SOL     OW 9301   4.954   5.668   4.903
 2801SOL    HW1 9302   4.889   5.592   4.909
 2801SOL    HW2 9303   4.912   5.743   4.853
 2802SOL     OW 9304   4.526   2.868   6.126
 2802SOL    HW1 9305   4.481   2.867   6.036
 2802SOL    HW2 9306   4.613   2.820   6.120
 2803SOL     OW 9307   3.356   6.055   6.161
 2803SOL    HW1 9308   3.331   5.969   6.206
 2803SOL    HW2 9309   3.455   6.067   6.164
 2804SOL     OW 9310   6.907   4.873   4.866
 2804SOL    HW1 9311   6.917   4.970   4.890
 2804SOL    HW2 9312   6.866   4.824   4.942
 2805SOL     OW 9313   5.035   2.690   2.161
 2805SOL    HW1 9314   4.936   2.699   2.172
 2805SOL    HW2 9315   5.081   2.754   2.222
 2806SOL     OW 9316   6.960   5.134   3.881
 2806SOL    HW1 9317   0.029   5.107   3.860
 2806SOL    HW2 9318   6.960   5.213   3.942
 2807SOL     OW 9319   5.976   5.499   3.621
 2807SOL    HW1 9320   5.911   5.533   3.553
 2807SOL    HW2 9321   6.036   5.431   3.578
 2808SOL     OW 9322   5.140   2.906   2.699
 2808SOL    HW1 9323   5.095   2.846   2.633
 2808SOL    HW2 9324   5.143   2.999   2.662
 2809SOL     OW 9325   5.720   2.776   1.966
 2809SOL    HW1 9326   5.811   2.756   2.001
 2809SOL    HW2 9327   5.719   2.766   1.867
 2810SOL     OW 9328   3.301   6.251   3.717
 2810SOL    HW1 9329   3.381   6.225   3.661
 2810SOL    HW2 9330   3.329   6.262   3.812
 2811SOL     OW 9331   0.554   0.691   3.389
 2811SOL    HW1 9332   0.597   0.677   3.300
 2811SOL    HW2 9333   0.465   0.735   3.376
 2812SOL     OW 9334   5.546   3.446   0.197
 2812SOL    HW1 9335   5.580   3.460   0.103
 2812SOL    HW2 9336   5.447   3.435   0.195
 2813SOL     OW 9337   6.583   0.261   5.697
 2813SOL    HW1 9338   6.509   0.325   5.715
 2813SOL    HW2 9339   6.549   0.167   5.709
 2814SOL     OW 9340   5.058   3.315   6.658
 2814SOL    HW1 9341   5.090   3.284   6.747
 2814SOL    HW2 9342   4.960   3.297   6.650
 2815SOL     OW 9343   6.774   1.170   5.421
 2815SOL    HW1 9344   6.791   1.097   5.355
 2815SOL    HW2 9345   6.766   1.131   5.513
 2816SOL     OW 9346   6.604   6.012   3.489
 2816SOL    HW1 9347   6.670   6.087   3.483
 2816SOL    HW2 9348   6.561   5.999   3.400
 2817SOL     OW 9349   2.580   6.788   1.353
 2817SOL    HW1 9350   2.574   6.777   1.452
 2817SOL    HW2 9351   2.668   6.753   1.321
 2818SOL     OW 9352   0.194   6.986   6.769
 2818SOL    HW1 9353   0.198   0.031   6.698
 2818SOL    HW2 9354   0.287   6.959   6.794
 2819SOL     OW 9355   0.294   1.247   1.296
 2819SOL    HW1 9356   0.335   1.246   1.387
 2819SOL    HW2 9357   0.359   1.210   1.230
 2820SOL     OW 9358   1.109   1.898   3.116
 2820SOL    HW1 9359   1.088   1.986   3.073
 2820SOL    HW2 9360   1.207   1.895   3.139
 2821SOL     OW 9361   3.988   3.534   0.184
 2821SOL    HW1 9362   3.914   3.551   0.249
 2821SOL    HW2 9363   3.993   3.436   0.164
 2822SOL     OW 9364   4.560   2.149   6.878
 2822SOL    HW1 9365   4.573   2.241   6.914
 2822SOL    HW2 9366   4.464   2.136   6.852
 2823SOL     OW 9367   3.414   6.549   0.717
 2823SOL    HW1 9368   3.339   6.599   0.759
 2823SOL    HW2 9369   3.390   6.452   0.711
 2824SOL     OW 9370   2.570   0.921   4.053
 2824SOL    HW1 9371   2.544   0.885   4.142
 2824SOL    HW2 9372   2.656   0.973   4.062
 2825SOL     OW 9373   6.693   0.588   6.874
 2825SOL    HW1 9374   6.765   0.628   6.818
 2825SOL    HW2 9375   6.711   0.491   6.888
 2826SOL     OW 9376   4.993   1.951   7.009
 2826SOL    HW1 9377   4.904   1.993   0.002
 2826SOL    HW2 9378   4.981   1.851   7.005
 2827SOL     OW 9379   6.065   0.986   5.023
 2827SOL    HW1 9380   6.132   0.916   4.998
 2827SOL    HW2 9381   5.975   0.944   5.035
 2828SOL     OW 9382   2.838   1.031   0.366
 2828SOL    HW1 9383   2.866   1.000   0.276
 2828SOL    HW2 9384   2.834   1.131   0.368
 2829SOL     OW 9385   3.505   3.774   5.913
 2829SOL    HW1 9386   3.598   3.762   5.950
 2829SOL    HW2 9387   3.495   3.866   5.876
 2830SOL     OW 9388   1.016   3.506   6.655
 2830SOL    HW1 9389   1.000   3.442   6.580
 2830SOL    HW2 9390   0.929   3.535   6.694
 2831SOL     OW 9391   0.803   6.087   3.601
 2831SOL    HW1 9392   0.840   6.101   3.692
 2831SOL    HW2 9393   0.876   6.062   3.538
 2832SOL     OW 9394   0.880   1.172   2.246
 2832SOL    HW1 9395   0.954   1.201   2.185
 2832SOL    HW2 9396   0.811   1.244   2.251
 2833SOL     OW 9397   4.653   2.573   2.604
 2833SOL    HW1 9398   4.594   2.508   2.653
 2833SOL    HW2 9399   4.672   2.651   2.663
 2834SOL     OW 9400   2.590   6.669   5.477
 2834SOL    HW1 9401   2.534   6.613   5.539
 2834SOL    HW2 9402   2.687   6.647   5.490
 2835SOL     OW 9403   6.982   0.479   2.272
 2835SOL    HW1 9404   6.978   0.379   2.261
 2835SOL    HW2 9405   0.041   0.503   2.320
 2836SOL     OW 9406   6.149   6.894   2.369
 2836SOL    HW1 9407   6.127   6.900   2.271
 2836SOL    HW2 9408   6.184   6.803   2.390
 2837SOL     OW 9409   5.572   3.944   3.341
 2837SOL    HW1 9410   5.628   4.027   3.330
 2837SOL    HW2 9411   5.489   3.953   3.287
 2838SOL     OW 9412   1.734   4.371   0.913
 2838SOL    HW1 9413   1.682   4.432   0.854
 2838SOL    HW2 9414   1.798   4.424   0.968
 2839SOL     OW 9415   5.633   1.968   1.713
 2839SOL    HW1 9416   5.571   1.971   1.792
 2839SOL    HW2 9417   5.660   2.061   1.688
 2840SOL     OW 9418   1.530   0.952   3.650
 2840SOL    HW1 9419   1.537   1.028   3.586
 2840SOL    HW2 9420   1.440   0.951   3.692
 2841SOL     OW 9421   0.779   1.026   6.233
 2841SOL    HW1 9422   0.783   0.930   6.204
 2841SOL    HW2 9423   0.871   1.065   6.231
 2842SOL     OW 9424   7.004   3.736   4.255
 2842SOL    HW1 9425   0.056   3.793   4.285
 2842SOL    HW2 9426   6.925   3.794   4.237
 2843SOL     OW 9427   2.549   1.599   2.770
 2843SOL    HW1 9428   2.468   1.600   2.711
 2843SOL    HW2 9429   2.580   1.505   2.783
 2844SOL     OW 9430   0.927   5.561   0.969
 2844SOL    HW1 9431   0.828   5.573   0.959
 2844SOL    HW2 9432   0.947   5.464   0.985
 2845SOL     OW 9433   0.510   2.990   1.166
 2845SOL    HW1 9434   0.577   3.054   1.128
 2845SOL    HW2 9435   0.537   2.897   1.144
 2846SOL     OW 9436   4.532   0.982   6.694
 2846SOL    HW1 9437   4.605   0.990   6.625
 2846SOL    HW2 9438   4.478   0.900   6.675
 2847SOL     OW 9439   5.272   3.409   3.272
 2847SOL    HW1 9440   5.304   3.337   3.335
 2847SOL    HW2 9441   5.175   3.393   3.250
 2848SOL     OW 9442   1.562   3.171   6.234
 2848SOL    HW1 9443   1.492   3.216   6.289
 2848SOL    HW2 9444   1.531   3.166   6.139
 2849SOL     OW 9445   3.534   0.067   1.051
 2849SOL    HW1 9446   3.519   0.004   1.127
 2849SOL    HW2 9447   3.514   0.020   0.965
 2850SOL     OW 9448   3.274   6.824   2.614
 2850SOL    HW1 9449   3.195   6.776   2.575
 2850SOL    HW2 9450   3.342   6.757   2.644
 2851SOL     OW 9451   0.203   2.768   5.820
 2851SOL    HW1 9452   0.197   2.723   5.910
 2851SOL    HW2 9453   0.195   2.867   5.831
 2852SOL     OW 9454   6.054   4.332   0.469
 2852SOL    HW1 9455   5.975   4.393   0.478
 2852SOL    HW2 9456   6.060   4.274   0.551
 2853SOL     OW 9457   1.940   2.565   0.448
 2853SOL    HW1 9458   2.039   2.554   0.438
 2853SOL    HW2 9459   1.921   2.643   0.507
 2854SOL     OW 9460   3.947   1.144   5.381
 2854SOL    HW1 9461   3.877   1.141   5.310
 2854SOL    HW2 9462   4.002   1.060   5.377
 2855SOL     OW 9463   2.940   0.959   6.351
 2855SOL    HW1 9464   2.847   0.932   6.328
 2855SOL    HW2 9465   2.940   1.008   6.439
 2856SOL     OW 9466   1.740   2.802   5.663
 2856SOL    HW1 9467   1.744   2.847   5.752
 2856SOL    HW2 9468   1.672   2.847   5.605
 2857SOL     OW 9469   3.265   1.691   2.280
 2857SOL    HW1 9470   3.262   1.629   2.359
 2857SOL    HW2 9471   3.252   1.785   2.312
 2858SOL     OW 9472   5.403   3.967   2.269
 2858SOL    HW1 9473   5.384   4.048   2.212
 2858SOL    HW2 9474   5.408   3.886   2.210
 2859SOL     OW 9475   5.189   2.178   0.118
 2859SOL    HW1 9476   5.131   2.194   0.038
 2859SOL    HW2 9477   5.281   2.151   0.088
 2860SOL     OW 9478   3.714   1.881   1.240
 2860SOL    HW1 9479   3.733   1.921   1.329
 2860SOL    HW2 9480   3.800   1.867   1.190
 2861SOL     OW 9481   4.163   4.599   6.075
 2861SOL    HW1 9482   4.158   4.517   6.132
 2861SOL    HW2 9483   4.258   4.630   6.070
 2862SOL     OW 9484   5.400   1.851   3.467
 2862SOL    HW1 9485   5.428   1.903   3.386
 2862SOL    HW2 9486   5.345   1.910   3.527
 2863SOL     OW 9487   4.751   1.435   0.111
 2863SOL    HW1 9488   4.759   1.521   0.163
 2863SOL    HW2 9489   4.678   1.444   0.043
 2864SOL     OW 9490   4.220   1.469   1.274
 2864SOL    HW1 9491   4.181   1.459   1.366
 2864SOL    HW2 9492   4.320   1.459   1.279
 2865SOL     OW 9493   5.566   4.711   5.488
 2865SOL    HW1 9494   5.469   4.732   5.482
 2865SOL    HW2 9495   5.604   4.754   5.569
 2866SOL     OW 9496   6.283   6.125   0.059
 2866SOL    HW1 9497   6.270   6.188   0.136
 2866SOL    HW2 9498   6.324   6.174   7.008
 2867SOL     OW 9499   5.722   3.880   2.141
 2867SOL    HW1 9500   5.797   3.892   2.206
 2867SOL    HW2 9501   5.737   3.939   2.061
 2868SOL     OW 9502   0.092   2.940   5.456
 2868SOL    HW1 9503   0.014   2.996   5.485
 2868SOL    HW2 9504   0.152   2.924   5.535
 2869SOL     OW 9505   6.301   1.127   3.899
 2869SOL    HW1 9506   6.327   1.118   3.995
 2869SOL    HW2 9507   6.328   1.044   3.849
 2870SOL     OW 9508   0.560   1.749   4.261
 2870SOL    HW1 9509   0.650   1.710   4.274
 2870SOL    HW2 9510   0.518   1.766   4.351
 2871SOL     OW 9511   0.834   2.307   0.263
 2871SOL    HW1 9512   0.900   2.282   0.193
 2871SOL    HW2 9513   0.769   2.373   0.226
 2872SOL     OW 9514   2.868   1.609   3.059
 2872SOL    HW1 9515   2.824   1.674   2.997
 2872SOL    HW2 9516   2.922   1.659   3.126
 2873SOL     OW 9517   6.948   4.929   2.843
 2873SOL    HW1 9518   6.964   4.836   2.877
 2873SOL    HW2 9519   6.999   4.943   2.758
 2874SOL     OW 9520   4.138   6.296   3.107
 2874SOL    HW1 9521   4.230   6.259   3.096
 2874SOL    HW2 9522   4.078   6.256   3.038
 2875SOL     OW 9523   5.317   6.401   0.691
 2875SOL    HW1 9524   5.298   6.492   0.657
 2875SOL    HW2 9525   5.410   6.397   0.727
 2876SOL     OW 9526   0.482   0.248   2.032
 2876SOL    HW1 9527   0.465   0.159   1.991
 2876SOL    HW2 9528   0.445   0.250   2.125
 2877SOL     OW 9529   3.703   2.810   5.226
 2877SOL    HW1 9530   3.787   2.863   5.214
 2877SOL    HW2 9531   3.672   2.819   5.321
 2878SOL     OW 9532   4.073   5.020   4.676
 2878SOL    HW1 9533   4.135   5.017   4.754
 2878SOL    HW2 9534   4.056   5.116   4.651
 2879SOL     OW 9535   5.169   4.475   0.817
 2879SOL    HW1 9536   5.244   4.534   0.786
 2879SOL    HW2 9537   5.099   4.531   0.862
 2880SOL     OW 9538   6.226   0.118   1.175
 2880SOL    HW1 9539   6.155   0.188   1.181
 2880SOL    HW2 9540   6.184   0.027   1.175
 2881SOL     OW 9541   5.606   6.423   0.740
 2881SOL    HW1 9542   5.629   6.348   0.802
 2881SOL    HW2 9543   5.666   6.419   0.660
 2882SOL     OW 9544   0.614   4.085   2.481
 2882SOL    HW1 9545   0.595   4.111   2.576
 2882SOL    HW2 9546   0.672   4.004   2.480
 2883SOL     OW 9547   5.443   6.560   3.642
 2883SOL    HW1 9548   5.430   6.650   3.685
 2883SOL    HW2 9549   5.535   6.527   3.662
 2884SOL     OW 9550   0.519   5.583   3.369
 2884SOL    HW1 9551   0.584   5.577   3.293
 2884SOL    HW2 9552   0.525   5.674   3.411
 2885SOL     OW 9553   0.726   3.055   2.578
 2885SOL    HW1 9554   0.657   3.127   2.581
 2885SOL    HW2 9555   0.682   2.966   2.596
 2886SOL     OW 9556   2.733   4.022   6.424
 2886SOL    HW1 9557   2.689   3.957   6.361
 2886SOL    HW2 9558   2.719   4.115   6.390
 2887SOL     OW 9559   1.659   7.005   4.421
 2887SOL    HW1 9560   1.665   6.962   4.511
 2887SOL    HW2 9561   1.590   0.052   4.423
 2888SOL     OW 9562   0.913   4.450   0.039
 2888SOL    HW1 9563   0.964   4.363   0.037
 2888SOL    HW2 9564   0.919   4.493   6.974
 2889SOL     OW 9565   1.978   6.807   2.666
 2889SOL    HW1 9566   1.884   6.822   2.635
 2889SOL    HW2 9567   1.981   6.807   2.766
 2890SOL     OW 9568   2.921   0.174   0.702
 2890SOL    HW1 9569   2.870   0.093   0.676
 2890SOL    HW2 9570   2.926   0.179   0.802
 2891SOL     OW 9571   2.102   3.817   3.686
 2891SOL    HW1 9572   2.037   3.840   3.613
 2891SOL    HW2 9573   2.167   3.892   3.697
 2892SOL     OW 9574   5.542   3.681   6.835
 2892SOL    HW1 9575   5.486   3.763   6.850
 2892SOL    HW2 9576   5.588   3.687   6.747
 2893SOL     OW 9577   6.997   6.420   4.873
 2893SOL    HW1 9578   0.008   6.500   4.826
 2893SOL    HW2 9579   7.020   6.425   4.970
 2894SOL     OW 9580   3.087   3.039   0.457
 2894SOL    HW1 9581   2.988   3.050   0.442
 2894SOL    HW2 9582   3.106   2.944   0.481
 2895SOL     OW 9583   4.172   2.803   6.374
 2895SOL    HW1 9584   4.169   2.706   6.398
 2895SOL    HW2 9585   4.228   2.852   6.440
 2896SOL     OW 9586   3.466   5.082   6.865
 2896SOL    HW1 9587   3.539   5.021   6.897
 2896SOL    HW2 9588   3.505   5.171   6.843
 2897SOL     OW 9589   3.377   5.490   3.146
 2897SOL    HW1 9590   3.356   5.587   3.149
 2897SOL    HW2 9591   3.299   5.438   3.181
 2898SOL     OW 9592   4.367   5.044   3.961
 2898SOL    HW1 9593   4.342   5.076   4.053
 2898SOL    HW2 9594   4.395   5.121   3.905
 2899SOL     OW 9595   0.678   1.826   0.124
 2899SOL    HW1 9596   0.696   1.728   0.121
 2899SOL    HW2 9597   0.762   1.875   0.146
 2900SOL     OW 9598   1.981   4.651   5.596
 2900SOL    HW1 9599   1.972   4.647   5.695
 2900SOL    HW2 9600   2.027   4.568   5.562
 2901SOL     OW 9601   2.042   0.159   3.186
 2901SOL    HW1 9602   2.125   0.204   3.154
 2901SOL    HW2 9603   1.965   0.183   3.126
 2902SOL     OW 9604   5.555   6.386   1.464
 2902SOL    HW1 9605   5.457   6.376   1.476
 2902SOL    HW2 9606   5.603   6.312   1.512
 2903SOL     OW 9607   3.241   0.286   0.518
 2903SOL    HW1 9608   3.281   0.355   0.456
 2903SOL    HW2 9609   3.170   0.329   0.574
 2904SOL     OW 9610   1.674   3.445   5.725
 2904SOL    HW1 9611   1.720   3.452   5.637
 2904SOL    HW2 9612   1.674   3.535   5.770
 2905SOL     OW 9613   1.678   2.479   3.481
 2905SOL    HW1 9614   1.629   2.473   3.394
 2905SOL    HW2 9615   1.767   2.433   3.472
 2906SOL     OW 9616   5.305   5.661   2.639
 2906SOL    HW1 9617   5.303   5.738   2.577
 2906SOL    HW2 9618   5.357   5.586   2.599
 2907SOL     OW 9619   0.504   1.250   4.061
 2907SOL    HW1 9620   0.504   1.350   4.058
 2907SOL    HW2 9621   0.553   1.220   4.143
 2908SOL     OW 9622   4.392   6.878   4.255
 2908SOL    HW1 9623   4.324   6.920   4.195
 2908SOL    HW2 9624   4.450   6.950   4.294
 2909SOL     OW 9625   0.450   6.393   3.822
 2909SOL    HW1 9626   0.368   6.391   3.765
 2909SOL    HW2 9627   0.530   6.414   3.765
 2910SOL     OW 9628   4.747   6.045   4.430
 2910SOL    HW1 9629   4.836   6.046   4.476
 2910SOL    HW2 9630   4.752   6.097   4.345
 2911SOL     OW 9631   1.793   5.430   3.547
 2911SOL    HW1 9632   1.696   5.406   3.545
 2911SOL    HW2 9633   1.802   5.530   3.552
 2912SOL     OW 9634   4.247   0.100   6.422
 2912SOL    HW1 9635   4.245   0.042   6.340
 2912SOL    HW2 9636   4.202   0.052   6.497
 2913SOL     OW 9637   1.911   4.725   2.619
 2913SOL    HW1 9638   1.865   4.651   2.570
 2913SOL    HW2 9639   1.919   4.804   2.558
 2914SOL     OW 9640   5.962   6.451   5.776
 2914SOL    HW1 9641   6.054   6.474   5.809
 2914SOL    HW2 9642   5.962   6.447   5.676
 2915SOL     OW 9643   5.402   1.349   5.312
 2915SOL    HW1 9644   5.492   1.371   5.275
 2915SOL    HW2 9645   5.405   1.357   5.412
 2916SOL     OW 9646   6.435   5.935   6.208
 2916SOL    HW1 9647   6.402   5.844   6.236
 2916SOL    HW2 9648   6.475   5.929   6.117
 2917SOL     OW 9649   4.084   6.515   2.030
 2917SOL    HW1 9650   4.146   6.565   2.089
 2917SOL    HW2 9651   4.002   6.490   2.081
 2918SOL     OW 9652   6.671   3.923   3.572
 2918SOL    HW1 9653   6.620   3.848   3.615
 2918SOL    HW2 9654   6.736   3.885   3.506
 2919SOL     OW 9655   6.698   1.021   0.889
 2919SOL    HW1 9656   6.660   0.945   0.837
 2919SOL    HW2 9657   6.797   1.009   0.896
 2920SOL     OW 9658   2.936   1.819   2.342
 2920SOL    HW1 9659   3.004   1.763   2.390
 2920SOL    HW2 9660   2.951   1.915   2.363
 2921SOL     OW 9661   0.851   7.020   2.975
 2921SOL    HW1 9662   0.773   0.056   2.962
 2921SOL    HW2 9663   0.820   6.927   2.990
 2922SOL     OW 9664   5.789   0.273   0.129
 2922SOL    HW1 9665   5.794   0.257   0.228
 2922SOL    HW2 9666   5.848   0.208   0.082
 2923SOL     OW 9667   0.147   4.691   1.844
 2923SOL    HW1 9668   0.198   4.616   1.804
 2923SOL    HW2 9669   0.165   4.696   1.942
 2924SOL     OW 9670   0.507   1.871   6.931
 2924SOL    HW1 9671   0.560   1.820   6.998
 2924SOL    HW2 9672   0.421   1.901   6.972
 2925SOL     OW 9673   4.757   0.908   3.485
 2925SOL    HW1 9674   4.658   0.910   3.498
 2925SOL    HW2 9675   4.791   0.815   3.495
 2926SOL     OW 9676   0.192   1.338   4.678
 2926SOL    HW1 9677   0.135   1.419   4.677
 2926SOL    HW2 9678   0.289   1.365   4.684
 2927SOL     OW 9679   1.651   1.404   2.262
 2927SOL    HW1 9680   1.723   1.419   2.330
 2927SOL    HW2 9681   1.573   1.464   2.282
 2928SOL     OW 9682   6.958   2.263   6.147
 2928SOL    HW1 9683   6.941   2.279   6.050
 2928SOL    HW2 9684   0.015   2.208   6.158
 2929SOL     OW 9685   0.493   0.656   6.256
 2929SOL    HW1 9686   0.484   0.753   6.236
 2929SOL    HW2 9687   0.476   0.640   6.354
 2930SOL     OW 9688   4.159   6.232   4.887
 2930SOL    HW1 9689   4.196   6.164   4.951
 2930SOL    HW2 9690   4.165   6.197   4.794
 2931SOL     OW 9691   5.683   5.576   0.088
 2931SOL    HW1 9692   5.754   5.563   0.020
 2931SOL    HW2 9693   5.725   5.601   0.175
 2932SOL     OW 9694   1.520   5.255   1.999
 2932SOL    HW1 9695   1.548   5.326   1.935
 2932SOL    HW2 9696   1.426   5.227   1.978
 2933SOL     OW 9697   6.166   3.473   3.213
 2933SOL    HW1 9698   6.147   3.561   3.168
 2933SOL    HW2 9699   6.142   3.480   3.309
 2934SOL     OW 9700   4.410   1.509   0.282
 2934SOL    HW1 9701   4.437   1.490   0.377
 2934SOL    HW2 9702   4.314   1.537   0.280
 2935SOL     OW 9703   6.309   3.440   1.767
 2935SOL    HW1 9704   6.322   3.433   1.866
 2935SOL    HW2 9705   6.387   3.398   1.720
 2936SOL     OW 9706   4.320   4.901   2.190
 2936SOL    HW1 9707   4.228   4.862   2.187
 2936SOL    HW2 9708   4.341   4.929   2.284
 2937SOL     OW 9709   4.222   5.075   0.236
 2937SOL    HW1 9710   4.275   5.142   0.183
 2937SOL    HW2 9711   4.253   5.077   0.331
 2938SOL     OW 9712   5.374   4.872   5.866
 2938SOL    HW1 9713   5.331   4.890   5.954
 2938SOL    HW2 9714   5.471   4.894   5.870
 2939SOL     OW 9715   0.495   0.154   4.630
 2939SOL    HW1 9716   0.483   0.253   4.625
 2939SOL    HW2 9717   0.478   0.123   4.723
 2940SOL     OW 9718   5.917   6.584   6.601
 2940SOL    HW1 9719   5.837   6.621   6.554
 2940SOL    HW2 9720   5.986   6.558   6.534
 2941SOL     OW 9721   2.244   2.357   4.263
 2941SOL    HW1 9722   2.174   2.317   4.204
 2941SOL    HW2 9723   2.330   2.366   4.213
 2942SOL     OW 9724   2.676   2.248   1.334
 2942SOL    HW1 9725   2.617   2.281   1.408
 2942SOL    HW2 9726   2.655   2.296   1.250
 2943SOL     OW 9727   5.848   4.071   2.742
 2943SOL    HW1 9728   5.936   4.080   2.789
 2943SOL    HW2 9729   5.777   4.050   2.809
 2944SOL     OW 9730   2.377   5.890   5.102
 2944SOL    HW1 9731   2.413   5.915   5.012
 2944SOL    HW2 9732   2.424   5.942   5.172
 2945SOL     OW 9733   3.524   4.158   3.912
 2945SOL    HW1 9734   3.588   4.082   3.900
 2945SOL    HW2 9735   3.513   4.178   4.009
 2946SOL     OW 9736   1.080   5.587   6.709
 2946SOL    HW1 9737   1.033   5.656   6.654
 2946SOL    HW2 9738   1.054   5.596   6.805
 2947SOL     OW 9739   0.816   4.130   6.544
 2947SOL    HW1 9740   0.726   4.108   6.583
 2947SOL    HW2 9741   0.883   4.137   6.618
 2948SOL     OW 9742   6.930   4.845   5.434
 2948SOL    HW1 9743   6.920   4.752   5.399
 2948SOL    HW2 9744   6.993   4.896   5.375
 2949SOL     OW 9745   2.264   5.814   1.341
 2949SOL    HW1 9746   2.187   5.760   1.373
 2949SOL    HW2 9747   2.306   5.769   1.262
 2950SOL     OW 9748   4.933   3.726   4.798
 2950SOL    HW1 9749   4.886   3.802   4.753
 2950SOL    HW2 9750   4.876   3.692   4.873
 2951SOL     OW 9751   6.681   2.252   1.552
 2951SOL    HW1 9752   6.740   2.176   1.526
 2951SOL    HW2 9753   6.585   2.229   1.534
 2952SOL     OW 9754   0.908   6.274   5.314
 2952SOL    HW1 9755   0.856   6.191   5.292
 2952SOL    HW2 9756   0.845   6.351   5.324
 2953SOL     OW 9757   4.836   3.020   3.137
 2953SOL    HW1 9758   4.932   3.015   3.110
 2953SOL    HW2 9759   4.829   3.067   3.225
 2954SOL     OW 9760   0.885   5.387   1.746
 2954SOL    HW1 9761   0.922   5.313   1.690
 2954SOL    HW2 9762   0.886   5.359   1.842
 2955SOL     OW 9763   1.220   3.629   1.396
 2955SOL    HW1 9764   1.166   3.710   1.418
 2955SOL    HW2 9765   1.252   3.635   1.301
 2956SOL     OW 9766   6.030   6.440   2.917
 2956SOL    HW1 9767   5.959   6.445   2.987
 2956SOL    HW2 9768   6.106   6.501   2.942
 2957SOL     OW 9769   6.428   3.035   1.621
 2957SOL    HW1 9770   6.391   2.986   1.542
 2957SOL    HW2 9771   6.512   2.991   1.651
 2958SOL     OW 9772   2.494   4.510   4.658
 2958SOL    HW1 9773   2.449   4.443   4.718
 2958SOL    HW2 9774   2.551   4.571   4.713
 2959SOL     OW 9775   4.202   4.465   0.656
 2959SOL    HW1 9776   4.125   4.516   0.616
 2959SOL    HW2 9777   4.167   4.388   0.710
 2960SOL     OW 9778   3.624   0.235   6.677
 2960SOL    HW1 9779   3.586   0.290   6.751
 2960SOL    HW2 9780   3.688   0.290   6.624
 2961SOL     OW 9781   5.281   2.780   4.816
 2961SOL    HW1 9782   5.239   2.720   4.883
 2961SOL    HW2 9783   5.379   2.787   4.834
 2962SOL     OW 9784   4.573   0.868   3.926
 2962SOL    HW1 9785   4.597   0.843   4.020
 2962SOL    HW2 9786   4.516   0.950   3.926
 2963SOL     OW 9787   2.353   1.359   5.855
 2963SOL    HW1 9788   2.351   1.392   5.949
 2963SOL    HW2 9789   2.313   1.268   5.851
 2964SOL     OW 9790   0.593   0.397   2.525
 2964SOL    HW1 9791   0.597   0.430   2.619
 2964SOL    HW2 9792   0.644   0.459   2.465
 2965SOL     OW 9793   0.166   1.280   4.951
 2965SOL    HW1 9794   0.132   1.265   4.858
 2965SOL    HW2 9795   0.262   1.307   4.947
 2966SOL     OW 9796   5.455   5.229   4.534
 2966SOL    HW1 9797   5.369   5.276   4.517
 2966SOL    HW2 9798   5.519   5.248   4.459
 2967SOL     OW 9799   6.371   2.446   4.505
 2967SOL    HW1 9800   6.341   2.365   4.455
 2967SOL    HW2 9801   6.438   2.496   4.450
 2968SOL     OW 9802   0.996   3.694   6.443
 2968SOL    HW1 9803   1.083   3.712   6.397
 2968SOL    HW2 9804   1.009   3.625   6.514
 2969SOL     OW 9805   5.964   1.492   4.506
 2969SOL    HW1 9806   5.949   1.393   4.512
 2969SOL    HW2 9807   5.977   1.518   4.410
 2970SOL     OW 9808   1.254   3.838   6.748
 2970SOL    HW1 9809   1.168   3.803   6.784
 2970SOL    HW2 9810   1.313   3.762   6.721
 2971SOL     OW 9811   5.976   3.390   5.884
 2971SOL    HW1 9812   5.935   3.460   5.942
 2971SOL    HW2 9813   6.038   3.333   5.938
 2972SOL     OW 9814   6.763   4.832   6.246
 2972SOL    HW1 9815   6.842   4.887   6.272
 2972SOL    HW2 9816   6.775   4.738   6.278
 2973SOL     OW 9817   5.695   1.171   4.399
 2973SOL    HW1 9818   5.672   1.105   4.327
 2973SOL    HW2 9819   5.636   1.250   4.391
 2974SOL     OW 9820   0.796   3.908   2.521
 2974SOL    HW1 9821   0.790   3.809   2.516
 2974SOL    HW2 9822   0.798   3.937   2.617
 2975SOL     OW 9823   0.583   2.333   5.124
 2975SOL    HW1 9824   0.534   2.312   5.208
 2975SOL    HW2 9825   0.666   2.277   5.119
 2976SOL     OW 9826   4.223   1.602   3.240
 2976SOL    HW1 9827   4.316   1.567   3.228
 2976SOL    HW2 9828   4.170   1.585   3.157
 2977SOL     OW 9829   1.458   6.193   3.930
 2977SOL    HW1 9830   1.403   6.264   3.974
 2977SOL    HW2 9831   1.406   6.150   3.857
 2978SOL     OW 9832   4.081   4.927   6.481
 2978SOL    HW1 9833   4.132   4.884   6.407
 2978SOL    HW2 9834   4.058   5.021   6.456
 2979SOL     OW 9835   5.115   6.632   4.483
 2979SOL    HW1 9836   5.065   6.687   4.415
 2979SOL    HW2 9837   5.195   6.682   4.514
 2980SOL     OW 9838   1.028   6.114   3.862
 2980SOL    HW1 9839   1.120   6.152   3.859
 2980SOL    HW2 9840   0.971   6.169   3.923
 2981SOL     OW 9841   0.900   1.237   5.564
 2981SOL    HW1 9842   0.978   1.195   5.519
 2981SOL    HW2 9843   0.826   1.250   5.499
 2982SOL     OW 9844   5.043   5.937   3.440
 2982SOL    HW1 9845   5.062   6.034   3.427
 2982SOL    HW2 9846   4.970   5.909   3.378
 2983SOL     OW 9847   0.778   1.550   3.954
 2983SOL    HW1 9848   0.833   1.469   3.935
 2983SOL    HW2 9849   0.839   1.628   3.972
 2984SOL     OW 9850   4.911   5.483   1.864
 2984SOL    HW1 9851   4.924   5.527   1.775
 2984SOL    HW2 9852   4.813   5.473   1.882
 2985SOL     OW 9853   0.817   3.009   5.174
 2985SOL    HW1 9854   0.735   3.065   5.164
 2985SOL    HW2 9855   0.898   3.065   5.159
 2986SOL     OW 9856   1.972   3.751   6.028
 2986SOL    HW1 9857   2.062   3.721   5.995
 2986SOL    HW2 9858   1.934   3.818   5.964
 2987SOL     OW 9859   5.278   0.714   3.928
 2987SOL    HW1 9860   5.257   0.617   3.933
 2987SOL    HW2 9861   5.209   0.761   3.873
 2988SOL     OW 9862   0.791   6.726   2.979
 2988SOL    HW1 9863   0.738   6.678   3.050
 2988SOL    HW2 9864   0.878   6.680   2.966
 2989SOL     OW 9865   6.371   6.253   0.610
 2989SOL    HW1 9866   6.391   6.349   0.591
 2989SOL    HW2 9867   6.393   6.233   0.705
 2990SOL     OW 9868   4.551   1.337   3.612
 2990SOL    HW1 9869   4.533   1.287   3.697
 2990SOL    HW2 9870   4.498   1.297   3.538
 2991SOL     OW 9871   6.957   3.823   6.788
 2991SOL    HW1 9872   6.992   3.771   6.866
 2991SOL    HW2 9873   6.951   3.763   6.709
 2992SOL     OW 9874   2.189   4.675   6.018
 2992SOL    HW1 9875   2.255   4.726   6.073
 2992SOL    HW2 9876   2.220   4.580   6.009
 2993SOL     OW 9877   0.850   5.006   1.722
 2993SOL    HW1 9878   0.795   5.045   1.648
 2993SOL    HW2 9879   0.929   4.959   1.683
 2994SOL     OW 9880   4.071   0.413   0.632
 2994SOL    HW1 9881   4.088   0.491   0.693
 2994SOL    HW2 9882   4.148   0.351   0.634
 2995SOL     OW 9883   1.760   3.389   6.526
 2995SOL    HW1 9884   1.858   3.369   6.528
 2995SOL    HW2 9885   1.736   3.434   6.440
 2996SOL     OW 9886   2.278   6.618   3.390
 2996SOL    HW1 9887   2.259   6.540   3.330
 2996SOL    HW2 9888   2.358   6.668   3.355
 2997SOL     OW 9889   5.214   0.326   1.554
 2997SOL    HW1 9890   5.262   0.247   1.592
 2997SOL    HW2 9891   5.166   0.374   1.628
 2998SOL     OW 9892   5.435   6.326   4.898
 2998SOL    HW1 9893   5.483   6.411   4.917
 2998SOL    HW2 9894   5.350   6.323   4.951
 2999SOL     OW 9895   3.257   4.893   3.890
 2999SOL    HW1 9896   3.177   4.945   3.861
 2999SOL    HW2 9897   3.263   4.808   3.838
 3000SOL     OW 9898   1.980   3.978   6.531
 3000SOL    HW1 9899   1.908   4.040   6.563
 3000SOL    HW2 9900   1.950   3.883   6.543
 3001SOL     OW 9901   5.799   5.830   6.859
 3001SOL    HW1 9902   5.874   5.895   6.849
 3001SOL    HW2 9903   5.834   5.742   6.891
 3002SOL     OW 9904   4.101   0.260   6.236
 3002SOL    HW1 9905   4.136   0.222   6.322
 3002SOL    HW2 9906   4.084   0.185   6.171
 3003SOL     OW 9907   2.352   0.065   6.509
 3003SOL    HW1 9908   2.434   0.107   6.549
 3003SOL    HW2 9909   2.354   6.992   6.526
 3004SOL     OW 9910   0.917   5.261   3.842
 3004SOL    HW1 9911   0.901   5.350   3.885
 3004SOL    HW2 9912   0.847   5.196   3.872
 3005SOL     OW 9913   3.041   2.765   0.241
 3005SOL    HW1 9914   2.942   2.767   0.256
 3005SOL    HW2 9915   3.069   2.674   0.212
 3006SOL     OW 9916   5.949   2.270   6.721
 3006SOL    HW1 9917   6.028   2.216   6.751
 3006SOL    HW2 9918   5.881   2.273   6.794
 3007SOL     OW 9919   5.922   4.926   2.013
 3007SOL    HW1 9920   5.868   4.942   1.930
 3007SOL    HW2 9921   5.886   4.847   2.062
 3008SOL     OW 9922   3.338   0.823   6.551
 3008SOL    HW1 9923   3.310   0.822   6.647
 3008SOL    HW2 9924   3.299   0.744   6.504
 3009SOL     OW 9925   0.148   6.688   3.375
 3009SOL    HW1 9926   0.175   6.783   3.384
 3009SOL    HW2 9927   0.229   6.631   3.363
 3010SOL     OW 9928   3.755   6.585   3.488
 3010SOL    HW1 9929   3.677   6.578   3.550
 3010SOL    HW2 9930   3.809   6.500   3.493
 3011SOL     OW 9931   5.647   1.620   0.388
 3011SOL    HW1 9932   5.604   1.541   0.432
 3011SOL    HW2 9933   5.595   1.703   0.411
 3012SOL     OW 9934   0.835   3.540   5.117
 3012SOL    HW1 9935   0.752   3.545   5.061
 3012SOL    HW2 9936   0.885   3.627   5.111
 3013SOL     OW 9937   5.217   5.625   4.735
 3013SOL    HW1 9938   5.143   5.604   4.798
 3013SOL    HW2 9939   5.303   5.590   4.771
 3014SOL     OW 9940   5.247   3.434   4.539
 3014SOL    HW1 9941   5.290   3.518   4.504
 3014SOL    HW2 9942   5.182   3.458   4.611
 3015SOL     OW 9943   2.762   2.450   0.478
 3015SOL    HW1 9944   2.806   2.535   0.506
 3015SOL    HW2 9945   2.821   2.401   0.413
 3016SOL     OW 9946   2.903   5.588   3.719
 3016SOL    HW1 9947   2.968   5.641   3.773
 3016SOL    HW2 9948   2.816   5.582   3.769
 3017SOL     OW 9949   0.904   5.321   2.010
 3017SOL    HW1 9950   0.958   5.254   2.060
 3017SOL    HW2 9951   0.877   5.395   2.072
 3018SOL     OW 9952   1.832   0.089   5.093
 3018SOL    HW1 9953   1.841   0.023   5.168
 3018SOL    HW2 9954   1.755   0.063   5.034
 3019SOL     OW 9955   2.262   6.761   0.246
 3019SOL    HW1 9956   2.264   6.836   0.312
 3019SOL    HW2 9957   2.170   6.721   0.243
 3020SOL     OW 9958   3.697   3.907   1.653
 3020SOL    HW1 9959   3.650   3.821   1.672
 3020SOL    HW2 9960   3.653   3.981   1.704
 3021SOL     OW 9961   3.464   0.764   7.018
 3021SOL    HW1 9962   3.449   0.795   0.086
 3021SOL    HW2 9963   3.540   0.698   7.016
 3022SOL     OW 9964   4.133   5.734   3.951
 3022SOL    HW1 9965   4.098   5.818   3.911
 3022SOL    HW2 9966   4.138   5.743   4.050
 3023SOL     OW 9967   4.958   0.029   2.289
 3023SOL    HW1 9968   5.006   6.966   2.294
 3023SOL    HW2 9969   5.010   0.093   2.233
 3024SOL     OW 9970   3.873   6.904   5.923
 3024SOL    HW1 9971   3.870   6.857   6.012
 3024SOL    HW2 9972   3.783   6.942   5.903
 3025SOL     OW 9973   3.966   2.020   0.405
 3025SOL    HW1 9974   3.901   1.946   0.393
 3025SOL    HW2 9975   3.935   2.081   0.478
 3026SOL     OW 9976   2.167   1.497   0.794
 3026SOL    HW1 9977   2.192   1.588   0.761
 3026SOL    HW2 9978   2.244   1.457   0.844
 3027SOL     OW 9979   4.019   0.330   2.037
 3027SOL    HW1 9980   3.981   0.417   2.069
 3027SOL    HW2 9981   4.033   0.334   1.939
 3028SOL     OW 9982   1.824   3.687   5.762
 3028SOL    HW1 9983   1.850   3.784   5.758
 3028SOL    HW2 9984   1.898   3.632   5.723
 3029SOL     OW 9985   0.390   5.068   4.881
 3029SOL    HW1 9986   0.325   5.027   4.945
 3029SOL    HW2 9987   0.405   5.007   4.804
 3030SOL     OW 9988   1.101   2.474   5.950
 3030SOL    HW1 9989   1.114   2.572   5.964
 3030SOL    HW2 9990   1.043   2.459   5.869
 3031SOL     OW 9991   0.194   3.435   0.991
 3031SOL    HW1 9992   0.141   3.350   0.978
 3031SOL    HW2 9993   0.260   3.445   0.916
 3032SOL     OW 9994   4.625   6.560   1.385
 3032SOL    HW1 9995   4.628   6.651   1.345
 3032SOL    HW2 9996   4.567   6.561   1.467
 3033SOL     OW 9997   0.111   2.480   1.293
 3033SOL    HW1 9998   0.011   2.485   1.287
 3033SOL    HW2 9999   0.137   2.426   1.373
 3034SOL     OW10000   1.827   5.692   3.231
 3034SOL    HW110001   1.924   5.682   3.209
 3034SOL    HW210002   1.817   5.757   3.307
 3035SOL     OW10003   6.822   3.160   0.127
 3035SOL    HW110004   6.839   3.063   0.108
 3035SOL    HW210005   6.727   3.173   0.156
 3036SOL     OW10006   1.579   2.822   6.034
 3036SOL    HW110007   1.618   2.740   6.076
 3036SOL    HW210008   1.650   2.869   5.981
 3037SOL     OW10009   0.359   5.683   4.315
 3037SOL    HW110010   0.406   5.596   4.302
 3037SOL    HW210011   0.384   5.722   4.403
 3038SOL     OW10012   5.666   6.382   6.626
 3038SOL    HW110013   5.733   6.343   6.562
 3038SOL    HW210014   5.687   6.351   6.718
 3039SOL     OW10015   6.945   3.572   1.786
 3039SOL    HW110016   6.851   3.575   1.753
 3039SOL    HW210017   6.990   3.489   1.751
 3040SOL     OW10018   4.756   3.167   6.364
 3040SOL    HW110019   4.779   3.103   6.438
 3040SOL    HW210020   4.817   3.246   6.368
 3041SOL     OW10021   2.112   3.069   5.001
 3041SOL    HW110022   2.208   3.042   5.010
 3041SOL    HW210023   2.055   2.987   4.996
 3042SOL     OW10024   5.447   6.991   1.353
 3042SOL    HW110025   5.368   6.930   1.343
 3042SOL    HW210026   5.521   6.943   1.401
 3043SOL     OW10027   0.908   5.457   1.403
 3043SOL    HW110028   0.950   5.538   1.362
 3043SOL    HW210029   0.978   5.400   1.447
 3044SOL     OW10030   3.054   4.813   6.171
 3044SOL    HW110031   3.001   4.820   6.255
 3044SOL    HW210032   2.993   4.809   6.092
 3045SOL     OW10033   4.861   1.021   3.082
 3045SOL    HW110034   4.833   0.985   2.993
 3045SOL    HW210035   4.781   1.033   3.141
 3046SOL     OW10036   2.649   1.832   0.010
 3046SOL    HW110037   2.720   1.811   0.077
 3046SOL    HW210038   2.672   1.917   6.988
 3047SOL     OW10039   5.738   6.807   2.367
 3047SOL    HW110040   5.753   6.891   2.315
 3047SOL    HW210041   5.667   6.823   2.436
 3048SOL     OW10042   3.959   2.793   1.762
 3048SOL    HW110043   3.866   2.777   1.728
 3048SOL    HW210044   3.955   2.851   1.843
 3049SOL     OW10045   1.285   6.276   1.958
 3049SOL    HW110046   1.220   6.239   1.892
 3049SOL    HW210047   1.242   6.286   2.047
 3050SOL     OW10048   3.549   0.969   2.711
 3050SOL    HW110049   3.580   0.900   2.777
 3050SOL    HW210050   3.624   0.989   2.647
 3051SOL     OW10051   2.310   3.752   6.763
 3051SOL    HW110052   2.244   3.822   6.737
 3051SOL    HW210053   2.370   3.732   6.686
 3052SOL     OW10054   4.732   0.696   2.219
 3052SOL    HW110055   4.696   0.722   2.309
 3052SOL    HW210056   4.655   0.674   2.158
 3053SOL     OW10057   0.092   1.537   6.397
 3053SOL    HW110058   0.131   1.458   6.444
 3053SOL    HW210059   0.057   1.509   6.308
 3054SOL     OW10060   6.789   2.482   1.466
 3054SOL    HW110061   6.817   2.429   1.386
 3054SOL    HW210062   6.742   2.421   1.531
 3055SOL     OW10063   4.872   6.749   4.152
 3055SOL    HW110064   4.928   6.785   4.078
 3055SOL    HW210065   4.883   6.807   4.233
 3056SOL     OW10066   6.860   1.564   5.814
 3056SOL    HW110067   6.837   1.544   5.909
 3056SOL    HW210068   6.960   1.573   5.804
 3057SOL     OW10069   4.188   6.203   3.689
 3057SOL    HW110070   4.108   6.233   3.637
 3057SOL    HW210071   4.210   6.108   3.664
 3058SOL     OW10072   6.628   5.733   1.174
 3058SOL    HW110073   6.623   5.832   1.186
 3058SOL    HW210074   6.546   5.691   1.213
 3059SOL     OW10075   2.301   2.389   3.994
 3059SOL    HW110076   2.315   2.358   3.900
 3059SOL    HW210077   2.382   2.439   4.025
 3060SOL     OW10078   0.771   6.148   0.652
 3060SOL    HW110079   0.763   6.126   0.555
 3060SOL    HW210080   0.681   6.174   0.688
 3061SOL     OW10081   6.035   0.611   5.478
 3061SOL    HW110082   5.968   0.655   5.418
 3061SOL    HW210083   6.127   0.635   5.450
 3062SOL     OW10084   1.175   6.753   6.606
 3062SOL    HW110085   1.252   6.700   6.642
 3062SOL    HW210086   1.187   6.766   6.508
 3063SOL     OW10087   2.732   5.298   1.699
 3063SOL    HW110088   2.717   5.279   1.796
 3063SOL    HW210089   2.651   5.343   1.661
 3064SOL     OW10090   5.483   3.409   4.086
 3064SOL    HW110091   5.387   3.408   4.112
 3064SOL    HW210092   5.517   3.503   4.088
 3065SOL     OW10093   2.162   0.535   6.686
 3065SOL    HW110094   2.249   0.511   6.730
 3065SOL    HW210095   2.122   0.614   6.732
 3066SOL     OW10096   4.711   4.945   0.712
 3066SOL    HW110097   4.674   4.887   0.640
 3066SOL    HW210098   4.781   5.006   0.674
 3067SOL     OW10099   3.941   2.119   4.571
 3067SOL    HW110100   3.893   2.123   4.484
 3067SOL    HW210101   3.880   2.150   4.644
 3068SOL     OW10102   5.436   6.007   0.907
 3068SOL    HW110103   5.344   5.992   0.944
 3068SOL    HW210104   5.494   5.929   0.932
 3069SOL     OW10105   6.551   6.255   1.958
 3069SOL    HW110106   6.641   6.260   1.915
 3069SOL    HW210107   6.553   6.307   2.043
 3070SOL     OW10108   1.502   0.944   2.347
 3070SOL    HW110109   1.445   0.945   2.265
 3070SOL    HW210110   1.492   1.030   2.397
 3071SOL     OW10111   5.740   5.983   3.734
 3071SOL    HW110112   5.770   6.070   3.696
 3071SOL    HW210113   5.815   5.943   3.788
 3072SOL     OW10114   1.392   6.509   0.625
 3072SOL    HW110115   1.302   6.508   0.579
 3072SOL    HW210116   1.464   6.497   0.556
 3073SOL     OW10117   0.239   3.573   5.553
 3073SOL    HW110118   0.207   3.501   5.493
 3073SOL    HW210119   0.307   3.629   5.505
 3074SOL     OW10120   5.270   2.786   0.662
 3074SOL    HW110121   5.341   2.746   0.604
 3074SOL    HW210122   5.180   2.753   0.632
 3075SOL     OW10123   2.041   6.130   1.512
 3075SOL    HW110124   2.109   6.100   1.579
 3075SOL    HW210125   1.975   6.190   1.557
 3076SOL     OW10126   6.951   1.493   4.647
 3076SOL    HW110127   6.911   1.405   4.674
 3076SOL    HW210128   6.982   1.487   4.552
 3077SOL     OW10129   5.019   5.588   2.763
 3077SOL    HW110130   5.090   5.651   2.731
 3077SOL    HW210131   4.944   5.641   2.805
 3078SOL     OW10132   1.135   3.179   1.156
 3078SOL    HW110133   1.123   3.090   1.200
 3078SOL    HW210134   1.046   3.218   1.134
 3079SOL     OW10135   2.555   1.927   4.394
 3079SOL    HW110136   2.471   1.909   4.444
 3079SOL    HW210137   2.565   1.860   4.320
 3080SOL     OW10138   5.053   4.356   3.514
 3080SOL    HW110139   5.145   4.325   3.492
 3080SOL    HW210140   5.027   4.323   3.605
 3081SOL     OW10141   0.222   2.610   6.063
 3081SOL    HW110142   0.144   2.581   6.119
 3081SOL    HW210143   0.292   2.539   6.064
 3082SOL     OW10144   3.606   7.012   3.652
 3082SOL    HW110145   3.615   0.069   3.709
 3082SOL    HW210146   3.577   0.014   3.560
 3083SOL     OW10147   4.410   6.290   3.420
 3083SOL    HW110148   4.345   6.348   3.371
 3083SOL    HW210149   4.389   6.291   3.518
 3084SOL     OW10150   4.849   3.930   4.630
 3084SOL    HW110151   4.878   3.989   4.555
 3084SOL    HW210152   4.766   3.881   4.605
 3085SOL     OW10153   0.639   4.771   1.964
 3085SOL    HW110154   0.594   4.848   1.918
 3085SOL    HW210155   0.735   4.795   1.983
 3086SOL     OW10156   3.976   1.952   2.029
 3086SOL    HW110157   4.019   2.039   2.004
 3086SOL    HW210158   3.885   1.946   1.986
 3087SOL     OW10159   1.188   5.229   4.074
 3087SOL    HW110160   1.102   5.258   4.117
 3087SOL    HW210161   1.206   5.133   4.096
 3088SOL     OW10162   2.297   4.831   5.844
 3088SOL    HW110163   2.309   4.923   5.880
 3088SOL    HW210164   2.259   4.772   5.914
 3089SOL     OW10165   1.172   2.959   0.513
 3089SOL    HW110166   1.216   2.891   0.455
 3089SOL    HW210167   1.204   2.948   0.607
 3090SOL     OW10168   2.045   2.325   1.757
 3090SOL    HW110169   2.084   2.245   1.710
 3090SOL    HW210170   1.949   2.307   1.778
 3091SOL     OW10171   1.506   6.938   0.187
 3091SOL    HW110172   1.590   6.974   0.146
 3091SOL    HW210173   1.433   7.005   0.175
 3092SOL     OW10174   5.220   6.814   0.347
 3092SOL    HW110175   5.233   6.913   0.340
 3092SOL    HW210176   5.294   6.767   0.299
 3093SOL     OW10177   5.364   5.740   5.773
 3093SOL    HW110178   5.445   5.699   5.815
 3093SOL    HW210179   5.285   5.681   5.787
 3094SOL     OW10180   3.097   6.501   4.195
 3094SOL    HW110181   3.023   6.439   4.166
 3094SOL    HW210182   3.063   6.595   4.198
 3095SOL     OW10183   2.611   5.833   4.277
 3095SOL    HW110184   2.590   5.883   4.361
 3095SOL    HW210185   2.612   5.735   4.296
 3096SOL     OW10186   1.073   0.144   4.657
 3096SOL    HW110187   0.993   0.157   4.598
 3096SOL    HW210188   1.044   0.106   4.745
 3097SOL     OW10189   0.348   2.165   1.284
 3097SOL    HW110190   0.355   2.212   1.371
 3097SOL    HW210191   0.396   2.077   1.289
 3098SOL     OW10192   2.510   3.374   1.093
 3098SOL    HW110193   2.565   3.330   1.022
 3098SOL    HW210194   2.413   3.361   1.074
 3099SOL     OW10195   0.358   5.808   4.572
 3099SOL    HW110196   0.299   5.882   4.607
 3099SOL    HW210197   0.325   5.720   4.607
 3100SOL     OW10198   6.536   0.107   4.584
 3100SOL    HW110199   6.472   0.159   4.641
 3100SOL    HW210200   6.620   0.090   4.635
 3101SOL     OW10201   5.389   5.973   5.951
 3101SOL    HW110202   5.390   5.927   5.862
 3101SOL    HW210203   5.478   5.960   5.996
 3102SOL     OW10204   0.455   5.183   3.107
 3102SOL    HW110205   0.415   5.093   3.091
 3102SOL    HW210206   0.505   5.212   3.025
 3103SOL     OW10207   3.392   1.023   1.698
 3103SOL    HW110208   3.350   1.030   1.788
 3103SOL    HW210209   3.422   1.113   1.668
 3104SOL     OW10210   4.858   6.438   5.318
 3104SOL    HW110211   4.898   6.526   5.294
 3104SOL    HW210212   4.838   6.387   5.234
 3105SOL     OW10213   6.051   4.539   1.981
 3105SOL    HW110214   6.043   4.440   1.981
 3105SOL    HW210215   6.016   4.575   1.894
 3106SOL     OW10216   6.057   0.779   2.815
 3106SOL    HW110217   5.962   0.756   2.795
 3106SOL    HW210218   6.075   0.764   2.912
 3107SOL     OW10219   4.288   0.732   3.977
 3107SOL    HW110220   4.244   0.819   3.957
 3107SOL    HW210221   4.277   0.711   4.075
 3108SOL     OW10222   1.280   0.327   4.386
 3108SOL    HW110223   1.348   0.262   4.417
 3108SOL    HW210224   1.306   0.419   4.414
 3109SOL     OW10225   5.763   5.789   2.522
 3109SOL    HW110226   5.843   5.832   2.482
 3109SOL    HW210227   5.697   5.768   2.450
 3110SOL     OW10228   1.373   1.841   3.185
 3110SOL    HW110229   1.382   1.753   3.233
 3110SOL    HW210230   1.459   1.862   3.138
 3111SOL     OW10231   6.551   5.810   3.844
 3111SOL    HW110232   6.528   5.867   3.923
 3111SOL    HW210233   6.486   5.828   3.770
 3112SOL     OW10234   5.164   2.450   6.288
 3112SOL    HW110235   5.237   2.518   6.282
 3112SOL    HW210236   5.156   2.418   6.382
 3113SOL     OW10237   1.762   6.530   4.438
 3113SOL    HW110238   1.828   6.605   4.431
 3113SOL    HW210239   1.671   6.564   4.413
 3114SOL     OW10240   4.178   2.430   6.798
 3114SOL    HW110241   4.158   2.332   6.797
 3114SOL    HW210242   4.212   2.459   6.709
 3115SOL     OW10243   4.689   3.426   6.809
 3115SOL    HW110244   4.764   3.491   6.816
 3115SOL    HW210245   4.720   3.344   6.761
 3116SOL     OW10246   6.954   3.722   0.024
 3116SOL    HW110247   0.002   3.790   0.026
 3116SOL    HW210248   6.961   3.663   0.104
 3117SOL     OW10249   4.526   3.723   5.330
 3117SOL    HW110250   4.439   3.677   5.310
 3117SOL    HW210251   4.590   3.706   5.256
 3118SOL     OW10252   0.369   4.935   0.187
 3118SOL    HW110253   0.375   4.892   0.277
 3118SOL    HW210254   0.429   5.014   0.184
 3119SOL     OW10255   1.712   3.169   5.724
 3119SOL    HW110256   1.692   3.264   5.749
 3119SOL    HW210257   1.687   3.154   5.629
 3120SOL     OW10258   2.919   6.697   4.098
 3120SOL    HW110259   2.987   6.729   4.031
 3120SOL    HW210260   2.837   6.667   4.050
 3121SOL     OW10261   0.374   1.694   2.397
 3121SOL    HW110262   0.298   1.642   2.436
 3121SOL    HW210263   0.436   1.722   2.470
 3122SOL     OW10264   2.716   5.953   5.816
 3122SOL    HW110265   2.712   6.052   5.824
 3122SOL    HW210266   2.748   5.914   5.903
 3123SOL     OW10267   3.087   0.439   4.311
 3123SOL    HW110268   3.139   0.415   4.229
 3123SOL    HW210269   3.127   0.521   4.353
 3124SOL     OW10270   4.028   6.607   4.504
 3124SOL    HW110271   3.972   6.544   4.450
 3124SOL    HW210272   4.085   6.554   4.567
 3125SOL     OW10273   6.280   1.991   5.282
 3125SOL    HW110274   6.317   1.929   5.351
 3125SOL    HW210275   6.351   2.054   5.252
 3126SOL     OW10276   4.962   4.965   6.242
 3126SOL    HW110277   5.040   4.940   6.298
 3126SOL    HW210278   4.907   4.883   6.224
 3127SOL     OW10279   1.148   2.335   3.138
 3127SOL    HW110280   1.117   2.359   3.046
 3127SOL    HW210281   1.245   2.311   3.135
 3128SOL     OW10282   1.919   7.017   6.398
 3128SOL    HW110283   1.855   0.068   6.402
 3128SOL    HW210284   1.990   0.005   6.467
 3129SOL     OW10285   0.997   4.098   6.789
 3129SOL    HW110286   1.086   4.124   6.753
 3129SOL    HW210287   1.000   4.098   6.889
 3130SOL     OW10288   1.958   4.243   1.795
 3130SOL    HW110289   1.915   4.157   1.768
 3130SOL    HW210290   2.042   4.257   1.743
 3131SOL     OW10291   0.320   2.582   1.519
 3131SOL    HW110292   0.312   2.489   1.483
 3131SOL    HW210293   0.257   2.592   1.597
 3132SOL     OW10294   4.842   5.142   5.771
 3132SOL    HW110295   4.792   5.126   5.686
 3132SOL    HW210296   4.936   5.110   5.762
 3133SOL     OW10297   3.285   2.119   3.097
 3133SOL    HW110298   3.360   2.117   3.031
 3133SOL    HW210299   3.316   2.078   3.183
 3134SOL     OW10300   4.616   4.924   1.504
 3134SOL    HW110301   4.640   5.006   1.557
 3134SOL    HW210302   4.700   4.878   1.474
 3135SOL     OW10303   4.981   1.011   4.968
 3135SOL    HW110304   4.882   1.009   4.952
 3135SOL    HW210305   4.999   1.014   5.066
 3136SOL     OW10306   5.325   0.397   6.688
 3136SOL    HW110307   5.372   0.442   6.764
 3136SOL    HW210308   5.227   0.420   6.692
 3137SOL     OW10309   6.040   0.703   3.540
 3137SOL    HW110310   6.060   0.766   3.465
 3137SOL    HW210311   6.064   0.609   3.512
 3138SOL     OW10312   6.721   2.039   3.881
 3138SOL    HW110313   6.622   2.040   3.895
 3138SOL    HW210314   6.765   2.077   3.962
 3139SOL     OW10315   4.901   6.894   0.333
 3139SOL    HW110316   4.858   6.838   0.263
 3139SOL    HW210317   4.994   6.861   0.349
 3140SOL     OW10318   5.952   6.951   6.725
 3140SOL    HW110319   6.033   6.901   6.757
 3140SOL    HW210320   5.872   6.922   6.776
 3141SOL     OW10321   0.768   6.305   6.022
 3141SOL    HW110322   0.711   6.281   5.944
 3141SOL    HW210323   0.711   6.349   6.092
 3142SOL     OW10324   4.612   6.288   1.470
 3142SOL    HW110325   4.632   6.381   1.439
 3142SOL    HW210326   4.548   6.245   1.406
 3143SOL     OW10327   0.509   2.506   6.776
 3143SOL    HW110328   0.540   2.521   6.682
 3143SOL    HW210329   0.430   2.563   6.794
 3144SOL     OW10330   3.159   4.178   1.204
 3144SOL    HW110331   3.136   4.116   1.129
 3144SOL    HW210332   3.243   4.227   1.183
 3145SOL     OW10333   1.542   4.779   2.696
 3145SOL    HW110334   1.614   4.848   2.685
 3145SOL    HW210335   1.452   4.822   2.689
 3146SOL     OW10336   1.466   6.956   3.296
 3146SOL    HW110337   1.378   6.909   3.303
 3146SOL    HW210338   1.451   0.029   3.281
 3147SOL     OW10339   3.992   5.170   0.065
 3147SOL    HW110340   4.062   5.168   0.136
 3147SOL    HW210341   3.909   5.125   0.098
 3148SOL     OW10342   5.464   5.785   4.614
 3148SOL    HW110343   5.372   5.749   4.630
 3148SOL    HW210344   5.516   5.719   4.560
 3149SOL     OW10345   3.374   0.649   5.119
 3149SOL    HW110346   3.390   0.593   5.200
 3149SOL    HW210347   3.432   0.617   5.044
 3150SOL     OW10348   6.523   5.536   3.870
 3150SOL    HW110349   6.530   5.635   3.863
 3150SOL    HW210350   6.464   5.501   3.796
 3151SOL     OW10351   3.678   0.570   6.725
 3151SOL    HW110352   3.649   0.659   6.692
 3151SOL    HW210353   3.665   0.501   6.654
 3152SOL     OW10354   1.239   4.960   1.817
 3152SOL    HW110355   1.335   4.949   1.792
 3152SOL    HW210356   1.181   4.917   1.748
 3153SOL     OW10357   6.813   4.369   1.696
 3153SOL    HW110358   6.821   4.449   1.637
 3153SOL    HW210359   6.872   4.295   1.662
 3154SOL     OW10360   6.125   1.539   0.224
 3154SOL    HW110361   6.025   1.541   0.213
 3154SOL    HW210362   6.150   1.587   0.308
 3155SOL     OW10363   0.003   5.239   1.478
 3155SOL    HW110364   0.004   5.165   1.410
 3155SOL    HW210365   0.086   5.233   1.534
 3156SOL     OW10366   3.743   2.989   3.881
 3156SOL    HW110367   3.668   3.007   3.817
 3156SOL    HW210368   3.714   2.920   3.947
 3157SOL     OW10369   1.641   2.900   5.061
 3157SOL    HW110370   1.696   2.897   5.145
 3157SOL    HW210371   1.697   2.868   4.984
 3158SOL     OW10372   4.563   0.200   1.668
 3158SOL    HW110373   4.622   0.169   1.743
 3158SOL    HW210374   4.568   0.300   1.662
 3159SOL     OW10375   5.528   0.760   0.266
 3159SOL    HW110376   5.518   0.827   0.340
 3159SOL    HW210377   5.611   0.781   0.214
 3160SOL     OW10378   6.572   5.653   5.598
 3160SOL    HW110379   6.609   5.564   5.571
 3160SOL    HW210380   6.520   5.643   5.683
 3161SOL     OW10381   1.347   1.432   2.982
 3161SOL    HW110382   1.252   1.419   2.952
 3161SOL    HW210383   1.407   1.439   2.903
 3162SOL     OW10384   0.942   5.611   0.645
 3162SOL    HW110385   0.984   5.659   0.721
 3162SOL    HW210386   0.883   5.538   0.681
 3163SOL     OW10387   3.374   2.281   0.106
 3163SOL    HW110388   3.451   2.218   0.103
 3163SOL    HW210389   3.406   2.374   0.089
 3164SOL     OW10390   4.262   4.392   1.437
 3164SOL    HW110391   4.238   4.477   1.484
 3164SOL    HW210392   4.344   4.353   1.478
 3165SOL     OW10393   0.988   6.237   1.470
 3165SOL    HW110394   0.934   6.300   1.526
 3165SOL    HW210395   0.962   6.143   1.493
 3166SOL     OW10396   5.124   2.370   6.540
 3166SOL    HW110397   5.213   2.351   6.583
 3166SOL    HW210398   5.051   2.346   6.604
 3167SOL     OW10399   0.250   4.676   1.555
 3167SOL    HW110400   0.339   4.720   1.556
 3167SOL    HW210401   0.237   4.624   1.640
 3168SOL     OW10402   5.306   2.990   0.337
 3168SOL    HW110403   5.346   3.055   0.401
 3168SOL    HW210404   5.211   2.973   0.361
 3169SOL     OW10405   0.654   2.933   5.792
 3169SOL    HW110406   0.667   3.015   5.736
 3169SOL    HW210407   0.723   2.865   5.767
 3170SOL     OW10408   4.145   0.812   0.770
 3170SOL    HW110409   4.213   0.870   0.726
 3170SOL    HW210410   4.121   0.850   0.859
 3171SOL     OW10411   6.706   6.883   1.251
 3171SOL    HW110412   6.712   6.850   1.157
 3171SOL    HW210413   6.669   6.976   1.252
 3172SOL     OW10414   0.692   5.565   5.786
 3172SOL    HW110415   0.709   5.653   5.828
 3172SOL    HW210416   0.599   5.563   5.748
 3173SOL     OW10417   2.751   1.778   1.255
 3173SOL    HW110418   2.745   1.850   1.324
 3173SOL    HW210419   2.836   1.790   1.203
 3174SOL     OW10420   2.460   2.642   6.854
 3174SOL    HW110421   2.365   2.624   6.830
 3174SOL    HW210422   2.476   2.622   6.950
 3175SOL     OW10423   6.718   6.339   0.522
 3175SOL    HW110424   6.687   6.416   0.466
 3175SOL    HW210425   6.705   6.361   0.619
 3176SOL     OW10426   2.217   5.210   4.696
 3176SOL    HW110427   2.241   5.285   4.757
 3176SOL    HW210428   2.270   5.129   4.719
 3177SOL     OW10429   5.095   5.584   5.430
 3177SOL    HW110430   5.147   5.666   5.404
 3177SOL    HW210431   5.025   5.610   5.497
 3178SOL     OW10432   6.598   3.332   1.330
 3178SOL    HW110433   6.615   3.403   1.262
 3178SOL    HW210434   6.658   3.345   1.409
 3179SOL     OW10435   1.934   2.905   1.609
 3179SOL    HW110436   2.016   2.951   1.645
 3179SOL    HW210437   1.862   2.905   1.678
 3180SOL     OW10438   4.400   0.607   6.844
 3180SOL    HW110439   4.313   0.635   6.885
 3180SOL    HW210440   4.396   0.510   6.819
 3181SOL     OW10441   0.651   0.118   2.843
 3181SOL    HW110442   0.593   0.115   2.762
 3181SOL    HW210443   0.609   0.177   2.912
 3182SOL     OW10444   1.180   1.115   5.763
 3182SOL    HW110445   1.098   1.070   5.729
 3182SOL    HW210446   1.227   1.161   5.687
 3183SOL     OW10447   4.692   4.101   1.525
 3183SOL    HW110448   4.779   4.104   1.475
 3183SOL    HW210449   4.637   4.025   1.491
 3184SOL     OW10450   2.575   1.959   2.667
 3184SOL    HW110451   2.579   1.868   2.626
 3184SOL    HW210452   2.529   2.022   2.605
 3185SOL     OW10453   6.000   0.633   6.590
 3185SOL    HW110454   5.912   0.672   6.618
 3185SOL    HW210455   6.002   0.536   6.613
 3186SOL     OW10456   3.282   0.941   2.873
 3186SOL    HW110457   3.363   0.981   2.830
 3186SOL    HW210458   3.296   0.936   2.972
 3187SOL     OW10459   4.513   4.448   6.929
 3187SOL    HW110460   4.531   4.493   7.016
 3187SOL    HW210461   4.438   4.495   6.882
 3188SOL     OW10462   3.648   5.864   3.260
 3188SOL    HW110463   3.642   5.953   3.306
 3188SOL    HW210464   3.744   5.847   3.235
 3189SOL     OW10465   2.337   1.235   3.056
 3189SOL    HW110466   2.400   1.279   3.120
 3189SOL    HW210467   2.316   1.142   3.088
 3190SOL     OW10468   0.890   6.543   1.399
 3190SOL    HW110469   0.837   6.626   1.380
 3190SOL    HW210470   0.961   6.564   1.466
 3191SOL     OW10471   3.530   6.836   0.848
 3191SOL    HW110472   3.517   6.919   0.792
 3191SOL    HW210473   3.584   6.770   0.797
 3192SOL     OW10474   0.625   2.313   1.166
 3192SOL    HW110475   0.545   2.299   1.225
 3192SOL    HW210476   0.598   2.358   1.082
 3193SOL     OW10477   4.356   2.010   6.410
 3193SOL    HW110478   4.447   2.016   6.451
 3193SOL    HW210479   4.287   1.994   6.481
 3194SOL     OW10480   1.404   2.670   6.331
 3194SOL    HW110481   1.318   2.647   6.286
 3194SOL    HW210482   1.385   2.717   6.417
 3195SOL     OW10483   1.842   2.313   2.551
 3195SOL    HW110484   1.760   2.364   2.524
 3195SOL    HW210485   1.898   2.370   2.612
 3196SOL     OW10486   6.140   0.369   5.140
 3196SOL    HW110487   6.191   0.442   5.095
 3196SOL    HW210488   6.148   0.284   5.087
 3197SOL     OW10489   1.716   5.676   3.700
 3197SOL    HW110490   1.776   5.740   3.652
 3197SOL    HW210491   1.638   5.654   3.642
 3198SOL     OW10492   6.377   2.324   6.815
 3198SOL    HW110493   6.315   2.402   6.814
 3198SOL    HW210494   6.337   2.248   6.764
 3199SOL     OW10495   4.675   2.624   2.122
 3199SOL    HW110496   4.661   2.608   2.024
 3199SOL    HW210497   4.687   2.722   2.138
 3200SOL     OW10498   6.893   1.751   1.368
 3200SOL    HW110499   6.906   1.668   1.313
 3200SOL    HW210500   6.948   1.825   1.329
 3201SOL     OW10501   5.350   4.106   4.302
 3201SOL    HW110502   5.300   4.169   4.243
 3201SOL    HW210503   5.289   4.071   4.374
 3202SOL     OW10504   1.546   4.552   1.875
 3202SOL    HW110505   1.448   4.573   1.867
 3202SOL    HW210506   1.558   4.453   1.881
 3203SOL     OW10507   5.800   1.005   1.098
 3203SOL    HW110508   5.800   0.906   1.093
 3203SOL    HW210509   5.719   1.037   1.147
 3204SOL     OW10510   5.627   6.062   1.505
 3204SOL    HW110511   5.633   5.982   1.566
 3204SOL    HW210512   5.709   6.117   1.514
 3205SOL     OW10513   0.055   4.161   6.760
 3205SOL    HW110514   0.107   4.095   6.814
 3205SOL    HW210515   6.985   4.160   6.790
 3206SOL     OW10516   6.885   6.976   6.058
 3206SOL    HW110517   6.910   0.007   6.137
 3206SOL    HW210518   6.844   0.010   5.988
 3207SOL     OW10519   0.384   1.300   6.525
 3207SOL    HW110520   0.425   1.382   6.564
 3207SOL    HW210521   0.444   1.262   6.454
 3208SOL     OW10522   3.948   5.974   5.216
 3208SOL    HW110523   4.027   6.030   5.244
 3208SOL    HW210524   3.891   6.026   5.152
 3209SOL     OW10525   2.896   6.249   3.528
 3209SOL    HW110526   2.933   6.156   3.530
 3209SOL    HW210527   2.913   6.294   3.616
 3210SOL     OW10528   0.579   3.359   1.853
 3210SOL    HW110529   0.526   3.292   1.800
 3210SOL    HW210530   0.595   3.324   1.945
 3211SOL     OW10531   2.379   4.696   0.316
 3211SOL    HW110532   2.456   4.745   0.276
 3211SOL    HW210533   2.315   4.761   0.355
 3212SOL     OW10534   4.158   1.514   6.918
 3212SOL    HW110535   4.249   1.512   6.876
 3212SOL    HW210536   4.139   1.425   6.960
 3213SOL     OW10537   5.680   4.755   2.877
 3213SOL    HW110538   5.770   4.755   2.920
 3213SOL    HW210539   5.671   4.676   2.818
 3214SOL     OW10540   4.576   6.405   0.332
 3214SOL    HW110541   4.512   6.368   0.264
 3214SOL    HW210542   4.556   6.366   0.422
 3215SOL     OW10543   6.192   3.384   0.719
 3215SOL    HW110544   6.139   3.469   0.716
 3215SOL    HW210545   6.280   3.401   0.762
 3216SOL     OW10546   5.716   5.411   2.356
 3216SOL    HW110547   5.619   5.414   2.331
 3216SOL    HW210548   5.728   5.446   2.449
 3217SOL     OW10549   1.156   4.272   3.350
 3217SOL    HW110550   1.133   4.277   3.253
 3217SOL    HW210551   1.162   4.365   3.387
 3218SOL     OW10552   4.552   6.563   3.396
 3218SOL    HW110553   4.564   6.597   3.489
 3218SOL    HW210554   4.547   6.463   3.398
 3219SOL     OW10555   0.016   0.285   3.881
 3219SOL    HW110556   0.013   0.244   3.972
 3219SOL    HW210557   0.103   0.263   3.838
 3220SOL     OW10558   6.355   4.892   5.925
 3220SOL    HW110559   6.398   4.875   6.014
 3220SOL    HW210560   6.408   4.847   5.854
 3221SOL     OW10561   2.835   6.031   2.391
 3221SOL    HW110562   2.794   6.028   2.483
 3221SOL    HW210563   2.865   5.939   2.365
 3222SOL     OW10564   4.749   1.807   3.593
 3222SOL    HW110565   4.842   1.837   3.573
 3222SOL    HW210566   4.742   1.775   3.687
 3223SOL     OW10567   2.113   5.368   6.870
 3223SOL    HW110568   2.051   5.328   6.803
 3223SOL    HW210569   2.123   5.306   6.948
 3224SOL     OW10570   4.547   5.140   6.037
 3224SOL    HW110571   4.537   5.177   6.129
 3224SOL    HW210572   4.528   5.212   5.970
 3225SOL     OW10573   4.340   2.184   5.880
 3225SOL    HW110574   4.243   2.196   5.903
 3225SOL    HW210575   4.380   2.272   5.856
 3226SOL     OW10576   2.203   1.659   4.189
 3226SOL    HW110577   2.153   1.574   4.207
 3226SOL    HW210578   2.138   1.735   4.181
 3227SOL     OW10579   3.364   2.133   6.702
 3227SOL    HW110580   3.271   2.096   6.700
 3227SOL    HW210581   3.361   2.230   6.728
 3228SOL     OW10582   5.399   3.003   4.165
 3228SOL    HW110583   5.459   2.947   4.223
 3228SOL    HW210584   5.420   2.986   4.069
 3229SOL     OW10585   3.167   1.666   5.715
 3229SOL    HW110586   3.165   1.737   5.645
 3229SOL    HW210587   3.248   1.608   5.701
 3230SOL     OW10588   0.505   2.254   3.219
 3230SOL    HW110589   0.506   2.199   3.135
 3230SOL    HW210590   0.596   2.255   3.259
 3231SOL     OW10591   4.659   5.692   1.667
 3231SOL    HW110592   4.684   5.607   1.620
 3231SOL    HW210593   4.561   5.706   1.659
 3232SOL     OW10594   4.420   5.558   4.632
 3232SOL    HW110595   4.465   5.472   4.607
 3232SOL    HW210596   4.454   5.631   4.573
 3233SOL     OW10597   0.936   4.088   0.735
 3233SOL    HW110598   0.849   4.067   0.780
 3233SOL    HW210599   0.988   4.152   0.791
 3234SOL     OW10600   6.918   2.467   0.453
 3234SOL    HW110601   6.870   2.412   0.521
 3234SOL    HW210602   6.933   2.414   0.370
 3235SOL     OW10603   5.926   5.893   2.175
 3235SOL    HW110604   5.971   5.890   2.264
 3235SOL    HW210605   5.921   5.801   2.137
 3236SOL     OW10606   1.760   3.621   1.572
 3236SOL    HW110607   1.736   3.676   1.652
 3236SOL    HW210608   1.837   3.562   1.593
 3237SOL     OW10609   4.806   0.291   3.764
 3237SOL    HW110610   4.846   0.202   3.785
 3237SOL    HW210611   4.706   0.283   3.766
 3238SOL     OW10612   0.507   5.714   6.763
 3238SOL    HW110613   0.517   5.637   6.825
 3238SOL    HW210614   0.592   5.766   6.761
 3239SOL     OW10615   5.716   1.143   0.603
 3239SOL    HW110616   5.756   1.209   0.539
 3239SOL    HW210617   5.640   1.186   0.652
 3240SOL     OW10618   0.321   0.018   5.144
 3240SOL    HW110619   0.308   6.951   5.109
 3240SOL    HW210620   0.273   0.028   5.232
 3241SOL     OW10621   4.933   1.356   4.094
 3241SOL    HW110622   4.860   1.424   4.087
 3241SOL    HW210623   4.969   1.336   4.003
 3242SOL     OW10624   3.628   5.129   1.185
 3242SOL    HW110625   3.617   5.222   1.150
 3242SOL    HW210626   3.699   5.082   1.133
 3243SOL     OW10627   5.600   5.141   0.413
 3243SOL    HW110628   5.688   5.126   0.458
 3243SOL    HW210629   5.536   5.070   0.441
 3244SOL     OW10630   4.956   5.538   6.287
 3244SOL    HW110631   5.003   5.592   6.217
 3244SOL    HW210632   4.912   5.459   6.243
 3245SOL     OW10633   4.264   2.694   6.116
 3245SOL    HW110634   4.251   2.762   6.188
 3245SOL    HW210635   4.290   2.606   6.157
 3246SOL     OW10636   5.832   0.503   3.074
 3246SOL    HW110637   5.753   0.565   3.073
 3246SOL    HW210638   5.842   0.461   2.983
 3247SOL     OW10639   0.135   4.539   2.361
 3247SOL    HW110640   0.212   4.489   2.400
 3247SOL    HW210641   0.050   4.493   2.384
 3248SOL     OW10642   6.102   3.495   2.079
 3248SOL    HW110643   6.014   3.500   2.032
 3248SOL    HW210644   6.095   3.433   2.157
 3249SOL     OW10645   3.837   4.445   5.290
 3249SOL    HW110646   3.860   4.390   5.370
 3249SOL    HW210647   3.738   4.445   5.277
 3250SOL     OW10648   5.614   6.919   3.359
 3250SOL    HW110649   5.655   6.840   3.312
 3250SOL    HW210650   5.515   6.913   3.352
 3251SOL     OW10651   3.687   1.429   2.851
 3251SOL    HW110652   3.629   1.510   2.840
 3251SOL    HW210653   3.746   1.442   2.930
 3252SOL     OW10654   3.727   1.104   2.031
 3252SOL    HW110655   3.705   1.177   1.966
 3252SOL    HW210656   3.771   1.028   1.983
 3253SOL     OW10657   4.943   2.179   2.295
 3253SOL    HW110658   5.037   2.182   2.330
 3253SOL    HW210659   4.917   2.269   2.262
 3254SOL     OW10660   3.732   5.235   4.099
 3254SOL    HW110661   3.643   5.229   4.053
 3254SOL    HW210662   3.721   5.217   4.196
 3255SOL     OW10663   4.339   5.298   0.801
 3255SOL    HW110664   4.427   5.253   0.816
 3255SOL    HW210665   4.340   5.346   0.714
 3256SOL     OW10666   5.640   0.289   6.776
 3256SOL    HW110667   5.593   0.253   6.695
 3256SOL    HW210668   5.666   0.213   6.836
 3257SOL     OW10669   1.511   2.290   0.788
 3257SOL    HW110670   1.565   2.245   0.716
 3257SOL    HW210671   1.482   2.223   0.855
 3258SOL     OW10672   4.669   6.498   1.919
 3258SOL    HW110673   4.723   6.582   1.933
 3258SOL    HW210674   4.728   6.419   1.927
 3259SOL     OW10675   4.078   5.769   4.221
 3259SOL    HW110676   4.009   5.835   4.254
 3259SOL    HW210677   4.050   5.677   4.247
 3260SOL     OW10678   2.116   1.926   0.818
 3260SOL    HW110679   2.172   2.005   0.794
 3260SOL    HW210680   2.120   1.911   0.917
 3261SOL     OW10681   3.967   6.312   0.642
 3261SOL    HW110682   3.976   6.395   0.587
 3261SOL    HW210683   3.870   6.292   0.656
 3262SOL     OW10684   3.896   1.846   3.341
 3262SOL    HW110685   3.904   1.939   3.379
 3262SOL    HW210686   3.952   1.840   3.258
 3263SOL     OW10687   5.074   0.157   3.132
 3263SOL    HW110688   4.980   0.146   3.100
 3263SOL    HW210689   5.132   0.181   3.054
 3264SOL     OW10690   0.569   5.485   6.914
 3264SOL    HW110691   0.489   5.431   6.890
 3264SOL    HW210692   0.650   5.427   6.917
 3265SOL     OW10693   4.134   2.036   6.590
 3265SOL    HW110694   4.101   1.960   6.647
 3265SOL    HW210695   4.065   2.059   6.522
 3266SOL     OW10696   0.198   2.440   0.553
 3266SOL    HW110697   0.107   2.478   0.565
 3266SOL    HW210698   0.198   2.344   0.584
 3267SOL     OW10699   3.456   2.541   1.567
 3267SOL    HW110700   3.388   2.613   1.559
 3267SOL    HW210701   3.429   2.477   1.640
 3268SOL     OW10702   1.291   3.949   7.011
 3268SOL    HW110703   1.348   3.868   7.023
 3268SOL    HW210704   1.265   3.957   6.914
 3269SOL     OW10705   4.473   4.650   1.735
 3269SOL    HW110706   4.552   4.669   1.676
 3269SOL    HW210707   4.430   4.737   1.760
 3270SOL     OW10708   0.623   5.404   3.795
 3270SOL    HW110709   0.676   5.489   3.787
 3270SOL    HW210710   0.598   5.373   3.703
 3271SOL     OW10711   5.483   2.079   3.012
 3271SOL    HW110712   5.389   2.066   2.979
 3271SOL    HW210713   5.495   2.173   3.043
 3272SOL     OW10714   3.567   5.870   0.722
 3272SOL    HW110715   3.634   5.819   0.668
 3272SOL    HW210716   3.498   5.909   0.661
 3273SOL     OW10717   0.819   6.504   1.690
 3273SOL    HW110718   0.915   6.533   1.688
 3273SOL    HW210719   0.760   6.585   1.697
 3274SOL     OW10720   3.977   2.203   6.865
 3274SOL    HW110721   3.912   2.216   6.790
 3274SOL    HW210722   4.028   2.118   6.851
 3275SOL     OW10723   1.628   0.291   0.044
 3275SOL    HW110724   1.709   0.313   7.013
 3275SOL    HW210725   1.557   0.253   7.011
 3276SOL     OW10726   3.562   4.851   6.680
 3276SOL    HW110727   3.606   4.866   6.768
 3276SOL    HW210728   3.525   4.758   6.676
 3277SOL     OW10729   6.107   0.003   6.387
 3277SOL    HW110730   6.054   0.043   6.462
 3277SOL    HW210731   6.093   0.056   6.304
 3278SOL     OW10732   6.868   1.447   5.367
 3278SOL    HW110733   6.951   1.446   5.310
 3278SOL    HW210734   6.834   1.353   5.378
 3279SOL     OW10735   0.032   0.369   0.594
 3279SOL    HW110736   6.962   0.381   0.566
 3279SOL    HW210737   0.092   0.414   0.529
 3280SOL     OW10738   2.526   5.160   6.450
 3280SOL    HW110739   2.609   5.105   6.446
 3280SOL    HW210740   2.550   5.257   6.463
 3281SOL     OW10741   1.742   6.092   1.208
 3281SOL    HW110742   1.824   6.141   1.237
 3281SOL    HW210743   1.746   5.998   1.242
 3282SOL     OW10744   2.969   6.443   4.484
 3282SOL    HW110745   3.058   6.401   4.469
 3282SOL    HW210746   2.968   6.533   4.441
 3283SOL     OW10747   3.283   1.607   3.021
 3283SOL    HW110748   3.270   1.508   3.008
 3283SOL    HW210749   3.202   1.646   3.064
 3284SOL     OW10750   6.876   6.814   0.072
 3284SOL    HW110751   6.941   6.889   0.079
 3284SOL    HW210752   6.910   6.746   0.007
 3285SOL     OW10753   0.021   2.798   3.228
 3285SOL    HW110754   0.082   2.720   3.217
 3285SOL    HW210755   0.047   2.850   3.309
 3286SOL     OW10756   4.134   3.383   3.903
 3286SOL    HW110757   4.131   3.294   3.948
 3286SOL    HW210758   4.127   3.455   3.971
 3287SOL     OW10759   0.890   5.820   0.153
 3287SOL    HW110760   0.982   5.780   0.156
 3287SOL    HW210761   0.824   5.752   0.184
 3288SOL     OW10762   0.252   5.984   0.074
 3288SOL    HW110763   0.264   5.994   7.001
 3288SOL    HW210764   0.186   6.051   0.107
 3289SOL     OW10765   1.127   6.812   5.373
 3289SOL    HW110766   1.035   6.772   5.373
 3289SOL    HW210767   1.194   6.741   5.394
 3290SOL     OW10768   0.710   6.033   1.958
 3290SOL    HW110769   0.671   6.112   1.912
 3290SOL    HW210770   0.653   6.007   2.035
 3291SOL     OW10771   1.701   6.267   6.389
 3291SOL    HW110772   1.628   6.299   6.329
 3291SOL    HW210773   1.695   6.168   6.399
 3292SOL     OW10774   0.754   1.244   0.060
 3292SOL    HW110775   0.708   1.189   0.129
 3292SOL    HW210776   0.848   1.210   0.047
 3293SOL     OW10777   6.941   1.564   3.416
 3293SOL    HW110778   6.872   1.525   3.477
 3293SOL    HW210779   7.011   1.610   3.469
 3294SOL     OW10780   6.723   0.451   6.528
 3294SOL    HW110781   6.719   0.423   6.432
 3294SOL    HW210782   6.817   0.472   6.553
 3295SOL     OW10783   2.610   2.132   0.869
 3295SOL    HW110784   2.561   2.186   0.800
 3295SOL    HW210785   2.634   2.043   0.831
 3296SOL     OW10786   2.608   6.756   1.612
 3296SOL    HW110787   2.556   6.710   1.684
 3296SOL    HW210788   2.688   6.800   1.654
 3297SOL     OW10789   2.986   2.082   5.214
 3297SOL    HW110790   2.893   2.068   5.179
 3297SOL    HW210791   3.019   2.172   5.185
 3298SOL     OW10792   6.495   3.024   2.687
 3298SOL    HW110793   6.399   3.040   2.710
 3298SOL    HW210794   6.553   3.089   2.736
 3299SOL     OW10795   1.948   0.238   3.478
 3299SOL    HW110796   1.997   0.325   3.481
 3299SOL    HW210797   1.951   0.201   3.385
 3300SOL     OW10798   6.974   0.552   6.206
 3300SOL    HW110799   6.986   0.484   6.133
 3300SOL    HW210800   0.035   0.565   6.254
 3301SOL     OW10801   1.458   3.960   4.009
 3301SOL    HW110802   1.497   3.980   3.920
 3301SOL    HW210803   1.366   3.997   4.015
 3302SOL     OW10804   1.139   5.140   4.742
 3302SOL    HW110805   1.072   5.071   4.714
 3302SOL    HW210806   1.227   5.096   4.758
 3303SOL     OW10807   3.701   3.264   2.441
 3303SOL    HW110808   3.776   3.217   2.396
 3303SOL    HW210809   3.617   3.210   2.430
 3304SOL     OW10810   1.022   4.937   3.814
 3304SOL    HW110811   1.033   5.029   3.775
 3304SOL    HW210812   1.072   4.871   3.758
 3305SOL     OW10813   2.225   1.109   1.998
 3305SOL    HW110814   2.175   1.048   2.060
 3305SOL    HW210815   2.307   1.143   2.044
 3306SOL     OW10816   2.141   3.833   2.824
 3306SOL    HW110817   2.143   3.928   2.856
 3306SOL    HW210818   2.156   3.831   2.725
 3307SOL     OW10819   0.001   5.885   0.329
 3307SOL    HW110820   7.011   5.943   0.409
 3307SOL    HW210821   0.031   5.794   0.359
 3308SOL     OW10822   4.522   5.491   0.196
 3308SOL    HW110823   4.461   5.481   0.118
 3308SOL    HW210824   4.599   5.550   0.171
 3309SOL     OW10825   0.727   5.209   2.638
 3309SOL    HW110826   0.825   5.226   2.638
 3309SOL    HW210827   0.686   5.253   2.558
 3310SOL     OW10828   0.347   3.577   2.833
 3310SOL    HW110829   0.362   3.631   2.750
 3310SOL    HW210830   0.400   3.492   2.827
 3311SOL     OW10831   2.650   5.676   0.671
 3311SOL    HW110832   2.599   5.648   0.753
 3311SOL    HW210833   2.720   5.743   0.696
 3312SOL     OW10834   3.112   4.262   6.263
 3312SOL    HW110835   3.084   4.354   6.236
 3312SOL    HW210836   3.070   4.238   6.350
 3313SOL     OW10837   1.376   5.218   3.810
 3313SOL    HW110838   1.383   5.187   3.904
 3313SOL    HW210839   1.286   5.194   3.773
 3314SOL     OW10840   1.831   2.799   4.826
 3314SOL    HW110841   1.816   2.828   4.731
 3314SOL    HW210842   1.929   2.801   4.846
 3315SOL     OW10843   6.818   2.903   4.200
 3315SOL    HW110844   6.904   2.864   4.234
 3315SOL    HW210845   6.766   2.832   4.153
 3316SOL     OW10846   4.060   1.708   6.020
 3316SOL    HW110847   4.073   1.709   6.119
 3316SOL    HW210848   4.108   1.786   5.979
 3317SOL     OW10849   4.663   2.602   1.850
 3317SOL    HW110850   4.638   2.698   1.841
 3317SOL    HW210851   4.741   2.582   1.791
 3318SOL     OW10852   2.649   6.535   6.463
 3318SOL    HW110853   2.665   6.559   6.558
 3318SOL    HW210854   2.634   6.617   6.409
 3319SOL     OW10855   0.203   6.683   3.770
 3319SOL    HW110856   0.214   6.686   3.870
 3319SOL    HW210857   0.285   6.718   3.726
 3320SOL     OW10858   5.731   1.198   5.439
 3320SOL    HW110859   5.780   1.280   5.411
 3320SOL    HW210860   5.690   1.213   5.529
 3321SOL     OW10861   3.509   2.899   2.830
 3321SOL    HW110862   3.607   2.910   2.814
 3321SOL    HW210863   3.458   2.935   2.751
 3322SOL     OW10864   4.830   2.101   1.393
 3322SOL    HW110865   4.780   2.135   1.472
 3322SOL    HW210866   4.884   2.021   1.419
 3323SOL     OW10867   2.391   4.149   6.993
 3323SOL    HW110868   2.376   4.063   0.017
 3323SOL    HW210869   2.303   4.183   6.959
 3324SOL     OW10870   1.456   4.039   0.564
 3324SOL    HW110871   1.543   4.068   0.525
 3324SOL    HW210872   1.424   3.956   0.517
 3325SOL     OW10873   2.564   3.180   0.130
 3325SOL    HW110874   2.513   3.257   0.167
 3325SOL    HW210875   2.539   3.097   0.178
 3326SOL     OW10876   5.467   1.971   1.957
 3326SOL    HW110877   5.402   1.896   1.948
 3326SOL    HW210878   5.533   1.950   2.029
 3327SOL     OW10879   2.266   6.484   1.605
 3327SOL    HW110880   2.197   6.556   1.606
 3327SOL    HW210881   2.326   6.495   1.526
 3328SOL     OW10882   4.293   1.566   1.762
 3328SOL    HW110883   4.230   1.594   1.834
 3328SOL    HW210884   4.355   1.642   1.741
 3329SOL     OW10885   3.956   0.467   5.125
 3329SOL    HW110886   4.053   0.488   5.110
 3329SOL    HW210887   3.915   0.537   5.183
 3330SOL     OW10888   6.118   6.624   2.422
 3330SOL    HW110889   6.136   6.528   2.403
 3330SOL    HW210890   6.025   6.648   2.393
 3331SOL     OW10891   1.487   3.629   3.029
 3331SOL    HW110892   1.540   3.701   2.984
 3331SOL    HW210893   1.528   3.540   3.012
 3332SOL     OW10894   5.411   4.532   0.440
 3332SOL    HW110895   5.341   4.466   0.413
 3332SOL    HW210896   5.416   4.605   0.373
 3333SOL     OW10897   3.412   3.729   0.976
 3333SOL    HW110898   3.415   3.665   0.899
 3333SOL    HW210899   3.364   3.686   1.053
 3334SOL     OW10900   1.786   2.615   2.100
 3334SOL    HW110901   1.773   2.545   2.029
 3334SOL    HW210902   1.864   2.591   2.157
 3335SOL     OW10903   3.614   4.486   6.005
 3335SOL    HW110904   3.654   4.577   6.015
 3335SOL    HW210905   3.621   4.437   6.092
 3336SOL     OW10906   2.273   0.048   3.977
 3336SOL    HW110907   2.232   7.008   4.040
 3336SOL    HW210908   2.367   0.020   3.957
 3337SOL     OW10909   4.088   3.277   2.378
 3337SOL    HW110910   4.112   3.266   2.474
 3337SOL    HW210911   4.131   3.360   2.342
 3338SOL     OW10912   1.112   2.121   1.767
 3338SOL    HW110913   1.091   2.093   1.861
 3338SOL    HW210914   1.050   2.193   1.738
 3339SOL     OW10915   1.976   0.156   5.672
 3339SOL    HW110916   1.897   0.121   5.723
 3339SOL    HW210917   2.044   0.192   5.735
 3340SOL     OW10918   4.810   0.639   4.218
 3340SOL    HW110919   4.903   0.657   4.249
 3340SOL    HW210920   4.812   0.574   4.142
 3341SOL     OW10921   2.365   4.415   2.926
 3341SOL    HW110922   2.451   4.433   2.973
 3341SOL    HW210923   2.384   4.390   2.831
 3342SOL     OW10924   6.266   0.464   3.092
 3342SOL    HW110925   6.214   0.453   3.008
 3342SOL    HW210926   6.353   0.509   3.072
 3343SOL     OW10927   5.152   5.519   6.476
 3343SOL    HW110928   5.080   5.528   6.407
 3343SOL    HW210929   5.240   5.539   6.435
 3344SOL     OW10930   6.536   2.930   2.413
 3344SOL    HW110931   6.542   2.978   2.500
 3344SOL    HW210932   6.513   2.996   2.341
 3345SOL     OW10933   0.658   3.397   6.890
 3345SOL    HW110934   0.662   3.392   6.990
 3345SOL    HW210935   0.656   3.304   6.853
 3346SOL     OW10936   2.137   0.705   0.208
 3346SOL    HW110937   2.197   0.729   0.284
 3346SOL    HW210938   2.159   0.762   0.129
 3347SOL     OW10939   1.060   2.764   5.987
 3347SOL    HW110940   1.135   2.830   5.992
 3347SOL    HW210941   0.973   2.813   5.984
 3348SOL     OW10942   3.844   4.220   6.371
 3348SOL    HW110943   3.883   4.178   6.289
 3348SOL    HW210944   3.835   4.151   6.443
 3349SOL     OW10945   2.205   4.055   3.752
 3349SOL    HW110946   2.115   4.060   3.796
 3349SOL    HW210947   2.260   4.134   3.780
 3350SOL     OW10948   1.029   4.123   5.734
 3350SOL    HW110949   1.129   4.116   5.731
 3350SOL    HW210950   0.990   4.075   5.655
 3351SOL     OW10951   5.714   0.701   1.415
 3351SOL    HW110952   5.722   0.767   1.490
 3351SOL    HW210953   5.618   0.691   1.389
 3352SOL     OW10954   5.339   3.012   0.798
 3352SOL    HW110955   5.432   3.046   0.816
 3352SOL    HW210956   5.344   2.925   0.749
 3353SOL     OW10957   1.902   0.057   1.301
 3353SOL    HW110958   1.841   0.096   1.370
 3353SOL    HW210959   1.919   0.125   1.229
 3354SOL     OW10960   4.209   3.783   5.544
 3354SOL    HW110961   4.243   3.701   5.591
 3354SOL    HW210962   4.253   3.864   5.582
 3355SOL     OW10963   2.018   1.323   5.371
 3355SOL    HW110964   2.105   1.276   5.389
 3355SOL    HW210965   2.005   1.334   5.273
 3356SOL     OW10966   0.973   0.157   5.959
 3356SOL    HW110967   0.909   0.228   5.930
 3356SOL    HW210968   0.972   0.151   6.059
 3357SOL     OW10969   3.052   3.776   1.958
 3357SOL    HW110970   2.984   3.703   1.957
 3357SOL    HW210971   3.144   3.736   1.962
 3358SOL     OW10972   5.572   1.155   3.763
 3358SOL    HW110973   5.521   1.165   3.677
 3358SOL    HW210974   5.540   1.074   3.812
 3359SOL     OW10975   0.762   5.453   4.259
 3359SOL    HW110976   0.777   5.430   4.355
 3359SOL    HW210977   0.753   5.552   4.249
 3360SOL     OW10978   0.652   2.242   6.574
 3360SOL    HW110979   0.711   2.322   6.575
 3360SOL    HW210980   0.658   2.195   6.663
 3361SOL     OW10981   0.894   0.194   4.031
 3361SOL    HW110982   0.939   0.157   4.112
 3361SOL    HW210983   0.938   0.158   3.949
 3362SOL     OW10984   3.821   1.739   3.959
 3362SOL    HW110985   3.747   1.784   3.908
 3362SOL    HW210986   3.909   1.768   3.922
 3363SOL     OW10987   6.641   2.842   1.654
 3363SOL    HW110988   6.701   2.798   1.587
 3363SOL    HW210989   6.581   2.774   1.696
 3364SOL     OW10990   1.075   4.102   2.186
 3364SOL    HW110991   1.053   4.006   2.197
 3364SOL    HW210992   1.172   4.117   2.209
 3365SOL     OW10993   1.846   3.146   4.213
 3365SOL    HW110994   1.874   3.132   4.308
 3365SOL    HW210995   1.837   3.243   4.194
 3366SOL     OW10996   6.957   4.295   4.309
 3366SOL    HW110997   0.001   4.349   4.357
 3366SOL    HW210998   7.002   4.227   4.251
 3367SOL     OW10999   3.591   3.824   4.369
 3367SOL    HW111000   3.649   3.905   4.363
 3367SOL    HW211001   3.518   3.841   4.435
 3368SOL     OW11002   1.247   6.301   6.820
 3368SOL    HW111003   1.186   6.277   6.895
 3368SOL    HW211004   1.214   6.258   6.736
 3369SOL     OW11005   4.667   2.010   1.921
 3369SOL    HW111006   4.569   2.028   1.912
 3369SOL    HW211007   4.709   2.080   1.979
 3370SOL     OW11008   6.216   6.625   1.725
 3370SOL    HW111009   6.125   6.586   1.714
 3370SOL    HW211010   6.283   6.551   1.735
 3371SOL     OW11011   2.062   3.494   2.200
 3371SOL    HW111012   2.049   3.593   2.205
 3371SOL    HW211013   2.119   3.472   2.121
 3372SOL     OW11014   6.584   2.551   1.221
 3372SOL    HW111015   6.637   2.611   1.163
 3372SOL    HW211016   6.629   2.541   1.310
 3373SOL     OW11017   0.650   1.421   1.811
 3373SOL    HW111018   0.600   1.507   1.804
 3373SOL    HW211019   0.727   1.432   1.875
 3374SOL     OW11020   0.719   0.042   3.898
 3374SOL    HW111021   0.774   0.120   3.929
 3374SOL    HW211022   0.684   0.062   3.806
 3375SOL     OW11023   0.052   4.757   0.122
 3375SOL    HW111024   6.982   4.751   0.151
 3375SOL    HW211025   0.106   4.686   0.167
 3376SOL     OW11026   2.704   3.346   5.599
 3376SOL    HW111027   2.757   3.271   5.638
 3376SOL    HW211028   2.673   3.321   5.508
 3377SOL     OW11029   6.439   5.353   4.313
 3377SOL    HW111030   6.477   5.286   4.249
 3377SOL    HW211031   6.513   5.399   4.361
 3378SOL     OW11032   0.878   6.884   6.771
 3378SOL    HW111033   0.912   6.912   6.682
 3378SOL    HW211034   0.871   6.784   6.775
 3379SOL     OW11035   0.947   3.109   4.831
 3379SOL    HW111036   0.926   3.057   4.914
 3379SOL    HW211037   1.046   3.122   4.823
 3380SOL     OW11038   3.761   4.892   5.576
 3380SOL    HW111039   3.751   4.981   5.532
 3380SOL    HW211040   3.812   4.831   5.516
 3381SOL     OW11041   0.572   2.609   1.416
 3381SOL    HW111042   0.635   2.555   1.472
 3381SOL    HW211043   0.481   2.605   1.456
 3382SOL     OW11044   6.793   2.987   0.970
 3382SOL    HW111045   6.792   2.951   0.877
 3382SOL    HW211046   6.720   3.055   0.980
 3383SOL     OW11047   3.538   4.998   0.395
 3383SOL    HW111048   3.513   4.903   0.376
 3383SOL    HW211049   3.456   5.055   0.392
 3384SOL     OW11050   2.795   4.604   0.928
 3384SOL    HW111051   2.718   4.604   0.992
 3384SOL    HW211052   2.768   4.648   0.843
 3385SOL     OW11053   6.869   2.790   3.540
 3385SOL    HW111054   6.936   2.862   3.520
 3385SOL    HW211055   6.915   2.702   3.549
 3386SOL     OW11056   6.632   4.621   7.006
 3386SOL    HW111057   6.552   4.659   6.960
 3386SOL    HW211058   6.665   4.686   0.050
 3387SOL     OW11059   5.122   1.055   3.158
 3387SOL    HW111060   5.089   1.057   3.253
 3387SOL    HW211061   5.045   1.038   3.097
 3388SOL     OW11062   5.137   4.420   1.417
 3388SOL    HW111063   5.101   4.363   1.491
 3388SOL    HW211064   5.226   4.385   1.388
 3389SOL     OW11065   6.023   6.133   0.177
 3389SOL    HW111066   6.110   6.115   0.131
 3389SOL    HW211067   6.040   6.173   0.267
 3390SOL     OW11068   3.890   6.249   5.897
 3390SOL    HW111069   3.937   6.167   5.930
 3390SOL    HW211070   3.898   6.255   5.797
 3391SOL     OW11071   5.735   2.305   3.535
 3391SOL    HW111072   5.708   2.270   3.446
 3391SOL    HW211073   5.677   2.382   3.560
 3392SOL     OW11074   3.559   0.032   4.964
 3392SOL    HW111075   3.632   0.057   5.028
 3392SOL    HW211076   3.501   0.111   4.947
 3393SOL     OW11077   5.493   6.826   0.530
 3393SOL    HW111078   5.455   6.859   0.444
 3393SOL    HW211079   5.496   6.901   0.596
 3394SOL     OW11080   3.607   5.099   1.454
 3394SOL    HW111081   3.625   5.122   1.358
 3394SOL    HW211082   3.595   5.183   1.507
 3395SOL     OW11083   4.149   1.138   3.280
 3395SOL    HW111084   4.163   1.071   3.207
 3395SOL    HW211085   4.072   1.197   3.258
 3396SOL     OW11086   5.212   0.438   3.915
 3396SOL    HW111087   5.310   0.417   3.904
 3396SOL    HW211088   5.183   0.415   4.008
 3397SOL     OW11089   2.410   6.076   6.354
 3397SOL    HW111090   2.438   6.150   6.416
 3397SOL    HW211091   2.365   6.116   6.274
 3398SOL     OW11092   0.760   1.285   5.274
 3398SOL    HW111093   0.705   1.203   5.259
 3398SOL    HW211094   0.845   1.279   5.222
 3399SOL     OW11095   6.854   5.188   2.979
 3399SOL    HW111096   6.787   5.232   2.918
 3399SOL    HW211097   6.851   5.089   2.966
 3400SOL     OW11098   5.772   3.527   6.035
 3400SOL    HW111099   5.748   3.598   6.101
 3400SOL    HW211100   5.753   3.560   5.942
 3401SOL     OW11101   6.770   3.695   6.234
 3401SOL    HW111102   6.753   3.787   6.269
 3401SOL    HW211103   6.767   3.696   6.134
 3402SOL     OW11104   6.585   5.235   0.951
 3402SOL    HW111105   6.528   5.216   1.031
 3402SOL    HW211106   6.678   5.259   0.981
 3403SOL     OW11107   4.832   5.973   6.221
 3403SOL    HW111108   4.911   6.021   6.183
 3403SOL    HW211109   4.804   5.900   6.160
 3404SOL     OW11110   5.356   3.136   6.053
 3404SOL    HW111111   5.439   3.188   6.074
 3404SOL    HW211112   5.302   3.186   5.985
 3405SOL     OW11113   5.601   5.591   5.826
 3405SOL    HW111114   5.665   5.549   5.762
 3405SOL    HW211115   5.599   5.539   5.911
 3406SOL     OW11116   2.047   3.383   2.482
 3406SOL    HW111117   2.087   3.427   2.563
 3406SOL    HW211118   2.071   3.436   2.401
 3407SOL     OW11119   2.826   4.273   1.163
 3407SOL    HW111120   2.902   4.241   1.105
 3407SOL    HW211121   2.863   4.319   1.243
 3408SOL     OW11122   4.347   2.354   3.998
 3408SOL    HW111123   4.364   2.419   4.073
 3408SOL    HW211124   4.432   2.304   3.978
 3409SOL     OW11125   4.003   6.600   0.263
 3409SOL    HW111126   3.945   6.675   0.231
 3409SOL    HW211127   4.099   6.623   0.249
 3410SOL     OW11128   5.778   6.698   3.224
 3410SOL    HW111129   5.748   6.716   3.130
 3410SOL    HW211130   5.814   6.605   3.230
 3411SOL     OW11131   6.911   2.612   0.887
 3411SOL    HW111132   6.871   2.668   0.815
 3411SOL    HW211133   6.885   2.650   0.976
 3412SOL     OW11134   5.287   3.464   1.566
 3412SOL    HW111135   5.304   3.422   1.477
 3412SOL    HW211136   5.328   3.408   1.638
 3413SOL     OW11137   6.112   1.550   6.768
 3413SOL    HW111138   6.114   1.563   6.669
 3413SOL    HW211139   6.040   1.483   6.791
 3414SOL     OW11140   3.721   2.744   6.596
 3414SOL    HW111141   3.723   2.708   6.688
 3414SOL    HW211142   3.626   2.764   6.570
 3415SOL     OW11143   1.885   2.399   4.323
 3415SOL    HW111144   1.898   2.326   4.390
 3415SOL    HW211145   1.843   2.361   4.240
 3416SOL     OW11146   6.239   0.075   0.259
 3416SOL    HW111147   6.211   0.170   0.275
 3416SOL    HW211148   6.288   0.042   0.339
 3417SOL     OW11149   0.219   0.018   2.756
 3417SOL    HW111150   0.177   6.968   2.705
 3417SOL    HW211151   0.308   7.014   2.791
 3418SOL     OW11152   3.913   5.796   3.203
 3418SOL    HW111153   3.891   5.700   3.185
 3418SOL    HW211154   3.992   5.802   3.264
 3419SOL     OW11155   3.712   5.459   5.543
 3419SOL    HW111156   3.716   5.537   5.606
 3419SOL    HW211157   3.651   5.481   5.467
 3420SOL     OW11158   4.953   3.024   4.121
 3420SOL    HW111159   4.868   2.995   4.076
 3420SOL    HW211160   4.933   3.097   4.186
 3421SOL     OW11161   5.642   1.487   3.278
 3421SOL    HW111162   5.723   1.545   3.269
 3421SOL    HW211163   5.560   1.543   3.263
 3422SOL     OW11164   2.260   0.083   6.951
 3422SOL    HW111165   2.344   0.048   6.909
 3422SOL    HW211166   2.204   0.007   6.983
 3423SOL     OW11167   0.828   4.307   5.722
 3423SOL    HW111168   0.890   4.232   5.745
 3423SOL    HW211169   0.879   4.393   5.720
 3424SOL     OW11170   4.178   6.752   1.630
 3424SOL    HW111171   4.244   6.822   1.603
 3424SOL    HW211172   4.164   6.688   1.554
 3425SOL     OW11173   4.932   4.915   1.831
 3425SOL    HW111174   4.907   4.821   1.807
 3425SOL    HW211175   4.917   4.975   1.752
 3426SOL     OW11176   4.941   3.627   0.602
 3426SOL    HW111177   4.851   3.588   0.582
 3426SOL    HW211178   4.950   3.639   0.701
 3427SOL     OW11179   1.304   2.487   1.592
 3427SOL    HW111180   1.345   2.576   1.570
 3427SOL    HW211181   1.204   2.496   1.591
 3428SOL     OW11182   5.120   5.072   5.745
 3428SOL    HW111183   5.131   4.981   5.703
 3428SOL    HW211184   5.140   5.066   5.843
 3429SOL     OW11185   0.506   1.074   1.166
 3429SOL    HW111186   0.550   1.016   1.234
 3429SOL    HW211187   0.512   1.031   1.076
 3430SOL     OW11188   2.050   4.353   5.807
 3430SOL    HW111189   2.088   4.308   5.727
 3430SOL    HW211190   2.124   4.384   5.867
 3431SOL     OW11191   1.963   6.515   2.137
 3431SOL    HW111192   2.011   6.433   2.105
 3431SOL    HW211193   1.866   6.508   2.114
 3432SOL     OW11194   2.228   4.664   6.803
 3432SOL    HW111195   2.256   4.676   6.708
 3432SOL    HW211196   2.227   4.753   6.849
 3433SOL     OW11197   2.334   0.608   6.466
 3433SOL    HW111198   2.297   0.575   6.380
 3433SOL    HW211199   2.263   0.605   6.537
 3434SOL     OW11200   2.721   2.105   2.010
 3434SOL    HW111201   2.631   2.127   2.048
 3434SOL    HW211202   2.786   2.177   2.033
 3435SOL     OW11203   2.390   0.658   0.372
 3435SOL    HW111204   2.340   0.720   0.433
 3435SOL    HW211205   2.486   0.684   0.368
 3436SOL     OW11206   4.244   5.356   6.654
 3436SOL    HW111207   4.235   5.434   6.716
 3436SOL    HW211208   4.209   5.274   6.699
 3437SOL     OW11209   1.616   6.517   5.662
 3437SOL    HW111210   1.613   6.591   5.729
 3437SOL    HW211211   1.654   6.551   5.576
 3438SOL     OW11212   0.270   3.554   1.480
 3438SOL    HW111213   0.324   3.636   1.463
 3438SOL    HW211214   0.291   3.519   1.572
 3439SOL     OW11215   2.472   6.329   2.938
 3439SOL    HW111216   2.460   6.303   3.033
 3439SOL    HW211217   2.570   6.335   2.917
 3440SOL     OW11218   3.679   2.942   4.684
 3440SOL    HW111219   3.593   2.937   4.635
 3440SOL    HW211220   3.662   2.963   4.780
 3441SOL     OW11221   6.901   6.136   6.406
 3441SOL    HW111222   6.964   6.060   6.424
 3441SOL    HW211223   6.841   6.111   6.330
 3442SOL     OW11224   3.370   3.942   1.366
 3442SOL    HW111225   3.393   4.040   1.372
 3442SOL    HW211226   3.306   3.919   1.439
 3443SOL     OW11227   3.363   5.900   2.515
 3443SOL    HW111228   3.276   5.942   2.540
 3443SOL    HW211229   3.428   5.971   2.488
 3444SOL     OW11230   5.170   4.594   1.166
 3444SOL    HW111231   5.248   4.543   1.129
 3444SOL    HW211232   5.124   4.539   1.235
 3445SOL     OW11233   6.680   4.708   4.020
 3445SOL    HW111234   6.623   4.684   4.099
 3445SOL    HW211235   6.765   4.655   4.022
 3446SOL     OW11236   5.877   0.473   1.787
 3446SOL    HW111237   5.972   0.473   1.819
 3446SOL    HW211238   5.873   0.505   1.693
 3447SOL     OW11239   5.263   0.279   0.152
 3447SOL    HW111240   5.315   0.349   0.202
 3447SOL    HW211241   5.187   0.322   0.104
 3448SOL     OW11242   1.731   6.562   5.365
 3448SOL    HW111243   1.814   6.521   5.404
 3448SOL    HW211244   1.738   6.662   5.369
 3449SOL     OW11245   6.034   5.324   5.076
 3449SOL    HW111246   6.054   5.420   5.092
 3449SOL    HW211247   5.937   5.306   5.091
 3450SOL     OW11248   1.480   0.271   6.470
 3450SOL    HW111249   1.456   0.238   6.378
 3450SOL    HW211250   1.508   0.193   6.526
 3451SOL     OW11251   1.367   6.017   0.568
 3451SOL    HW111252   1.332   6.070   0.646
 3451SOL    HW211253   1.422   5.941   0.602
 3452SOL     OW11254   5.715   0.617   5.991
 3452SOL    HW111255   5.695   0.597   5.895
 3452SOL    HW211256   5.631   0.619   6.044
 3453SOL     OW11257   5.136   6.564   6.038
 3453SOL    HW111258   5.198   6.622   5.985
 3453SOL    HW211259   5.163   6.468   6.028
 3454SOL     OW11260   1.654   2.621   2.996
 3454SOL    HW111261   1.707   2.621   2.912
 3454SOL    HW211262   1.580   2.688   2.990
 3455SOL     OW11263   1.859   2.308   4.729
 3455SOL    HW111264   1.805   2.320   4.812
 3455SOL    HW211265   1.951   2.343   4.743
 3456SOL     OW11266   4.271   4.594   2.111
 3456SOL    HW111267   4.354   4.625   2.066
 3456SOL    HW211268   4.271   4.495   2.117
 3457SOL     OW11269   3.771   5.018   4.772
 3457SOL    HW111270   3.713   5.088   4.730
 3457SOL    HW211271   3.824   4.972   4.700
 3458SOL     OW11272   4.371   2.249   2.506
 3458SOL    HW111273   4.420   2.164   2.522
 3458SOL    HW211274   4.279   2.229   2.471
 3459SOL     OW11275   4.521   1.497   3.269
 3459SOL    HW111276   4.601   1.437   3.269
 3459SOL    HW211277   4.540   1.579   3.323
 3460SOL     OW11278   3.477   1.828   5.775
 3460SOL    HW111279   3.426   1.798   5.856
 3460SOL    HW211280   3.524   1.749   5.734
 3461SOL     OW11281   5.406   4.967   0.125
 3461SOL    HW111282   5.401   5.065   0.145
 3461SOL    HW211283   5.402   4.953   0.026
 3462SOL     OW11284   1.961   3.453   6.256
 3462SOL    HW111285   1.944   3.550   6.241
 3462SOL    HW211286   2.020   3.441   6.336
 3463SOL     OW11287   0.181   3.907   0.798
 3463SOL    HW111288   0.232   3.856   0.729
 3463SOL    HW211289   0.167   4.001   0.767
 3464SOL     OW11290   0.274   4.650   6.411
 3464SOL    HW111291   0.371   4.623   6.412
 3464SOL    HW211292   0.261   4.727   6.349
 3465SOL     OW11293   2.397   1.650   1.388
 3465SOL    HW111294   2.445   1.733   1.418
 3465SOL    HW211295   2.306   1.648   1.428
 3466SOL     OW11296   6.969   5.224   6.196
 3466SOL    HW111297   6.950   5.145   6.254
 3466SOL    HW211298   6.945   5.203   6.101
 3467SOL     OW11299   2.412   1.890   6.736
 3467SOL    HW111300   2.479   1.816   6.738
 3467SOL    HW211301   2.357   1.883   6.653
 3468SOL     OW11302   2.828   5.765   3.488
 3468SOL    HW111303   2.845   5.739   3.583
 3468SOL    HW211304   2.892   5.717   3.428
 3469SOL     OW11305   6.898   2.500   3.992
 3469SOL    HW111306   6.818   2.444   3.974
 3469SOL    HW211307   6.910   2.512   4.090
 3470SOL     OW11308   0.608   5.174   1.223
 3470SOL    HW111309   0.509   5.168   1.222
 3470SOL    HW211310   0.645   5.113   1.152
 3471SOL     OW11311   4.079   5.416   5.141
 3471SOL    HW111312   4.073   5.515   5.146
 3471SOL    HW211313   4.001   5.375   5.190
 3472SOL     OW11314   2.242   1.114   4.279
 3472SOL    HW111315   2.266   1.029   4.327
 3472SOL    HW211316   2.142   1.120   4.271
 3473SOL     OW11317   5.393   1.738   5.780
 3473SOL    HW111318   5.320   1.680   5.815
 3473SOL    HW211319   5.481   1.704   5.812
 3474SOL     OW11320   3.055   4.910   2.195
 3474SOL    HW111321   2.986   4.837   2.198
 3474SOL    HW211322   3.143   4.874   2.226
 3475SOL     OW11323   1.014   6.681   3.920
 3475SOL    HW111324   0.960   6.707   3.841
 3475SOL    HW211325   1.010   6.582   3.933
 3476SOL     OW11326   4.166   0.661   4.907
 3476SOL    HW111327   4.228   0.719   4.854
 3476SOL    HW211328   4.219   0.591   4.955
 3477SOL     OW11329   3.539   5.387   1.097
 3477SOL    HW111330   3.560   5.484   1.086
 3477SOL    HW211331   3.506   5.370   1.190
 3478SOL     OW11332   2.705   6.263   5.731
 3478SOL    HW111333   2.802   6.253   5.710
 3478SOL    HW211334   2.694   6.298   5.824
 3479SOL     OW11335   0.829   0.363   2.801
 3479SOL    HW111336   0.784   0.274   2.806
 3479SOL    HW211337   0.761   0.435   2.791
 3480SOL     OW11338   6.835   1.425   4.110
 3480SOL    HW111339   6.736   1.409   4.107
 3480SOL    HW211340   6.856   1.489   4.184
 3481SOL     OW11341   3.509   6.897   6.425
 3481SOL    HW111342   3.554   6.985   6.406
 3481SOL    HW211343   3.431   6.912   6.484
 3482SOL     OW11344   6.022   1.582   1.467
 3482SOL    HW111345   6.088   1.594   1.541
 3482SOL    HW211346   6.052   1.633   1.387
 3483SOL     OW11347   2.550   0.159   1.145
 3483SOL    HW111348   2.508   0.098   1.212
 3483SOL    HW211349   2.478   0.199   1.088
 3484SOL     OW11350   3.112   3.095   3.456
 3484SOL    HW111351   3.066   3.094   3.367
 3484SOL    HW211352   3.172   3.016   3.463
 3485SOL     OW11353   1.972   1.574   5.023
 3485SOL    HW111354   2.004   1.597   4.931
 3485SOL    HW211355   1.961   1.658   5.077
 3486SOL     OW11356   3.823   1.457   1.549
 3486SOL    HW111357   3.794   1.524   1.617
 3486SOL    HW211358   3.909   1.416   1.576
 3487SOL     OW11359   5.780   1.631   6.487
 3487SOL    HW111360   5.744   1.543   6.520
 3487SOL    HW211361   5.741   1.705   6.541
 3488SOL     OW11362   6.852   3.155   4.285
 3488SOL    HW111363   6.939   3.193   4.254
 3488SOL    HW211364   6.833   3.070   4.236
 3489SOL     OW11365   3.183   6.660   0.492
 3489SOL    HW111366   3.136   6.715   0.562
 3489SOL    HW211367   3.188   6.565   0.523
 3490SOL     OW11368   5.100   4.160   7.009
 3490SOL    HW111369   5.113   4.064   6.986
 3490SOL    HW211370   5.072   4.169   0.080
 3491SOL     OW11371   6.857   3.048   5.528
 3491SOL    HW111372   6.789   2.976   5.522
 3491SOL    HW211373   6.843   3.099   5.613
 3492SOL     OW11374   0.762   5.814   6.833
 3492SOL    HW111375   0.812   5.815   6.746
 3492SOL    HW211376   0.804   5.880   6.896
 3493SOL     OW11377   5.895   4.886   0.936
 3493SOL    HW111378   5.914   4.970   0.987
 3493SOL    HW211379   5.941   4.890   0.847
 3494SOL     OW11380   4.092   0.157   0.935
 3494SOL    HW111381   4.019   0.091   0.921
 3494SOL    HW211382   4.167   0.114   0.985
 3495SOL     OW11383   4.037   5.099   2.292
 3495SOL    HW111384   4.048   5.049   2.206
 3495SOL    HW211385   4.120   5.151   2.312
 3496SOL     OW11386   1.460   3.101   1.413
 3496SOL    HW111387   1.560   3.091   1.416
 3496SOL    HW211388   1.423   3.091   1.506
 3497SOL     OW11389   4.587   0.739   3.251
 3497SOL    HW111390   4.656   0.726   3.322
 3497SOL    HW211391   4.497   0.744   3.293
 3498SOL     OW11392   2.767   1.537   1.093
 3498SOL    HW111393   2.849   1.561   1.042
 3498SOL    HW211394   2.760   1.595   1.174
 3499SOL     OW11395   6.807   3.982   4.191
 3499SOL    HW111396   6.748   4.023   4.260
 3499SOL    HW211397   6.761   3.984   4.102
 3500SOL     OW11398   6.705   3.962   6.244
 3500SOL    HW111399   6.709   4.033   6.174
 3500SOL    HW211400   6.610   3.937   6.260
 3501SOL     OW11401   1.018   4.683   5.233
 3501SOL    HW111402   0.954   4.619   5.275
 3501SOL    HW211403   1.073   4.727   5.305
 3502SOL     OW11404   0.479   2.064   1.684
 3502SOL    HW111405   0.518   1.986   1.732
 3502SOL    HW211406   0.450   2.133   1.750
 3503SOL     OW11407   4.606   5.682   5.637
 3503SOL    HW111408   4.701   5.654   5.624
 3503SOL    HW211409   4.570   5.721   5.552
 3504SOL     OW11410   2.858   3.626   1.249
 3504SOL    HW111411   2.887   3.586   1.162
 3504SOL    HW211412   2.905   3.713   1.263
 3505SOL     OW11413   4.963   6.134   4.896
 3505SOL    HW111414   4.990   6.048   4.939
 3505SOL    HW211415   5.033   6.163   4.832
 3506SOL     OW11416   4.018   5.522   4.359
 3506SOL    HW111417   4.053   5.572   4.438
 3506SOL    HW211418   3.923   5.495   4.376
 3507SOL     OW11419   1.274   0.737   6.177
 3507SOL    HW111420   1.266   0.741   6.277
 3507SOL    HW211421   1.303   0.645   6.150
 3508SOL     OW11422   5.218   2.707   0.104
 3508SOL    HW111423   5.280   2.643   0.150
 3508SOL    HW211424   5.230   2.700   0.005
 3509SOL     OW11425   6.034   6.449   6.811
 3509SOL    HW111426   5.982   6.507   6.748
 3509SOL    HW211427   6.100   6.394   6.759
 3510SOL     OW11428   1.856   2.192   1.575
 3510SOL    HW111429   1.763   2.177   1.609
 3510SOL    HW211430   1.856   2.188   1.475
 3511SOL     OW11431   1.563   3.176   6.914
 3511SOL    HW111432   1.578   3.166   6.816
 3511SOL    HW211433   1.631   3.124   6.964
 3512SOL     OW11434   1.381   3.526   0.290
 3512SOL    HW111435   1.401   3.620   0.262
 3512SOL    HW211436   1.286   3.518   0.318
 3513SOL     OW11437   6.616   4.104   0.774
 3513SOL    HW111438   6.536   4.106   0.714
 3513SOL    HW211439   6.689   4.053   0.729
 3514SOL     OW11440   0.526   6.678   1.095
 3514SOL    HW111441   0.558   6.742   1.165
 3514SOL    HW211442   0.603   6.625   1.061
 3515SOL     OW11443   3.103   5.998   2.574
 3515SOL    HW111444   3.101   6.086   2.622
 3515SOL    HW211445   3.053   5.930   2.627
 3516SOL     OW11446   3.772   0.761   0.792
 3516SOL    HW111447   3.843   0.824   0.822
 3516SOL    HW211448   3.722   0.726   0.872
 3517SOL     OW11449   0.725   1.604   0.385
 3517SOL    HW111450   0.806   1.547   0.394
 3517SOL    HW211451   0.727   1.675   0.455
 3518SOL     OW11452   4.989   3.827   6.553
 3518SOL    HW111453   4.948   3.917   6.540
 3518SOL    HW211454   4.932   3.758   6.507
 3519SOL     OW11455   0.834   6.601   6.779
 3519SOL    HW111456   0.890   6.582   6.860
 3519SOL    HW211457   0.742   6.563   6.793
 3520SOL     OW11458   3.878   4.498   1.193
 3520SOL    HW111459   3.825   4.466   1.114
 3520SOL    HW211460   3.971   4.461   1.188
 3521SOL     OW11461   5.379   2.773   1.683
 3521SOL    HW111462   5.330   2.762   1.769
 3521SOL    HW211463   5.382   2.685   1.635
 3522SOL     OW11464   2.524   4.999   1.769
 3522SOL    HW111465   2.493   4.904   1.780
 3522SOL    HW211466   2.606   5.014   1.824
 3523SOL     OW11467   3.020   4.658   5.312
 3523SOL    HW111468   2.933   4.618   5.284
 3523SOL    HW211469   3.052   4.722   5.242
 3524SOL     OW11470   2.613   0.357   0.886
 3524SOL    HW111471   2.548   0.338   0.960
 3524SOL    HW211472   2.701   0.381   0.925
 3525SOL     OW11473   0.102   2.671   1.650
 3525SOL    HW111474   0.041   2.706   1.720
 3525SOL    HW211475   0.123   2.743   1.584
 3526SOL     OW11476   0.744   0.799   2.782
 3526SOL    HW111477   0.840   0.776   2.799
 3526SOL    HW211478   0.715   0.871   2.845
 3527SOL     OW11479   5.309   2.971   6.363
 3527SOL    HW111480   5.356   2.968   6.275
 3527SOL    HW211481   5.246   3.049   6.364
 3528SOL     OW11482   0.770   5.884   3.243
 3528SOL    HW111483   0.828   5.809   3.274
 3528SOL    HW211484   0.681   5.878   3.287
 3529SOL     OW11485   4.684   0.081   5.527
 3529SOL    HW111486   4.633   0.028   5.459
 3529SOL    HW211487   4.622   0.139   5.578
 3530SOL     OW11488   2.624   5.676   2.529
 3530SOL    HW111489   2.550   5.737   2.498
 3530SOL    HW211490   2.602   5.642   2.620
 3531SOL     OW11491   5.345   4.221   0.271
 3531SOL    HW111492   5.366   4.146   0.209
 3531SOL    HW211493   5.376   4.307   0.231
 3532SOL     OW11494   2.427   0.505   6.779
 3532SOL    HW111495   2.494   0.522   6.851
 3532SOL    HW211496   2.474   0.498   6.691
 3533SOL     OW11497   0.929   1.720   3.208
 3533SOL    HW111498   0.871   1.760   3.279
 3533SOL    HW211499   0.990   1.790   3.171
 3534SOL     OW11500   5.612   1.463   5.165
 3534SOL    HW111501   5.639   1.558   5.179
 3534SOL    HW211502   5.629   1.438   5.069
 3535SOL     OW11503   6.463   5.401   6.327
 3535SOL    HW111504   6.480   5.304   6.344
 3535SOL    HW211505   6.510   5.456   6.395
 3536SOL     OW11506   2.094   3.336   2.973
 3536SOL    HW111507   2.137   3.292   2.894
 3536SOL    HW211508   2.119   3.433   2.976
 3537SOL     OW11509   2.210   5.610   0.541
 3537SOL    HW111510   2.288   5.668   0.521
 3537SOL    HW211511   2.235   5.543   0.611
 3538SOL     OW11512   3.225   6.748   3.184
 3538SOL    HW111513   3.319   6.713   3.190
 3538SOL    HW211514   3.223   6.843   3.218
 3539SOL     OW11515   5.535   4.515   6.070
 3539SOL    HW111516   5.566   4.471   5.987
 3539SOL    HW211517   5.612   4.562   6.114
 3540SOL     OW11518   2.094   3.116   6.837
 3540SOL    HW111519   2.177   3.067   6.865
 3540SOL    HW211520   2.017   3.052   6.835
 3541SOL     OW11521   2.647   3.256   0.888
 3541SOL    HW111522   2.680   3.186   0.950
 3541SOL    HW211523   2.716   3.328   0.879
 3542SOL     OW11524   5.677   2.921   0.004
 3542SOL    HW111525   5.704   2.838   0.054
 3542SOL    HW211526   5.736   2.930   6.948
 3543SOL     OW11527   1.748   3.636   3.263
 3543SOL    HW111528   1.842   3.613   3.287
 3543SOL    HW211529   1.690   3.555   3.273
 3544SOL     OW11530   3.212   4.022   6.669
 3544SOL    HW111531   3.157   4.035   6.587
 3544SOL    HW211532   3.164   3.962   6.733
 3545SOL     OW11533   3.502   5.573   0.630
 3545SOL    HW111534   3.430   5.589   0.562
 3545SOL    HW211535   3.478   5.621   0.715
 3546SOL     OW11536   6.407   3.706   2.994
 3546SOL    HW111537   6.420   3.772   2.921
 3546SOL    HW211538   6.487   3.707   3.054
 3547SOL     OW11539   0.113   3.422   5.358
 3547SOL    HW111540   0.160   3.436   5.270
 3547SOL    HW211541   0.026   3.376   5.342
 3548SOL     OW11542   4.673   1.926   6.131
 3548SOL    HW111543   4.769   1.921   6.102
 3548SOL    HW211544   4.616   1.878   6.066
 3549SOL     OW11545   2.011   5.981   6.428
 3549SOL    HW111546   2.094   5.926   6.433
 3549SOL    HW211547   1.933   5.925   6.456
 3550SOL     OW11548   4.904   2.051   4.793
 3550SOL    HW111549   4.864   2.139   4.767
 3550SOL    HW211550   4.833   1.992   4.831
 3551SOL     OW11551   3.725   2.364   5.757
 3551SOL    HW111552   3.648   2.314   5.719
 3551SOL    HW211553   3.727   2.456   5.719
 3552SOL     OW11554   6.655   5.703   1.529
 3552SOL    HW111555   6.580   5.640   1.550
 3552SOL    HW211556   6.736   5.650   1.502
 3553SOL     OW11557   3.630   6.281   5.960
 3553SOL    HW111558   3.727   6.272   5.937
 3553SOL    HW211559   3.607   6.377   5.970
 3554SOL     OW11560   4.083   3.562   1.018
 3554SOL    HW111561   4.137   3.611   0.950
 3554SOL    HW211562   4.051   3.475   0.978
 3555SOL     OW11563   1.651   2.207   4.164
 3555SOL    HW111564   1.591   2.268   4.113
 3555SOL    HW211565   1.746   2.223   4.137
 3556SOL     OW11566   3.731   1.117   5.216
 3556SOL    HW111567   3.703   1.027   5.184
 3556SOL    HW211568   3.694   1.187   5.156
 3557SOL     OW11569   6.955   0.490   2.928
 3557SOL    HW111570   6.930   0.394   2.922
 3557SOL    HW211571   6.874   0.547   2.914
 3558SOL     OW11572   3.007   6.150   0.255
 3558SOL    HW111573   2.941   6.120   0.324
 3558SOL    HW211574   2.960   6.208   0.188
 3559SOL     OW11575   3.643   6.553   4.600
 3559SOL    HW111576   3.613   6.636   4.647
 3559SOL    HW211577   3.582   6.478   4.624
 3560SOL     OW11578   1.953   5.383   4.718
 3560SOL    HW111579   1.893   5.343   4.788
 3560SOL    HW211580   2.048   5.358   4.737
 3561SOL     OW11581   5.320   4.520   5.008
 3561SOL    HW111582   5.413   4.482   5.004
 3561SOL    HW211583   5.281   4.520   4.916
 3562SOL     OW11584   2.392   1.581   4.487
 3562SOL    HW111585   2.464   1.561   4.553
 3562SOL    HW211586   2.339   1.497   4.469
 3563SOL     OW11587   5.935   2.167   5.904
 3563SOL    HW111588   5.962   2.200   5.814
 3563SOL    HW211589   6.014   2.167   5.965
 3564SOL     OW11590   0.599   4.558   2.877
 3564SOL    HW111591   0.642   4.469   2.893
 3564SOL    HW211592   0.503   4.555   2.904
 3565SOL     OW11593   3.173   4.930   3.310
 3565SOL    HW111594   3.139   4.843   3.274
 3565SOL    HW211595   3.176   4.997   3.236
 3566SOL     OW11596   6.611   1.331   5.058
 3566SOL    HW111597   6.665   1.255   5.092
 3566SOL    HW211598   6.636   1.350   4.963
 3567SOL     OW11599   0.614   3.785   6.667
 3567SOL    HW111600   0.639   3.871   6.621
 3567SOL    HW211601   0.519   3.790   6.697
 3568SOL     OW11602   6.782   4.146   5.477
 3568SOL    HW111603   6.762   4.056   5.439
 3568SOL    HW211604   6.868   4.142   5.529
 3569SOL     OW11605   2.591   1.730   5.942
 3569SOL    HW111606   2.651   1.668   5.892
 3569SOL    HW211607   2.626   1.744   6.034
 3570SOL     OW11608   5.586   0.247   5.019
 3570SOL    HW111609   5.553   0.217   5.108
 3570SOL    HW211610   5.630   0.171   4.972
 3571SOL     OW11611   6.637   5.731   6.865
 3571SOL    HW111612   6.714   5.750   6.805
 3571SOL    HW211613   6.609   5.635   6.855
 3572SOL     OW11614   5.665   3.836   3.878
 3572SOL    HW111615   5.685   3.746   3.840
 3572SOL    HW211616   5.616   3.891   3.810
 3573SOL     OW11617   0.767   4.196   4.355
 3573SOL    HW111618   0.752   4.136   4.277
 3573SOL    HW211619   0.831   4.268   4.330
 3574SOL     OW11620   0.715   4.827   0.226
 3574SOL    HW111621   0.664   4.871   0.152
 3574SOL    HW211622   0.659   4.754   0.266
 3575SOL     OW11623   6.315   5.109   3.184
 3575SOL    HW111624   6.391   5.122   3.120
 3575SOL    HW211625   6.229   5.108   3.133
 3576SOL     OW11626   1.628   1.373   5.923
 3576SOL    HW111627   1.715   1.340   5.885
 3576SOL    HW211628   1.554   1.354   5.858
 3577SOL     OW11629   1.305   2.582   6.584
 3577SOL    HW111630   1.271   2.619   6.671
 3577SOL    HW211631   1.282   2.485   6.578
 3578SOL     OW11632   4.079   3.590   6.866
 3578SOL    HW111633   4.083   3.636   6.777
 3578SOL    HW211634   4.092   3.658   6.938
 3579SOL     OW11635   6.810   4.005   4.964
 3579SOL    HW111636   6.807   4.090   4.912
 3579SOL    HW211637   6.792   3.928   4.902
 3580SOL     OW11638   5.619   2.345   1.401
 3580SOL    HW111639   5.663   2.259   1.378
 3580SOL    HW211640   5.689   2.413   1.425
 3581SOL     OW11641   6.651   0.261   3.339
 3581SOL    HW111642   6.580   0.325   3.368
 3581SOL    HW211643   6.740   0.292   3.371
 3582SOL     OW11644   0.731   1.924   5.837
 3582SOL    HW111645   0.714   1.878   5.924
 3582SOL    HW211646   0.815   1.978   5.844
 3583SOL     OW11647   1.050   4.204   0.039
 3583SOL    HW111648   1.118   4.234   0.105
 3583SOL    HW211649   1.011   4.116   0.068
 3584SOL     OW11650   6.103   6.457   6.379
 3584SOL    HW111651   6.182   6.518   6.373
 3584SOL    HW211652   6.057   6.454   6.290
 3585SOL     OW11653   3.578   4.914   4.996
 3585SOL    HW111654   3.623   4.958   4.917
 3585SOL    HW211655   3.566   4.982   5.068
 3586SOL     OW11656   6.128   2.876   5.423
 3586SOL    HW111657   6.080   2.912   5.503
 3586SOL    HW211658   6.062   2.838   5.358
 3587SOL     OW11659   2.859   6.399   1.220
 3587SOL    HW111660   2.883   6.320   1.164
 3587SOL    HW211661   2.932   6.467   1.216
 3588SOL     OW11662   1.375   2.293   5.464
 3588SOL    HW111663   1.306   2.233   5.506
 3588SOL    HW211664   1.332   2.348   5.393
 3589SOL     OW11665   3.118   0.670   4.446
 3589SOL    HW111666   3.021   0.684   4.466
 3589SOL    HW211667   3.160   0.757   4.423
 3590SOL     OW11668   0.542   4.526   6.655
 3590SOL    HW111669   0.632   4.495   6.687
 3590SOL    HW211670   0.547   4.546   6.557
 3591SOL     OW11671   5.594   3.137   6.529
 3591SOL    HW111672   5.508   3.102   6.565
 3591SOL    HW211673   5.656   3.158   6.604
 3592SOL     OW11674   5.245   3.059   3.316
 3592SOL    HW111675   5.181   3.047   3.240
 3592SOL    HW211676   5.311   2.983   3.316
 3593SOL     OW11677   2.822   6.367   4.141
 3593SOL    HW111678   2.768   6.418   4.074
 3593SOL    HW211679   2.891   6.312   4.093
 3594SOL     OW11680   3.566   0.922   3.081
 3594SOL    HW111681   3.478   0.948   3.122
 3594SOL    HW211682   3.550   0.847   3.016
 3595SOL     OW11683   2.541   6.301   5.179
 3595SOL    HW111684   2.513   6.329   5.087
 3595SOL    HW211685   2.543   6.201   5.185
 3596SOL     OW11686   6.256   1.295   2.826
 3596SOL    HW111687   6.228   1.368   2.763
 3596SOL    HW211688   6.258   1.208   2.777
 3597SOL     OW11689   3.231   6.161   4.607
 3597SOL    HW111690   3.277   6.073   4.593
 3597SOL    HW211691   3.218   6.207   4.519
 3598SOL     OW11692   0.797   0.638   5.437
 3598SOL    HW111693   0.813   0.634   5.535
 3598SOL    HW211694   0.804   0.546   5.398
 3599SOL     OW11695   1.203   2.131   5.630
 3599SOL    HW111696   1.198   2.032   5.647
 3599SOL    HW211697   1.191   2.180   5.716
 3600SOL     OW11698   0.074   3.218   0.396
 3600SOL    HW111699   7.012   3.232   0.443
 3600SOL    HW211700   0.078   3.125   0.359
 3601SOL     OW11701   6.893   4.363   0.641
 3601SOL    HW111702   6.985   4.369   0.680
 3601SOL    HW211703   6.899   4.346   0.543
 3602SOL     OW11704   2.335   1.018   0.742
 3602SOL    HW111705   2.410   1.064   0.790
 3602SOL    HW211706   2.248   1.058   0.770
 3603SOL     OW11707   3.745   5.639   4.211
 3603SOL    HW111708   3.804   5.571   4.167
 3603SOL    HW211709   3.726   5.713   4.148
 3604SOL     OW11710   6.935   3.472   3.113
 3604SOL    HW111711   6.903   3.437   3.024
 3604SOL    HW211712   6.954   3.570   3.105
 3605SOL     OW11713   6.193   4.471   5.767
 3605SOL    HW111714   6.185   4.419   5.852
 3605SOL    HW211715   6.287   4.465   5.733
 3606SOL     OW11716   0.046   4.951   6.113
 3606SOL    HW111717   0.115   4.879   6.122
 3606SOL    HW211718   7.001   4.921   6.049
 3607SOL     OW11719   5.155   0.219   0.556
 3607SOL    HW111720   5.191   0.190   0.645
 3607SOL    HW211721   5.176   0.150   0.487
 3608SOL     OW11722   6.455   1.774   1.949
 3608SOL    HW111723   6.495   1.773   2.040
 3608SOL    HW211724   6.362   1.811   1.954
 3609SOL     OW11725   6.609   0.997   4.455
 3609SOL    HW111726   6.671   1.045   4.517
 3609SOL    HW211727   6.526   0.970   4.505
 3610SOL     OW11728   0.753   0.857   5.087
 3610SOL    HW111729   0.820   0.921   5.126
 3610SOL    HW211730   0.686   0.907   5.033
 3611SOL     OW11731   3.811   4.867   5.185
 3611SOL    HW111732   3.857   4.933   5.126
 3611SOL    HW211733   3.744   4.816   5.132
 3612SOL     OW11734   0.476   6.714   6.085
 3612SOL    HW111735   0.382   6.682   6.073
 3612SOL    HW211736   0.525   6.706   5.999
 3613SOL     OW11737   5.096   4.844   0.732
 3613SOL    HW111738   5.006   4.848   0.774
 3613SOL    HW211739   5.163   4.811   0.799
 3614SOL     OW11740   3.692   3.521   3.829
 3614SOL    HW111741   3.715   3.424   3.835
 3614SOL    HW211742   3.618   3.534   3.763
 3615SOL     OW11743   5.934   6.254   6.197
 3615SOL    HW111744   5.960   6.345   6.165
 3615SOL    HW211745   5.870   6.213   6.132
 3616SOL     OW11746   6.367   2.100   6.613
 3616SOL    HW111747   6.267   2.102   6.605
 3616SOL    HW211748   6.401   2.015   6.572
 3617SOL     OW11749   5.619   1.640   6.256
 3617SOL    HW111750   5.523   1.617   6.274
 3617SOL    HW211751   5.673   1.626   6.339
 3618SOL     OW11752   1.410   1.968   5.459
 3618SOL    HW111753   1.464   2.051   5.475
 3618SOL    HW211754   1.434   1.898   5.526
 3619SOL     OW11755   6.497   1.882   3.657
 3619SOL    HW111756   6.593   1.870   3.682
 3619SOL    HW211757   6.445   1.910   3.737
 3620SOL     OW11758   5.980   6.166   5.904
 3620SOL    HW111759   5.889   6.136   5.933
 3620SOL    HW211760   5.974   6.257   5.862
 3621SOL     OW11761   2.865   2.213   6.690
 3621SOL    HW111762   2.911   2.299   6.670
 3621SOL    HW211763   2.834   2.171   6.605
 3622SOL     OW11764   1.891   1.875   3.323
 3622SOL    HW111765   1.884   1.974   3.314
 3622SOL    HW211766   1.976   1.852   3.372
 3623SOL     OW11767   5.911   5.375   3.871
 3623SOL    HW111768   5.973   5.380   3.950
 3623SOL    HW211769   5.955   5.419   3.792
 3624SOL     OW11770   2.191   5.742   2.338
 3624SOL    HW111771   2.134   5.670   2.375
 3624SOL    HW211772   2.155   5.771   2.249
 3625SOL     OW11773   6.239   3.264   6.613
 3625SOL    HW111774   6.262   3.167   6.621
 3625SOL    HW211775   6.142   3.273   6.589
 3626SOL     OW11776   2.160   3.993   5.703
 3626SOL    HW111777   2.188   3.929   5.631
 3626SOL    HW211778   2.155   4.085   5.666
 3627SOL     OW11779   4.124   3.569   3.396
 3627SOL    HW111780   4.137   3.526   3.486
 3627SOL    HW211781   4.081   3.658   3.407
 3628SOL     OW11782   2.000   6.703   1.919
 3628SOL    HW111783   1.996   6.675   2.014
 3628SOL    HW211784   2.091   6.739   1.898
 3629SOL     OW11785   6.328   2.332   5.052
 3629SOL    HW111786   6.254   2.356   5.115
 3629SOL    HW211787   6.331   2.398   4.978
 3630SOL     OW11788   5.800   2.752   3.693
 3630SOL    HW111789   5.889   2.731   3.733
 3630SOL    HW211790   5.810   2.770   3.595
 3631SOL     OW11791   1.911   0.343   3.854
 3631SOL    HW111792   1.825   0.329   3.902
 3631SOL    HW211793   1.893   0.355   3.756
 3632SOL     OW11794   5.294   0.479   0.565
 3632SOL    HW111795   5.380   0.503   0.609
 3632SOL    HW211796   5.294   0.381   0.543
 3633SOL     OW11797   2.950   2.385   6.060
 3633SOL    HW111798   2.943   2.377   5.961
 3633SOL    HW211799   2.954   2.293   6.101
 3634SOL     OW11800   0.684   5.754   5.293
 3634SOL    HW111801   0.745   5.683   5.330
 3634SOL    HW211802   0.683   5.748   5.193
 3635SOL     OW11803   3.253   0.449   5.395
 3635SOL    HW111804   3.337   0.497   5.373
 3635SOL    HW211805   3.230   0.465   5.491
 3636SOL     OW11806   1.044   6.240   6.054
 3636SOL    HW111807   1.084   6.275   5.969
 3636SOL    HW211808   0.944   6.240   6.046
 3637SOL     OW11809   6.360   2.106   1.214
 3637SOL    HW111810   6.270   2.081   1.249
 3637SOL    HW211811   6.349   2.163   1.132
 3638SOL     OW11812   6.767   5.055   4.233
 3638SOL    HW111813   6.814   5.061   4.321
 3638SOL    HW211814   6.825   5.006   4.168
 3639SOL     OW11815   4.224   3.716   0.846
 3639SOL    HW111816   4.156   3.757   0.785
 3639SOL    HW211817   4.302   3.684   0.793
 3640SOL     OW11818   3.429   6.792   6.822
 3640SOL    HW111819   3.499   6.862   6.839
 3640SOL    HW211820   3.354   6.833   6.769
 3641SOL     OW11821   4.460   2.470   4.835
 3641SOL    HW111822   4.387   2.478   4.902
 3641SOL    HW211823   4.424   2.427   4.752
 3642SOL     OW11824   5.170   1.630   5.929
 3642SOL    HW111825   5.154   1.729   5.935
 3642SOL    HW211826   5.088   1.581   5.957
 3643SOL     OW11827   2.623   5.948   4.903
 3643SOL    HW111828   2.620   6.002   4.819
 3643SOL    HW211829   2.687   5.872   4.892
 3644SOL     OW11830   0.158   1.466   1.724
 3644SOL    HW111831   0.224   1.525   1.769
 3644SOL    HW211832   0.066   1.505   1.734
 3645SOL     OW11833   5.507   0.914   3.913
 3645SOL    HW111834   5.461   0.825   3.906
 3645SOL    HW211835   5.466   0.966   3.988
 3646SOL     OW11836   6.957   4.989   6.362
 3646SOL    HW111837   6.996   4.947   6.444
 3646SOL    HW211838   7.017   4.973   6.284
 3647SOL     OW11839   2.188   4.062   0.578
 3647SOL    HW111840   2.202   4.002   0.498
 3647SOL    HW211841   2.271   4.060   0.635
 3648SOL     OW11842   3.277   5.840   2.863
 3648SOL    HW111843   3.296   5.827   2.960
 3648SOL    HW211844   3.322   5.768   2.809
 3649SOL     OW11845   4.407   2.923   1.346
 3649SOL    HW111846   4.410   2.826   1.320
 3649SOL    HW211847   4.411   2.932   1.445
 3650SOL     OW11848   6.852   5.465   0.809
 3650SOL    HW111849   6.823   5.554   0.774
 3650SOL    HW211850   6.890   5.410   0.734
 3651SOL     OW11851   0.407   5.488   2.850
 3651SOL    HW111852   0.356   5.405   2.827
 3651SOL    HW211853   0.394   5.509   2.947
 3652SOL     OW11854   5.363   5.910   3.419
 3652SOL    HW111855   5.376   5.998   3.372
 3652SOL    HW211856   5.269   5.879   3.406
 3653SOL     OW11857   6.687   1.108   4.059
 3653SOL    HW111858   6.647   1.060   4.137
 3653SOL    HW211859   6.786   1.115   4.071
 3654SOL     OW11860   2.049   6.932   0.023
 3654SOL    HW111861   2.029   6.954   0.119
 3654SOL    HW211862   1.978   6.871   7.013
 3655SOL     OW11863   1.300   6.777   3.976
 3655SOL    HW111864   1.356   6.695   3.960
 3655SOL    HW211865   1.203   6.753   3.967
 3656SOL     OW11866   1.259   2.941   1.893
 3656SOL    HW111867   1.240   2.973   1.985
 3656SOL    HW211868   1.178   2.895   1.856
 3657SOL     OW11869   4.912   5.728   5.857
 3657SOL    HW111870   4.970   5.794   5.809
 3657SOL    HW211871   4.816   5.746   5.835
 3658SOL     OW11872   1.073   5.737   3.711
 3658SOL    HW111873   1.164   5.701   3.727
 3658SOL    HW211874   1.055   5.814   3.773
 3659SOL     OW11875   3.211   3.304   5.764
 3659SOL    HW111876   3.257   3.377   5.814
 3659SOL    HW211877   3.227   3.217   5.810
 3660SOL     OW11878   5.082   6.475   2.030
 3660SOL    HW111879   5.141   6.491   2.109
 3660SOL    HW211880   5.041   6.384   2.038
 3661SOL     OW11881   4.643   1.946   6.405
 3661SOL    HW111882   4.658   2.028   6.460
 3661SOL    HW211883   4.654   1.968   6.308
 3662SOL     OW11884   3.778   1.009   3.861
 3662SOL    HW111885   3.701   1.063   3.894
 3662SOL    HW211886   3.768   0.914   3.890
 3663SOL     OW11887   1.649   1.168   0.267
 3663SOL    HW111888   1.623   1.209   0.180
 3663SOL    HW211889   1.574   1.179   0.332
 3664SOL     OW11890   4.836   2.695   1.302
 3664SOL    HW111891   4.929   2.731   1.316
 3664SOL    HW211892   4.842   2.602   1.265
 3665SOL     OW11893   0.530   5.786   5.566
 3665SOL    HW111894   0.618   5.739   5.557
 3665SOL    HW211895   0.542   5.870   5.620
 3666SOL     OW11896   1.889   4.114   2.918
 3666SOL    HW111897   1.862   4.163   2.835
 3666SOL    HW211898   1.865   4.017   2.908
 3667SOL     OW11899   6.461   0.484   0.713
 3667SOL    HW111900   6.508   0.400   0.739
 3667SOL    HW211901   6.480   0.555   0.781
 3668SOL     OW11902   1.538   0.536   1.785
 3668SOL    HW111903   1.468   0.601   1.756
 3668SOL    HW211904   1.494   0.463   1.839
 3669SOL     OW11905   6.377   1.117   4.918
 3669SOL    HW111906   6.398   1.107   5.015
 3669SOL    HW211907   6.297   1.177   4.907
 3670SOL     OW11908   2.154   4.551   0.296
 3670SOL    HW111909   2.098   4.623   0.337
 3670SOL    HW211910   2.248   4.583   0.286
 3671SOL     OW11911   6.213   0.514   3.992
 3671SOL    HW111912   6.159   0.597   4.011
 3671SOL    HW211913   6.191   0.444   4.060
 3672SOL     OW11914   5.612   1.693   1.336
 3672SOL    HW111915   5.590   1.617   1.276
 3672SOL    HW211916   5.656   1.658   1.419
 3673SOL     OW11917   3.527   0.720   5.953
 3673SOL    HW111918   3.614   0.735   5.906
 3673SOL    HW211919   3.459   0.785   5.919
 3674SOL     OW11920   0.416   0.507   5.541
 3674SOL    HW111921   0.379   0.585   5.490
 3674SOL    HW211922   0.385   0.422   5.500
 3675SOL     OW11923   1.955   3.455   5.233
 3675SOL    HW111924   2.052   3.474   5.249
 3675SOL    HW211925   1.940   3.436   5.136
 3676SOL     OW11926   4.496   5.038   4.553
 3676SOL    HW111927   4.569   4.992   4.503
 3676SOL    HW211928   4.450   4.972   4.614
 3677SOL     OW11929   1.039   6.282   3.076
 3677SOL    HW111930   1.025   6.183   3.071
 3677SOL    HW211931   0.969   6.328   3.022
 3678SOL     OW11932   1.094   3.137   3.699
 3678SOL    HW111933   1.140   3.053   3.671
 3678SOL    HW211934   1.130   3.167   3.788
 3679SOL     OW11935   1.281   0.781   3.177
 3679SOL    HW111936   1.284   0.795   3.276
 3679SOL    HW211937   1.216   0.845   3.136
 3680SOL     OW11938   5.832   2.864   3.121
 3680SOL    HW111939   5.755   2.809   3.088
 3680SOL    HW211940   5.916   2.831   3.080
 3681SOL     OW11941   0.659   0.495   5.056
 3681SOL    HW111942   0.712   0.561   5.004
 3681SOL    HW211943   0.660   0.407   5.009
 3682SOL     OW11944   6.369   2.459   6.213
 3682SOL    HW111945   6.346   2.403   6.292
 3682SOL    HW211946   6.448   2.517   6.234
 3683SOL     OW11947   0.160   0.312   4.479
 3683SOL    HW111948   0.151   0.213   4.465
 3683SOL    HW211949   0.077   0.347   4.520
 3684SOL     OW11950   2.037   3.670   0.314
 3684SOL    HW111951   1.939   3.663   0.335
 3684SOL    HW211952   2.081   3.583   0.337
 3685SOL     OW11953   6.324   6.180   6.318
 3685SOL    HW111954   6.359   6.096   6.277
 3685SOL    HW211955   6.226   6.168   6.338
 3686SOL     OW11956   6.182   5.318   3.556
 3686SOL    HW111957   6.107   5.262   3.520
 3686SOL    HW211958   6.264   5.302   3.500
 3687SOL     OW11959   3.143   5.895   5.549
 3687SOL    HW111960   3.189   5.982   5.568
 3687SOL    HW211961   3.075   5.877   5.621
 3688SOL     OW11962   1.646   3.749   6.849
 3688SOL    HW111963   1.572   3.701   6.802
 3688SOL    HW211964   1.733   3.703   6.831
 3689SOL     OW11965   1.526   0.712   6.016
 3689SOL    HW111966   1.496   0.702   5.921
 3689SOL    HW211967   1.488   0.638   6.071
 3690SOL     OW11968   3.906   6.866   6.470
 3690SOL    HW111969   3.956   6.898   6.390
 3690SOL    HW211970   3.827   6.813   6.441
 3691SOL     OW11971   2.338   2.586   0.162
 3691SOL    HW111972   2.363   2.600   0.258
 3691SOL    HW211973   2.238   2.581   0.154
 3692SOL     OW11974   1.190   6.283   5.075
 3692SOL    HW111975   1.276   6.262   5.123
 3692SOL    HW211976   1.123   6.316   5.142
 3693SOL     OW11977   2.105   2.754   2.383
 3693SOL    HW111978   2.030   2.766   2.448
 3693SOL    HW211979   2.183   2.809   2.411
 3694SOL     OW11980   1.065   5.862   2.473
 3694SOL    HW111981   1.157   5.854   2.511
 3694SOL    HW211982   1.031   5.771   2.450
 3695SOL     OW11983   7.015   2.730   2.592
 3695SOL    HW111984   0.071   2.760   2.542
 3695SOL    HW211985   6.951   2.687   2.529
 3696SOL     OW11986   3.704   5.304   5.196
 3696SOL    HW111987   3.667   5.329   5.106
 3696SOL    HW211988   3.754   5.382   5.234
 3697SOL     OW11989   0.412   5.819   3.750
 3697SOL    HW111990   0.442   5.812   3.845
 3697SOL    HW211991   0.377   5.731   3.719
 3698SOL     OW11992   3.202   6.346   4.878
 3698SOL    HW111993   3.186   6.442   4.901
 3698SOL    HW211994   3.134   6.315   4.812
 3699SOL     OW11995   6.610   3.741   2.773
 3699SOL    HW111996   6.626   3.787   2.686
 3699SOL    HW211997   6.601   3.642   2.757
 3700SOL     OW11998   6.884   0.872   4.548
 3700SOL    HW111999   6.885   0.958   4.496
 3700SOL    HW212000   6.863   0.797   4.486
 3701SOL     OW12001   0.723   0.920   3.465
 3701SOL    HW112002   0.684   0.834   3.431
 3701SOL    HW212003   0.818   0.927   3.437
 3702SOL     OW12004   4.282   0.312   2.183
 3702SOL    HW112005   4.189   0.315   2.146
 3702SOL    HW212006   4.326   0.228   2.155
 3703SOL     OW12007   4.544   2.821   6.402
 3703SOL    HW112008   4.603   2.741   6.416
 3703SOL    HW212009   4.575   2.872   6.322
 3704SOL     OW12010   3.046   0.187   1.072
 3704SOL    HW112011   3.099   0.102   1.076
 3704SOL    HW212012   2.981   0.189   1.148
 3705SOL     OW12013   4.869   6.345   3.833
 3705SOL    HW112014   4.897   6.287   3.910
 3705SOL    HW212015   4.946   6.403   3.805
 3706SOL     OW12016   0.630   3.613   4.678
 3706SOL    HW112017   0.600   3.528   4.635
 3706SOL    HW212018   0.613   3.689   4.616
 3707SOL     OW12019   5.754   3.939   5.064
 3707SOL    HW112020   5.726   3.923   4.970
 3707SOL    HW212021   5.849   3.971   5.065
 3708SOL     OW12022   6.342   0.839   6.546
 3708SOL    HW112023   6.395   0.755   6.537
 3708SOL    HW212024   6.259   0.833   6.491
 3709SOL     OW12025   3.805   0.767   0.342
 3709SOL    HW112026   3.747   0.825   0.285
 3709SOL    HW212027   3.844   0.820   0.416
 3710SOL     OW12028   6.430   5.858   0.604
 3710SOL    HW112029   6.473   5.940   0.568
 3710SOL    HW212030   6.368   5.820   0.534
 3711SOL     OW12031   6.790   6.227   1.864
 3711SOL    HW112032   6.852   6.174   1.806
 3711SOL    HW212033   6.833   6.243   1.953
 3712SOL     OW12034   6.720   6.191   6.929
 3712SOL    HW112035   6.750   6.120   6.994
 3712SOL    HW212036   6.775   6.185   6.846
 3713SOL     OW12037   1.247   6.404   4.327
 3713SOL    HW112038   1.202   6.317   4.347
 3713SOL    HW212039   1.190   6.479   4.360
 3714SOL     OW12040   4.465   5.839   5.168
 3714SOL    HW112041   4.497   5.750   5.199
 3714SOL    HW212042   4.511   5.865   5.083
 3715SOL     OW12043   6.086   4.067   4.022
 3715SOL    HW112044   6.084   4.044   3.925
 3715SOL    HW212045   6.012   4.019   4.069
 3716SOL     OW12046   6.439   0.075   5.213
 3716SOL    HW112047   6.495   0.060   5.295
 3716SOL    HW212048   6.498   0.104   5.138
 3717SOL     OW12049   6.004   5.090   6.531
 3717SOL    HW112050   6.033   5.153   6.603
 3717SOL    HW212051   6.044   5.117   6.444
 3718SOL     OW12052   2.505   6.931   5.246
 3718SOL    HW112053   2.532   0.003   5.246
 3718SOL    HW212054   2.466   6.908   5.156
 3719SOL     OW12055   5.077   4.457   0.523
 3719SOL    HW112056   5.111   4.366   0.545
 3719SOL    HW212057   5.066   4.510   0.607
 3720SOL     OW12058   5.426   2.197   5.949
 3720SOL    HW112059   5.384   2.203   6.040
 3720SOL    HW212060   5.398   2.275   5.894
 3721SOL     OW12061   4.799   4.488   0.437
 3721SOL    HW112062   4.779   4.395   0.468
 3721SOL    HW212063   4.898   4.501   0.432
 3722SOL     OW12064   6.883   0.020   2.617
 3722SOL    HW112065   6.788   0.042   2.641
 3722SOL    HW212066   6.924   6.989   2.689
 3723SOL     OW12067   6.313   6.402   1.861
 3723SOL    HW112068   6.366   6.348   1.926
 3723SOL    HW212069   6.294   6.346   1.780
 3724SOL     OW12070   2.337   5.035   6.604
 3724SOL    HW112071   2.352   5.061   6.699
 3724SOL    HW212072   2.406   5.078   6.546
 3725SOL     OW12073   5.142   6.272   7.024
 3725SOL    HW112074   5.179   6.264   6.931
 3725SOL    HW212075   5.214   6.256   0.066
 3726SOL     OW12076   6.377   4.945   0.707
 3726SOL    HW112077   6.343   4.857   0.741
 3726SOL    HW212078   6.303   5.011   0.704
 3727SOL     OW12079   6.862   3.077   5.855
 3727SOL    HW112080   6.840   3.175   5.866
 3727SOL    HW212081   6.777   3.025   5.849
 3728SOL     OW12082   1.893   3.864   0.002
 3728SOL    HW112083   1.954   3.790   0.032
 3728SOL    HW212084   1.911   3.885   6.931
 3729SOL     OW12085   1.449   2.473   3.624
 3729SOL    HW112086   1.444   2.536   3.701
 3729SOL    HW212087   1.534   2.487   3.574
 3730SOL     OW12088   2.997   5.709   6.689
 3730SOL    HW112089   3.091   5.700   6.723
 3730SOL    HW212090   2.944   5.628   6.715
 3731SOL     OW12091   4.777   0.023   0.577
 3731SOL    HW112092   4.791   7.004   0.488
 3731SOL    HW212093   4.804   6.985   0.650
 3732SOL     OW12094   1.630   2.853   0.159
 3732SOL    HW112095   1.577   2.834   0.242
 3732SOL    HW212096   1.581   2.820   0.079
 3733SOL     OW12097   1.471   3.774   1.149
 3733SOL    HW112098   1.426   3.862   1.138
 3733SOL    HW212099   1.520   3.773   1.236
 3734SOL     OW12100   4.083   1.707   1.917
 3734SOL    HW112101   4.046   1.792   1.955
 3734SOL    HW212102   4.093   1.639   1.989
 3735SOL     OW12103   1.526   1.779   3.573
 3735SOL    HW112104   1.607   1.739   3.531
 3735SOL    HW212105   1.486   1.847   3.512
 3736SOL     OW12106   0.074   3.201   0.942
 3736SOL    HW112107   0.059   3.134   1.015
 3736SOL    HW212108   0.125   3.158   0.867
 3737SOL     OW12109   5.424   0.116   3.006
 3737SOL    HW112110   5.468   0.100   3.094
 3737SOL    HW212111   5.445   0.208   2.974
 3738SOL     OW12112   6.547   6.220   3.107
 3738SOL    HW112113   6.543   6.210   3.207
 3738SOL    HW212114   6.574   6.314   3.085
 3739SOL     OW12115   2.102   4.684   1.937
 3739SOL    HW112116   2.187   4.730   1.964
 3739SOL    HW212117   2.050   4.658   2.019
 3740SOL     OW12118   4.863   0.342   0.341
 3740SOL    HW112119   4.892   0.246   0.332
 3740SOL    HW212120   4.777   0.346   0.392
 3741SOL     OW12121   4.540   3.158   1.652
 3741SOL    HW112122   4.457   3.105   1.635
 3741SOL    HW212123   4.578   3.133   1.741
 3742SOL     OW12124   2.450   1.829   5.724
 3742SOL    HW112125   2.490   1.779   5.800
 3742SOL    HW212126   2.362   1.868   5.752
 3743SOL     OW12127   5.558   4.359   1.073
 3743SOL    HW112128   5.461   4.378   1.089
 3743SOL    HW212129   5.577   4.364   0.975
 3744SOL     OW12130   0.497   5.754   2.882
 3744SOL    HW112131   0.423   5.800   2.931
 3744SOL    HW212132   0.459   5.682   2.824
 3745SOL     OW12133   3.348   5.581   1.976
 3745SOL    HW112134   3.311   5.666   2.014
 3745SOL    HW212135   3.429   5.554   2.028
 3746SOL     OW12136   4.439   1.471   2.490
 3746SOL    HW112137   4.530   1.495   2.455
 3746SOL    HW212138   4.378   1.453   2.413
 3747SOL     OW12139   3.381   0.441   6.029
 3747SOL    HW112140   3.326   0.409   5.951
 3747SOL    HW212141   3.440   0.516   5.999
 3748SOL     OW12142   5.145   0.804   1.669
 3748SOL    HW112143   5.231   0.757   1.692
 3748SOL    HW212144   5.069   0.740   1.680
 3749SOL     OW12145   1.433   6.539   3.921
 3749SOL    HW112146   1.524   6.552   3.960
 3749SOL    HW212147   1.438   6.543   3.822
 3750SOL     OW12148   2.163   4.273   0.246
 3750SOL    HW112149   2.165   4.371   0.266
 3750SOL    HW212150   2.229   4.226   0.305
 3751SOL     OW12151   6.477   3.851   2.125
 3751SOL    HW112152   6.487   3.871   2.027
 3751SOL    HW212153   6.437   3.930   2.171
 3752SOL     OW12154   5.109   0.588   5.250
 3752SOL    HW112155   5.122   0.686   5.238
 3752SOL    HW212156   5.078   0.548   5.163
 3753SOL     OW12157   6.230   0.209   4.918
 3753SOL    HW112158   6.185   0.164   4.840
 3753SOL    HW212159   6.312   0.256   4.886
 3754SOL     OW12160   2.360   0.658   1.982
 3754SOL    HW112161   2.289   0.716   2.022
 3754SOL    HW212162   2.449   0.686   2.017
 3755SOL     OW12163   3.595   5.689   5.025
 3755SOL    HW112164   3.590   5.782   4.989
 3755SOL    HW212165   3.512   5.639   5.001
 3756SOL     OW12166   3.174   5.426   6.650
 3756SOL    HW112167   3.098   5.415   6.713
 3756SOL    HW212168   3.260   5.431   6.701
 3757SOL     OW12169   6.512   5.254   1.749
 3757SOL    HW112170   6.583   5.222   1.812
 3757SOL    HW212171   6.468   5.175   1.707
 3758SOL     OW12172   1.677   1.089   5.034
 3758SOL    HW112173   1.771   1.062   5.052
 3758SOL    HW212174   1.673   1.188   5.018
 3759SOL     OW12175   4.165   0.800   5.345
 3759SOL    HW112176   4.232   0.740   5.301
 3759SOL    HW212177   4.162   0.888   5.298
 3760SOL     OW12178   6.885   0.326   3.436
 3760SOL    HW112179   6.938   0.361   3.514
 3760SOL    HW212180   6.934   0.346   3.351
 3761SOL     OW12181   6.887   1.229   4.735
 3761SOL    HW112182   6.795   1.207   4.767
 3761SOL    HW212183   6.897   1.202   4.639
 3762SOL     OW12184   1.342   4.154   2.295
 3762SOL    HW112185   1.318   4.250   2.308
 3762SOL    HW212186   1.354   4.110   2.385
 3763SOL     OW12187   6.291   4.023   0.353
 3763SOL    HW112188   6.201   4.065   0.358
 3763SOL    HW212189   6.308   3.991   0.260
 3764SOL     OW12190   1.817   0.635   2.917
 3764SOL    HW112191   1.890   0.568   2.920
 3764SOL    HW212192   1.730   0.588   2.900
 3765SOL     OW12193   5.908   1.871   1.425
 3765SOL    HW112194   5.900   1.856   1.524
 3765SOL    HW212195   5.954   1.793   1.383
 3766SOL     OW12196   1.866   2.179   4.477
 3766SOL    HW112197   1.953   2.135   4.452
 3766SOL    HW212198   1.867   2.202   4.574
 3767SOL     OW12199   3.378   4.311   6.367
 3767SOL    HW112200   3.394   4.236   6.431
 3767SOL    HW212201   3.290   4.297   6.321
 3768SOL     OW12202   1.011   0.910   4.619
 3768SOL    HW112203   0.961   0.825   4.603
 3768SOL    HW212204   1.104   0.890   4.649
 3769SOL     OW12205   5.828   5.693   5.416
 3769SOL    HW112206   5.779   5.780   5.424
 3769SOL    HW212207   5.818   5.658   5.322
 3770SOL     OW12208   1.246   1.131   6.580
 3770SOL    HW112209   1.318   1.120   6.648
 3770SOL    HW212210   1.287   1.131   6.488
 3771SOL     OW12211   6.013   4.299   6.784
 3771SOL    HW112212   5.944   4.365   6.754
 3771SOL    HW212213   6.032   4.314   6.881
 3772SOL     OW12214   1.280   0.152   0.204
 3772SOL    HW112215   1.180   0.156   0.203
 3772SOL    HW212216   1.313   0.176   0.296
 3773SOL     OW12217   5.699   3.587   5.571
 3773SOL    HW112218   5.660   3.591   5.479
 3773SOL    HW212219   5.728   3.493   5.590
 3774SOL     OW12220   5.815   4.895   1.767
 3774SOL    HW112221   5.900   4.843   1.759
 3774SOL    HW212222   5.739   4.833   1.784
 3775SOL     OW12223   4.002   4.883   3.590
 3775SOL    HW112224   3.922   4.925   3.634
 3775SOL    HW212225   4.084   4.907   3.641
 3776SOL     OW12226   3.653   2.949   6.344
 3776SOL    HW112227   3.730   2.933   6.281
 3776SOL    HW212228   3.567   2.932   6.296
 3777SOL     OW12229   2.685   5.988   3.596
 3777SOL    HW112230   2.745   5.940   3.532
 3777SOL    HW212231   2.633   5.921   3.650
 3778SOL     OW12232   1.720   6.107   3.659
 3778SOL    HW112233   1.669   6.176   3.711
 3778SOL    HW212234   1.804   6.085   3.708
 3779SOL     OW12235   0.185   5.030   0.724
 3779SOL    HW112236   0.255   5.029   0.794
 3779SOL    HW212237   0.096   5.046   0.766
 3780SOL     OW12238   0.523   3.069   3.565
 3780SOL    HW112239   0.526   2.976   3.600
 3780SOL    HW212240   0.575   3.129   3.625
 3781SOL     OW12241   0.513   6.804   4.668
 3781SOL    HW112242   0.451   6.743   4.716
 3781SOL    HW212243   0.512   6.784   4.571
 3782SOL     OW12244   3.680   6.406   2.379
 3782SOL    HW112245   3.688   6.481   2.446
 3782SOL    HW212246   3.680   6.319   2.427
 3783SOL     OW12247   6.279   5.027   4.817
 3783SOL    HW112248   6.287   5.105   4.880
 3783SOL    HW212249   6.368   5.010   4.775
 3784SOL     OW12250   5.431   2.804   2.332
 3784SOL    HW112251   5.529   2.808   2.313
 3784SOL    HW212252   5.416   2.745   2.412
 3785SOL     OW12253   0.689   3.253   5.384
 3785SOL    HW112254   0.779   3.262   5.342
 3785SOL    HW212255   0.655   3.344   5.409
 3786SOL     OW12256   2.205   3.171   2.784
 3786SOL    HW112257   2.286   3.203   2.735
 3786SOL    HW212258   2.213   3.073   2.802
 3787SOL     OW12259   5.210   0.354   2.682
 3787SOL    HW112260   5.224   0.327   2.587
 3787SOL    HW212261   5.172   0.278   2.734
 3788SOL     OW12262   6.041   4.719   5.268
 3788SOL    HW112263   6.094   4.802   5.288
 3788SOL    HW212264   5.975   4.703   5.341
 3789SOL     OW12265   6.938   3.683   2.355
 3789SOL    HW112266   6.956   3.775   2.388
 3789SOL    HW212267   6.850   3.680   2.309
 3790SOL     OW12268   1.523   5.747   6.630
 3790SOL    HW112269   1.484   5.837   6.650
 3790SOL    HW212270   1.561   5.747   6.538
 3791SOL     OW12271   5.174   1.740   6.884
 3791SOL    HW112272   5.165   1.839   6.873
 3791SOL    HW212273   5.138   1.713   6.973
 3792SOL     OW12274   1.434   1.588   4.427
 3792SOL    HW112275   1.479   1.638   4.354
 3792SOL    HW212276   1.383   1.653   4.484
 3793SOL     OW12277   5.850   6.519   1.470
 3793SOL    HW112278   5.939   6.545   1.433
 3793SOL    HW212279   5.778   6.555   1.411
 3794SOL     OW12280   2.174   3.087   1.660
 3794SOL    HW112281   2.173   3.156   1.733
 3794SOL    HW212282   2.172   3.131   1.571
 3795SOL     OW12283   2.921   5.561   1.061
 3795SOL    HW112284   2.879   5.475   1.089
 3795SOL    HW212285   2.911   5.628   1.134
 3796SOL     OW12286   4.091   2.246   0.919
 3796SOL    HW112287   4.116   2.215   1.011
 3796SOL    HW212288   4.089   2.167   0.857
 3797SOL     OW12289   0.993   4.020   3.398
 3797SOL    HW112290   1.038   4.109   3.394
 3797SOL    HW212291   0.947   4.011   3.487
 3798SOL     OW12292   3.406   6.201   2.604
 3798SOL    HW112293   3.337   6.189   2.676
 3798SOL    HW212294   3.496   6.179   2.641
 3799SOL     OW12295   0.096   2.666   3.880
 3799SOL    HW112296   0.167   2.687   3.948
 3799SOL    HW212297   0.019   2.622   3.925
 3800SOL     OW12298   5.274   2.255   3.771
 3800SOL    HW112299   5.193   2.313   3.778
 3800SOL    HW212300   5.304   2.227   3.862
 3801SOL     OW12301   5.358   0.105   1.615
 3801SOL    HW112302   5.417   0.060   1.548
 3801SOL    HW212303   5.289   0.040   1.649
 3802SOL     OW12304   6.902   1.714   2.493
 3802SOL    HW112305   6.857   1.703   2.405
 3802SOL    HW212306   6.853   1.783   2.547
 3803SOL     OW12307   4.002   3.857   3.691
 3803SOL    HW112308   4.075   3.828   3.629
 3803SOL    HW212309   3.981   3.782   3.755
 3804SOL     OW12310   3.362   1.880   4.011
 3804SOL    HW112311   3.276   1.830   3.997
 3804SOL    HW212312   3.346   1.956   4.074
 3805SOL     OW12313   1.927   2.637   1.513
 3805SOL    HW112314   1.914   2.733   1.536
 3805SOL    HW212315   2.023   2.613   1.522
 3806SOL     OW12316   3.754   3.590   6.269
 3806SOL    HW112317   3.830   3.568   6.208
 3806SOL    HW212318   3.776   3.672   6.322
 3807SOL     OW12319   1.935   4.311   4.003
 3807SOL    HW112320   2.019   4.259   3.992
 3807SOL    HW212321   1.882   4.308   3.919
 3808SOL     OW12322   4.809   0.590   6.117
 3808SOL    HW112323   4.837   0.631   6.204
 3808SOL    HW212324   4.812   0.660   6.045
 3809SOL     OW12325   5.804   2.148   2.182
 3809SOL    HW112326   5.813   2.187   2.274
 3809SOL    HW212327   5.759   2.214   2.122
 3810SOL     OW12328   6.919   2.425   3.294
 3810SOL    HW112329   6.872   2.497   3.242
 3810SOL    HW212330   6.933   2.345   3.235
 3811SOL     OW12331   0.027   6.107   4.132
 3811SOL    HW112332   0.009   6.202   4.107
 3811SOL    HW212333   0.102   6.071   4.076
 3812SOL     OW12334   3.360   5.014   6.089
 3812SOL    HW112335   3.360   5.070   6.006
 3812SOL    HW212336   3.337   4.920   6.065
 3813SOL     OW12337   5.845   3.973   1.096
 3813SOL    HW112338   5.858   4.072   1.086
 3813SOL    HW212339   5.800   3.937   1.015
 3814SOL     OW12340   0.269   0.176   3.809
 3814SOL    HW112341   0.304   0.110   3.743
 3814SOL    HW212342   0.299   0.151   3.901
 3815SOL     OW12343   4.273   2.465   1.002
 3815SOL    HW112344   4.255   2.457   1.100
 3815SOL    HW212345   4.220   2.395   0.953
 3816SOL     OW12346   0.993   5.768   5.516
 3816SOL    HW112347   1.078   5.717   5.526
 3816SOL    HW212348   0.916   5.710   5.542
 3817SOL     OW12349   4.982   3.106   1.703
 3817SOL    HW112350   4.948   3.095   1.610
 3817SOL    HW212351   4.994   3.016   1.745
 3818SOL     OW12352   0.050   0.548   0.793
 3818SOL    HW112353   0.063   0.486   0.715
 3818SOL    HW212354   6.993   0.522   0.843
 3819SOL     OW12355   6.281   4.305   2.401
 3819SOL    HW112356   6.213   4.355   2.348
 3819SOL    HW212357   6.242   4.278   2.489
 3820SOL     OW12358   6.166   6.485   3.552
 3820SOL    HW112359   6.145   6.393   3.584
 3820SOL    HW212360   6.084   6.543   3.561
 3821SOL     OW12361   0.896   1.345   1.017
 3821SOL    HW112362   0.894   1.358   0.917
 3821SOL    HW212363   0.805   1.316   1.048
 3822SOL     OW12364   2.259   6.998   6.158
 3822SOL    HW112365   2.267   0.060   6.207
 3822SOL    HW212366   2.164   6.981   6.136
 3823SOL     OW12367   4.187   4.062   6.281
 3823SOL    HW112368   4.172   4.141   6.340
 3823SOL    HW212369   4.113   3.996   6.294
 3824SOL     OW12370   0.273   2.364   1.075
 3824SOL    HW112371   0.218   2.399   1.151
 3824SOL    HW212372   0.311   2.274   1.100
 3825SOL     OW12373   0.781   3.944   0.926
 3825SOL    HW112374   0.690   3.976   0.951
 3825SOL    HW212375   0.773   3.862   0.869
 3826SOL     OW12376   7.005   3.309   1.775
 3826SOL    HW112377   6.915   3.304   1.817
 3826SOL    HW212378   0.021   3.218   1.770
 3827SOL     OW12379   0.526   0.345   1.419
 3827SOL    HW112380   0.622   0.359   1.397
 3827SOL    HW212381   0.499   0.253   1.393
 3828SOL     OW12382   3.936   3.777   4.426
 3828SOL    HW112383   3.980   3.770   4.337
 3828SOL    HW212384   3.996   3.737   4.496
 3829SOL     OW12385   0.435   5.104   2.127
 3829SOL    HW112386   0.480   5.178   2.177
 3829SOL    HW212387   0.431   5.128   2.030
 3830SOL     OW12388   0.629   1.382   5.919
 3830SOL    HW112389   0.699   1.314   5.898
 3830SOL    HW212390   0.560   1.341   5.980
 3831SOL     OW12391   4.449   2.417   2.704
 3831SOL    HW112392   4.416   2.401   2.797
 3831SOL    HW212393   4.426   2.339   2.646
 3832SOL     OW12394   6.666   0.679   2.696
 3832SOL    HW112395   6.654   0.643   2.788
 3832SOL    HW212396   6.645   0.776   2.695
 3833SOL     OW12397   0.887   6.448   6.560
 3833SOL    HW112398   0.850   6.480   6.647
 3833SOL    HW212399   0.927   6.525   6.510
 3834SOL     OW12400   3.641   4.244   1.192
 3834SOL    HW112401   3.635   4.328   1.138
 3834SOL    HW212402   3.564   4.240   1.255
 3835SOL     OW12403   3.896   6.234   5.059
 3835SOL    HW112404   3.838   6.263   5.135
 3835SOL    HW212405   3.932   6.315   5.012
 3836SOL     OW12406   0.250   5.139   6.026
 3836SOL    HW112407   0.166   5.086   6.042
 3836SOL    HW212408   0.237   5.233   6.057
 3837SOL     OW12409   4.834   5.316   5.326
 3837SOL    HW112410   4.894   5.237   5.331
 3837SOL    HW212411   4.749   5.297   5.376
 3838SOL     OW12412   1.186   2.148   3.400
 3838SOL    HW112413   1.217   2.215   3.332
 3838SOL    HW212414   1.149   2.196   3.480
 3839SOL     OW12415   4.791   1.354   3.021
 3839SOL    HW112416   4.722   1.356   2.949
 3839SOL    HW212417   4.863   1.288   2.997
 3840SOL     OW12418   3.590   1.877   6.763
 3840SOL    HW112419   3.556   1.813   6.693
 3840SOL    HW212420   3.599   1.968   6.723
 3841SOL     OW12421   1.253   4.175   4.225
 3841SOL    HW112422   1.160   4.175   4.189
 3841SOL    HW212423   1.315   4.219   4.160
 3842SOL     OW12424   2.544   2.461   3.715
 3842SOL    HW112425   2.515   2.532   3.650
 3842SOL    HW212426   2.527   2.492   3.808
 3843SOL     OW12427   5.400   3.036   1.910
 3843SOL    HW112428   5.347   2.951   1.911
 3843SOL    HW212429   5.463   3.036   1.833
 3844SOL     OW12430   1.427   3.489   6.491
 3844SOL    HW112431   1.348   3.527   6.443
 3844SOL    HW212432   1.505   3.486   6.429
 3845SOL     OW12433   2.403   5.397   6.164
 3845SOL    HW112434   2.478   5.332   6.168
 3845SOL    HW212435   2.344   5.385   6.244
 3846SOL     OW12436   0.965   3.832   3.895
 3846SOL    HW112437   1.028   3.902   3.928
 3846SOL    HW212438   1.006   3.742   3.908
 3847SOL     OW12439   5.225   3.153   4.434
 3847SOL    HW112440   5.260   3.097   4.360
 3847SOL    HW212441   5.249   3.249   4.417
 3848SOL     OW12442   5.055   3.718   2.590
 3848SOL    HW112443   5.087   3.706   2.684
 3848SOL    HW212444   5.133   3.726   2.529
 3849SOL     OW12445   1.390   1.175   5.974
 3849SOL    HW112446   1.303   1.172   5.924
 3849SOL    HW212447   1.382   1.236   6.053
 3850SOL     OW12448   3.022   3.074   1.954
 3850SOL    HW112449   2.936   3.064   1.905
 3850SOL    HW212450   3.088   3.007   1.920
 3851SOL     OW12451   0.023   4.839   3.446
 3851SOL    HW112452   6.956   4.870   3.424
 3851SOL    HW212453   0.090   4.902   3.406
 3852SOL     OW12454   3.299   5.954   3.612
 3852SOL    HW112455   3.366   6.028   3.599
 3852SOL    HW212456   3.310   5.915   3.704
 3853SOL     OW12457   1.109   3.271   3.232
 3853SOL    HW112458   1.143   3.309   3.318
 3853SOL    HW212459   1.182   3.222   3.185
 3854SOL     OW12460   1.026   2.458   2.606
 3854SOL    HW112461   1.082   2.391   2.558
 3854SOL    HW212462   0.991   2.417   2.690
 3855SOL     OW12463   4.426   6.053   6.649
 3855SOL    HW112464   4.514   6.006   6.640
 3855SOL    HW212465   4.407   6.070   6.745
 3856SOL     OW12466   0.735   0.756   6.117
 3856SOL    HW112467   0.786   0.680   6.158
 3856SOL    HW212468   0.638   0.745   6.138
 3857SOL     OW12469   0.407   6.215   6.890
 3857SOL    HW112470   0.478   6.283   6.868
 3857SOL    HW212471   0.318   6.261   6.896
 3858SOL     OW12472   3.315   1.532   6.128
 3858SOL    HW112473   3.226   1.569   6.155
 3858SOL    HW212474   3.341   1.459   6.191
 3859SOL     OW12475   6.337   1.007   1.889
 3859SOL    HW112476   6.297   1.060   1.964
 3859SOL    HW212477   6.290   1.029   1.804
 3860SOL     OW12478   1.894   1.343   4.688
 3860SOL    HW112479   1.798   1.371   4.694
 3860SOL    HW212480   1.915   1.284   4.765
 3861SOL     OW12481   4.509   5.336   4.134
 3861SOL    HW112482   4.598   5.353   4.176
 3861SOL    HW212483   4.468   5.254   4.175
 3862SOL     OW12484   0.424   1.263   4.497
 3862SOL    HW112485   0.390   1.172   4.521
 3862SOL    HW212486   0.390   1.330   4.563
 3863SOL     OW12487   6.158   2.139   6.885
 3863SOL    HW112488   6.204   2.137   6.974
 3863SOL    HW212489   6.089   2.067   6.881
 3864SOL     OW12490   2.148   0.643   5.821
 3864SOL    HW112491   2.219   0.607   5.761
 3864SOL    HW212492   2.087   0.569   5.849
 3865SOL     OW12493   4.315   1.078   1.097
 3865SOL    HW112494   4.262   1.143   1.151
 3865SOL    HW212495   4.285   0.985   1.118
 3866SOL     OW12496   4.342   0.539   0.506
 3866SOL    HW112497   4.386   0.577   0.588
 3866SOL    HW212498   4.295   0.612   0.456
 3867SOL     OW12499   0.776   4.820   3.502
 3867SOL    HW112500   0.755   4.766   3.584
 3867SOL    HW212501   0.766   4.918   3.523
 3868SOL     OW12502   3.353   0.403   0.295
 3868SOL    HW112503   3.441   0.388   0.249
 3868SOL    HW212504   3.282   0.418   0.227
 3869SOL     OW12505   6.142   2.706   4.419
 3869SOL    HW112506   6.238   2.695   4.445
 3869SOL    HW212507   6.083   2.676   4.495
 3870SOL     OW12508   6.832   6.688   0.787
 3870SOL    HW112509   6.785   6.762   0.739
 3870SOL    HW212510   6.915   6.662   0.737
 3871SOL     OW12511   3.812   0.879   3.162
 3871SOL    HW112512   3.726   0.912   3.123
 3871SOL    HW212513   3.880   0.952   3.161
 3872SOL     OW12514   3.050   3.548   4.481
 3872SOL    HW112515   3.002   3.470   4.440
 3872SOL    HW212516   3.146   3.525   4.494
 3873SOL     OW12517   6.072   3.803   1.053
 3873SOL    HW112518   6.144   3.828   1.118
 3873SOL    HW212519   5.994   3.864   1.064
 3874SOL     OW12520   4.347   6.038   0.391
 3874SOL    HW112521   4.260   6.088   0.397
 3874SOL    HW212522   4.341   5.955   0.447
 3875SOL     OW12523   2.076   3.138   2.357
 3875SOL    HW112524   2.111   3.231   2.372
 3875SOL    HW212525   1.998   3.122   2.418
 3876SOL     OW12526   3.908   5.294   0.737
 3876SOL    HW112527   3.824   5.264   0.693
 3876SOL    HW212528   3.900   5.391   0.762
 3877SOL     OW12529   5.825   2.572   1.394
 3877SOL    HW112530   5.842   2.518   1.312
 3877SOL    HW212531   5.854   2.667   1.379
 3878SOL     OW12532   4.099   6.501   4.929
 3878SOL    HW112533   4.166   6.573   4.914
 3878SOL    HW212534   4.137   6.413   4.900
 3879SOL     OW12535   5.886   5.354   0.882
 3879SOL    HW112536   5.846   5.292   0.813
 3879SOL    HW212537   5.896   5.445   0.842
 3880SOL     OW12538   5.203   4.392   4.478
 3880SOL    HW112539   5.225   4.484   4.509
 3880SOL    HW212540   5.194   4.391   4.379
 3881SOL     OW12541   1.080   3.305   1.670
 3881SOL    HW112542   1.015   3.230   1.683
 3881SOL    HW212543   1.075   3.338   1.576
 3882SOL     OW12544   1.101   1.883   5.745
 3882SOL    HW112545   1.161   1.824   5.799
 3882SOL    HW212546   1.093   1.846   5.652
 3883SOL     OW12547   4.234   0.983   2.489
 3883SOL    HW112548   4.141   0.950   2.506
 3883SOL    HW212549   4.266   1.035   2.568
 3884SOL     OW12550   1.053   5.935   2.126
 3884SOL    HW112551   0.985   5.962   2.195
 3884SOL    HW212552   1.031   5.980   2.039
 3885SOL     OW12553   5.997   5.929   2.455
 3885SOL    HW112554   6.004   5.994   2.531
 3885SOL    HW212555   6.071   5.862   2.462
 3886SOL     OW12556   5.466   5.210   5.165
 3886SOL    HW112557   5.367   5.220   5.153
 3886SOL    HW212558   5.512   5.226   5.078
 3887SOL     OW12559   1.043   0.758   6.759
 3887SOL    HW112560   1.058   0.817   6.837
 3887SOL    HW212561   1.058   0.809   6.674
 3888SOL     OW12562   6.901   0.701   4.935
 3888SOL    HW112563   6.988   0.702   4.885
 3888SOL    HW212564   6.909   0.758   5.016
 3889SOL     OW12565   0.314   4.329   0.151
 3889SOL    HW112566   0.394   4.297   0.100
 3889SOL    HW212567   0.240   4.262   0.144
 3890SOL     OW12568   6.623   4.709   3.267
 3890SOL    HW112569   6.689   4.784   3.275
 3890SOL    HW212570   6.564   4.707   3.348
 3891SOL     OW12571   5.599   3.689   4.105
 3891SOL    HW112572   5.537   3.748   4.157
 3891SOL    HW212573   5.633   3.738   4.025
 3892SOL     OW12574   0.210   1.679   1.370
 3892SOL    HW112575   0.195   1.682   1.271
 3892SOL    HW212576   0.179   1.591   1.406
 3893SOL     OW12577   4.463   4.173   6.924
 3893SOL    HW112578   4.522   4.109   6.974
 3893SOL    HW212579   4.503   4.265   6.927
 3894SOL     OW12580   4.582   1.158   0.747
 3894SOL    HW112581   4.553   1.071   0.707
 3894SOL    HW212582   4.509   1.195   0.804
 3895SOL     OW12583   1.561   0.824   5.081
 3895SOL    HW112584   1.575   0.923   5.087
 3895SOL    HW212585   1.643   0.777   5.113
 3896SOL     OW12586   0.423   1.304   5.405
 3896SOL    HW112587   0.387   1.382   5.354
 3896SOL    HW212588   0.490   1.256   5.349
 3897SOL     OW12589   3.475   5.702   2.710
 3897SOL    HW112590   3.403   5.643   2.744
 3897SOL    HW212591   3.441   5.756   2.632
 3898SOL     OW12592   2.573   3.445   5.805
 3898SOL    HW112593   2.604   3.397   5.887
 3898SOL    HW212594   2.632   3.421   5.728
 3899SOL     OW12595   4.400   6.486   5.156
 3899SOL    HW112596   4.300   6.488   5.154
 3899SOL    HW212597   4.432   6.531   5.240
 3900SOL     OW12598   5.159   2.850   3.732
 3900SOL    HW112599   5.245   2.881   3.772
 3900SOL    HW212600   5.142   2.899   3.647
 3901SOL     OW12601   2.597   0.178   5.161
 3901SOL    HW112602   2.632   0.164   5.069
 3901SOL    HW212603   2.667   0.223   5.217
 3902SOL     OW12604   5.642   3.460   1.556
 3902SOL    HW112605   5.563   3.418   1.601
 3902SOL    HW212606   5.715   3.474   1.623
 3903SOL     OW12607   3.629   6.083   6.145
 3903SOL    HW112608   3.712   6.087   6.201
 3903SOL    HW212609   3.630   6.159   6.080
 3904SOL     OW12610   3.101   1.715   5.438
 3904SOL    HW112611   3.011   1.709   5.480
 3904SOL    HW212612   3.107   1.649   5.363
 3905SOL     OW12613   0.668   0.057   6.422
 3905SOL    HW112614   0.667   6.996   6.371
 3905SOL    HW212615   0.648   0.040   6.519
 3906SOL     OW12616   5.280   5.538   6.055
 3906SOL    HW112617   5.250   5.622   6.102
 3906SOL    HW212618   5.243   5.537   5.962
 3907SOL     OW12619   5.818   0.571   4.254
 3907SOL    HW112620   5.911   0.602   4.270
 3907SOL    HW212621   5.754   0.633   4.301
 3908SOL     OW12622   1.401   2.334   0.158
 3908SOL    HW112623   1.343   2.280   0.098
 3908SOL    HW212624   1.422   2.283   0.241
 3909SOL     OW12625   6.908   5.752   5.134
 3909SOL    HW112626   6.970   5.680   5.103
 3909SOL    HW212627   6.837   5.766   5.065
 3910SOL     OW12628   3.005   3.165   2.248
 3910SOL    HW112629   3.042   3.145   2.157
 3910SOL    HW212630   2.905   3.170   2.243
 3911SOL     OW12631   5.066   1.663   6.624
 3911SOL    HW112632   5.104   1.692   6.712
 3911SOL    HW212633   4.966   1.656   6.631
 3912SOL     OW12634   4.289   0.536   5.788
 3912SOL    HW112635   4.224   0.590   5.735
 3912SOL    HW212636   4.323   0.460   5.732
 3913SOL     OW12637   1.855   0.082   5.937
 3913SOL    HW112638   1.913   0.084   6.018
 3913SOL    HW212639   1.810   7.018   5.930
 3914SOL     OW12640   3.884   0.921   0.961
 3914SOL    HW112641   3.948   0.988   0.924
 3914SOL    HW212642   3.791   0.959   0.962
 3915SOL     OW12643   3.788   5.194   2.246
 3915SOL    HW112644   3.749   5.270   2.298
 3915SOL    HW212645   3.881   5.177   2.278
 3916SOL     OW12646   1.865   6.522   3.886
 3916SOL    HW112647   1.936   6.510   3.956
 3916SOL    HW212648   1.775   6.507   3.928
 3917SOL     OW12649   6.670   5.705   0.183
 3917SOL    HW112650   6.618   5.749   0.109
 3917SOL    HW212651   6.668   5.764   0.264
 3918SOL     OW12652   5.054   6.362   1.706
 3918SOL    HW112653   5.065   6.437   1.771
 3918SOL    HW212654   4.963   6.322   1.715
 3919SOL     OW12655   2.262   6.623   6.393
 3919SOL    HW112656   2.178   6.677   6.401
 3919SOL    HW212657   2.241   6.532   6.358
 3920SOL     OW12658   3.372   3.062   1.117
 3920SOL    HW112659   3.334   2.970   1.124
 3920SOL    HW212660   3.426   3.070   1.034
 3921SOL     OW12661   6.748   2.941   1.324
 3921SOL    HW112662   6.786   3.031   1.344
 3921SOL    HW212663   6.783   2.874   1.388
 3922SOL     OW12664   5.626   4.266   1.846
 3922SOL    HW112665   5.620   4.181   1.793
 3922SOL    HW212666   5.687   4.252   1.924
 3923SOL     OW12667   6.842   1.846   6.824
 3923SOL    HW112668   6.937   1.819   6.809
 3923SOL    HW212669   6.816   1.915   6.757
 3924SOL     OW12670   0.531   5.151   3.364
 3924SOL    HW112671   0.471   5.082   3.405
 3924SOL    HW212672   0.512   5.157   3.266
 3925SOL     OW12673   3.176   5.270   1.030
 3925SOL    HW112674   3.211   5.274   0.936
 3925SOL    HW212675   3.088   5.221   1.030
 3926SOL     OW12676   6.767   5.943   2.852
 3926SOL    HW112677   6.735   5.881   2.924
 3926SOL    HW212678   6.828   6.012   2.892
 3927SOL     OW12679   6.413   2.951   3.417
 3927SOL    HW112680   6.354   2.910   3.348
 3927SOL    HW212681   6.508   2.924   3.400
 3928SOL     OW12682   3.305   6.141   5.547
 3928SOL    HW112683   3.291   6.236   5.516
 3928SOL    HW212684   3.338   6.141   5.641
 3929SOL     OW12685   0.045   1.190   5.774
 3929SOL    HW112686   0.078   1.280   5.746
 3929SOL    HW212687   0.084   1.120   5.714
 3930SOL     OW12688   2.541   1.841   3.731
 3930SOL    HW112689   2.604   1.823   3.655
 3930SOL    HW212690   2.455   1.792   3.714
 3931SOL     OW12691   1.810   1.236   1.944
 3931SOL    HW112692   1.775   1.317   1.992
 3931SOL    HW212693   1.903   1.254   1.912
 3932SOL     OW12694   1.323   4.074   2.551
 3932SOL    HW112695   1.225   4.059   2.540
 3932SOL    HW212696   1.348   4.058   2.647
 3933SOL     OW12697   1.559   6.522   0.386
 3933SOL    HW112698   1.618   6.445   0.362
 3933SOL    HW212699   1.529   6.568   0.303
 3934SOL     OW12700   6.971   0.981   0.876
 3934SOL    HW112701   0.019   1.036   0.835
 3934SOL    HW212702   7.000   0.946   0.964
 3935SOL     OW12703   2.790   0.099   6.490
 3935SOL    HW112704   2.837   0.176   6.446
 3935SOL    HW212705   2.707   0.132   6.534
 3936SOL     OW12706   6.680   5.041   5.384
 3936SOL    HW112707   6.704   5.131   5.349
 3936SOL    HW212708   6.763   4.987   5.399
 3937SOL     OW12709   6.591   0.935   2.646
 3937SOL    HW112710   6.673   0.985   2.675
 3937SOL    HW212711   6.588   0.932   2.546
 3938SOL     OW12712   0.211   1.582   4.194
 3938SOL    HW112713   0.293   1.533   4.164
 3938SOL    HW212714   0.210   1.673   4.151
 3939SOL     OW12715   2.759   1.595   2.088
 3939SOL    HW112716   2.793   1.576   1.996
 3939SOL    HW212717   2.775   1.692   2.109
 3940SOL     OW12718   4.321   5.229   2.060
 3940SOL    HW112719   4.244   5.167   2.072
 3940SOL    HW212720   4.317   5.302   2.129
 3941SOL     OW12721   4.859   2.370   6.371
 3941SOL    HW112722   4.824   2.303   6.306
 3941SOL    HW212723   4.958   2.380   6.360
 3942SOL     OW12724   0.185   0.343   6.852
 3942SOL    HW112725   0.160   0.256   6.808
 3942SOL    HW212726   0.223   0.325   6.943
 3943SOL     OW12727   0.421   3.803   3.106
 3943SOL    HW112728   0.491   3.731   3.107
 3943SOL    HW212729   0.341   3.773   3.158
 3944SOL     OW12730   5.435   3.313   5.127
 3944SOL    HW112731   5.337   3.302   5.146
 3944SOL    HW212732   5.466   3.239   5.066
 3945SOL     OW12733   0.974   1.960   1.233
 3945SOL    HW112734   1.013   1.898   1.301
 3945SOL    HW212735   1.025   1.953   1.148
 3946SOL     OW12736   5.539   6.111   6.504
 3946SOL    HW112737   5.537   6.022   6.549
 3946SOL    HW212738   5.564   6.181   6.571
 3947SOL     OW12739   5.865   5.591   0.765
 3947SOL    HW112740   5.818   5.656   0.824
 3947SOL    HW212741   5.958   5.623   0.747
 3948SOL     OW12742   1.082   5.740   1.643
 3948SOL    HW112743   1.000   5.693   1.675
 3948SOL    HW212744   1.158   5.719   1.704
 3949SOL     OW12745   5.556   0.363   2.978
 3949SOL    HW112746   5.503   0.404   3.052
 3949SOL    HW212747   5.567   0.429   2.904
 3950SOL     OW12748   1.736   4.142   1.439
 3950SOL    HW112749   1.757   4.064   1.379
 3950SOL    HW212750   1.758   4.118   1.533
 3951SOL     OW12751   6.251   6.716   0.435
 3951SOL    HW112752   6.153   6.731   0.448
 3951SOL    HW212753   6.265   6.647   0.363
 3952SOL     OW12754   6.205   3.588   2.651
 3952SOL    HW112755   6.253   3.553   2.732
 3952SOL    HW212756   6.272   3.616   2.582
 3953SOL     OW12757   3.816   4.677   1.386
 3953SOL    HW112758   3.824   4.765   1.339
 3953SOL    HW212759   3.847   4.604   1.325
 3954SOL     OW12760   4.832   5.199   4.707
 3954SOL    HW112761   4.800   5.246   4.789
 3954SOL    HW212762   4.810   5.254   4.626
 3955SOL     OW12763   2.964   5.069   6.476
 3955SOL    HW112764   2.886   5.041   6.421
 3955SOL    HW212765   3.021   5.132   6.423
 3956SOL     OW12766   6.897   0.760   3.443
 3956SOL    HW112767   6.977   0.708   3.474
 3956SOL    HW212768   6.815   0.704   3.450
 3957SOL     OW12769   4.611   6.068   3.560
 3957SOL    HW112770   4.561   6.072   3.647
 3957SOL    HW212771   4.682   5.998   3.566
 3958SOL     OW12772   5.792   0.254   5.431
 3958SOL    HW112773   5.871   0.287   5.482
 3958SOL    HW212774   5.792   0.295   5.339
 3959SOL     OW12775   4.043   6.227   1.094
 3959SOL    HW112776   3.952   6.264   1.076
 3959SOL    HW212777   4.083   6.194   1.008
 3960SOL     OW12778   4.496   1.530   6.916
 3960SOL    HW112779   4.494   1.623   6.953
 3960SOL    HW212780   4.456   1.466   6.981
 3961SOL     OW12781   5.252   2.084   2.862
 3961SOL    HW112782   5.242   2.179   2.832
 3961SOL    HW212783   5.163   2.038   2.857
 3962SOL     OW12784   2.531   4.712   0.047
 3962SOL    HW112785   2.585   4.719   6.988
 3962SOL    HW212786   2.474   4.630   0.044
 3963SOL     OW12787   4.561   4.844   3.888
 3963SOL    HW112788   4.642   4.880   3.935
 3963SOL    HW212789   4.486   4.909   3.896
 3964SOL     OW12790   4.125   5.180   3.494
 3964SOL    HW112791   4.064   5.202   3.571
 3964SOL    HW212792   4.082   5.111   3.436
 3965SOL     OW12793   5.066   3.235   5.979
 3965SOL    HW112794   4.972   3.202   5.992
 3965SOL    HW212795   5.067   3.335   5.986
 3966SOL     OW12796   5.154   5.740   0.401
 3966SOL    HW112797   5.114   5.831   0.414
 3966SOL    HW212798   5.122   5.679   0.473
 3967SOL     OW12799   1.700   3.960   2.082
 3967SOL    HW112800   1.707   3.862   2.059
 3967SOL    HW212801   1.608   3.979   2.115
 3968SOL     OW12802   5.203   0.895   1.275
 3968SOL    HW112803   5.248   0.939   1.353
 3968SOL    HW212804   5.211   0.954   1.195
 3969SOL     OW12805   1.470   3.915   2.198
 3969SOL    HW112806   1.424   3.829   2.223
 3969SOL    HW212807   1.408   3.992   2.212
 3970SOL     OW12808   6.081   6.153   3.703
 3970SOL    HW112809   6.144   6.187   3.773
 3970SOL    HW212810   6.092   6.054   3.694
 3971SOL     OW12811   2.512   4.699   2.227
 3971SOL    HW112812   2.437   4.656   2.276
 3971SOL    HW212813   2.594   4.700   2.285
 3972SOL     OW12814   1.031   5.079   0.714
 3972SOL    HW112815   1.014   5.003   0.777
 3972SOL    HW212816   1.126   5.110   0.724
 3973SOL     OW12817   1.740   5.045   6.604
 3973SOL    HW112818   1.784   4.957   6.620
 3973SOL    HW212819   1.737   5.064   6.506
 3974SOL     OW12820   1.964   1.147   4.299
 3974SOL    HW112821   1.916   1.125   4.384
 3974SOL    HW212822   1.913   1.110   4.221
 3975SOL     OW12823   5.868   0.740   5.027
 3975SOL    HW112824   5.895   0.644   5.026
 3975SOL    HW212825   5.860   0.772   5.121
 3976SOL     OW12826   1.606   6.376   1.645
 3976SOL    HW112827   1.517   6.334   1.630
 3976SOL    HW212828   1.618   6.393   1.743
 3977SOL     OW12829   2.533   4.411   5.465
 3977SOL    HW112830   2.496   4.406   5.372
 3977SOL    HW212831   2.610   4.348   5.474
 3978SOL     OW12832   5.812   5.562   5.165
 3978SOL    HW112833   5.763   5.476   5.178
 3978SOL    HW212834   5.842   5.570   5.070
 3979SOL     OW12835   3.418   6.244   0.736
 3979SOL    HW112836   3.355   6.248   0.813
 3979SOL    HW212837   3.401   6.161   0.683
 3980SOL     OW12838   0.081   5.621   0.372
 3980SOL    HW112839   0.148   5.642   0.300
 3980SOL    HW212840   0.066   5.522   0.375
 3981SOL     OW12841   2.164   0.415   0.215
 3981SOL    HW112842   2.134   0.394   0.122
 3981SOL    HW212843   2.188   0.512   0.222
 3982SOL     OW12844   2.071   0.198   4.155
 3982SOL    HW112845   2.142   0.233   4.216
 3982SOL    HW212846   2.000   0.154   4.209
 3983SOL     OW12847   5.379   4.942   4.344
 3983SOL    HW112848   5.368   5.010   4.416
 3983SOL    HW212849   5.450   4.973   4.279
 3984SOL     OW12850   6.728   1.434   2.870
 3984SOL    HW112851   6.704   1.482   2.954
 3984SOL    HW212852   6.672   1.352   2.861
 3985SOL     OW12853   3.121   4.305   6.704
 3985SOL    HW112854   3.191   4.234   6.692
 3985SOL    HW212855   3.109   4.325   6.801
 3986SOL     OW12856   6.356   2.043   3.173
 3986SOL    HW112857   6.433   1.990   3.211
 3986SOL    HW212858   6.337   2.121   3.231
 3987SOL     OW12859   3.362   5.413   3.661
 3987SOL    HW112860   3.343   5.511   3.661
 3987SOL    HW212861   3.276   5.362   3.660
 3988SOL     OW12862   4.234   4.279   0.002
 3988SOL    HW112863   4.253   4.377   0.009
 3988SOL    HW212864   4.319   4.229   7.011
 3989SOL     OW12865   6.754   2.690   6.665
 3989SOL    HW112866   6.678   2.688   6.730
 3989SOL    HW212867   6.719   2.685   6.572
 3990SOL     OW12868   5.089   2.523   3.013
 3990SOL    HW112869   5.142   2.446   3.046
 3990SOL    HW212870   4.995   2.494   2.994
 3991SOL     OW12871   5.780   0.987   2.374
 3991SOL    HW112872   5.703   0.988   2.438
 3991SOL    HW212873   5.825   0.898   2.377
 3992SOL     OW12874   3.688   2.450   0.208
 3992SOL    HW112875   3.617   2.506   0.252
 3992SOL    HW212876   3.757   2.425   0.275
 3993SOL     OW12877   1.597   1.591   2.504
 3993SOL    HW112878   1.549   1.569   2.420
 3993SOL    HW212879   1.665   1.521   2.524
 3994SOL     OW12880   0.834   0.663   5.722
 3994SOL    HW112881   0.767   0.724   5.763
 3994SOL    HW212882   0.896   0.628   5.792
 3995SOL     OW12883   1.832   3.789   5.353
 3995SOL    HW112884   1.761   3.724   5.326
 3995SOL    HW212885   1.916   3.740   5.373
 3996SOL     OW12886   1.008   0.448   3.979
 3996SOL    HW112887   0.946   0.527   3.975
 3996SOL    HW212888   0.954   0.364   3.990
 3997SOL     OW12889   4.906   1.071   4.210
 3997SOL    HW112890   4.968   1.013   4.156
 3997SOL    HW212891   4.863   1.138   4.149
 3998SOL     OW12892   4.368   1.211   4.482
 3998SOL    HW112893   4.455   1.162   4.473
 3998SOL    HW212894   4.384   1.309   4.481
 3999SOL     OW12895   5.763   3.070   3.898
 3999SOL    HW112896   5.677   3.059   3.848
 3999SOL    HW212897   5.832   3.108   3.836
 4000SOL     OW12898   3.399   5.834   3.140
 4000SOL    HW112899   3.375   5.930   3.126
 4000SOL    HW212900   3.481   5.828   3.198
 4001SOL     OW12901   2.548   2.205   4.014
 4001SOL    HW112902   2.470   2.143   4.003
 4001SOL    HW212903   2.620   2.160   4.067
 4002SOL     OW12904   2.765   3.415   0.575
 4002SOL    HW112905   2.755   3.512   0.553
 4002SOL    HW212906   2.790   3.405   0.671
 4003SOL     OW12907   3.028   6.358   3.733
 4003SOL    HW112908   3.123   6.330   3.720
 4003SOL    HW212909   3.023   6.457   3.737
 4004SOL     OW12910   5.019   1.673   4.520
 4004SOL    HW112911   5.086   1.678   4.594
 4004SOL    HW212912   5.063   1.699   4.434
 4005SOL     OW12913   4.774   5.593   0.487
 4005SOL    HW112914   4.756   5.506   0.441
 4005SOL    HW212915   4.706   5.607   0.559
 4006SOL     OW12916   3.918   5.168   3.068
 4006SOL    HW112917   3.863   5.092   3.032
 4006SOL    HW212918   3.947   5.148   3.161
 4007SOL     OW12919   0.466   2.428   0.890
 4007SOL    HW112920   0.392   2.422   0.957
 4007SOL    HW212921   0.447   2.368   0.812
 4008SOL     OW12922   3.161   2.192   3.801
 4008SOL    HW112923   3.110   2.189   3.715
 4008SOL    HW212924   3.221   2.112   3.807
 4009SOL     OW12925   5.264   3.686   0.975
 4009SOL    HW112926   5.347   3.742   0.980
 4009SOL    HW212927   5.198   3.717   1.043
 4010SOL     OW12928   2.838   3.436   1.501
 4010SOL    HW112929   2.751   3.477   1.474
 4010SOL    HW212930   2.897   3.506   1.541
 4011SOL     OW12931   0.595   0.760   2.559
 4011SOL    HW112932   0.643   0.786   2.642
 4011SOL    HW212933   0.540   0.838   2.527
 4012SOL     OW12934   4.950   5.518   1.354
 4012SOL    HW112935   4.856   5.486   1.365
 4012SOL    HW212936   4.984   5.551   1.442
 4013SOL     OW12937   2.438   0.596   5.529
 4013SOL    HW112938   2.474   0.588   5.436
 4013SOL    HW212939   2.346   0.557   5.533
 4014SOL     OW12940   4.518   6.289   2.205
 4014SOL    HW112941   4.508   6.296   2.106
 4014SOL    HW212942   4.588   6.354   2.236
 4015SOL     OW12943   5.269   4.924   6.112
 4015SOL    HW112944   5.203   4.978   6.060
 4015SOL    HW212945   5.271   4.957   6.207
 4016SOL     OW12946   2.520   6.280   6.522
 4016SOL    HW112947   2.594   6.348   6.524
 4016SOL    HW212948   2.448   6.308   6.585
 4017SOL     OW12949   0.349   5.728   0.459
 4017SOL    HW112950   0.275   5.692   0.515
 4017SOL    HW212951   0.433   5.735   0.514
 4018SOL     OW12952   4.768   6.420   2.877
 4018SOL    HW112953   4.824   6.401   2.957
 4018SOL    HW212954   4.827   6.447   2.800
 4019SOL     OW12955   5.863   3.386   2.917
 4019SOL    HW112956   5.884   3.319   2.846
 4019SOL    HW212957   5.931   3.459   2.916
 4020SOL     OW12958   4.771   2.049   5.410
 4020SOL    HW112959   4.704   2.114   5.373
 4020SOL    HW212960   4.824   2.009   5.335
 4021SOL     OW12961   3.618   4.370   6.268
 4021SOL    HW112962   3.682   4.317   6.323
 4021SOL    HW212963   3.525   4.359   6.304
 4022SOL     OW12964   4.801   0.554   0.158
 4022SOL    HW112965   4.868   0.625   0.135
 4022SOL    HW212966   4.846   0.485   0.215
 4023SOL     OW12967   6.068   1.853   4.675
 4023SOL    HW112968   5.989   1.841   4.736
 4023SOL    HW212969   6.111   1.765   4.658
 4024SOL     OW12970   3.862   6.166   3.215
 4024SOL    HW112971   3.919   6.247   3.229
 4024SOL    HW212972   3.904   6.107   3.146
 4025SOL     OW12973   0.672   6.012   4.305
 4025SOL    HW112974   0.685   5.922   4.347
 4025SOL    HW212975   0.749   6.071   4.329
 4026SOL     OW12976   5.887   5.488   4.531
 4026SOL    HW112977   5.804   5.522   4.575
 4026SOL    HW212978   5.965   5.500   4.592
 4027SOL     OW12979   3.627   4.281   1.645
 4027SOL    HW112980   3.697   4.351   1.653
 4027SOL    HW212981   3.539   4.317   1.675
 4028SOL     OW12982   1.255   2.189   4.092
 4028SOL    HW112983   1.164   2.159   4.063
 4028SOL    HW212984   1.279   2.144   4.178
 4029SOL     OW12985   2.328   4.294   6.517
 4029SOL    HW112986   2.336   4.201   6.553
 4029SOL    HW212987   2.407   4.348   6.547
 4030SOL     OW12988   1.232   2.208   5.906
 4030SOL    HW112989   1.200   2.298   5.935
 4030SOL    HW212990   1.307   2.179   5.965
 4031SOL     OW12991   5.033   5.639   3.546
 4031SOL    HW112992   5.031   5.729   3.504
 4031SOL    HW212993   5.124   5.599   3.537
 4032SOL     OW12994   6.371   6.898   3.166
 4032SOL    HW112995   6.305   6.919   3.238
 4032SOL    HW212996   6.462   6.926   3.195
 4033SOL     OW12997   3.455   3.246   3.340
 4033SOL    HW112998   3.480   3.240   3.243
 4033SOL    HW212999   3.451   3.154   3.379
 4034SOL     OW13000   5.764   1.061   5.161
 4034SOL    HW113001   5.810   1.121   5.095
 4034SOL    HW213002   5.756   1.108   5.249
 4035SOL     OW13003   6.839   3.636   0.965
 4035SOL    HW113004   6.805   3.694   0.891
 4035SOL    HW213005   6.932   3.606   0.944
 4036SOL     OW13006   5.851   6.584   2.479
 4036SOL    HW113007   5.831   6.669   2.430
 4036SOL    HW213008   5.800   6.509   2.436
 4037SOL     OW13009   2.070   2.573   0.124
 4037SOL    HW113010   2.031   2.659   0.156
 4037SOL    HW213011   2.000   2.501   0.126
 4038SOL     OW13012   4.702   4.796   2.258
 4038SOL    HW113013   4.698   4.878   2.201
 4038SOL    HW213014   4.729   4.718   2.201
 4039SOL     OW13015   4.855   5.429   0.968
 4039SOL    HW113016   4.887   5.523   0.980
 4039SOL    HW213017   4.774   5.429   0.910
 4040SOL     OW13018   2.825   6.634   0.262
 4040SOL    HW113019   2.809   6.727   0.229
 4040SOL    HW213020   2.923   6.614   0.256
 4041SOL     OW13021   1.664   5.941   2.534
 4041SOL    HW113022   1.647   5.890   2.450
 4041SOL    HW213023   1.640   6.037   2.519
 4042SOL     OW13024   6.461   5.038   2.337
 4042SOL    HW113025   6.466   5.127   2.292
 4042SOL    HW213026   6.510   5.042   2.425
 4043SOL     OW13027   5.617   1.732   3.564
 4043SOL    HW113028   5.521   1.746   3.539
 4043SOL    HW213029   5.666   1.696   3.485
 4044SOL     OW13030   6.209   0.412   4.592
 4044SOL    HW113031   6.126   0.356   4.589
 4044SOL    HW213032   6.198   0.483   4.662
 4045SOL     OW13033   2.838   4.346   5.997
 4045SOL    HW113034   2.841   4.380   5.903
 4045SOL    HW213035   2.791   4.412   6.055
 4046SOL     OW13036   0.804   1.359   2.778
 4046SOL    HW113037   0.780   1.431   2.713
 4046SOL    HW213038   0.811   1.399   2.870
 4047SOL     OW13039   2.807   3.458   0.857
 4047SOL    HW113040   2.906   3.444   0.856
 4047SOL    HW213041   2.787   3.552   0.885
 4048SOL     OW13042   5.706   0.893   1.615
 4048SOL    HW113043   5.803   0.905   1.638
 4048SOL    HW213044   5.651   0.950   1.676
 4049SOL     OW13045   6.460   6.466   6.607
 4049SOL    HW113046   6.488   6.380   6.566
 4049SOL    HW213047   6.523   6.492   6.680
 4050SOL     OW13048   1.665   6.528   6.851
 4050SOL    HW113049   1.716   6.509   6.767
 4050SOL    HW213050   1.590   6.591   6.831
 4051SOL     OW13051   2.869   4.025   0.274
 4051SOL    HW113052   2.864   4.054   0.369
 4051SOL    HW213053   2.788   3.971   0.251
 4052SOL     OW13054   1.061   0.364   1.383
 4052SOL    HW113055   1.120   0.444   1.370
 4052SOL    HW213056   1.085   0.294   1.315
 4053SOL     OW13057   2.899   4.838   3.870
 4053SOL    HW113058   2.875   4.816   3.776
 4053SOL    HW213059   2.945   4.927   3.873
 4054SOL     OW13060   2.628   2.895   0.877
 4054SOL    HW113061   2.548   2.955   0.881
 4054SOL    HW213062   2.702   2.943   0.829
 4055SOL     OW13063   2.440   2.945   5.929
 4055SOL    HW113064   2.406   2.852   5.916
 4055SOL    HW213065   2.421   2.999   5.847
 4056SOL     OW13066   4.294   3.179   6.819
 4056SOL    HW113067   4.210   3.231   6.803
 4056SOL    HW213068   4.345   3.221   6.894
 4057SOL     OW13069   5.391   3.585   0.731
 4057SOL    HW113070   5.330   3.594   0.810
 4057SOL    HW213071   5.408   3.488   0.713
 4058SOL     OW13072   2.232   1.369   4.409
 4058SOL    HW113073   2.260   1.277   4.380
 4058SOL    HW213074   2.178   1.412   4.336
 4059SOL     OW13075   1.798   1.654   3.518
 4059SOL    HW113076   1.873   1.616   3.572
 4059SOL    HW213077   1.834   1.719   3.451
 4060SOL     OW13078   3.761   5.322   4.646
 4060SOL    HW113079   3.737   5.396   4.583
 4060SOL    HW213080   3.680   5.293   4.697
 4061SOL     OW13081   3.213   4.699   1.697
 4061SOL    HW113082   3.293   4.640   1.701
 4061SOL    HW213083   3.213   4.761   1.775
 4062SOL     OW13084   4.402   1.532   3.012
 4062SOL    HW113085   4.405   1.483   2.924
 4062SOL    HW213086   4.478   1.502   3.069
 4063SOL     OW13087   3.864   6.623   6.192
 4063SOL    HW113088   3.813   6.557   6.248
 4063SOL    HW213089   3.879   6.584   6.101
 4064SOL     OW13090   2.095   0.253   2.440
 4064SOL    HW113091   2.006   0.290   2.466
 4064SOL    HW213092   2.098   0.238   2.341
 4065SOL     OW13093   0.431   0.132   1.038
 4065SOL    HW113094   0.527   0.122   1.064
 4065SOL    HW213095   0.374   0.128   1.120
 4066SOL     OW13096   5.422   4.597   1.558
 4066SOL    HW113097   5.513   4.560   1.577
 4066SOL    HW213098   5.356   4.556   1.619
 4067SOL     OW13099   5.094   1.638   3.475
 4067SOL    HW113100   5.180   1.609   3.517
 4067SOL    HW213101   5.058   1.565   3.417
 4068SOL     OW13102   4.546   0.309   5.286
 4068SOL    HW113103   4.537   0.305   5.187
 4068SOL    HW213104   4.519   0.221   5.326
 4069SOL     OW13105   4.596   4.311   0.854
 4069SOL    HW113106   4.499   4.335   0.854
 4069SOL    HW213107   4.638   4.341   0.940
 4070SOL     OW13108   1.790   3.252   2.501
 4070SOL    HW113109   1.865   3.314   2.479
 4070SOL    HW213110   1.724   3.250   2.426
 4071SOL     OW13111   1.328   0.834   4.956
 4071SOL    HW113112   1.413   0.845   5.007
 4071SOL    HW213113   1.303   0.738   4.951
 4072SOL     OW13114   1.939   6.751   4.442
 4072SOL    HW113115   2.007   6.715   4.505
 4072SOL    HW213116   1.956   6.849   4.427
 4073SOL     OW13117   1.882   5.632   6.117
 4073SOL    HW113118   1.970   5.673   6.096
 4073SOL    HW213119   1.855   5.570   6.043
 4074SOL     OW13120   0.214   2.227   1.797
 4074SOL    HW113121   0.126   2.274   1.793
 4074SOL    HW213122   0.235   2.203   1.891
 4075SOL     OW13123   4.319   1.943   2.434
 4075SOL    HW113124   4.366   1.970   2.518
 4075SOL    HW213125   4.380   1.956   2.356
 4076SOL     OW13126   2.121   4.019   5.195
 4076SOL    HW113127   2.131   3.968   5.280
 4076SOL    HW213128   2.200   4.003   5.136
 4077SOL     OW13129   2.766   6.644   0.544
 4077SOL    HW113130   2.804   6.631   0.452
 4077SOL    HW213131   2.673   6.681   0.536
 4078SOL     OW13132   6.268   4.520   2.145
 4078SOL    HW113133   6.182   4.527   2.095
 4078SOL    HW213134   6.274   4.593   2.213
 4079SOL     OW13135   0.970   0.950   3.350
 4079SOL    HW113136   0.965   0.913   3.257
 4079SOL    HW213137   1.066   0.965   3.374
 4080SOL     OW13138   2.810   4.189   0.545
 4080SOL    HW113139   2.861   4.275   0.546
 4080SOL    HW213140   2.804   4.152   0.638
 4081SOL     OW13141   2.456   1.195   5.066
 4081SOL    HW113142   2.361   1.190   5.037
 4081SOL    HW213143   2.492   1.286   5.044
 4082SOL     OW13144   0.961   2.067   5.883
 4082SOL    HW113145   1.001   1.982   5.850
 4082SOL    HW213146   1.034   2.132   5.904
 4083SOL     OW13147   6.122   4.607   3.002
 4083SOL    HW113148   6.098   4.511   3.009
 4083SOL    HW213149   6.185   4.632   3.076
 4084SOL     OW13150   4.827   2.702   3.071
 4084SOL    HW113151   4.925   2.680   3.066
 4084SOL    HW213152   4.816   2.800   3.091
 4085SOL     OW13153   2.257   5.423   1.210
 4085SOL    HW113154   2.345   5.467   1.196
 4085SOL    HW213155   2.191   5.490   1.243
 4086SOL     OW13156   6.943   5.752   0.063
 4086SOL    HW113157   6.858   5.700   0.063
 4086SOL    HW213158   6.958   5.792   0.153
 4087SOL     OW13159   3.043   0.190   2.739
 4087SOL    HW113160   3.129   0.160   2.699
 4087SOL    HW213161   2.968   0.174   2.675
 4088SOL     OW13162   6.656   0.791   5.544
 4088SOL    HW113163   6.593   0.845   5.600
 4088SOL    HW213164   6.646   0.817   5.448
 4089SOL     OW13165   0.118   5.984   4.376
 4089SOL    HW113166   0.114   6.018   4.282
 4089SOL    HW213167   0.076   5.893   4.381
 4090SOL     OW13168   2.191   6.890   4.685
 4090SOL    HW113169   2.115   6.868   4.746
 4090SOL    HW213170   2.232   6.977   4.711
 4091SOL     OW13171   0.991   4.860   0.866
 4091SOL    HW113172   0.895   4.832   0.867
 4091SOL    HW213173   1.049   4.783   0.894
 4092SOL     OW13174   4.716   2.900   4.690
 4092SOL    HW113175   4.735   2.919   4.593
 4092SOL    HW213176   4.650   2.825   4.696
 4093SOL     OW13177   6.209   5.339   2.262
 4093SOL    HW113178   6.227   5.349   2.164
 4093SOL    HW213179   6.261   5.261   2.298
 4094SOL     OW13180   0.407   5.075   6.798
 4094SOL    HW113181   0.422   5.021   6.715
 4094SOL    HW213182   0.495   5.092   6.843
 4095SOL     OW13183   0.160   3.382   6.874
 4095SOL    HW113184   0.198   3.398   6.783
 4095SOL    HW213185   0.063   3.404   6.875
 4096SOL     OW13186   2.155   0.944   6.713
 4096SOL    HW113187   2.246   0.929   6.676
 4096SOL    HW213188   2.124   1.037   6.690
 4097SOL     OW13189   7.017   4.397   5.145
 4097SOL    HW113190   6.939   4.338   5.165
 4097SOL    HW213191   0.077   4.349   5.166
 4098SOL     OW13192   1.970   3.476   1.688
 4098SOL    HW113193   1.996   3.523   1.772
 4098SOL    HW213194   2.047   3.423   1.654
 4099SOL     OW13195   4.323   4.918   6.940
 4099SOL    HW113196   4.225   4.903   6.952
 4099SOL    HW213197   4.344   4.925   6.842
 4100SOL     OW13198   1.244   0.983   3.393
 4100SOL    HW113199   1.312   0.995   3.466
 4100SOL    HW213200   1.251   1.060   3.329
 4101SOL     OW13201   6.726   0.787   6.531
 4101SOL    HW113202   6.639   0.747   6.559
 4101SOL    HW213203   6.800   0.751   6.588
 4102SOL     OW13204   1.701   0.514   0.438
 4102SOL    HW113205   1.749   0.593   0.400
 4102SOL    HW213206   1.653   0.466   0.365
 4103SOL     OW13207   0.304   6.611   2.433
 4103SOL    HW113208   0.237   6.551   2.388
 4103SOL    HW213209   0.393   6.601   2.390
 4104SOL     OW13210   0.328   5.912   2.996
 4104SOL    HW113211   0.333   5.969   3.078
 4104SOL    HW213212   0.232   5.895   2.972
 4105SOL     OW13213   4.767   1.422   1.585
 4105SOL    HW113214   4.747   1.391   1.678
 4105SOL    HW213215   4.724   1.360   1.519
 4106SOL     OW13216   0.078   1.859   3.585
 4106SOL    HW113217   0.107   1.785   3.646
 4106SOL    HW213218   7.010   1.886   3.606
 4107SOL     OW13219   0.259   6.031   6.234
 4107SOL    HW113220   0.244   6.048   6.137
 4107SOL    HW213221   0.349   5.989   6.247
 4108SOL     OW13222   0.280   5.226   4.010
 4108SOL    HW113223   0.232   5.185   4.088
 4108SOL    HW213224   0.362   5.273   4.042
 4109SOL     OW13225   6.081   5.620   3.343
 4109SOL    HW113226   6.079   5.533   3.294
 4109SOL    HW213227   6.032   5.690   3.290
 4110SOL     OW13228   4.499   2.793   6.852
 4110SOL    HW113229   4.458   2.824   6.766
 4110SOL    HW213230   4.479   2.859   6.924
 4111SOL     OW13231   6.825   5.465   6.685
 4111SOL    HW113232   6.810   5.384   6.742
 4111SOL    HW213233   6.919   5.466   6.651
 4112SOL     OW13234   4.677   6.229   4.827
 4112SOL    HW113235   4.738   6.162   4.870
 4112SOL    HW213236   4.598   6.245   4.885
 4113SOL     OW13237   4.337   4.973   5.011
 4113SOL    HW113238   4.304   4.887   4.970
 4113SOL    HW213239   4.276   4.999   5.086
 4114SOL     OW13240   6.343   1.729   3.496
 4114SOL    HW113241   6.397   1.781   3.562
 4114SOL    HW213242   6.246   1.751   3.507
 4115SOL     OW13243   2.761   4.994   3.451
 4115SOL    HW113244   2.728   5.018   3.543
 4115SOL    HW213245   2.765   5.076   3.395
 4116SOL     OW13246   5.652   2.177   3.292
 4116SOL    HW113247   5.697   2.109   3.235
 4116SOL    HW213248   5.566   2.141   3.326
 4117SOL     OW13249   1.286   2.016   2.566
 4117SOL    HW113250   1.333   2.102   2.547
 4117SOL    HW213251   1.258   1.973   2.480
 4118SOL     OW13252   6.419   6.532   0.024
 4118SOL    HW113253   6.422   6.628   7.023
 4118SOL    HW213254   6.417   6.475   6.966
 4119SOL     OW13255   2.651   0.683   3.294
 4119SOL    HW113256   2.635   0.736   3.210
 4119SOL    HW213257   2.649   0.745   3.373
 4120SOL     OW13258   3.352   1.344   6.567
 4120SOL    HW113259   3.359   1.279   6.491
 4120SOL    HW213260   3.301   1.424   6.539
 4121SOL     OW13261   6.763   6.447   2.812
 4121SOL    HW113262   6.761   6.546   2.800
 4121SOL    HW213263   6.714   6.423   2.896
 4122SOL     OW13264   0.274   5.569   4.676
 4122SOL    HW113265   0.189   5.621   4.674
 4122SOL    HW213266   0.254   5.471   4.670
 4123SOL     OW13267   3.901   4.962   4.237
 4123SOL    HW113268   3.966   4.904   4.187
 4123SOL    HW213269   3.944   5.050   4.258
 4124SOL     OW13270   6.616   6.178   1.026
 4124SOL    HW113271   6.667   6.265   1.025
 4124SOL    HW213272   6.646   6.123   1.104
 4125SOL     OW13273   4.945   2.567   2.687
 4125SOL    HW113274   4.983   2.615   2.608
 4125SOL    HW213275   4.880   2.626   2.734
 4126SOL     OW13276   1.478   2.788   2.136
 4126SOL    HW113277   1.395   2.753   2.093
 4126SOL    HW213278   1.458   2.813   2.231
 4127SOL     OW13279   3.800   2.039   4.029
 4127SOL    HW113280   3.893   2.074   4.041
 4127SOL    HW213281   3.803   1.939   4.016
 4128SOL     OW13282   0.636   3.026   1.895
 4128SOL    HW113283   0.549   3.034   1.847
 4128SOL    HW213284   0.619   3.020   1.993
 4129SOL     OW13285   3.641   2.747   0.952
 4129SOL    HW113286   3.578   2.809   0.906
 4129SOL    HW213287   3.735   2.780   0.943
 4130SOL     OW13288   6.195   2.771   0.992
 4130SOL    HW113289   6.285   2.737   1.019
 4130SOL    HW213290   6.184   2.865   1.024
 4131SOL     OW13291   6.058   0.416   2.426
 4131SOL    HW113292   6.128   0.459   2.369
 4131SOL    HW213293   5.994   0.367   2.367
 4132SOL     OW13294   6.352   4.345   4.426
 4132SOL    HW113295   6.263   4.389   4.431
 4132SOL    HW213296   6.354   4.281   4.350
 4133SOL     OW13297   5.391   6.330   1.189
 4133SOL    HW113298   5.449   6.252   1.212
 4133SOL    HW213299   5.312   6.331   1.250
 4134SOL     OW13300   2.342   3.780   1.251
 4134SOL    HW113301   2.282   3.722   1.307
 4134SOL    HW213302   2.419   3.726   1.217
 4135SOL     OW13303   0.721   1.921   2.401
 4135SOL    HW113304   0.710   2.019   2.391
 4135SOL    HW213305   0.661   1.888   2.474
 4136SOL     OW13306   0.471   3.732   1.527
 4136SOL    HW113307   0.434   3.824   1.535
 4136SOL    HW213308   0.542   3.731   1.457
 4137SOL     OW13309   1.834   2.799   0.594
 4137SOL    HW113310   1.747   2.835   0.560
 4137SOL    HW213311   1.843   2.820   0.691
 4138SOL     OW13312   4.220   5.521   0.943
 4138SOL    HW113313   4.135   5.507   0.994
 4138SOL    HW213314   4.246   5.436   0.897
 4139SOL     OW13315   1.416   2.232   3.180
 4139SOL    HW113316   1.499   2.257   3.230
 4139SOL    HW213317   1.440   2.171   3.104
 4140SOL     OW13318   2.837   2.022   3.839
 4140SOL    HW113319   2.750   2.004   3.793
 4140SOL    HW213320   2.897   2.074   3.779
 4141SOL     OW13321   4.610   6.864   6.893
 4141SOL    HW113322   4.533   6.921   6.922
 4141SOL    HW213323   4.677   6.920   6.844
 4142SOL     OW13324   6.432   3.668   1.683
 4142SOL    HW113325   6.389   3.582   1.712
 4142SOL    HW213326   6.362   3.732   1.652
 4143SOL     OW13327   5.927   3.623   0.645
 4143SOL    HW113328   5.950   3.546   0.585
 4143SOL    HW213329   6.004   3.642   0.706
 4144SOL     OW13330   5.130   1.603   0.924
 4144SOL    HW113331   5.062   1.532   0.906
 4144SOL    HW213332   5.210   1.588   0.867
 4145SOL     OW13333   1.024   6.185   0.771
 4145SOL    HW113334   0.936   6.194   0.724
 4145SOL    HW213335   1.009   6.144   0.861
 4146SOL     OW13336   6.137   6.814   3.775
 4146SOL    HW113337   6.230   6.832   3.745
 4146SOL    HW213338   6.080   6.895   3.759
 4147SOL     OW13339   5.675   4.353   5.833
 4147SOL    HW113340   5.641   4.263   5.805
 4147SOL    HW213341   5.772   4.348   5.853
 4148SOL     OW13342   3.277   0.052   5.841
 4148SOL    HW113343   3.247   0.091   5.928
 4148SOL    HW213344   3.350   7.010   5.858
 4149SOL     OW13345   1.370   2.952   1.217
 4149SOL    HW113346   1.439   2.943   1.145
 4149SOL    HW213347   1.395   3.026   1.279
 4150SOL     OW13348   6.468   2.977   5.517
 4150SOL    HW113349   6.435   2.986   5.611
 4150SOL    HW213350   6.539   2.906   5.513
 4151SOL     OW13351   2.306   0.047   4.994
 4151SOL    HW113352   2.280   0.095   4.910
 4151SOL    HW213353   2.314   0.113   5.069
 4152SOL     OW13354   3.538   5.462   2.106
 4152SOL    HW113355   3.524   5.399   2.182
 4152SOL    HW213356   3.619   5.434   2.053
 4153SOL     OW13357   6.306   4.738   1.184
 4153SOL    HW113358   6.275   4.719   1.277
 4153SOL    HW213359   6.364   4.820   1.184
 4154SOL     OW13360   6.968   5.893   3.520
 4154SOL    HW113361   6.887   5.834   3.521
 4154SOL    HW213362   6.951   5.973   3.578
 4155SOL     OW13363   6.655   1.816   1.475
 4155SOL    HW113364   6.745   1.797   1.436
 4155SOL    HW213365   6.606   1.881   1.417
 4156SOL     OW13366   6.542   4.904   5.166
 4156SOL    HW113367   6.541   4.967   5.243
 4156SOL    HW213368   6.449   4.877   5.143
 4157SOL     OW13369   6.367   6.226   2.374
 4157SOL    HW113370   6.415   6.195   2.455
 4157SOL    HW213371   6.273   6.252   2.398
 4158SOL     OW13372   1.945   2.539   1.227
 4158SOL    HW113373   1.899   2.521   1.314
 4158SOL    HW213374   2.004   2.462   1.203
 4159SOL     OW13375   2.897   1.958   2.730
 4159SOL    HW113376   2.839   1.881   2.757
 4159SOL    HW213377   2.843   2.025   2.680
 4160SOL     OW13378   6.314   0.076   6.627
 4160SOL    HW113379   6.275   0.030   6.548
 4160SOL    HW213380   6.245   0.133   6.670
 4161SOL     OW13381   1.864   2.087   1.278
 4161SOL    HW113382   1.776   2.069   1.234
 4161SOL    HW213383   1.907   2.166   1.236
 4162SOL     OW13384   6.310   5.600   1.010
 4162SOL    HW113385   6.319   5.648   1.097
 4162SOL    HW213386   6.401   5.580   0.973
 4163SOL     OW13387   5.801   0.715   2.719
 4163SOL    HW113388   5.737   0.786   2.749
 4163SOL    HW213389   5.766   0.625   2.742
 4164SOL     OW13390   0.322   6.742   5.610
 4164SOL    HW113391   0.308   6.824   5.666
 4164SOL    HW213392   0.242   6.683   5.615
 4165SOL     OW13393   4.323   6.999   5.934
 4165SOL    HW113394   4.401   6.970   5.989
 4165SOL    HW213395   4.309   0.073   5.946
 4166SOL     OW13396   6.591   0.905   1.796
 4166SOL    HW113397   6.596   0.958   1.881
 4166SOL    HW213398   6.572   0.967   1.719
 4167SOL     OW13399   2.256   4.397   5.987
 4167SOL    HW113400   2.288   4.336   6.059
 4167SOL    HW213401   2.333   4.423   5.928
 4168SOL     OW13402   0.430   4.247   0.407
 4168SOL    HW113403   0.482   4.322   0.448
 4168SOL    HW213404   0.358   4.285   0.349
 4169SOL     OW13405   6.021   4.109   5.207
 4169SOL    HW113406   5.985   4.191   5.162
 4169SOL    HW213407   6.090   4.066   5.149
 4170SOL     OW13408   4.876   3.084   4.801
 4170SOL    HW113409   4.796   3.036   4.766
 4170SOL    HW213410   4.915   3.141   4.729
 4171SOL     OW13411   1.247   4.724   1.430
 4171SOL    HW113412   1.195   4.682   1.355
 4171SOL    HW213413   1.308   4.656   1.470
 4172SOL     OW13414   2.520   3.216   0.661
 4172SOL    HW113415   2.569   3.184   0.579
 4172SOL    HW213416   2.586   3.231   0.734
 4173SOL     OW13417   4.522   2.853   5.534
 4173SOL    HW113418   4.590   2.786   5.565
 4173SOL    HW213419   4.430   2.822   5.560
 4174SOL     OW13420   4.652   0.662   2.958
 4174SOL    HW113421   4.752   0.657   2.965
 4174SOL    HW213422   4.615   0.698   3.043
 4175SOL     OW13423   1.563   4.540   5.651
 4175SOL    HW113424   1.466   4.561   5.645
 4175SOL    HW213425   1.605   4.602   5.718
 4176SOL     OW13426   4.546   6.260   1.003
 4176SOL    HW113427   4.548   6.318   0.922
 4176SOL    HW213428   4.617   6.291   1.067
 4177SOL     OW13429   5.787   4.816   4.740
 4177SOL    HW113430   5.737   4.900   4.721
 4177SOL    HW213431   5.771   4.788   4.835
 4178SOL     OW13432   4.544   6.765   2.746
 4178SOL    HW113433   4.575   6.717   2.828
 4178SOL    HW213434   4.460   6.815   2.767
 4179SOL     OW13435   5.514   3.980   3.685
 4179SOL    HW113436   5.417   4.006   3.681
 4179SOL    HW213437   5.548   3.963   3.592
 4180SOL     OW13438   5.287   3.382   1.005
 4180SOL    HW113439   5.312   3.477   1.022
 4180SOL    HW213440   5.235   3.375   0.920
 4181SOL     OW13441   5.206   1.063   6.807
 4181SOL    HW113442   5.186   1.161   6.810
 4181SOL    HW213443   5.123   1.012   6.828
 4182SOL     OW13444   0.235   5.329   3.603
 4182SOL    HW113445   0.328   5.359   3.579
 4182SOL    HW213446   0.175   5.409   3.607
 4183SOL     OW13447   2.517   0.428   0.614
 4183SOL    HW113448   2.528   0.379   0.700
 4183SOL    HW213449   2.579   0.506   0.611
 4184SOL     OW13450   3.801   0.066   2.176
 4184SOL    HW113451   3.900   0.067   2.167
 4184SOL    HW213452   3.761   0.133   2.115
 4185SOL     OW13453   0.848   4.070   2.825
 4185SOL    HW113454   0.825   4.055   2.921
 4185SOL    HW213455   0.879   4.164   2.812
 4186SOL     OW13456   2.510   5.656   6.195
 4186SOL    HW113457   2.490   5.672   6.292
 4186SOL    HW213458   2.464   5.572   6.166
 4187SOL     OW13459   2.731   3.527   0.312
 4187SOL    HW113460   2.815   3.545   0.261
 4187SOL    HW213461   2.753   3.483   0.399
 4188SOL     OW13462   5.387   0.160   5.336
 4188SOL    HW113463   5.309   0.099   5.348
 4188SOL    HW213464   5.356   0.255   5.336
 4189SOL     OW13465   3.780   4.987   3.696
 4189SOL    HW113466   3.797   5.025   3.787
 4189SOL    HW213467   3.682   4.986   3.678
 4190SOL     OW13468   0.295   6.680   0.885
 4190SOL    HW113469   0.366   6.718   0.944
 4190SOL    HW213470   0.222   6.641   0.941
 4191SOL     OW13471   5.366   4.147   5.729
 4191SOL    HW113472   5.352   4.205   5.649
 4191SOL    HW213473   5.464   4.132   5.743
 4192SOL     OW13474   1.626   1.090   1.743
 4192SOL    HW113475   1.539   1.132   1.769
 4192SOL    HW213476   1.693   1.107   1.815
 4193SOL     OW13477   5.448   0.475   0.266
 4193SOL    HW113478   5.547   0.477   0.252
 4193SOL    HW213479   5.418   0.563   0.303
 4194SOL     OW13480   4.778   7.000   4.558
 4194SOL    HW113481   4.769   6.910   4.599
 4194SOL    HW213482   4.809   0.041   4.626
 4195SOL     OW13483   4.199   5.633   1.745
 4195SOL    HW113484   4.110   5.643   1.702
 4195SOL    HW213485   4.216   5.537   1.766
 4196SOL     OW13486   6.764   2.489   2.974
 4196SOL    HW113487   6.666   2.483   2.989
 4196SOL    HW213488   6.800   2.400   2.946
 4197SOL     OW13489   4.072   5.167   5.414
 4197SOL    HW113490   4.004   5.237   5.391
 4197SOL    HW213491   4.089   5.169   5.513
 4198SOL     OW13492   6.860   1.689   2.204
 4198SOL    HW113493   6.769   1.728   2.192
 4198SOL    HW213494   6.862   1.595   2.167
 4199SOL     OW13495   1.105   2.641   5.382
 4199SOL    HW113496   1.029   2.672   5.325
 4199SOL    HW213497   1.189   2.689   5.355
 4200SOL     OW13498   2.940   0.453   5.796
 4200SOL    HW113499   2.881   0.457   5.716
 4200SOL    HW213500   2.981   0.362   5.802
 4201SOL     OW13501   6.250   6.944   2.915
 4201SOL    HW113502   6.280   6.939   3.011
 4201SOL    HW213503   6.206   6.858   2.890
 4202SOL     OW13504   2.879   5.512   6.821
 4202SOL    HW113505   2.791   5.515   6.869
 4202SOL    HW213506   2.909   5.418   6.813
 4203SOL     OW13507   4.895   4.329   6.962
 4203SOL    HW113508   4.842   4.290   0.013
 4203SOL    HW213509   4.976   4.272   6.946
 4204SOL     OW13510   4.023   3.502   5.404
 4204SOL    HW113511   4.085   3.544   5.338
 4204SOL    HW213512   4.050   3.528   5.497
 4205SOL     OW13513   3.723   5.744   4.685
 4205SOL    HW113514   3.803   5.740   4.745
 4205SOL    HW213515   3.748   5.795   4.602
 4206SOL     OW13516   6.554   1.772   4.749
 4206SOL    HW113517   6.646   1.735   4.764
 4206SOL    HW213518   6.489   1.697   4.737
 4207SOL     OW13519   2.281   2.932   1.457
 4207SOL    HW113520   2.316   3.014   1.412
 4207SOL    HW213521   2.265   2.951   1.554
 4208SOL     OW13522   0.342   3.844   5.894
 4208SOL    HW113523   0.430   3.798   5.910
 4208SOL    HW213524   0.338   3.876   5.799
 4209SOL     OW13525   6.976   6.123   2.930
 4209SOL    HW113526   6.961   6.165   3.020
 4209SOL    HW213527   0.004   6.039   2.942
 4210SOL     OW13528   4.145   3.287   2.918
 4210SOL    HW113529   4.141   3.272   3.017
 4210SOL    HW213530   4.112   3.379   2.897
 4211SOL     OW13531   3.427   1.458   5.695
 4211SOL    HW113532   3.439   1.475   5.793
 4211SOL    HW213533   3.510   1.487   5.646
 4212SOL     OW13534   6.834   1.784   3.649
 4212SOL    HW113535   6.797   1.806   3.559
 4212SOL    HW213536   6.832   1.685   3.663
 4213SOL     OW13537   2.986   6.899   3.026
 4213SOL    HW113538   2.923   6.866   2.955
 4213SOL    HW213539   3.049   6.826   3.052
 4214SOL     OW13540   0.496   5.941   4.986
 4214SOL    HW113541   0.462   5.912   5.075
 4214SOL    HW213542   0.587   5.901   4.970
 4215SOL     OW13543   4.568   6.990   5.089
 4215SOL    HW113544   4.517   6.948   5.013
 4215SOL    HW213545   4.664   6.964   5.083
 4216SOL     OW13546   1.299   0.839   1.936
 4216SOL    HW113547   1.317   0.897   2.016
 4216SOL    HW213548   1.370   0.854   1.867
 4217SOL     OW13549   1.418   0.621   2.157
 4217SOL    HW113550   1.371   0.540   2.194
 4217SOL    HW213551   1.354   0.673   2.100
 4218SOL     OW13552   3.577   0.094   1.394
 4218SOL    HW113553   3.558   0.133   1.484
 4218SOL    HW213554   3.607   0.166   1.332
 4219SOL     OW13555   4.690   6.243   4.167
 4219SOL    HW113556   4.684   6.157   4.117
 4219SOL    HW213557   4.777   6.288   4.144
 4220SOL     OW13558   6.075   3.608   2.385
 4220SOL    HW113559   6.026   3.535   2.338
 4220SOL    HW213560   6.056   3.603   2.483
 4221SOL     OW13561   6.109   4.709   5.914
 4221SOL    HW113562   6.184   4.765   5.951
 4221SOL    HW213563   6.148   4.632   5.863
 4222SOL     OW13564   6.487   1.036   3.286
 4222SOL    HW113565   6.494   1.025   3.385
 4222SOL    HW213566   6.573   1.071   3.250
 4223SOL     OW13567   4.192   3.382   0.795
 4223SOL    HW113568   4.216   3.307   0.733
 4223SOL    HW213569   4.268   3.399   0.858
 4224SOL     OW13570   5.575   5.020   4.664
 4224SOL    HW113571   5.522   5.000   4.747
 4224SOL    HW213572   5.527   5.088   4.609
 4225SOL     OW13573   1.655   2.496   5.273
 4225SOL    HW113574   1.695   2.532   5.357
 4225SOL    HW213575   1.695   2.543   5.194
 4226SOL     OW13576   0.938   5.666   3.307
 4226SOL    HW113577   0.909   5.596   3.373
 4226SOL    HW213578   1.026   5.704   3.336
 4227SOL     OW13579   4.768   6.258   1.977
 4227SOL    HW113580   4.863   6.262   2.006
 4227SOL    HW213581   4.739   6.163   1.970
 4228SOL     OW13582   6.917   6.395   5.681
 4228SOL    HW113583   6.915   6.420   5.778
 4228SOL    HW213584   6.947   6.300   5.672
 4229SOL     OW13585   4.361   5.402   5.626
 4229SOL    HW113586   4.359   5.497   5.658
 4229SOL    HW213587   4.445   5.387   5.573
 4230SOL     OW13588   1.775   6.161   3.397
 4230SOL    HW113589   1.693   6.124   3.354
 4230SOL    HW213590   1.761   6.167   3.496
 4231SOL     OW13591   5.167   0.157   5.786
 4231SOL    HW113592   5.188   0.254   5.775
 4231SOL    HW213593   5.076   0.147   5.826
 4232SOL     OW13594   1.403   4.618   3.681
 4232SOL    HW113595   1.475   4.687   3.684
 4232SOL    HW213596   1.348   4.623   3.765
 4233SOL     OW13597   0.094   1.476   5.144
 4233SOL    HW113598   0.079   1.560   5.092
 4233SOL    HW213599   0.106   1.400   5.081
 4234SOL     OW13600   2.442   5.215   5.270
 4234SOL    HW113601   2.440   5.314   5.257
 4234SOL    HW213602   2.476   5.193   5.362
 4235SOL     OW13603   6.953   4.369   5.816
 4235SOL    HW113604   7.003   4.376   5.730
 4235SOL    HW213605   6.924   4.275   5.830
 4236SOL     OW13606   6.389   4.319   2.002
 4236SOL    HW113607   6.346   4.390   2.059
 4236SOL    HW213608   6.318   4.261   1.962
 4237SOL     OW13609   6.987   4.831   3.719
 4237SOL    HW113610   6.887   4.832   3.717
 4237SOL    HW213611   7.023   4.877   3.638
 4238SOL     OW13612   1.534   6.748   2.884
 4238SOL    HW113613   1.465   6.805   2.928
 4238SOL    HW213614   1.621   6.756   2.934
 4239SOL     OW13615   4.520   1.772   3.022
 4239SOL    HW113616   4.457   1.695   3.013
 4239SOL    HW213617   4.468   1.855   3.040
 4240SOL     OW13618   1.752   5.641   0.628
 4240SOL    HW113619   1.797   5.671   0.711
 4240SOL    HW213620   1.820   5.610   0.562
 4241SOL     OW13621   5.511   1.030   0.403
 4241SOL    HW113622   5.556   1.093   0.339
 4241SOL    HW213623   5.558   1.034   0.492
 4242SOL     OW13624   3.058   2.157   4.079
 4242SOL    HW113625   2.961   2.137   4.070
 4242SOL    HW213626   3.092   2.198   3.994
 4243SOL     OW13627   5.663   1.935   2.861
 4243SOL    HW113628   5.591   1.988   2.905
 4243SOL    HW213629   5.703   1.988   2.786
 4244SOL     OW13630   4.058   4.310   1.293
 4244SOL    HW113631   4.135   4.344   1.349
 4244SOL    HW213632   3.979   4.295   1.352
 4245SOL     OW13633   6.456   1.999   6.286
 4245SOL    HW113634   6.363   1.978   6.256
 4245SOL    HW213635   6.475   1.953   6.372
 4246SOL     OW13636   6.530   4.109   3.106
 4246SOL    HW113637   6.489   4.091   3.195
 4246SOL    HW213638   6.526   4.207   3.086
 4247SOL     OW13639   2.108   6.373   3.710
 4247SOL    HW113640   2.087   6.297   3.771
 4247SOL    HW213641   2.123   6.456   3.764
 4248SOL     OW13642   2.988   1.575   4.099
 4248SOL    HW113643   2.991   1.664   4.144
 4248SOL    HW213644   3.077   1.530   4.109
 4249SOL     OW13645   6.581   2.919   5.223
 4249SOL    HW113646   6.596   2.856   5.146
 4249SOL    HW213647   6.652   2.906   5.292
 4250SOL     OW13648   0.333   4.463   2.886
 4250SOL    HW113649   0.257   4.426   2.832
 4250SOL    HW213650   0.357   4.398   2.958
 4251SOL     OW13651   5.365   4.724   0.817
 4251SOL    HW113652   5.399   4.754   0.906
 4251SOL    HW213653   5.443   4.711   0.755
 4252SOL     OW13654   5.998   6.740   5.385
 4252SOL    HW113655   5.938   6.793   5.445
 4252SOL    HW213656   6.093   6.752   5.414
 4253SOL     OW13657   2.962   6.838   1.132
 4253SOL    HW113658   2.924   6.766   1.190
 4253SOL    HW213659   2.889   6.878   1.077
 4254SOL     OW13660   1.317   2.551   2.267
 4254SOL    HW113661   1.294   2.600   2.183
 4254SOL    HW213662   1.391   2.485   2.248
 4255SOL     OW13663   5.593   3.067   3.634
 4255SOL    HW113664   5.583   2.969   3.652
 4255SOL    HW213665   5.652   3.081   3.555
 4256SOL     OW13666   1.511   6.613   0.856
 4256SOL    HW113667   1.499   6.711   0.873
 4256SOL    HW213668   1.489   6.593   0.760
 4257SOL     OW13669   3.401   0.363   4.607
 4257SOL    HW113670   3.376   0.455   4.638
 4257SOL    HW213671   3.419   0.365   4.509
 4258SOL     OW13672   6.083   6.679   1.394
 4258SOL    HW113673   6.169   6.628   1.403
 4258SOL    HW213674   6.072   6.741   1.472
 4259SOL     OW13675   2.698   0.566   6.903
 4259SOL    HW113676   2.760   0.544   6.979
 4259SOL    HW213677   2.709   0.661   6.877
 4260SOL     OW13678   4.920   6.803   5.658
 4260SOL    HW113679   4.873   6.839   5.738
 4260SOL    HW213680   4.963   6.878   5.608
 4261SOL     OW13681   1.829   0.574   1.760
 4261SOL    HW113682   1.733   0.551   1.774
 4261SOL    HW213683   1.849   0.582   1.663
 4262SOL     OW13684   0.459   4.540   6.137
 4262SOL    HW113685   0.516   4.459   6.150
 4262SOL    HW213686   0.400   4.527   6.057
 4263SOL     OW13687   2.894   6.610   3.165
 4263SOL    HW113688   2.861   6.645   3.252
 4263SOL    HW213689   2.978   6.557   3.180
 4264SOL     OW13690   6.967   2.256   2.410
 4264SOL    HW113691   6.903   2.201   2.355
 4264SOL    HW213692   6.960   2.229   2.506
 4265SOL     OW13693   5.494   1.281   0.717
 4265SOL    HW113694   5.495   1.298   0.618
 4265SOL    HW213695   5.402   1.254   0.745
 4266SOL     OW13696   2.007   5.351   0.528
 4266SOL    HW113697   1.965   5.327   0.615
 4266SOL    HW213698   1.952   5.422   0.483
 4267SOL     OW13699   1.389   3.507   5.430
 4267SOL    HW113700   1.420   3.568   5.356
 4267SOL    HW213701   1.438   3.529   5.514
 4268SOL     OW13702   1.358   6.595   6.087
 4268SOL    HW113703   1.424   6.533   6.046
 4268SOL    HW213704   1.271   6.590   6.037
 4269SOL     OW13705   1.945   0.879   1.541
 4269SOL    HW113706   1.907   0.921   1.623
 4269SOL    HW213707   1.950   0.947   1.467
 4270SOL     OW13708   3.105   3.001   4.713
 4270SOL    HW113709   3.070   2.928   4.771
 4270SOL    HW213710   3.064   3.088   4.740
 4271SOL     OW13711   0.651   1.115   6.765
 4271SOL    HW113712   0.629   1.196   6.819
 4271SOL    HW213713   0.605   1.035   6.805
 4272SOL     OW13714   0.892   4.257   4.841
 4272SOL    HW113715   0.963   4.256   4.771
 4272SOL    HW213716   0.898   4.175   4.897
 4273SOL     OW13717   4.832   5.883   4.765
 4273SOL    HW113718   4.890   5.957   4.731
 4273SOL    HW213719   4.751   5.874   4.707
 4274SOL     OW13720   1.692   6.716   2.230
 4274SOL    HW113721   1.776   6.714   2.284
 4274SOL    HW213722   1.697   6.647   2.158
 4275SOL     OW13723   6.645   1.787   5.113
 4275SOL    HW113724   6.574   1.753   5.051
 4275SOL    HW213725   6.698   1.858   5.066
 4276SOL     OW13726   1.251   4.590   3.888
 4276SOL    HW113727   1.156   4.563   3.905
 4276SOL    HW213728   1.302   4.584   3.974
 4277SOL     OW13729   6.122   4.567   4.112
 4277SOL    HW113730   6.221   4.577   4.117
 4277SOL    HW213731   6.079   4.657   4.116
 4278SOL     OW13732   0.239   0.662   4.586
 4278SOL    HW113733   0.286   0.616   4.662
 4278SOL    HW213734   0.157   0.610   4.562
 4279SOL     OW13735   3.492   7.015   5.585
 4279SOL    HW113736   3.447   6.929   5.610
 4279SOL    HW213737   3.427   0.048   5.536
 4280SOL     OW13738   5.183   0.861   5.156
 4280SOL    HW113739   5.211   0.952   5.187
 4280SOL    HW213740   5.219   0.845   5.064
 4281SOL     OW13741   2.091   5.123   4.484
 4281SOL    HW113742   2.127   5.159   4.570
 4281SOL    HW213743   2.008   5.174   4.459
 4282SOL     OW13744   3.384   2.766   0.633
 4282SOL    HW113745   3.389   2.667   0.649
 4282SOL    HW213746   3.299   2.788   0.585
 4283SOL     OW13747   2.016   1.064   3.642
 4283SOL    HW113748   2.073   1.143   3.620
 4283SOL    HW213749   2.030   1.038   3.737
 4284SOL     OW13750   4.987   5.994   1.753
 4284SOL    HW113751   4.912   5.935   1.782
 4284SOL    HW213752   4.953   6.062   1.688
 4285SOL     OW13753   0.700   0.434   5.645
 4285SOL    HW113754   0.631   0.465   5.580
 4285SOL    HW213755   0.759   0.511   5.671
 4286SOL     OW13756   4.944   5.767   6.714
 4286SOL    HW113757   4.864   5.750   6.657
 4286SOL    HW213758   4.959   5.688   6.775
 4287SOL     OW13759   5.637   1.025   6.504
 4287SOL    HW113760   5.644   1.005   6.406
 4287SOL    HW213761   5.544   1.055   6.526
 4288SOL     OW13762   0.983   6.006   3.063
 4288SOL    HW113763   0.923   5.956   3.125
 4288SOL    HW213764   0.947   6.002   2.970
 4289SOL     OW13765   6.202   3.284   1.016
 4289SOL    HW113766   6.281   3.242   0.971
 4289SOL    HW213767   6.233   3.349   1.085
 4290SOL     OW13768   2.891   6.542   2.382
 4290SOL    HW113769   2.980   6.587   2.396
 4290SOL    HW213770   2.906   6.447   2.356
 4291SOL     OW13771   4.481   3.670   1.657
 4291SOL    HW113772   4.450   3.748   1.713
 4291SOL    HW213773   4.403   3.632   1.609
 4292SOL     OW13774   6.537   4.565   6.020
 4292SOL    HW113775   6.469   4.628   6.057
 4292SOL    HW213776   6.582   4.517   6.095
 4293SOL     OW13777   0.337   2.993   0.389
 4293SOL    HW113778   0.348   3.083   0.432
 4293SOL    HW213779   0.376   2.923   0.448
 4294SOL     OW13780   3.470   2.729   6.816
 4294SOL    HW113781   3.445   2.808   6.872
 4294SOL    HW213782   3.440   2.744   6.722
 4295SOL     OW13783   3.657   6.234   4.607
 4295SOL    HW113784   3.749   6.213   4.641
 4295SOL    HW213785   3.594   6.241   4.684
 4296SOL     OW13786   3.717   1.183   0.279
 4296SOL    HW113787   3.643   1.249   0.273
 4296SOL    HW213788   3.685   1.094   0.248
 4297SOL     OW13789   5.481   0.604   6.164
 4297SOL    HW113790   5.450   0.524   6.113
 4297SOL    HW213791   5.470   0.587   6.262
 4298SOL     OW13792   2.654   5.436   6.451
 4298SOL    HW113793   2.745   5.477   6.461
 4298SOL    HW213794   2.656   5.370   6.376
 4299SOL     OW13795   0.432   3.150   0.159
 4299SOL    HW113796   0.351   3.144   0.101
 4299SOL    HW213797   0.415   3.102   0.245
 4300SOL     OW13798   3.657   0.973   0.122
 4300SOL    HW113799   3.744   0.938   0.086
 4300SOL    HW213800   3.603   1.010   0.046
 4301SOL     OW13801   3.014   1.315   0.853
 4301SOL    HW113802   3.006   1.385   0.782
 4301SOL    HW213803   3.108   1.314   0.888
 4302SOL     OW13804   0.980   6.566   5.502
 4302SOL    HW113805   0.983   6.604   5.594
 4302SOL    HW213806   0.888   6.532   5.483
 4303SOL     OW13807   6.003   4.814   4.068
 4303SOL    HW113808   6.032   4.902   4.105
 4303SOL    HW213809   5.915   4.789   4.109
 4304SOL     OW13810   3.296   3.654   4.284
 4304SOL    HW113811   3.292   3.603   4.370
 4304SOL    HW213812   3.246   3.740   4.293
 4305SOL     OW13813   5.994   0.981   4.067
 4305SOL    HW113814   6.039   0.970   4.155
 4305SOL    HW213815   5.969   1.077   4.054
 4306SOL     OW13816   6.507   3.804   6.730
 4306SOL    HW113817   6.442   3.751   6.784
 4306SOL    HW213818   6.503   3.900   6.756
 4307SOL     OW13819   5.156   3.861   6.308
 4307SOL    HW113820   5.140   3.802   6.387
 4307SOL    HW213821   5.083   3.847   6.241
 4308SOL     OW13822   5.667   5.564   6.394
 4308SOL    HW113823   5.722   5.489   6.357
 4308SOL    HW213824   5.682   5.571   6.492
 4309SOL     OW13825   1.294   1.091   0.369
 4309SOL    HW113826   1.322   1.105   0.464
 4309SOL    HW213827   1.316   0.998   0.341
 4310SOL     OW13828   2.229   2.534   3.041
 4310SOL    HW113829   2.158   2.603   3.053
 4310SOL    HW213830   2.192   2.457   2.989
 4311SOL     OW13831   1.447   5.884   3.246
 4311SOL    HW113832   1.474   5.921   3.335
 4311SOL    HW213833   1.462   5.785   3.245
 4312SOL     OW13834   1.460   5.420   0.914
 4312SOL    HW113835   1.470   5.457   0.822
 4312SOL    HW213836   1.484   5.323   0.914
 4313SOL     OW13837   5.183   1.411   1.762
 4313SOL    HW113838   5.115   1.473   1.722
 4313SOL    HW213839   5.267   1.461   1.782
 4314SOL     OW13840   5.875   1.912   4.157
 4314SOL    HW113841   5.816   1.831   4.154
 4314SOL    HW213842   5.843   1.979   4.090
 4315SOL     OW13843   2.843   0.458   1.937
 4315SOL    HW113844   2.766   0.506   1.979
 4315SOL    HW213845   2.898   0.523   1.885
 4316SOL     OW13846   5.214   0.400   0.924
 4316SOL    HW113847   5.254   0.469   0.983
 4316SOL    HW213848   5.128   0.435   0.886
 4317SOL     OW13849   3.975   1.442   4.776
 4317SOL    HW113850   4.023   1.529   4.789
 4317SOL    HW213851   4.002   1.401   4.689
 4318SOL     OW13852   1.434   2.984   3.567
 4318SOL    HW113853   1.346   2.951   3.600
 4318SOL    HW213854   1.497   2.994   3.644
 4319SOL     OW13855   2.106   3.200   0.445
 4319SOL    HW113856   2.027   3.256   0.423
 4319SOL    HW213857   2.080   3.104   0.448
 4320SOL     OW13858   0.443   6.235   1.950
 4320SOL    HW113859   0.486   6.273   1.868
 4320SOL    HW213860   0.397   6.150   1.928
 4321SOL     OW13861   6.960   0.170   4.128
 4321SOL    HW113862   6.959   0.074   4.100
 4321SOL    HW213863   0.008   0.184   4.196
 4322SOL     OW13864   5.994   2.006   6.524
 4322SOL    HW113865   6.007   1.956   6.439
 4322SOL    HW213866   6.038   1.957   6.600
 4323SOL     OW13867   4.981   4.076   1.484
 4323SOL    HW113868   4.994   3.978   1.472
 4323SOL    HW213869   5.006   4.123   1.399
 4324SOL     OW13870   5.917   3.942   6.271
 4324SOL    HW113871   5.905   3.894   6.358
 4324SOL    HW213872   5.874   4.032   6.277
 4325SOL     OW13873   1.905   0.520   0.643
 4325SOL    HW113874   1.995   0.497   0.604
 4325SOL    HW213875   1.833   0.484   0.583
 4326SOL     OW13876   5.546   2.790   4.871
 4326SOL    HW113877   5.599   2.792   4.786
 4326SOL    HW213878   5.596   2.738   4.940
 4327SOL     OW13879   5.911   5.247   2.291
 4327SOL    HW113880   5.995   5.295   2.316
 4327SOL    HW213881   5.832   5.305   2.311
 4328SOL     OW13882   4.401   3.707   6.033
 4328SOL    HW113883   4.438   3.693   5.941
 4328SOL    HW213884   4.448   3.784   6.076
 4329SOL     OW13885   3.826   1.657   6.469
 4329SOL    HW113886   3.849   1.743   6.423
 4329SOL    HW213887   3.879   1.649   6.553
 4330SOL     OW13888   2.934   0.458   4.931
 4330SOL    HW113889   2.983   0.536   4.969
 4330SOL    HW213890   2.935   0.464   4.831
 4331SOL     OW13891   4.700   2.964   0.918
 4331SOL    HW113892   4.770   2.918   0.864
 4331SOL    HW213893   4.706   2.933   1.013
 4332SOL     OW13894   5.174   4.902   2.195
 4332SOL    HW113895   5.165   4.812   2.152
 4332SOL    HW213896   5.143   4.897   2.290
 4333SOL     OW13897   4.546   0.858   5.655
 4333SOL    HW113898   4.538   0.804   5.738
 4333SOL    HW213899   4.640   0.889   5.644
 4334SOL     OW13900   1.919   1.834   2.547
 4334SOL    HW113901   1.869   1.914   2.516
 4334SOL    HW213902   2.018   1.852   2.539
 4335SOL     OW13903   3.275   3.744   3.446
 4335SOL    HW113904   3.367   3.782   3.436
 4335SOL    HW213905   3.280   3.644   3.446
 4336SOL     OW13906   1.514   6.735   5.837
 4336SOL    HW113907   1.425   6.702   5.806
 4336SOL    HW213908   1.502   6.790   5.920
 4337SOL     OW13909   1.083   4.411   0.492
 4337SOL    HW113910   1.137   4.382   0.570
 4337SOL    HW213911   1.107   4.505   0.468
 4338SOL     OW13912   5.166   5.558   4.028
 4338SOL    HW113913   5.117   5.535   3.944
 4338SOL    HW213914   5.260   5.583   4.006
 4339SOL     OW13915   6.398   3.774   4.895
 4339SOL    HW113916   6.456   3.851   4.870
 4339SOL    HW213917   6.322   3.766   4.830
 4340SOL     OW13918   5.974   4.398   2.317
 4340SOL    HW113919   5.888   4.360   2.352
 4340SOL    HW213920   5.984   4.492   2.349
 4341SOL     OW13921   0.603   5.729   2.189
 4341SOL    HW113922   0.609   5.734   2.090
 4341SOL    HW213923   0.590   5.634   2.217
 4342SOL     OW13924   6.726   4.043   3.916
 4342SOL    HW113925   6.749   4.125   3.864
 4342SOL    HW213926   6.780   3.966   3.884
 4343SOL     OW13927   2.615   6.326   6.009
 4343SOL    HW113928   2.656   6.375   6.086
 4343SOL    HW213929   2.598   6.231   6.034
 4344SOL     OW13930   1.938   5.327   3.036
 4344SOL    HW113931   1.866   5.288   2.978
 4344SOL    HW213932   1.918   5.307   3.132
 4345SOL     OW13933   1.960   3.183   5.377
 4345SOL    HW113934   1.955   3.279   5.352
 4345SOL    HW213935   1.940   3.173   5.475
 4346SOL     OW13936   1.878   2.988   1.981
 4346SOL    HW113937   1.973   2.978   2.010
 4346SOL    HW213938   1.862   3.081   1.947
 4347SOL     OW13939   5.940   6.906   2.637
 4347SOL    HW113940   5.923   6.954   2.551
 4347SOL    HW213941   5.909   6.963   2.713
 4348SOL     OW13942   0.001   3.476   2.689
 4348SOL    HW113943   0.059   3.422   2.750
 4348SOL    HW213944   7.018   3.430   2.600
 4349SOL     OW13945   6.521   1.967   2.463
 4349SOL    HW113946   6.530   1.876   2.504
 4349SOL    HW213947   6.427   1.999   2.476
 4350SOL     OW13948   5.127   2.450   3.869
 4350SOL    HW113949   5.030   2.457   3.846
 4350SOL    HW213950   5.140   2.466   3.967
 4351SOL     OW13951   1.713   6.740   1.322
 4351SOL    HW113952   1.660   6.675   1.266
 4351SOL    HW213953   1.802   6.755   1.279
 4352SOL     OW13954   1.158   2.250   2.365
 4352SOL    HW113955   1.107   2.166   2.381
 4352SOL    HW213956   1.250   2.242   2.404
 4353SOL     OW13957   3.397   4.370   0.183
 4353SOL    HW113958   3.487   4.409   0.204
 4353SOL    HW213959   3.406   4.303   0.109
 4354SOL     OW13960   2.399   6.613   5.294
 4354SOL    HW113961   2.469   6.641   5.360
 4354SOL    HW213962   2.318   6.671   5.305
 4355SOL     OW13963   3.368   0.843   2.224
 4355SOL    HW113964   3.357   0.929   2.274
 4355SOL    HW213965   3.315   0.846   2.140
 4356SOL     OW13966   4.557   4.328   1.548
 4356SOL    HW113967   4.508   4.317   1.634
 4356SOL    HW213968   4.614   4.247   1.531
 4357SOL     OW13969   6.062   0.645   6.893
 4357SOL    HW113970   6.118   0.589   6.833
 4357SOL    HW213971   5.980   0.676   6.843
 4358SOL     OW13972   6.751   5.854   0.391
 4358SOL    HW113973   6.704   5.938   0.419
 4358SOL    HW213974   6.847   5.875   0.371
 4359SOL     OW13975   1.535   2.223   5.786
 4359SOL    HW113976   1.446   2.269   5.789
 4359SOL    HW213977   1.547   2.168   5.869
 4360SOL     OW13978   1.438   2.777   3.012
 4360SOL    HW113979   1.380   2.730   3.078
 4360SOL    HW213980   1.416   2.875   3.012
 4361SOL     OW13981   2.915   2.851   1.691
 4361SOL    HW113982   2.852   2.923   1.723
 4361SOL    HW213983   3.001   2.858   1.741
 4362SOL     OW13984   6.189   4.059   3.542
 4362SOL    HW113985   6.161   4.117   3.619
 4362SOL    HW213986   6.182   4.111   3.457
 4363SOL     OW13987   5.573   2.728   6.792
 4363SOL    HW113988   5.661   2.760   6.828
 4363SOL    HW213989   5.583   2.703   6.696
 4364SOL     OW13990   3.317   3.522   5.372
 4364SOL    HW113991   3.389   3.542   5.439
 4364SOL    HW213992   3.233   3.571   5.397
 4365SOL     OW13993   2.133   2.543   1.951
 4365SOL    HW113994   2.074   2.493   1.887
 4365SOL    HW213995   2.228   2.536   1.920
 4366SOL     OW13996   5.759   6.412   0.518
 4366SOL    HW113997   5.745   6.459   0.431
 4366SOL    HW213998   5.737   6.315   0.507
 4367SOL     OW13999   2.073   5.099   4.966
 4367SOL    HW114000   2.131   5.131   5.041
 4367SOL    HW214001   2.129   5.083   4.885
 4368SOL     OW14002   4.004   5.311   1.406
 4368SOL    HW114003   4.024   5.237   1.342
 4368SOL    HW214004   3.979   5.273   1.495
 4369SOL     OW14005   3.928   5.503   3.473
 4369SOL    HW114006   4.005   5.527   3.532
 4369SOL    HW214007   3.886   5.418   3.506
 4370SOL     OW14008   4.636   4.750   2.913
 4370SOL    HW114009   4.612   4.845   2.892
 4370SOL    HW214010   4.554   4.693   2.908
 4371SOL     OW14011   0.006   0.944   1.333
 4371SOL    HW114012   7.003   1.007   1.259
 4371SOL    HW214013   0.103   0.959   1.353
 4372SOL     OW14014   4.351   0.863   3.299
 4372SOL    HW114015   4.284   0.817   3.241
 4372SOL    HW214016   4.361   0.958   3.269
 4373SOL     OW14017   0.218   2.271   6.292
 4373SOL    HW114018   0.310   2.265   6.331
 4373SOL    HW214019   0.151   2.282   6.365
 4374SOL     OW14020   1.005   1.658   1.831
 4374SOL    HW114021   0.952   1.742   1.838
 4374SOL    HW214022   1.018   1.634   1.735
 4375SOL     OW14023   3.369   0.607   3.894
 4375SOL    HW114024   3.303   0.677   3.866
 4375SOL    HW214025   3.447   0.607   3.831
 4376SOL     OW14026   6.552   6.552   3.419
 4376SOL    HW114027   6.468   6.597   3.388
 4376SOL    HW214028   6.594   6.607   3.492
 4377SOL     OW14029   5.843   4.038   6.840
 4377SOL    HW114030   5.924   4.081   6.800
 4377SOL    HW214031   5.790   4.106   6.890
 4378SOL     OW14032   1.959   1.611   2.370
 4378SOL    HW114033   1.932   1.679   2.439
 4378SOL    HW214034   2.031   1.649   2.312
 4379SOL     OW14035   2.352   1.105   2.674
 4379SOL    HW114036   2.301   1.076   2.755
 4379SOL    HW214037   2.298   1.171   2.622
 4380SOL     OW14038   1.747   0.182   2.314
 4380SOL    HW114039   1.802   0.098   2.314
 4380SOL    HW214040   1.733   0.213   2.220
 4381SOL     OW14041   0.372   6.295   5.331
 4381SOL    HW114042   0.445   6.288   5.263
 4381SOL    HW214043   0.305   6.223   5.315
 4382SOL     OW14044   0.627   3.490   5.522
 4382SOL    HW114045   0.690   3.499   5.599
 4382SOL    HW214046   0.562   3.566   5.522
 4383SOL     OW14047   0.236   3.542   6.326
 4383SOL    HW114048   0.191   3.628   6.300
 4383SOL    HW214049   0.312   3.524   6.263
 4384SOL     OW14050   6.079   0.573   4.304
 4384SOL    HW114051   6.155   0.638   4.305
 4384SOL    HW214052   6.112   0.483   4.273
 4385SOL     OW14053   4.499   2.649   5.199
 4385SOL    HW114054   4.506   2.662   5.101
 4385SOL    HW214055   4.505   2.738   5.245
 4386SOL     OW14056   1.606   3.682   5.259
 4386SOL    HW114057   1.596   3.633   5.172
 4386SOL    HW214058   1.541   3.759   5.261
 4387SOL     OW14059   6.536   1.939   1.711
 4387SOL    HW114060   6.521   1.870   1.782
 4387SOL    HW214061   6.613   1.911   1.653
 4388SOL     OW14062   3.828   2.123   6.174
 4388SOL    HW114063   3.800   2.217   6.156
 4388SOL    HW214064   3.822   2.069   6.090
 4389SOL     OW14065   6.988   3.774   0.641
 4389SOL    HW114066   0.022   3.818   0.710
 4389SOL    HW214067   6.968   3.680   0.669
 4390SOL     OW14068   4.349   6.955   1.618
 4390SOL    HW114069   4.307   7.007   1.693
 4390SOL    HW214070   4.444   6.983   1.608
 4391SOL     OW14071   3.001   5.020   0.239
 4391SOL    HW114072   3.072   5.088   0.218
 4391SOL    HW214073   3.024   4.933   0.197
 4392SOL     OW14074   1.216   2.338   5.058
 4392SOL    HW114075   1.120   2.365   5.060
 4392SOL    HW214076   1.273   2.420   5.069
 4393SOL     OW14077   6.346   0.559   1.540
 4393SOL    HW114078   6.283   0.519   1.607
 4393SOL    HW214079   6.437   0.567   1.581
 4394SOL     OW14080   0.045   6.008   2.346
 4394SOL    HW114081   0.004   6.036   2.259
 4394SOL    HW214082   7.011   6.037   2.421
 4395SOL     OW14083   1.940   0.816   1.853
 4395SOL    HW114084   1.930   0.721   1.823
 4395SOL    HW214085   1.853   0.849   1.890
 4396SOL     OW14086   1.740   1.593   4.027
 4396SOL    HW114087   1.699   1.646   3.952
 4396SOL    HW214088   1.774   1.506   3.991
 4397SOL     OW14089   1.554   2.763   4.741
 4397SOL    HW114090   1.562   2.862   4.756
 4397SOL    HW214091   1.545   2.745   4.644
 4398SOL     OW14092   1.834   3.199   6.197
 4398SOL    HW114093   1.734   3.197   6.192
 4398SOL    HW214094   1.864   3.293   6.217
 4399SOL     OW14095   3.425   6.126   2.331
 4399SOL    HW114096   3.409   6.175   2.416
 4399SOL    HW214097   3.513   6.079   2.336
 4400SOL     OW14098   2.037   6.765   3.802
 4400SOL    HW114099   2.035   6.763   3.702
 4400SOL    HW214100   1.982   6.690   3.838
 4401SOL     OW14101   3.408   6.879   5.331
 4401SOL    HW114102   3.460   6.904   5.413
 4401SOL    HW214103   3.311   6.873   5.354
 4402SOL     OW14104   1.227   6.743   2.824
 4402SOL    HW114105   1.247   6.835   2.858
 4402SOL    HW214106   1.246   6.739   2.726
 4403SOL     OW14107   1.290   6.773   0.225
 4403SOL    HW114108   1.381   6.804   0.195
 4403SOL    HW214109   1.270   6.813   0.315
 4404SOL     OW14110   0.750   6.502   5.343
 4404SOL    HW114111   0.772   6.519   5.247
 4404SOL    HW214112   0.655   6.528   5.361
 4405SOL     OW14113   1.780   4.829   2.199
 4405SOL    HW114114   1.748   4.739   2.228
 4405SOL    HW214115   1.719   4.865   2.127
 4406SOL     OW14116   6.714   2.875   0.499
 4406SOL    HW114117   6.650   2.854   0.426
 4406SOL    HW214118   6.799   2.824   0.485
 4407SOL     OW14119   0.201   5.167   1.729
 4407SOL    HW114120   0.132   5.114   1.780
 4407SOL    HW214121   0.274   5.194   1.792
 4408SOL     OW14122   1.845   6.742   6.963
 4408SOL    HW114123   1.915   6.680   6.999
 4408SOL    HW214124   1.756   6.719   7.004
 4409SOL     OW14125   4.160   1.453   1.541
 4409SOL    HW114126   4.224   1.473   1.615
 4409SOL    HW214127   4.120   1.538   1.508
 4410SOL     OW14128   0.269   5.691   0.177
 4410SOL    HW114129   0.315   5.710   0.263
 4410SOL    HW214130   0.269   5.772   0.119
 4411SOL     OW14131   3.393   4.642   5.376
 4411SOL    HW114132   3.444   4.684   5.450
 4411SOL    HW214133   3.359   4.712   5.314
 4412SOL     OW14134   4.555   6.350   4.386
 4412SOL    HW114135   4.627   6.310   4.329
 4412SOL    HW214136   4.547   6.447   4.366
 4413SOL     OW14137   5.330   5.613   3.621
 4413SOL    HW114138   5.348   5.552   3.698
 4413SOL    HW214139   5.332   5.708   3.653
 4414SOL     OW14140   3.682   6.033   1.204
 4414SOL    HW114141   3.632   5.961   1.253
 4414SOL    HW214142   3.731   5.994   1.127
 4415SOL     OW14143   4.297   3.180   0.227
 4415SOL    HW114144   4.306   3.247   0.154
 4415SOL    HW214145   4.238   3.217   0.299
 4416SOL     OW14146   4.338   1.577   3.587
 4416SOL    HW114147   4.422   1.527   3.607
 4416SOL    HW214148   4.270   1.514   3.548
 4417SOL     OW14149   5.624   3.591   3.713
 4417SOL    HW114150   5.691   3.524   3.679
 4417SOL    HW214151   5.535   3.572   3.671
 4418SOL     OW14152   6.308   2.151   2.933
 4418SOL    HW114153   6.318   2.118   3.026
 4418SOL    HW214154   6.247   2.231   2.932
 4419SOL     OW14155   6.505   7.011   5.716
 4419SOL    HW114156   6.412   6.976   5.720
 4419SOL    HW214157   6.569   6.942   5.750
 4420SOL     OW14158   3.966   1.641   1.391
 4420SOL    HW114159   3.898   1.570   1.412
 4420SOL    HW214160   3.997   1.683   1.477
 4421SOL     OW14161   2.303   1.923   5.343
 4421SOL    HW114162   2.260   1.902   5.255
 4421SOL    HW214163   2.314   1.839   5.395
 4422SOL     OW14164   1.400   4.400   6.969
 4422SOL    HW114165   1.311   4.439   6.947
 4422SOL    HW214166   1.456   4.396   6.887
 4423SOL     OW14167   0.295   4.220   5.841
 4423SOL    HW114168   0.363   4.182   5.903
 4423SOL    HW214169   0.289   4.319   5.855
 4424SOL     OW14170   5.473   6.516   4.561
 4424SOL    HW114171   5.419   6.436   4.585
 4424SOL    HW214172   5.570   6.490   4.553
 4425SOL     OW14173   1.644   5.104   0.611
 4425SOL    HW114174   1.673   5.198   0.596
 4425SOL    HW214175   1.705   5.042   0.561
 4426SOL     OW14176   0.524   1.522   4.061
 4426SOL    HW114177   0.618   1.528   4.027
 4426SOL    HW214178   0.512   1.584   4.139
 4427SOL     OW14179   4.937   6.174   2.826
 4427SOL    HW114180   4.901   6.115   2.899
 4427SOL    HW214181   4.873   6.248   2.808
 4428SOL     OW14182   4.282   0.382   4.288
 4428SOL    HW114183   4.322   0.462   4.243
 4428SOL    HW214184   4.256   0.405   4.381
 4429SOL     OW14185   2.707   6.446   2.578
 4429SOL    HW114186   2.637   6.510   2.608
 4429SOL    HW214187   2.780   6.495   2.530
 4430SOL     OW14188   4.745   4.667   4.983
 4430SOL    HW114189   4.723   4.764   4.972
 4430SOL    HW214190   4.687   4.612   4.924
 4431SOL     OW14191   3.037   0.998   3.321
 4431SOL    HW114192   3.049   0.917   3.264
 4431SOL    HW214193   2.965   1.055   3.282
 4432SOL     OW14194   2.450   3.659   6.536
 4432SOL    HW114195   2.406   3.678   6.448
 4432SOL    HW214196   2.544   3.630   6.520
 4433SOL     OW14197   0.045   2.734   4.165
 4433SOL    HW114198   0.051   2.636   4.145
 4433SOL    HW214199   0.123   2.761   4.221
 4434SOL     OW14200   5.400   1.602   3.300
 4434SOL    HW114201   5.342   1.602   3.218
 4434SOL    HW214202   5.405   1.695   3.337
 4435SOL     OW14203   4.336   3.750   1.270
 4435SOL    HW114204   4.249   3.795   1.288
 4435SOL    HW214205   4.322   3.651   1.260
 4436SOL     OW14206   4.080   1.250   1.166
 4436SOL    HW114207   4.107   1.334   1.212
 4436SOL    HW214208   4.003   1.209   1.216
 4437SOL     OW14209   0.949   3.027   2.735
 4437SOL    HW114210   0.873   3.052   2.674
 4437SOL    HW214211   0.913   3.012   2.827
 4438SOL     OW14212   4.748   6.656   5.861
 4438SOL    HW114213   4.751   6.638   5.762
 4438SOL    HW214214   4.820   6.721   5.885
 4439SOL     OW14215   0.439   4.968   2.461
 4439SOL    HW114216   0.426   4.923   2.373
 4439SOL    HW214217   0.512   4.922   2.512
 4440SOL     OW14218   2.773   5.465   0.572
 4440SOL    HW114219   2.825   5.427   0.648
 4440SOL    HW214220   2.736   5.554   0.598
 4441SOL     OW14221   6.752   1.252   1.006
 4441SOL    HW114222   6.732   1.178   0.942
 4441SOL    HW214223   6.825   1.224   1.068
 4442SOL     OW14224   1.610   5.705   4.884
 4442SOL    HW114225   1.556   5.655   4.816
 4442SOL    HW214226   1.659   5.640   4.942
 4443SOL     OW14227   0.922   3.761   5.961
 4443SOL    HW114228   0.935   3.663   5.975
 4443SOL    HW214229   0.939   3.810   6.047
 4444SOL     OW14230   4.277   3.357   0.036
 4444SOL    HW114231   4.216   3.387   6.988
 4444SOL    HW214232   4.319   3.437   0.080
 4445SOL     OW14233   1.472   6.248   0.069
 4445SOL    HW114234   1.459   6.273   0.165
 4445SOL    HW214235   1.437   6.321   0.010
 4446SOL     OW14236   5.866   1.920   0.242
 4446SOL    HW114237   5.892   1.863   0.320
 4446SOL    HW214238   5.836   1.861   0.166
 4447SOL     OW14239   6.078   3.988   4.659
 4447SOL    HW114240   6.126   4.021   4.577
 4447SOL    HW214241   6.101   3.892   4.674
 4448SOL     OW14242   2.950   6.296   0.906
 4448SOL    HW114243   2.950   6.395   0.921
 4448SOL    HW214244   3.044   6.263   0.902
 4449SOL     OW14245   5.154   0.838   5.653
 4449SOL    HW114246   5.211   0.779   5.595
 4449SOL    HW214247   5.141   0.926   5.607
 4450SOL     OW14248   3.135   1.798   6.988
 4450SOL    HW114249   3.050   1.834   6.949
 4450SOL    HW214250   3.209   1.863   6.972
 4451SOL     OW14251   4.747   4.926   4.906
 4451SOL    HW114252   4.843   4.918   4.881
 4451SOL    HW214253   4.736   4.999   4.973
 4452SOL     OW14254   6.220   5.223   4.421
 4452SOL    HW114255   6.201   5.140   4.367
 4452SOL    HW214256   6.303   5.266   4.386
 4453SOL     OW14257   0.894   2.706   1.967
 4453SOL    HW114258   0.921   2.739   2.058
 4453SOL    HW214259   0.968   2.722   1.902
 4454SOL     OW14260   1.159   1.545   0.108
 4454SOL    HW114261   1.256   1.567   0.110
 4454SOL    HW214262   1.136   1.484   0.184
 4455SOL     OW14263   5.448   5.998   5.603
 4455SOL    HW114264   5.408   5.907   5.590
 4455SOL    HW214265   5.544   5.988   5.630
 4456SOL     OW14266   2.201   5.886   2.890
 4456SOL    HW114267   2.220   5.859   2.796
 4456SOL    HW214268   2.202   5.986   2.897
 4457SOL     OW14269   2.594   1.709   3.972
 4457SOL    HW114270   2.610   1.730   4.069
 4457SOL    HW214271   2.559   1.790   3.925
 4458SOL     OW14272   2.623   3.817   1.598
 4458SOL    HW114273   2.531   3.847   1.621
 4458SOL    HW214274   2.638   3.725   1.634
 4459SOL     OW14275   3.503   1.833   4.330
 4459SOL    HW114276   3.463   1.901   4.269
 4459SOL    HW214277   3.459   1.838   4.420
 4460SOL     OW14278   1.328   2.881   6.520
 4460SOL    HW114279   1.392   2.954   6.496
 4460SOL    HW214280   1.266   2.863   6.444
 4461SOL     OW14281   1.792   0.792   0.683
 4461SOL    HW114282   1.826   0.820   0.773
 4461SOL    HW214283   1.837   0.706   0.656
 4462SOL     OW14284   5.666   4.509   1.672
 4462SOL    HW114285   5.674   4.539   1.767
 4462SOL    HW214286   5.671   4.409   1.668
 4463SOL     OW14287   4.920   1.138   1.314
 4463SOL    HW114288   4.944   1.075   1.389
 4463SOL    HW214289   4.971   1.224   1.326
 4464SOL     OW14290   0.007   6.610   0.646
 4464SOL    HW114291   6.999   6.589   0.554
 4464SOL    HW214292   0.096   6.655   0.641
 4465SOL     OW14293   2.448   5.205   0.302
 4465SOL    HW114294   2.395   5.279   0.342
 4465SOL    HW214295   2.539   5.203   0.344
 4466SOL     OW14296   1.074   1.709   2.666
 4466SOL    HW114297   1.140   1.690   2.593
 4466SOL    HW214298   1.119   1.698   2.754
 4467SOL     OW14299   2.409   5.246   3.681
 4467SOL    HW114300   2.360   5.161   3.664
 4467SOL    HW214301   2.438   5.286   3.594
 4468SOL     OW14302   1.427   4.280   1.115
 4468SOL    HW114303   1.332   4.255   1.129
 4468SOL    HW214304   1.437   4.379   1.121
 4469SOL     OW14305   3.574   0.821   1.227
 4469SOL    HW114306   3.502   0.764   1.187
 4469SOL    HW214307   3.631   0.858   1.153
 4470SOL     OW14308   0.871   1.593   2.234
 4470SOL    HW114309   0.912   1.554   2.152
 4470SOL    HW214310   0.787   1.544   2.256
 4471SOL     OW14311   1.768   2.657   6.848
 4471SOL    HW114312   1.688   2.684   6.901
 4471SOL    HW214313   1.760   2.561   6.822
 4472SOL     OW14314   0.893   1.852   0.857
 4472SOL    HW114315   0.894   1.941   0.810
 4472SOL    HW214316   0.802   1.837   0.896
 4473SOL     OW14317   5.332   2.651   4.082
 4473SOL    HW114318   5.416   2.688   4.040
 4473SOL    HW214319   5.256   2.712   4.063
 4474SOL     OW14320   3.082   6.559   2.069
 4474SOL    HW114321   3.092   6.658   2.062
 4474SOL    HW214322   3.147   6.515   2.006
 4475SOL     OW14323   1.382   3.853   1.753
 4475SOL    HW114324   1.313   3.834   1.822
 4475SOL    HW214325   1.355   3.812   1.666
 4476SOL     OW14326   6.319   0.716   4.291
 4476SOL    HW114327   6.350   0.648   4.357
 4476SOL    HW214328   6.367   0.703   4.204
 4477SOL     OW14329   1.893   0.555   5.426
 4477SOL    HW114330   1.852   0.491   5.360
 4477SOL    HW214331   1.858   0.535   5.517
 4478SOL     OW14332   2.150   0.081   2.191
 4478SOL    HW114333   2.170   7.008   2.191
 4478SOL    HW214334   2.060   0.097   2.151
 4479SOL     OW14335   1.252   2.010   1.132
 4479SOL    HW114336   1.230   2.107   1.143
 4479SOL    HW214337   1.338   1.989   1.180
 4480SOL     OW14338   0.485   4.680   5.138
 4480SOL    HW114339   0.505   4.701   5.043
 4480SOL    HW214340   0.485   4.765   5.191
 4481SOL     OW14341   2.284   5.343   4.916
 4481SOL    HW114342   2.247   5.339   5.008
 4481SOL    HW214343   2.364   5.283   4.909
 4482SOL     OW14344   2.223   2.835   5.531
 4482SOL    HW114345   2.311   2.869   5.566
 4482SOL    HW214346   2.208   2.870   5.439
 4483SOL     OW14347   0.194   2.507   1.929
 4483SOL    HW114348   0.236   2.573   1.867
 4483SOL    HW214349   0.255   2.429   1.942
 4484SOL     OW14350   2.435   2.344   0.060
 4484SOL    HW114351   2.451   2.280   0.136
 4484SOL    HW214352   2.401   2.431   0.096
 4485SOL     OW14353   4.935   2.529   5.109
 4485SOL    HW114354   4.890   2.604   5.061
 4485SOL    HW214355   4.912   2.442   5.065
 4486SOL     OW14356   6.290   5.232   5.011
 4486SOL    HW114357   6.350   5.300   4.967
 4486SOL    HW214358   6.197   5.268   5.016
 4487SOL     OW14359   2.854   3.138   0.475
 4487SOL    HW114360   2.841   3.229   0.513
 4487SOL    HW214361   2.836   3.140   0.377
 4488SOL     OW14362   0.870   3.670   4.749
 4488SOL    HW114363   0.934   3.600   4.782
 4488SOL    HW214364   0.784   3.628   4.722
 4489SOL     OW14365   4.710   5.368   4.907
 4489SOL    HW114366   4.651   5.301   4.952
 4489SOL    HW214367   4.761   5.419   4.976
 4490SOL     OW14368   5.417   1.560   1.787
 4490SOL    HW114369   5.444   1.594   1.877
 4490SOL    HW214370   5.454   1.619   1.716
 4491SOL     OW14371   0.566   3.484   3.492
 4491SOL    HW114372   0.647   3.504   3.437
 4491SOL    HW214373   0.593   3.430   3.572
 4492SOL     OW14374   6.101   3.376   1.623
 4492SOL    HW114375   6.148   3.326   1.550
 4492SOL    HW214376   6.169   3.416   1.684
 4493SOL     OW14377   4.850   6.299   5.065
 4493SOL    HW114378   4.922   6.241   5.027
 4493SOL    HW214379   4.765   6.246   5.071
 4494SOL     OW14380   1.210   0.764   5.891
 4494SOL    HW114381   1.250   0.767   5.983
 4494SOL    HW214382   1.281   0.780   5.823
 4495SOL     OW14383   4.605   6.938   3.103
 4495SOL    HW114384   4.640   6.865   3.161
 4495SOL    HW214385   4.505   6.942   3.110
 4496SOL     OW14386   5.445   6.094   0.653
 4496SOL    HW114387   5.347   6.072   0.647
 4496SOL    HW214388   5.478   6.074   0.746
 4497SOL     OW14389   4.274   2.365   6.233
 4497SOL    HW114390   4.240   2.302   6.164
 4497SOL    HW214391   4.372   2.349   6.247
 4498SOL     OW14392   6.641   4.572   6.334
 4498SOL    HW114393   6.574   4.641   6.360
 4498SOL    HW214394   6.706   4.559   6.410
 4499SOL     OW14395   6.649   2.580   3.631
 4499SOL    HW114396   6.629   2.485   3.653
 4499SOL    HW214397   6.747   2.597   3.641
 4500SOL     OW14398   4.115   4.060   6.691
 4500SOL    HW114399   4.146   4.155   6.680
 4500SOL    HW214400   4.041   4.042   6.626
 4501SOL     OW14401   6.463   2.947   3.081
 4501SOL    HW114402   6.545   3.005   3.090
 4501SOL    HW214403   6.486   2.865   3.030
 4502SOL     OW14404   1.439   3.752   0.119
 4502SOL    HW114405   1.521   3.728   0.067
 4502SOL    HW214406   1.466   3.803   0.201
 4503SOL     OW14407   3.201   7.006   2.225
 4503SOL    HW114408   3.261   0.060   2.210
 4503SOL    HW214409   3.256   6.927   2.250
 4504SOL     OW14410   6.229   1.968   4.452
 4504SOL    HW114411   6.165   1.926   4.516
 4504SOL    HW214412   6.323   1.952   4.482
 4505SOL     OW14413   6.512   4.706   1.613
 4505SOL    HW114414   6.518   4.634   1.682
 4505SOL    HW214415   6.605   4.736   1.589
 4506SOL     OW14416   5.204   2.536   3.364
 4506SOL    HW114417   5.135   2.542   3.436
 4506SOL    HW214418   5.221   2.439   3.343
 4507SOL     OW14419   0.163   3.225   3.648
 4507SOL    HW114420   0.231   3.260   3.712
 4507SOL    HW214421   0.207   3.166   3.581
 4508SOL     OW14422   1.323   4.905   0.015
 4508SOL    HW114423   1.379   4.881   0.095
 4508SOL    HW214424   1.379   4.901   6.958
 4509SOL     OW14425   4.746   1.813   3.177
 4509SOL    HW114426   4.824   1.766   3.137
 4509SOL    HW214427   4.663   1.793   3.124
 4510SOL     OW14428   4.723   1.046   4.898
 4510SOL    HW114429   4.629   1.046   4.933
 4510SOL    HW214430   4.729   1.107   4.820
 4511SOL     OW14431   6.143   3.686   0.388
 4511SOL    HW114432   6.105   3.598   0.414
 4511SOL    HW214433   6.095   3.759   0.438
 4512SOL     OW14434   3.459   1.773   6.484
 4512SOL    HW114435   3.497   1.720   6.408
 4512SOL    HW214436   3.441   1.867   6.454
 4513SOL     OW14437   1.096   5.977   6.355
 4513SOL    HW114438   1.004   6.017   6.356
 4513SOL    HW214439   1.146   6.009   6.275
 4514SOL     OW14440   3.761   2.658   6.131
 4514SOL    HW114441   3.751   2.757   6.136
 4514SOL    HW214442   3.676   2.618   6.096
 4515SOL     OW14443   5.567   2.045   5.431
 4515SOL    HW114444   5.584   2.101   5.512
 4515SOL    HW214445   5.529   1.957   5.458
 4516SOL     OW14446   2.429   0.134   5.723
 4516SOL    HW114447   2.392   0.044   5.748
 4516SOL    HW214448   2.492   0.124   5.646
 4517SOL     OW14449   4.697   6.996   6.405
 4517SOL    HW114450   4.632   6.937   6.454
 4517SOL    HW214451   4.648   0.050   6.369
 4518SOL     OW14452   0.726   6.778   1.753
 4518SOL    HW114453   0.770   6.864   1.777
 4518SOL    HW214454   0.631   6.779   1.786
 4519SOL     OW14455   5.040   6.740   0.004
 4519SOL    HW114456   5.026   6.666   6.963
 4519SOL    HW214457   4.951   6.774   0.035
 4520SOL     OW14458   4.083   5.647   6.059
 4520SOL    HW114459   4.045   5.605   5.976
 4520SOL    HW214460   4.050   5.741   6.067
 4521SOL     OW14461   4.801   2.130   4.461
 4521SOL    HW114462   4.892   2.091   4.477
 4521SOL    HW214463   4.795   2.219   4.505
 4522SOL     OW14464   5.696   4.298   2.414
 4522SOL    HW114465   5.626   4.312   2.485
 4522SOL    HW214466   5.772   4.245   2.452
 4523SOL     OW14467   1.649   4.023   6.858
 4523SOL    HW114468   1.627   3.926   6.868
 4523SOL    HW214469   1.659   4.064   6.949
 4524SOL     OW14470   6.222   3.162   2.491
 4524SOL    HW114471   6.303   3.218   2.476
 4524SOL    HW214472   6.154   3.214   2.544
 4525SOL     OW14473   3.085   2.049   6.063
 4525SOL    HW114474   3.129   2.066   6.151
 4525SOL    HW214475   3.118   1.962   6.025
 4526SOL     OW14476   6.966   0.466   6.857
 4526SOL    HW114477   0.033   0.431   6.870
 4526SOL    HW214478   6.901   0.410   6.909
 4527SOL     OW14479   6.484   6.704   2.999
 4527SOL    HW114480   6.502   6.751   2.912
 4527SOL    HW214481   6.439   6.767   3.062
 4528SOL     OW14482   4.396   0.757   6.606
 4528SOL    HW114483   4.392   0.708   6.693
 4528SOL    HW214484   4.431   0.696   6.535
 4529SOL     OW14485   2.751   1.271   5.954
 4529SOL    HW114486   2.696   1.314   5.882
 4529SOL    HW214487   2.711   1.183   5.979
 4530SOL     OW14488   2.313   5.885   3.433
 4530SOL    HW114489   2.352   5.897   3.341
 4530SOL    HW214490   2.214   5.891   3.427
 4531SOL     OW14491   1.237   3.607   6.316
 4531SOL    HW114492   1.308   3.671   6.285
 4531SOL    HW214493   1.223   3.537   6.246
 4532SOL     OW14494   5.741   0.443   2.764
 4532SOL    HW114495   5.708   0.392   2.685
 4532SOL    HW214496   5.837   0.420   2.781
 4533SOL     OW14497   1.725   1.361   2.770
 4533SOL    HW114498   1.802   1.385   2.712
 4533SOL    HW214499   1.730   1.264   2.795
 4534SOL     OW14500   4.641   2.236   5.229
 4534SOL    HW114501   4.634   2.157   5.167
 4534SOL    HW214502   4.554   2.285   5.231
 4535SOL     OW14503   3.909   1.161   1.427
 4535SOL    HW114504   3.990   1.159   1.486
 4535SOL    HW214505   3.852   1.081   1.446
 4536SOL     OW14506   3.196   1.463   4.807
 4536SOL    HW114507   3.150   1.473   4.719
 4536SOL    HW214508   3.133   1.487   4.880
 4537SOL     OW14509   4.174   3.565   2.355
 4537SOL    HW114510   4.162   3.512   2.271
 4537SOL    HW214511   4.264   3.607   2.356
 4538SOL     OW14512   2.770   0.888   2.687
 4538SOL    HW114513   2.802   0.814   2.627
 4538SOL    HW214514   2.849   0.934   2.727
 4539SOL     OW14515   2.438   6.026   4.374
 4539SOL    HW114516   2.458   6.095   4.305
 4539SOL    HW214517   2.367   5.964   4.340
 4540SOL     OW14518   2.481   1.224   0.556
 4540SOL    HW114519   2.547   1.151   0.540
 4540SOL    HW214520   2.513   1.283   0.630
 4541SOL     OW14521   5.357   1.028   7.023
 4541SOL    HW114522   5.319   1.043   6.932
 4541SOL    HW214523   5.448   1.069   0.004
 4542SOL     OW14524   6.916   1.552   1.785
 4542SOL    HW114525   6.824   1.549   1.745
 4542SOL    HW214526   6.931   1.642   1.827
 4543SOL     OW14527   5.043   2.131   0.912
 4543SOL    HW114528   5.099   2.049   0.902
 4543SOL    HW214529   4.998   2.153   0.825
 4544SOL     OW14530   4.011   5.029   0.654
 4544SOL    HW114531   4.104   5.038   0.690
 4544SOL    HW214532   3.965   5.117   0.659
 4545SOL     OW14533   0.419   3.683   5.373
 4545SOL    HW114534   0.380   3.654   5.285
 4545SOL    HW214535   0.505   3.731   5.357
 4546SOL     OW14536   2.747   0.247   4.871
 4546SOL    HW114537   2.822   0.313   4.870
 4546SOL    HW214538   2.762   0.178   4.801
 4547SOL     OW14539   6.197   1.270   0.261
 4547SOL    HW114540   6.185   1.364   0.230
 4547SOL    HW214541   6.245   1.218   0.190
 4548SOL     OW14542   2.665   2.395   3.235
 4548SOL    HW114543   2.624   2.480   3.265
 4548SOL    HW214544   2.598   2.342   3.183
 4549SOL     OW14545   5.006   3.937   2.199
 4549SOL    HW114546   4.953   3.906   2.278
 4549SOL    HW214547   5.028   3.859   2.141
 4550SOL     OW14548   1.313   4.108   3.485
 4550SOL    HW114549   1.261   4.164   3.420
 4550SOL    HW214550   1.409   4.135   3.482
 4551SOL     OW14551   0.853   4.098   5.106
 4551SOL    HW114552   0.839   4.001   5.123
 4551SOL    HW214553   0.765   4.143   5.091
 4552SOL     OW14554   5.818   2.440   0.933
 4552SOL    HW114555   5.810   2.409   1.028
 4552SOL    HW214556   5.914   2.452   0.910
 4553SOL     OW14557   5.407   4.842   6.593
 4553SOL    HW114558   5.506   4.844   6.585
 4553SOL    HW214559   5.377   4.747   6.609
 4554SOL     OW14560   0.283   0.071   1.986
 4554SOL    HW114561   0.266   0.167   1.965
 4554SOL    HW214562   0.216   0.014   1.940
 4555SOL     OW14563   1.807   1.213   6.355
 4555SOL    HW114564   1.717   1.195   6.394
 4555SOL    HW214565   1.835   1.306   6.377
 4556SOL     OW14566   6.070   3.177   5.147
 4556SOL    HW114567   6.031   3.215   5.063
 4556SOL    HW214568   6.033   3.226   5.226
 4557SOL     OW14569   6.016   4.913   4.544
 4557SOL    HW114570   6.066   4.866   4.617
 4557SOL    HW214571   5.919   4.892   4.551
 4558SOL     OW14572   6.799   3.572   4.926
 4558SOL    HW114573   6.844   3.616   5.004
 4558SOL    HW214574   6.811   3.473   4.933
 4559SOL     OW14575   6.813   3.400   2.872
 4559SOL    HW114576   6.717   3.421   2.850
 4559SOL    HW214577   6.872   3.437   2.801
 4560SOL     OW14578   6.110   4.326   2.614
 4560SOL    HW114579   6.050   4.285   2.546
 4560SOL    HW214580   6.108   4.426   2.606
 4561SOL     OW14581   3.720   1.409   3.930
 4561SOL    HW114582   3.777   1.439   4.007
 4561SOL    HW214583   3.707   1.486   3.867
 4562SOL     OW14584   1.528   0.431   0.253
 4562SOL    HW114585   1.563   0.373   0.180
 4562SOL    HW214586   1.448   0.481   0.219
 4563SOL     OW14587   6.532   3.454   0.793
 4563SOL    HW114588   6.609   3.512   0.768
 4563SOL    HW214589   6.564   3.380   0.852
 4564SOL     OW14590   0.210   5.358   2.387
 4564SOL    HW114591   0.184   5.339   2.292
 4564SOL    HW214592   0.184   5.452   2.409
 4565SOL     OW14593   1.519   1.174   4.491
 4565SOL    HW114594   1.546   1.115   4.415
 4565SOL    HW214595   1.426   1.208   4.476
 4566SOL     OW14596   0.499   3.411   1.111
 4566SOL    HW114597   0.551   3.380   1.190
 4566SOL    HW214598   0.511   3.346   1.036
 4567SOL     OW14599   6.953   0.971   6.499
 4567SOL    HW114600   6.999   0.960   6.587
 4567SOL    HW214601   6.876   0.907   6.494
 4568SOL     OW14602   1.125   4.133   5.185
 4568SOL    HW114603   1.035   4.120   5.143
 4568SOL    HW214604   1.196   4.126   5.114
 4569SOL     OW14605   3.035   0.533   3.079
 4569SOL    HW114606   3.089   0.477   3.142
 4569SOL    HW214607   3.055   0.507   2.985
 4570SOL     OW14608   6.204   6.535   2.088
 4570SOL    HW114609   6.252   6.573   2.167
 4570SOL    HW214610   6.265   6.533   2.009
 4571SOL     OW14611   4.387   2.871   6.615
 4571SOL    HW114612   4.452   2.838   6.547
 4571SOL    HW214613   4.367   2.967   6.599
 4572SOL     OW14614   2.039   1.157   6.548
 4572SOL    HW114615   1.968   1.087   6.552
 4572SOL    HW214616   2.110   1.128   6.484
 4573SOL     OW14617   0.549   6.898   0.288
 4573SOL    HW114618   0.520   6.807   0.256
 4573SOL    HW214619   0.574   6.955   0.210
 4574SOL     OW14620   5.683   4.254   6.884
 4574SOL    HW114621   5.637   4.310   6.816
 4574SOL    HW214622   5.693   4.306   6.969
 4575SOL     OW14623   5.814   0.457   4.893
 4575SOL    HW114624   5.818   0.514   4.812
 4575SOL    HW214625   5.794   0.362   4.867
 4576SOL     OW14626   2.459   4.687   5.423
 4576SOL    HW114627   2.515   4.673   5.342
 4576SOL    HW214628   2.459   4.603   5.478
 4577SOL     OW14629   2.035   2.699   3.165
 4577SOL    HW114630   2.103   2.727   3.232
 4577SOL    HW214631   1.958   2.764   3.167
 4578SOL     OW14632   0.975   1.347   4.306
 4578SOL    HW114633   0.964   1.345   4.406
 4578SOL    HW214634   0.985   1.442   4.276
 4579SOL     OW14635   4.399   1.116   1.994
 4579SOL    HW114636   4.339   1.098   2.072
 4579SOL    HW214637   4.464   1.041   1.983
 4580SOL     OW14638   5.486   3.872   0.990
 4580SOL    HW114639   5.535   3.898   1.073
 4580SOL    HW214640   5.472   3.953   0.933
 4581SOL     OW14641   2.277   6.235   2.324
 4581SOL    HW114642   2.375   6.244   2.342
 4581SOL    HW214643   2.242   6.321   2.286
 4582SOL     OW14644   4.950   1.106   3.426
 4582SOL    HW114645   4.903   1.190   3.401
 4582SOL    HW214646   4.887   1.047   3.477
 4583SOL     OW14647   2.815   1.264   6.620
 4583SOL    HW114648   2.908   1.229   6.607
 4583SOL    HW214649   2.807   1.354   6.577
 4584SOL     OW14650   1.722   6.187   5.452
 4584SOL    HW114651   1.790   6.117   5.475
 4584SOL    HW214652   1.755   6.277   5.483
 4585SOL     OW14653   1.884   4.380   3.350
 4585SOL    HW114654   1.815   4.452   3.362
 4585SOL    HW214655   1.920   4.384   3.257
 4586SOL     OW14656   5.139   3.871   6.977
 4586SOL    HW114657   5.097   3.832   0.034
 4586SOL    HW214658   5.131   3.806   6.902
 4587SOL     OW14659   3.854   3.553   4.160
 4587SOL    HW114660   3.813   3.496   4.089
 4587SOL    HW214661   3.915   3.620   4.119
 4588SOL     OW14662   3.335   3.099   5.847
 4588SOL    HW114663   3.325   3.000   5.850
 4588SOL    HW214664   3.413   3.126   5.902
 4589SOL     OW14665   5.263   6.880   1.731
 4589SOL    HW114666   5.308   6.806   1.681
 4589SOL    HW214667   5.297   6.884   1.824
 4590SOL     OW14668   3.947   5.650   1.671
 4590SOL    HW114669   3.904   5.701   1.745
 4590SOL    HW214670   3.921   5.690   1.583
 4591SOL     OW14671   1.754   0.686   5.203
 4591SOL    HW114672   1.824   0.684   5.274
 4591SOL    HW214673   1.745   0.595   5.163
 4592SOL     OW14674   3.423   1.239   3.554
 4592SOL    HW114675   3.348   1.304   3.540
 4592SOL    HW214676   3.506   1.289   3.577
 4593SOL     OW14677   6.020   6.095   2.001
 4593SOL    HW114678   5.988   6.016   2.052
 4593SOL    HW214679   6.115   6.081   1.973
 4594SOL     OW14680   3.655   0.477   3.100
 4594SOL    HW114681   3.623   0.403   3.042
 4594SOL    HW214682   3.577   0.531   3.132
 4595SOL     OW14683   4.675   3.063   5.658
 4595SOL    HW114684   4.593   3.049   5.602
 4595SOL    HW214685   4.741   3.119   5.608
 4596SOL     OW14686   6.249   0.517   2.783
 4596SOL    HW114687   6.154   0.537   2.761
 4596SOL    HW214688   6.289   0.594   2.833
 4597SOL     OW14689   2.593   5.616   6.651
 4597SOL    HW114690   2.610   5.546   6.582
 4597SOL    HW214691   2.663   5.688   6.643
 4598SOL     OW14692   1.637   5.446   1.338
 4598SOL    HW114693   1.544   5.481   1.329
 4598SOL    HW214694   1.687   5.499   1.406
 4599SOL     OW14695   1.444   4.570   1.556
 4599SOL    HW114696   1.526   4.625   1.544
 4599SOL    HW214697   1.468   4.473   1.552
 4600SOL     OW14698   0.557   0.114   5.154
 4600SOL    HW114699   0.458   0.100   5.150
 4600SOL    HW214700   0.604   0.028   5.132
 4601SOL     OW14701   0.833   1.752   5.263
 4601SOL    HW114702   0.747   1.775   5.309
 4601SOL    HW214703   0.874   1.672   5.307
 4602SOL     OW14704   3.176   6.809   6.591
 4602SOL    HW114705   3.137   6.887   6.642
 4602SOL    HW214706   3.105   6.740   6.578
 4603SOL     OW14707   3.208   5.844   0.779
 4603SOL    HW114708   3.268   5.840   0.859
 4603SOL    HW214709   3.214   5.934   0.737
 4604SOL     OW14710   5.059   7.012   6.180
 4604SOL    HW114711   5.092   6.938   6.238
 4604SOL    HW214712   5.102   0.073   6.209
 4605SOL     OW14713   2.587   0.202   1.981
 4605SOL    HW114714   2.585   0.201   1.881
 4605SOL    HW214715   2.505   0.247   2.016
 4606SOL     OW14716   6.419   0.076   2.488
 4606SOL    HW114717   6.416   0.112   2.581
 4606SOL    HW214718   6.504   0.105   2.444
 4607SOL     OW14719   2.098   3.621   3.013
 4607SOL    HW114720   2.008   3.590   2.983
 4607SOL    HW214721   2.122   3.704   2.963
 4608SOL     OW14722   0.022   3.980   3.145
 4608SOL    HW114723   6.975   3.957   3.081
 4608SOL    HW214724   0.080   3.900   3.162
 4609SOL     OW14725   4.951   5.078   0.123
 4609SOL    HW114726   4.964   5.132   0.206
 4609SOL    HW214727   5.032   5.085   0.066
 4610SOL     OW14728   4.709   1.828   6.824
 4610SOL    HW114729   4.743   1.791   6.737
 4610SOL    HW214730   4.762   1.909   6.848
 4611SOL     OW14731   0.695   0.856   5.873
 4611SOL    HW114732   0.691   0.825   5.968
 4611SOL    HW214733   0.619   0.919   5.856
 4612SOL     OW14734   2.904   6.858   1.949
 4612SOL    HW114735   2.905   6.958   1.944
 4612SOL    HW214736   2.996   6.826   1.971
 4613SOL     OW14737   1.366   5.602   2.816
 4613SOL    HW114738   1.426   5.679   2.797
 4613SOL    HW214739   1.280   5.636   2.855
 4614SOL     OW14740   6.137   3.363   3.940
 4614SOL    HW114741   6.164   3.388   3.847
 4614SOL    HW214742   6.040   3.339   3.941
 4615SOL     OW14743   1.266   0.505   1.021
 4615SOL    HW114744   1.221   0.564   0.955
 4615SOL    HW214745   1.364   0.503   1.002
 4616SOL     OW14746   5.826   2.302   4.137
 4616SOL    HW114747   5.778   2.384   4.109
 4616SOL    HW214748   5.777   2.221   4.104
 4617SOL     OW14749   1.805   2.312   1.896
 4617SOL    HW114750   1.753   2.232   1.866
 4617SOL    HW214751   1.841   2.296   1.988
 4618SOL     OW14752   2.288   3.235   5.898
 4618SOL    HW114753   2.360   3.235   5.828
 4618SOL    HW214754   2.214   3.296   5.869
 4619SOL     OW14755   3.465   6.593   3.942
 4619SOL    HW114756   3.507   6.656   4.007
 4619SOL    HW214757   3.375   6.626   3.915
 4620SOL     OW14758   0.711   4.308   1.165
 4620SOL    HW114759   0.633   4.344   1.217
 4620SOL    HW214760   0.684   4.296   1.069
 4621SOL     OW14761   5.152   1.038   2.720
 4621SOL    HW114762   5.166   1.051   2.622
 4621SOL    HW214763   5.137   0.942   2.739
 4622SOL     OW14764   3.868   4.901   1.247
 4622SOL    HW114765   3.813   4.922   1.166
 4622SOL    HW214766   3.925   4.979   1.269
 4623SOL     OW14767   3.697   5.168   0.548
 4623SOL    HW114768   3.643   5.198   0.627
 4623SOL    HW214769   3.637   5.120   0.484
 4624SOL     OW14770   3.386   0.995   3.400
 4624SOL    HW114771   3.420   1.069   3.458
 4624SOL    HW214772   3.447   0.916   3.407
 4625SOL     OW14773   2.167   5.426   1.974
 4625SOL    HW114774   2.170   5.333   2.012
 4625SOL    HW214775   2.258   5.467   1.979
 4626SOL     OW14776   3.960   4.720   1.629
 4626SOL    HW114777   4.059   4.704   1.632
 4626SOL    HW214778   3.923   4.681   1.545
 4627SOL     OW14779   0.817   5.998   5.033
 4627SOL    HW114780   0.792   5.968   5.125
 4627SOL    HW214781   0.808   6.098   5.027
 4628SOL     OW14782   4.640   4.669   4.633
 4628SOL    HW114783   4.736   4.651   4.654
 4628SOL    HW214784   4.615   4.758   4.671
 4629SOL     OW14785   2.341   4.828   6.170
 4629SOL    HW114786   2.419   4.765   6.161
 4629SOL    HW214787   2.368   4.908   6.223
 4630SOL     OW14788   2.174   4.788   2.659
 4630SOL    HW114789   2.087   4.744   2.635
 4630SOL    HW214790   2.167   4.887   2.641
 4631SOL     OW14791   0.916   6.477   3.623
 4631SOL    HW114792   0.943   6.394   3.574
 4631SOL    HW214793   0.952   6.474   3.716
 4632SOL     OW14794   2.077   4.867   3.522
 4632SOL    HW114795   2.046   4.941   3.462
 4632SOL    HW214796   2.011   4.853   3.595
 4633SOL     OW14797   5.351   1.100   4.534
 4633SOL    HW114798   5.319   1.172   4.595
 4633SOL    HW214799   5.413   1.039   4.584
 4634SOL     OW14800   2.477   3.932   5.391
 4634SOL    HW114801   2.557   3.885   5.355
 4634SOL    HW214802   2.450   4.005   5.328
 4635SOL     OW14803   4.315   4.406   1.722
 4635SOL    HW114804   4.364   4.330   1.764
 4635SOL    HW214805   4.350   4.492   1.758
 4636SOL     OW14806   2.085   4.779   0.386
 4636SOL    HW114807   2.042   4.843   0.449
 4636SOL    HW214808   2.079   4.814   0.293
 4637SOL     OW14809   0.744   6.604   0.498
 4637SOL    HW114810   0.835   6.564   0.513
 4637SOL    HW214811   0.674   6.538   0.526
 4638SOL     OW14812   3.577   5.957   6.470
 4638SOL    HW114813   3.597   5.869   6.428
 4638SOL    HW214814   3.580   5.947   6.570
 4639SOL     OW14815   2.730   2.759   6.103
 4639SOL    HW114816   2.769   2.674   6.069
 4639SOL    HW214817   2.642   2.741   6.147
 4640SOL     OW14818   6.120   2.889   4.201
 4640SOL    HW114819   6.122   2.840   4.288
 4640SOL    HW214820   6.026   2.919   4.182
 4641SOL     OW14821   2.204   0.415   4.012
 4641SOL    HW114822   2.227   0.471   3.932
 4641SOL    HW214823   2.123   0.453   4.057
 4642SOL     OW14824   1.331   6.988   2.884
 4642SOL    HW114825   1.426   7.008   2.908
 4642SOL    HW214826   1.312   7.023   2.792
 4643SOL     OW14827   6.622   2.547   0.679
 4643SOL    HW114828   6.690   2.618   0.696
 4643SOL    HW214829   6.530   2.587   0.687
 4644SOL     OW14830   0.561   0.835   5.602
 4644SOL    HW114831   0.474   0.847   5.555
 4644SOL    HW214832   0.624   0.784   5.544
 4645SOL     OW14833   1.534   1.043   4.261
 4645SOL    HW114834   1.572   0.951   4.259
 4645SOL    HW214835   1.539   1.083   4.170
 4646SOL     OW14836   2.396   4.812   4.094
 4646SOL    HW114837   2.357   4.734   4.044
 4646SOL    HW214838   2.467   4.779   4.156
 4647SOL     OW14839   1.282   0.308   3.100
 4647SOL    HW114840   1.239   0.304   3.010
 4647SOL    HW214841   1.329   0.395   3.111
 4648SOL     OW14842   2.525   0.786   4.269
 4648SOL    HW114843   2.441   0.798   4.322
 4648SOL    HW214844   2.584   0.719   4.315
 4649SOL     OW14845   6.086   0.819   1.037
 4649SOL    HW114846   6.084   0.771   0.949
 4649SOL    HW214847   6.008   0.789   1.092
 4650SOL     OW14848   4.474   5.511   2.053
 4650SOL    HW114849   4.551   5.510   2.116
 4650SOL    HW214850   4.411   5.585   2.077
 4651SOL     OW14851   5.843   3.737   6.457
 4651SOL    HW114852   5.750   3.745   6.493
 4651SOL    HW214853   5.905   3.710   6.531
 4652SOL     OW14854   6.045   6.526   5.204
 4652SOL    HW114855   6.123   6.555   5.149
 4652SOL    HW214856   6.020   6.599   5.268
 4653SOL     OW14857   5.050   5.822   0.732
 4653SOL    HW114858   5.068   5.725   0.714
 4653SOL    HW214859   5.038   5.870   0.645
 4654SOL     OW14860   0.672   6.433   5.750
 4654SOL    HW114861   0.752   6.382   5.720
 4654SOL    HW214862   0.592   6.406   5.695
 4655SOL     OW14863   4.931   3.987   1.895
 4655SOL    HW114864   4.852   4.047   1.878
 4655SOL    HW214865   4.899   3.893   1.909
 4656SOL     OW14866   0.862   0.601   1.805
 4656SOL    HW114867   0.887   0.510   1.837
 4656SOL    HW214868   0.943   0.660   1.806
 4657SOL     OW14869   4.856   5.771   2.219
 4657SOL    HW114870   4.797   5.692   2.199
 4657SOL    HW214871   4.858   5.787   2.317
 4658SOL     OW14872   2.555   2.508   5.624
 4658SOL    HW114873   2.627   2.553   5.572
 4658SOL    HW214874   2.486   2.471   5.562
 4659SOL     OW14875   2.599   4.378   0.301
 4659SOL    HW114876   2.587   4.457   0.362
 4659SOL    HW214877   2.531   4.308   0.324
 4660SOL     OW14878   1.287   6.381   4.054
 4660SOL    HW114879   1.353   6.450   4.024
 4660SOL    HW214880   1.268   6.394   4.152
 4661SOL     OW14881   2.173   4.234   5.607
 4661SOL    HW114882   2.164   4.233   5.507
 4661SOL    HW214883   2.269   4.247   5.631
 4662SOL     OW14884   3.089   0.217   5.653
 4662SOL    HW114885   3.027   0.193   5.578
 4662SOL    HW214886   3.118   0.133   5.700
 4663SOL     OW14887   0.575   0.405   0.446
 4663SOL    HW114888   0.575   0.355   0.360
 4663SOL    HW214889   0.561   0.342   0.522
 4664SOL     OW14890   0.319   0.542   0.423
 4664SOL    HW114891   0.416   0.518   0.426
 4664SOL    HW214892   0.309   0.641   0.429
 4665SOL     OW14893   2.511   6.849   5.825
 4665SOL    HW114894   2.560   6.762   5.817
 4665SOL    HW214895   2.479   6.878   5.735
 4666SOL     OW14896   2.276   2.240   6.599
 4666SOL    HW114897   2.372   2.228   6.574
 4666SOL    HW214898   2.269   2.249   6.698
 4667SOL     OW14899   6.814   3.937   2.045
 4667SOL    HW114900   6.755   4.008   2.084
 4667SOL    HW214901   6.858   3.972   1.962
 4668SOL     OW14902   4.877   1.417   4.955
 4668SOL    HW114903   4.929   1.408   5.040
 4668SOL    HW214904   4.779   1.410   4.975
 4669SOL     OW14905   5.735   0.415   6.406
 4669SOL    HW114906   5.727   0.316   6.391
 4669SOL    HW214907   5.645   0.457   6.394
 4670SOL     OW14908   1.037   2.931   6.846
 4670SOL    HW114909   1.017   3.024   6.878
 4670SOL    HW214910   0.958   2.896   6.796
 4671SOL     OW14911   0.984   3.190   6.949
 4671SOL    HW114912   0.960   3.279   6.909
 4671SOL    HW214913   1.035   3.204   0.008
 4672SOL     OW14914   3.824   4.652   6.105
 4672SOL    HW114915   3.873   4.648   6.018
 4672SOL    HW214916   3.874   4.599   6.174
 4673SOL     OW14917   5.301   0.091   0.350
 4673SOL    HW114918   5.267   0.140   0.270
 4673SOL    HW214919   5.400   0.096   0.354
 4674SOL     OW14920   5.379   1.602   0.808
 4674SOL    HW114921   5.447   1.675   0.814
 4674SOL    HW214922   5.424   1.515   0.788
 4675SOL     OW14923   3.490   0.358   6.885
 4675SOL    HW114924   3.407   0.392   6.839
 4675SOL    HW214925   3.525   0.428   6.946
 4676SOL     OW14926   0.379   0.108   4.893
 4676SOL    HW114927   0.345   0.082   4.983
 4676SOL    HW214928   0.330   0.190   4.861
 4677SOL     OW14929   2.989   0.374   6.838
 4677SOL    HW114930   2.927   0.392   6.761
 4677SOL    HW214931   2.969   0.438   6.912
 4678SOL     OW14932   1.963   5.192   2.157
 4678SOL    HW114933   1.998   5.152   2.242
 4678SOL    HW214934   1.999   5.140   2.079
 4679SOL     OW14935   3.791   1.189   6.698
 4679SOL    HW114936   3.889   1.189   6.716
 4679SOL    HW214937   3.743   1.229   6.776
 4680SOL     OW14938   2.366   6.374   1.913
 4680SOL    HW114939   2.437   6.303   1.916
 4680SOL    HW214940   2.277   6.332   1.930
 4681SOL     OW14941   6.070   5.987   4.824
 4681SOL    HW114942   5.982   6.015   4.784
 4681SOL    HW214943   6.064   5.992   4.924
 4682SOL     OW14944   4.748   5.066   6.587
 4682SOL    HW114945   4.750   5.117   6.501
 4682SOL    HW214946   4.834   5.081   6.636
 4683SOL     OW14947   4.873   4.436   2.257
 4683SOL    HW114948   4.874   4.343   2.220
 4683SOL    HW214949   4.924   4.439   2.343
 4684SOL     OW14950   0.103   2.325   4.147
 4684SOL    HW114951   0.139   2.246   4.197
 4684SOL    HW214952   0.174   2.363   4.088
 4685SOL     OW14953   0.294   5.345   4.346
 4685SOL    HW114954   0.364   5.309   4.284
 4685SOL    HW214955   0.206   5.302   4.325
 4686SOL     OW14956   5.018   5.958   0.499
 4686SOL    HW114957   5.099   6.012   0.521
 4686SOL    HW214958   4.943   6.019   0.473
 4687SOL     OW14959   6.347   4.971   5.558
 4687SOL    HW114960   6.426   5.026   5.585
 4687SOL    HW214961   6.263   5.015   5.590
 4688SOL     OW14962   6.987   2.534   6.183
 4688SOL    HW114963   6.974   2.539   6.084
 4688SOL    HW214964   6.978   2.440   6.213
 4689SOL     OW14965   5.480   0.560   6.435
 4689SOL    HW114966   5.482   0.478   6.492
 4689SOL    HW214967   5.493   0.641   6.493
 4690SOL     OW14968   0.973   1.464   6.946
 4690SOL    HW114969   1.059   1.476   6.996
 4690SOL    HW214970   0.988   1.403   6.868
 4691SOL     OW14971   2.951   3.870   2.416
 4691SOL    HW114972   2.960   3.807   2.339
 4691SOL    HW214973   2.921   3.960   2.382
 4692SOL     OW14974   6.787   5.300   2.502
 4692SOL    HW114975   6.882   5.304   2.534
 4692SOL    HW214976   6.779   5.346   2.414
 4693SOL     OW14977   0.785   0.899   4.346
 4693SOL    HW114978   0.866   0.941   4.386
 4693SOL    HW214979   0.804   0.802   4.327
 4694SOL     OW14980   2.828   0.484   0.084
 4694SOL    HW114981   2.796   0.394   0.113
 4694SOL    HW214982   2.886   0.523   0.156
 4695SOL     OW14983   3.448   3.390   2.087
 4695SOL    HW114984   3.480   3.439   2.006
 4695SOL    HW214985   3.411   3.456   2.153
 4696SOL     OW14986   1.133   4.866   6.278
 4696SOL    HW114987   1.106   4.890   6.371
 4696SOL    HW214988   1.206   4.798   6.280
 4697SOL     OW14989   1.684   3.440   0.855
 4697SOL    HW114990   1.773   3.481   0.874
 4697SOL    HW214991   1.615   3.477   0.917
 4698SOL     OW14992   4.754   5.151   3.015
 4698SOL    HW114993   4.806   5.088   3.073
 4698SOL    HW214994   4.712   5.221   3.072
 4699SOL     OW14995   1.150   0.219   2.436
 4699SOL    HW114996   1.092   0.160   2.379
 4699SOL    HW214997   1.222   0.259   2.380
 4700SOL     OW14998   5.565   1.353   1.872
 4700SOL    HW114999   5.525   1.434   1.829
 4700SOL    HW215000   5.594   1.375   1.965
 4701SOL     OW15001   1.148   1.660   0.413
 4701SOL    HW115002   1.242   1.683   0.388
 4701SOL    HW215003   1.088   1.738   0.397
 4702SOL     OW15004   4.984   4.686   6.394
 4702SOL    HW115005   4.950   4.596   6.422
 4702SOL    HW215006   4.981   4.749   6.472
 4703SOL     OW15007   0.415   2.495   2.640
 4703SOL    HW115008   0.478   2.423   2.611
 4703SOL    HW215009   0.427   2.575   2.581
 4704SOL     OW15010   6.909   6.512   0.990
 4704SOL    HW115011   6.845   6.530   1.065
 4704SOL    HW215012   6.904   6.586   0.923
 4705SOL     OW15013   3.413   3.422   2.657
 4705SOL    HW115014   3.348   3.494   2.682
 4705SOL    HW215015   3.503   3.443   2.697
 4706SOL     OW15016   4.152   6.662   6.636
 4706SOL    HW115017   4.208   6.646   6.555
 4706SOL    HW215018   4.065   6.612   6.627
 4707SOL     OW15019   2.022   5.832   0.628
 4707SOL    HW115020   1.999   5.844   0.531
 4707SOL    HW215021   2.102   5.773   0.636
 4708SOL     OW15022   1.855   2.892   0.838
 4708SOL    HW115023   1.888   2.985   0.851
 4708SOL    HW215024   1.900   2.830   0.902
 4709SOL     OW15025   3.896   5.093   5.004
 4709SOL    HW115026   3.878   5.190   4.988
 4709SOL    HW215027   3.857   5.039   4.930
 4710SOL     OW15028   3.996   1.440   6.060
 4710SOL    HW115029   4.038   1.527   6.031
 4710SOL    HW215030   4.002   1.432   6.159
 4711SOL     OW15031   4.561   0.527   2.725
 4711SOL    HW115032   4.611   0.581   2.792
 4711SOL    HW215033   4.488   0.476   2.770
 4712SOL     OW15034   2.727   4.763   0.668
 4712SOL    HW115035   2.813   4.813   0.656
 4712SOL    HW215036   2.651   4.818   0.634
 4713SOL     OW15037   2.680   3.985   1.067
 4713SOL    HW115038   2.581   3.980   1.054
 4713SOL    HW215039   2.721   4.037   0.993
 4714SOL     OW15040   2.510   1.937   0.244
 4714SOL    HW115041   2.462   1.863   0.291
 4714SOL    HW215042   2.564   1.899   0.169
 4715SOL     OW15043   6.698   3.606   1.667
 4715SOL    HW115044   6.599   3.610   1.678
 4715SOL    HW215045   6.722   3.630   1.573
 4716SOL     OW15046   3.452   5.634   5.990
 4716SOL    HW115047   3.521   5.685   6.043
 4716SOL    HW215048   3.379   5.604   6.051
 4717SOL     OW15049   1.219   5.864   3.043
 4717SOL    HW115050   1.291   5.842   3.109
 4717SOL    HW215051   1.151   5.924   3.086
 4718SOL     OW15052   5.621   1.423   6.520
 4718SOL    HW115053   5.537   1.470   6.494
 4718SOL    HW215054   5.600   1.351   6.586
 4719SOL     OW15055   5.075   3.152   2.581
 4719SOL    HW115056   5.016   3.190   2.653
 4719SOL    HW215057   5.040   3.180   2.491
 4720SOL     OW15058   3.210   6.382   5.473
 4720SOL    HW115059   3.188   6.476   5.500
 4720SOL    HW215060   3.174   6.365   5.381
 4721SOL     OW15061   6.242   2.258   1.946
 4721SOL    HW115062   6.319   2.200   1.919
 4721SOL    HW215063   6.172   2.202   1.991
 4722SOL     OW15064   1.361   5.837   7.023
 4722SOL    HW115065   1.394   5.790   6.941
 4722SOL    HW215066   1.422   5.818   0.075
 4723SOL     OW15067   1.826   5.269   5.455
 4723SOL    HW115068   1.830   5.181   5.408
 4723SOL    HW215069   1.898   5.273   5.524
 4724SOL     OW15070   4.776   6.329   2.552
 4724SOL    HW115071   4.774   6.424   2.584
 4724SOL    HW215072   4.689   6.285   2.574
 4725SOL     OW15073   5.486   6.481   3.014
 4725SOL    HW115074   5.503   6.391   3.053
 4725SOL    HW215075   5.567   6.512   2.964
 4726SOL     OW15076   2.069   3.427   6.524
 4726SOL    HW115077   2.037   3.351   6.582
 4726SOL    HW215078   2.158   3.458   6.556
 4727SOL     OW15079   6.770   6.469   6.927
 4727SOL    HW115080   6.750   6.372   6.916
 4727SOL    HW215081   6.724   6.521   6.855
 4728SOL     OW15082   4.818   1.780   1.347
 4728SOL    HW115083   4.900   1.799   1.401
 4728SOL    HW215084   4.824   1.830   1.261
 4729SOL     OW15085   2.608   1.079   2.769
 4729SOL    HW115086   2.522   1.069   2.718
 4729SOL    HW215087   2.669   1.003   2.748
 4730SOL     OW15088   1.976   6.075   5.450
 4730SOL    HW115089   1.946   5.998   5.393
 4730SOL    HW215090   1.998   6.153   5.392
 4731SOL     OW15091   5.507   0.032   6.198
 4731SOL    HW115092   5.491   0.044   6.296
 4731SOL    HW215093   5.434   0.077   6.146
 4732SOL     OW15094   6.686   3.060   6.531
 4732SOL    HW115095   6.703   3.102   6.621
 4732SOL    HW215096   6.751   3.097   6.465
 4733SOL     OW15097   0.847   3.764   3.226
 4733SOL    HW115098   0.888   3.833   3.285
 4733SOL    HW215099   0.920   3.716   3.177
 4734SOL     OW15100   5.247   3.521   6.648
 4734SOL    HW115101   5.168   3.468   6.617
 4734SOL    HW215102   5.301   3.466   6.712
 4735SOL     OW15103   0.601   4.980   3.767
 4735SOL    HW115104   0.536   5.044   3.810
 4735SOL    HW215105   0.641   5.023   3.686
 4736SOL     OW15106   0.342   1.676   6.782
 4736SOL    HW115107   0.409   1.743   6.812
 4736SOL    HW215108   0.368   1.640   6.692
 4737SOL     OW15109   1.464   5.313   2.388
 4737SOL    HW115110   1.548   5.280   2.345
 4737SOL    HW215111   1.430   5.393   2.338
 4738SOL     OW15112   0.180   6.109   2.694
 4738SOL    HW115113   0.116   6.186   2.696
 4738SOL    HW215114   0.130   6.023   2.685
 4739SOL     OW15115   4.028   6.910   2.522
 4739SOL    HW115116   3.986   6.908   2.613
 4739SOL    HW215117   4.122   6.876   2.528
 4740SOL     OW15118   6.932   1.450   2.084
 4740SOL    HW115119   7.024   1.459   2.046
 4740SOL    HW215120   6.937   1.404   2.172
 4741SOL     OW15121   3.399   2.359   1.750
 4741SOL    HW115122   3.478   2.322   1.801
 4741SOL    HW215123   3.340   2.284   1.722
 4742SOL     OW15124   2.011   6.736   6.493
 4742SOL    HW115125   1.975   6.819   6.535
 4742SOL    HW215126   1.951   6.709   6.418
 4743SOL     OW15127   2.120   3.563   2.681
 4743SOL    HW115128   2.124   3.642   2.620
 4743SOL    HW215129   2.164   3.585   2.768
 4744SOL     OW15130   2.303   5.054   0.530
 4744SOL    HW115131   2.376   4.987   0.545
 4744SOL    HW215132   2.335   5.124   0.466
 4745SOL     OW15133   3.498   4.045   0.206
 4745SOL    HW115134   3.569   4.024   0.274
 4745SOL    HW215135   3.416   4.077   0.252
 4746SOL     OW15136   4.408   6.270   4.019
 4746SOL    HW115137   4.383   6.359   3.981
 4746SOL    HW215138   4.491   6.278   4.074
 4747SOL     OW15139   1.329   3.434   0.612
 4747SOL    HW115140   1.409   3.492   0.592
 4747SOL    HW215141   1.259   3.449   0.543
 4748SOL     OW15142   1.128   6.834   1.809
 4748SOL    HW115143   1.068   6.912   1.792
 4748SOL    HW215144   1.220   6.855   1.775
 4749SOL     OW15145   1.962   6.674   6.015
 4749SOL    HW115146   2.041   6.652   5.957
 4749SOL    HW215147   1.940   6.596   6.073
 4750SOL     OW15148   6.431   4.137   5.196
 4750SOL    HW115149   6.518   4.185   5.206
 4750SOL    HW215150   6.375   4.153   5.277
 4751SOL     OW15151   4.731   2.522   3.235
 4751SOL    HW115152   4.775   2.588   3.174
 4751SOL    HW215153   4.699   2.569   3.318
 4752SOL     OW15154   4.496   0.765   0.325
 4752SOL    HW115155   4.588   0.804   0.327
 4752SOL    HW215156   4.494   0.690   0.259
 4753SOL     OW15157   1.026   0.041   4.221
 4753SOL    HW115158   0.960   6.991   4.228
 4753SOL    HW215159   1.117   0.004   4.206
 4754SOL     OW15160   4.858   3.881   5.167
 4754SOL    HW115161   4.826   3.800   5.117
 4754SOL    HW215162   4.805   3.891   5.251
 4755SOL     OW15163   2.362   0.325   1.029
 4755SOL    HW115164   2.314   0.314   1.115
 4755SOL    HW215165   2.296   0.343   0.956
 4756SOL     OW15166   0.059   4.135   5.970
 4756SOL    HW115167   0.121   4.073   6.019
 4756SOL    HW215168   0.111   4.189   5.904
 4757SOL     OW15169   1.559   2.706   1.290
 4757SOL    HW115170   1.469   2.722   1.329
 4757SOL    HW215171   1.551   2.694   1.191
 4758SOL     OW15172   1.304   6.595   3.117
 4758SOL    HW115173   1.265   6.679   3.153
 4758SOL    HW215174   1.337   6.611   3.024
 4759SOL     OW15175   0.506   6.080   0.078
 4759SOL    HW115176   0.438   6.012   0.104
 4759SOL    HW215177   0.463   6.152   0.025
 4760SOL     OW15178   0.804   0.355   0.114
 4760SOL    HW115179   0.855   0.404   0.044
 4760SOL    HW215180   0.866   0.327   0.187
 4761SOL     OW15181   1.153   0.468   0.373
 4761SOL    HW115182   1.158   0.436   0.468
 4761SOL    HW215183   1.232   0.527   0.354
 4762SOL     OW15184   1.484   5.679   2.377
 4762SOL    HW115185   1.492   5.778   2.375
 4762SOL    HW215186   1.461   5.645   2.285
 4763SOL     OW15187   4.911   6.839   2.614
 4763SOL    HW115188   4.873   6.826   2.523
 4763SOL    HW215189   4.879   6.926   2.651
 4764SOL     OW15190   4.615   3.434   5.389
 4764SOL    HW115191   4.641   3.509   5.328
 4764SOL    HW215192   4.520   3.408   5.372
 4765SOL     OW15193   3.868   0.931   6.502
 4765SOL    HW115194   3.898   1.003   6.441
 4765SOL    HW215195   3.772   0.909   6.483
 4766SOL     OW15196   6.124   5.901   4.402
 4766SOL    HW115197   6.139   5.865   4.495
 4766SOL    HW215198   6.194   5.969   4.381
 4767SOL     OW15199   2.449   5.479   5.217
 4767SOL    HW115200   2.513   5.538   5.168
 4767SOL    HW215201   2.438   5.512   5.311
 4768SOL     OW15202   4.557   3.493   6.154
 4768SOL    HW115203   4.492   3.567   6.174
 4768SOL    HW215204   4.524   3.408   6.193
 4769SOL     OW15205   3.446   6.158   0.308
 4769SOL    HW115206   3.388   6.239   0.322
 4769SOL    HW215207   3.442   6.130   0.213
 4770SOL     OW15208   0.080   2.457   4.675
 4770SOL    HW115209   0.113   2.519   4.603
 4770SOL    HW215210   7.016   2.421   4.649
 4771SOL     OW15211   2.287   6.365   5.343
 4771SOL    HW115212   2.350   6.431   5.302
 4771SOL    HW215213   2.335   6.312   5.413
 4772SOL     OW15214   2.856   5.375   0.821
 4772SOL    HW115215   2.917   5.298   0.840
 4772SOL    HW215216   2.864   5.442   0.894
 4773SOL     OW15217   1.426   6.075   4.731
 4773SOL    HW115218   1.399   6.081   4.635
 4773SOL    HW215219   1.346   6.089   4.789
 4774SOL     OW15220   1.499   4.051   0.864
 4774SOL    HW115221   1.495   4.082   0.769
 4774SOL    HW215222   1.572   3.984   0.874
 4775SOL     OW15223   4.536   6.907   4.724
 4775SOL    HW115224   4.468   6.904   4.651
 4775SOL    HW215225   4.566   6.814   4.745
 4776SOL     OW15226   1.348   1.115   5.075
 4776SOL    HW115227   1.315   1.027   5.041
 4776SOL    HW215228   1.384   1.168   4.999
 4777SOL     OW15229   1.653   5.718   1.081
 4777SOL    HW115230   1.649   5.794   1.015
 4777SOL    HW215231   1.561   5.700   1.115
 4778SOL     OW15232   0.916   2.584   4.581
 4778SOL    HW115233   0.967   2.668   4.596
 4778SOL    HW215234   0.863   2.592   4.497
 4779SOL     OW15235   5.815   6.178   3.988
 4779SOL    HW115236   5.777   6.268   4.009
 4779SOL    HW215237   5.877   6.185   3.910
 4780SOL     OW15238   5.720   2.646   5.780
 4780SOL    HW115239   5.787   2.598   5.837
 4780SOL    HW215240   5.632   2.650   5.828
 4781SOL     OW15241   2.490   5.662   2.770
 4781SOL    HW115242   2.489   5.585   2.834
 4781SOL    HW215243   2.527   5.743   2.815
 4782SOL     OW15244   6.168   5.745   5.989
 4782SOL    HW115245   6.080   5.756   5.941
 4782SOL    HW215246   6.157   5.771   6.084
 4783SOL     OW15247   6.015   3.892   0.058
 4783SOL    HW115248   6.087   3.962   0.052
 4783SOL    HW215249   5.939   3.917   7.023
 4784SOL     OW15250   6.125   1.817   5.993
 4784SOL    HW115251   6.101   1.816   5.896
 4784SOL    HW215252   6.058   1.765   6.045
 4785SOL     OW15253   0.256   6.746   2.809
 4785SOL    HW115254   0.205   6.754   2.724
 4785SOL    HW215255   0.249   6.653   2.844
 4786SOL     OW15256   2.825   0.096   0.250
 4786SOL    HW115257   2.916   0.128   0.224
 4786SOL    HW215258   2.815   0.104   0.349
 4787SOL     OW15259   3.864   2.133   4.330
 4787SOL    HW115260   3.957   2.164   4.312
 4787SOL    HW215261   3.809   2.141   4.247
 4788SOL     OW15262   6.068   5.821   0.529
 4788SOL    HW115263   5.972   5.846   0.521
 4788SOL    HW215264   6.080   5.757   0.605
 4789SOL     OW15265   5.081   1.549   1.997
 4789SOL    HW115266   4.985   1.548   2.025
 4789SOL    HW215267   5.098   1.476   1.931
 4790SOL     OW15268   5.124   1.783   5.522
 4790SOL    HW115269   5.070   1.703   5.496
 4790SOL    HW215270   5.142   1.838   5.440
 4791SOL     OW15271   0.623   2.747   1.144
 4791SOL    HW115272   0.608   2.709   1.235
 4791SOL    HW215273   0.553   2.714   1.081
 4792SOL     OW15274   1.891   4.422   4.477
 4792SOL    HW115275   1.952   4.373   4.540
 4792SOL    HW215276   1.888   4.518   4.503
 4793SOL     OW15277   1.194   3.701   5.713
 4793SOL    HW115278   1.119   3.759   5.681
 4793SOL    HW215279   1.179   3.607   5.683
 4794SOL     OW15280   4.788   0.002   4.038
 4794SOL    HW115281   4.713   0.065   4.058
 4794SOL    HW215282   4.855   0.047   3.980
 4795SOL     OW15283   0.117   1.658   4.712
 4795SOL    HW115284   0.172   1.651   4.629
 4795SOL    HW215285   0.047   1.587   4.713
 4796SOL     OW15286   3.718   0.641   6.137
 4796SOL    HW115287   3.641   0.691   6.098
 4796SOL    HW215288   3.801   0.697   6.132
 4797SOL     OW15289   0.507   5.436   4.508
 4797SOL    HW115290   0.431   5.404   4.451
 4797SOL    HW215291   0.483   5.425   4.604
 4798SOL     OW15292   5.633   4.936   5.951
 4798SOL    HW115293   5.574   5.014   5.973
 4798SOL    HW215294   5.710   4.934   6.015
 4799SOL     OW15295   4.142   1.516   0.294
 4799SOL    HW115296   4.126   1.588   0.227
 4799SOL    HW215297   4.068   1.449   0.289
 4800SOL     OW15298   1.886   4.427   6.664
 4800SOL    HW115299   1.919   4.494   6.730
 4800SOL    HW215300   1.956   4.411   6.595
 4801SOL     OW15301   4.028   2.768   0.488
 4801SOL    HW115302   3.947   2.791   0.434
 4801SOL    HW215303   4.097   2.725   0.429
 4802SOL     OW15304   0.006   6.556   2.058
 4802SOL    HW115305   0.002   6.548   1.958
 4802SOL    HW215306   0.067   6.485   2.094
 4803SOL     OW15307   5.738   4.664   0.842
 4803SOL    HW115308   5.792   4.744   0.869
 4803SOL    HW215309   5.692   4.682   0.756
 4804SOL     OW15310   5.695   1.235   0.895
 4804SOL    HW115311   5.607   1.244   0.849
 4804SOL    HW215312   5.702   1.145   0.938
 4805SOL     OW15313   6.651   1.108   2.008
 4805SOL    HW115314   6.605   1.166   2.075
 4805SOL    HW215315   6.698   1.165   1.941
 4806SOL     OW15316   1.162   3.999   2.972
 4806SOL    HW115317   1.119   3.953   2.895
 4806SOL    HW215318   1.157   3.941   3.053
 4807SOL     OW15319   2.000   3.206   6.621
 4807SOL    HW115320   2.043   3.173   6.705
 4807SOL    HW215321   1.932   3.140   6.591
 4808SOL     OW15322   3.717   5.510   0.823
 4808SOL    HW115323   3.719   5.516   0.923
 4808SOL    HW215324   3.623   5.520   0.791
 4809SOL     OW15325   3.476   4.526   1.682
 4809SOL    HW115326   3.486   4.576   1.596
 4809SOL    HW215327   3.474   4.591   1.758
 4810SOL     OW15328   1.338   4.309   4.025
 4810SOL    HW115329   1.303   4.315   3.931
 4810SOL    HW215330   1.403   4.384   4.040
 4811SOL     OW15331   3.679   3.962   4.662
 4811SOL    HW115332   3.664   3.924   4.753
 4811SOL    HW215333   3.750   3.909   4.615
 4812SOL     OW15334   0.632   6.867   2.093
 4812SOL    HW115335   0.725   6.891   2.064
 4812SOL    HW215336   0.624   6.881   2.192
 4813SOL     OW15337   5.762   1.936   5.999
 4813SOL    HW115338   5.820   1.990   5.938
 4813SOL    HW215339   5.748   1.985   6.085
 4814SOL     OW15340   6.982   3.402   2.390
 4814SOL    HW115341   6.960   3.500   2.390
 4814SOL    HW215342   6.913   3.353   2.338
 4815SOL     OW15343   5.284   4.874   2.765
 4815SOL    HW115344   5.204   4.876   2.825
 4815SOL    HW215345   5.274   4.942   2.692
 4816SOL     OW15346   2.181   6.899   1.605
 4816SOL    HW115347   2.097   6.922   1.655
 4816SOL    HW215348   2.247   6.856   1.667
 4817SOL     OW15349   3.645   1.333   1.863
 4817SOL    HW115350   3.669   1.427   1.887
 4817SOL    HW215351   3.560   1.333   1.810
 4818SOL     OW15352   1.658   0.786   4.264
 4818SOL    HW115353   1.742   0.786   4.211
 4818SOL    HW215354   1.619   0.693   4.265
 4819SOL     OW15355   3.188   1.852   1.509
 4819SOL    HW115356   3.228   1.788   1.444
 4819SOL    HW215357   3.259   1.888   1.570
 4820SOL     OW15358   6.281   2.976   1.158
 4820SOL    HW115359   6.197   3.014   1.197
 4820SOL    HW215360   6.358   2.995   1.218
 4821SOL     OW15361   6.445   5.537   1.597
 4821SOL    HW115362   6.475   5.441   1.598
 4821SOL    HW215363   6.406   5.560   1.686
 4822SOL     OW15364   1.735   3.349   3.625
 4822SOL    HW115365   1.646   3.395   3.626
 4822SOL    HW215366   1.738   3.281   3.698
 4823SOL     OW15367   0.067   0.329   3.613
 4823SOL    HW115368   0.037   0.357   3.705
 4823SOL    HW215369   0.115   0.242   3.619
 4824SOL     OW15370   5.502   1.984   3.976
 4824SOL    HW115371   5.484   1.938   3.889
 4824SOL    HW215372   5.505   1.917   4.050
 4825SOL     OW15373   2.023   2.641   4.278
 4825SOL    HW115374   1.989   2.557   4.320
 4825SOL    HW215375   2.106   2.671   4.326
 4826SOL     OW15376   0.070   6.938   1.092
 4826SOL    HW115377   0.084   6.839   1.089
 4826SOL    HW215378   0.112   6.980   1.012
 4827SOL     OW15379   5.472   1.018   2.077
 4827SOL    HW115380   5.554   0.972   2.111
 4827SOL    HW215381   5.484   1.042   1.981
 4828SOL     OW15382   6.095   3.838   1.490
 4828SOL    HW115383   6.145   3.843   1.577
 4828SOL    HW215384   6.058   3.928   1.467
 4829SOL     OW15385   3.461   6.805   5.926
 4829SOL    HW115386   3.521   6.865   5.873
 4829SOL    HW215387   3.439   6.847   6.014
 4830SOL     OW15388   5.294   5.392   3.837
 4830SOL    HW115389   5.226   5.326   3.804
 4830SOL    HW215390   5.337   5.357   3.920
 4831SOL     OW15391   6.658   5.299   5.833
 4831SOL    HW115392   6.675   5.396   5.848
 4831SOL    HW215393   6.740   5.247   5.854
 4832SOL     OW15394   3.239   2.508   6.561
 4832SOL    HW115395   3.273   2.501   6.655
 4832SOL    HW215396   3.206   2.602   6.545
 4833SOL     OW15397   4.886   2.033   2.925
 4833SOL    HW115398   4.812   2.072   2.980
 4833SOL    HW215399   4.879   1.933   2.927
 4834SOL     OW15400   3.782   0.336   0.360
 4834SOL    HW115401   3.847   0.410   0.373
 4834SOL    HW215402   3.715   0.362   0.291
 4835SOL     OW15403   1.891   0.026   6.807
 4835SOL    HW115404   1.840   6.965   6.800
 4835SOL    HW215405   1.960   0.018   6.879
 4836SOL     OW15406   4.297   2.416   3.726
 4836SOL    HW115407   4.222   2.355   3.701
 4836SOL    HW215408   4.301   2.425   3.825
 4837SOL     OW15409   3.903   2.988   1.942
 4837SOL    HW115410   3.856   2.946   2.019
 4837SOL    HW215411   3.839   3.047   1.892
 4838SOL     OW15412   2.489   4.967   2.410
 4838SOL    HW115413   2.547   5.039   2.372
 4838SOL    HW215414   2.541   4.881   2.414
 4839SOL     OW15415   0.607   3.503   5.803
 4839SOL    HW115416   0.657   3.541   5.881
 4839SOL    HW215417   0.509   3.517   5.816
 4840SOL     OW15418   0.009   0.347   6.026
 4840SOL    HW115419   0.074   0.295   6.081
 4840SOL    HW215420   6.990   0.287   5.960
 4841SOL     OW15421   3.158   5.505   1.782
 4841SOL    HW115422   3.210   5.539   1.860
 4841SOL    HW215423   3.123   5.413   1.802
 4842SOL     OW15424   3.323   4.870   1.948
 4842SOL    HW115425   3.319   4.891   2.046
 4842SOL    HW215426   3.390   4.798   1.932
 4843SOL     OW15427   6.191   4.319   0.231
 4843SOL    HW115428   6.132   4.287   0.304
 4843SOL    HW215429   6.227   4.409   0.255
 4844SOL     OW15430   0.148   3.850   6.493
 4844SOL    HW115431   0.090   3.931   6.483
 4844SOL    HW215432   0.094   3.768   6.474
 4845SOL     OW15433   6.634   5.494   4.454
 4845SOL    HW115434   6.594   5.570   4.506
 4845SOL    HW215435   6.678   5.430   4.516
 4846SOL     OW15436   6.502   3.296   1.641
 4846SOL    HW115437   6.463   3.205   1.632
 4846SOL    HW215438   6.594   3.297   1.602
 4847SOL     OW15439   3.197   1.812   5.976
 4847SOL    HW115440   3.287   1.819   6.019
 4847SOL    HW215441   3.204   1.761   5.890
 4848SOL     OW15442   1.587   0.974   4.758
 4848SOL    HW115443   1.587   1.021   4.846
 4848SOL    HW215444   1.641   0.890   4.765
 4849SOL     OW15445   1.169   0.380   6.930
 4849SOL    HW115446   1.143   0.442   7.004
 4849SOL    HW215447   1.095   0.315   6.914
 4850SOL     OW15448   4.154   0.744   1.955
 4850SOL    HW115449   4.249   0.726   1.980
 4850SOL    HW215450   4.148   0.764   1.857
 4851SOL     OW15451   3.760   5.622   5.225
 4851SOL    HW115452   3.700   5.629   5.145
 4851SOL    HW215453   3.712   5.656   5.306
 4852SOL     OW15454   0.958   0.103   6.220
 4852SOL    HW115455   1.041   0.110   6.276
 4852SOL    HW215456   0.933   0.007   6.209
 4853SOL     OW15457   3.313   1.089   2.335
 4853SOL    HW115458   3.362   1.119   2.253
 4853SOL    HW215459   3.215   1.101   2.321
 4854SOL     OW15460   5.207   6.214   2.859
 4854SOL    HW115461   5.108   6.201   2.866
 4854SOL    HW215462   5.251   6.125   2.849
 4855SOL     OW15463   6.156   2.921   2.327
 4855SOL    HW115464   6.213   2.839   2.328
 4855SOL    HW215465   6.175   2.974   2.244
 4856SOL     OW15466   1.598   4.009   2.485
 4856SOL    HW115467   1.621   3.944   2.412
 4856SOL    HW215468   1.508   4.047   2.468
 4857SOL     OW15469   1.801   2.096   5.433
 4857SOL    HW115470   1.757   2.174   5.477
 4857SOL    HW215471   1.900   2.111   5.431
 4858SOL     OW15472   1.845   1.128   4.522
 4858SOL    HW115473   1.890   1.210   4.557
 4858SOL    HW215474   1.767   1.106   4.581
 4859SOL     OW15475   0.809   0.648   3.959
 4859SOL    HW115476   0.744   0.629   3.885
 4859SOL    HW215477   0.837   0.743   3.954
 4860SOL     OW15478   3.427   4.970   2.512
 4860SOL    HW115479   3.506   4.909   2.498
 4860SOL    HW215480   3.440   5.021   2.597
 4861SOL     OW15481   4.722   5.692   0.176
 4861SOL    HW115482   4.720   5.754   0.097
 4861SOL    HW215483   4.728   5.746   0.260
 4862SOL     OW15484   2.210   4.777   3.795
 4862SOL    HW115485   2.111   4.787   3.792
 4862SOL    HW215486   2.233   4.680   3.788
 4863SOL     OW15487   5.548   4.698   0.616
 4863SOL    HW115488   5.536   4.789   0.575
 4863SOL    HW215489   5.510   4.629   0.556
 4864SOL     OW15490   3.168   1.288   4.247
 4864SOL    HW115491   3.263   1.312   4.263
 4864SOL    HW215492   3.155   1.264   4.151
 4865SOL     OW15493   1.619   0.748   5.631
 4865SOL    HW115494   1.585   0.765   5.539
 4865SOL    HW215495   1.611   0.832   5.685
 4866SOL     OW15496   6.421   3.709   0.889
 4866SOL    HW115497   6.428   3.691   0.987
 4866SOL    HW215498   6.465   3.636   0.837
 4867SOL     OW15499   4.622   5.819   2.791
 4867SOL    HW115500   4.578   5.872   2.719
 4867SOL    HW215501   4.558   5.751   2.826
 4868SOL     OW15502   6.655   4.681   2.545
 4868SOL    HW115503   6.673   4.620   2.621
 4868SOL    HW215504   6.556   4.691   2.533
 4869SOL     OW15505   1.612   1.382   0.799
 4869SOL    HW115506   1.670   1.462   0.780
 4869SOL    HW215507   1.667   1.309   0.838
 4870SOL     OW15508   0.649   6.343   1.145
 4870SOL    HW115509   0.705   6.262   1.124
 4870SOL    HW215510   0.625   6.390   1.061
 4871SOL     OW15511   0.571   0.816   3.701
 4871SOL    HW115512   0.604   0.848   3.612
 4871SOL    HW215513   0.594   0.719   3.711
 4872SOL     OW15514   6.348   0.557   3.533
 4872SOL    HW115515   6.271   0.498   3.554
 4872SOL    HW215516   6.395   0.584   3.617
 4873SOL     OW15517   6.513   5.712   4.547
 4873SOL    HW115518   6.508   5.798   4.496
 4873SOL    HW215519   6.425   5.665   4.541
 4874SOL     OW15520   4.850   3.164   2.378
 4874SOL    HW115521   4.842   3.147   2.280
 4874SOL    HW215522   4.760   3.167   2.420
 4875SOL     OW15523   5.887   1.224   0.344
 4875SOL    HW115524   5.937   1.263   0.266
 4875SOL    HW215525   5.943   1.153   0.387
 4876SOL     OW15526   6.993   1.152   3.774
 4876SOL    HW115527   0.025   1.203   3.710
 4876SOL    HW215528   0.007   1.159   3.866
 4877SOL     OW15529   0.441   2.001   5.222
 4877SOL    HW115530   0.344   2.010   5.247
 4877SOL    HW215531   0.494   2.070   5.270
 4878SOL     OW15532   6.262   1.193   2.108
 4878SOL    HW115533   6.344   1.248   2.094
 4878SOL    HW215534   6.187   1.252   2.138
 4879SOL     OW15535   4.411   2.089   1.924
 4879SOL    HW115536   4.366   2.069   2.012
 4879SOL    HW215537   4.450   2.181   1.927
 4880SOL     OW15538   6.183   3.693   0.096
 4880SOL    HW115539   6.186   3.685   0.195
 4880SOL    HW215540   6.130   3.773   0.070
 4881SOL     OW15541   1.762   0.926   0.191
 4881SOL    HW115542   1.785   0.955   0.098
 4881SOL    HW215543   1.727   1.004   0.242
 4882SOL     OW15544   4.335   1.360   5.694
 4882SOL    HW115545   4.279   1.312   5.762
 4882SOL    HW215546   4.429   1.369   5.729
 4883SOL     OW15547   4.848   4.058   0.657
 4883SOL    HW115548   4.819   4.113   0.578
 4883SOL    HW215549   4.767   4.015   0.698
 4884SOL     OW15550   2.944   5.268   1.539
 4884SOL    HW115551   2.950   5.170   1.522
 4884SOL    HW215552   2.877   5.285   1.612
 4885SOL     OW15553   2.149   4.724   1.362
 4885SOL    HW115554   2.130   4.820   1.339
 4885SOL    HW215555   2.165   4.716   1.460
 4886SOL     OW15556   3.175   6.313   1.477
 4886SOL    HW115557   3.112   6.388   1.497
 4886SOL    HW215558   3.171   6.245   1.550
 4887SOL     OW15559   0.219   6.494   1.664
 4887SOL    HW115560   0.219   6.504   1.564
 4887SOL    HW215561   0.128   6.469   1.695
 4888SOL     OW15562   3.121   0.276   3.297
 4888SOL    HW115563   3.022   0.290   3.308
 4888SOL    HW215564   3.168   0.300   3.382
 4889SOL     OW15565   6.689   2.323   5.042
 4889SOL    HW115566   6.628   2.371   5.105
 4889SOL    HW215567   6.781   2.361   5.049
 4890SOL     OW15568   6.835   1.719   5.314
 4890SOL    HW115569   6.834   1.624   5.345
 4890SOL    HW215570   6.764   1.732   5.246
 4891SOL     OW15571   2.258   5.521   0.197
 4891SOL    HW115572   2.296   5.596   0.143
 4891SOL    HW215573   2.173   5.489   0.154
 4892SOL     OW15574   4.830   5.796   2.493
 4892SOL    HW115575   4.733   5.811   2.511
 4892SOL    HW215576   4.884   5.830   2.570
 4893SOL     OW15577   6.407   3.364   2.062
 4893SOL    HW115578   6.465   3.440   2.037
 4893SOL    HW215579   6.325   3.398   2.109
 4894SOL     OW15580   3.557   0.730   2.871
 4894SOL    HW115581   3.460   0.712   2.858
 4894SOL    HW215582   3.610   0.657   2.828
 4895SOL     OW15583   0.677   4.711   3.746
 4895SOL    HW115584   0.632   4.801   3.754
 4895SOL    HW215585   0.665   4.661   3.832
 4896SOL     OW15586   2.544   4.564   2.671
 4896SOL    HW115587   2.606   4.629   2.714
 4896SOL    HW215588   2.587   4.524   2.590
 4897SOL     OW15589   1.938   5.912   5.248
 4897SOL    HW115590   1.923   5.960   5.162
 4897SOL    HW215591   2.009   5.843   5.235
 4898SOL     OW15592   3.638   1.298   5.039
 4898SOL    HW115593   3.672   1.379   4.991
 4898SOL    HW215594   3.539   1.296   5.036
 4899SOL     OW15595   5.934   4.796   3.012
 4899SOL    HW115596   5.997   4.719   3.005
 4899SOL    HW215597   5.908   4.810   3.108
 4900SOL     OW15598   3.511   6.123   5.323
 4900SOL    HW115599   3.472   6.051   5.265
 4900SOL    HW215600   3.462   6.125   5.410
 4901SOL     OW15601   2.307   1.505   5.612
 4901SOL    HW115602   2.208   1.499   5.604
 4901SOL    HW215603   2.336   1.477   5.703
 4902SOL     OW15604   1.122   1.411   4.791
 4902SOL    HW115605   1.110   1.489   4.852
 4902SOL    HW215606   1.194   1.352   4.827
 4903SOL     OW15607   4.626   5.908   0.376
 4903SOL    HW115608   4.536   5.907   0.332
 4903SOL    HW215609   4.614   5.905   0.475
 4904SOL     OW15610   2.112   0.410   5.464
 4904SOL    HW115611   2.084   0.324   5.421
 4904SOL    HW215612   2.036   0.474   5.463
 4905SOL     OW15613   2.803   0.829   3.816
 4905SOL    HW115614   2.714   0.786   3.830
 4905SOL    HW215615   2.874   0.772   3.857
 4906SOL     OW15616   4.775   2.197   6.149
 4906SOL    HW115617   4.767   2.228   6.054
 4906SOL    HW215618   4.751   2.100   6.154
 4907SOL     OW15619   4.886   0.459   1.587
 4907SOL    HW115620   4.928   0.482   1.499
 4907SOL    HW215621   4.790   0.436   1.573
 4908SOL     OW15622   5.281   6.618   0.061
 4908SOL    HW115623   5.329   6.627   0.149
 4908SOL    HW215624   5.199   6.676   0.063
 4909SOL     OW15625   6.979   5.468   3.151
 4909SOL    HW115626   7.019   5.411   3.079
 4909SOL    HW215627   0.026   5.516   3.200
 4910SOL     OW15628   5.498   0.274   4.171
 4910SOL    HW115629   5.503   0.288   4.072
 4910SOL    HW215630   5.421   0.326   4.208
 4911SOL     OW15631   1.676   3.769   2.884
 4911SOL    HW115632   1.727   3.780   2.799
 4911SOL    HW215633   1.726   3.812   2.959
 4912SOL     OW15634   5.645   1.698   5.954
 4912SOL    HW115635   5.673   1.793   5.969
 4912SOL    HW215636   5.644   1.650   6.042
 4913SOL     OW15637   4.718   3.690   5.537
 4913SOL    HW115638   4.654   3.752   5.493
 4913SOL    HW215639   4.772   3.643   5.467
 4914SOL     OW15640   4.118   6.745   5.341
 4914SOL    HW115641   4.036   6.776   5.390
 4914SOL    HW215642   4.091   6.677   5.272
 4915SOL     OW15643   2.795   6.279   5.207
 4915SOL    HW115644   2.807   6.203   5.144
 4915SOL    HW215645   2.698   6.306   5.208
 4916SOL     OW15646   0.648   1.113   3.639
 4916SOL    HW115647   0.664   1.039   3.574
 4916SOL    HW215648   0.646   1.077   3.732
 4917SOL     OW15649   3.518   5.422   1.360
 4917SOL    HW115650   3.503   5.378   1.449
 4917SOL    HW215651   3.441   5.482   1.340
 4918SOL     OW15652   5.609   6.574   1.691
 4918SOL    HW115653   5.683   6.636   1.715
 4918SOL    HW215654   5.633   6.522   1.609
 4919SOL     OW15655   3.053   3.007   2.449
 4919SOL    HW115656   3.051   2.916   2.407
 4919SOL    HW215657   3.053   3.077   2.377
 4920SOL     OW15658   5.412   6.805   4.828
 4920SOL    HW115659   5.363   6.882   4.870
 4920SOL    HW215660   5.508   6.809   4.854
 4921SOL     OW15661   1.275   5.193   0.004
 4921SOL    HW115662   1.247   5.169   6.937
 4921SOL    HW215663   1.303   5.290   0.006
 4922SOL     OW15664   3.040   2.087   4.348
 4922SOL    HW115665   3.051   2.116   4.253
 4922SOL    HW215666   2.963   2.136   4.390
 4923SOL     OW15667   2.642   1.030   2.419
 4923SOL    HW115668   2.637   0.956   2.486
 4923SOL    HW215669   2.721   1.016   2.359
 4924SOL     OW15670   3.114   1.520   4.536
 4924SOL    HW115671   3.204   1.562   4.523
 4924SOL    HW215672   3.061   1.531   4.452
 4925SOL     OW15673   5.114   0.419   2.386
 4925SOL    HW115674   5.076   0.459   2.470
 4925SOL    HW215675   5.189   0.477   2.353
 4926SOL     OW15676   5.585   1.661   2.012
 4926SOL    HW115677   5.543   1.615   2.090
 4926SOL    HW215678   5.629   1.745   2.042
 4927SOL     OW15679   2.917   3.161   5.612
 4927SOL    HW115680   2.899   3.090   5.681
 4927SOL    HW215681   3.015   3.181   5.611
 4928SOL     OW15682   1.432   0.542   6.401
 4928SOL    HW115683   1.461   0.480   6.474
 4928SOL    HW215684   1.352   0.594   6.431
 4929SOL     OW15685   6.226   0.346   4.243
 4929SOL    HW115686   6.209   0.248   4.254
 4929SOL    HW215687   6.310   0.370   4.292
 4930SOL     OW15688   5.592   0.120   2.642
 4930SOL    HW115689   5.494   0.143   2.637
 4930SOL    HW215690   5.645   0.189   2.593
 4931SOL     OW15691   6.518   6.532   1.512
 4931SOL    HW115692   6.578   6.451   1.516
 4931SOL    HW215693   6.510   6.571   1.604
 4932SOL     OW15694   4.101   3.352   3.207
 4932SOL    HW115695   4.129   3.441   3.242
 4932SOL    HW215696   4.093   3.287   3.282
 4933SOL     OW15697   2.222   6.827   2.204
 4933SOL    HW115698   2.240   6.845   2.301
 4933SOL    HW215699   2.276   6.749   2.174
 4934SOL     OW15700   3.555   6.006   2.938
 4934SOL    HW115701   3.487   6.052   2.996
 4934SOL    HW215702   3.543   5.907   2.944
 4935SOL     OW15703   1.910   1.936   6.044
 4935SOL    HW115704   1.874   1.969   6.132
 4935SOL    HW215705   1.915   2.013   5.980
 4936SOL     OW15706   3.149   4.959   1.163
 4936SOL    HW115707   3.075   4.916   1.111
 4936SOL    HW215708   3.220   4.991   1.101
 4937SOL     OW15709   5.237   2.817   5.581
 4937SOL    HW115710   5.204   2.889   5.641
 4937SOL    HW215711   5.160   2.759   5.553
 4938SOL     OW15712   2.777   5.585   5.920
 4938SOL    HW115713   2.740   5.522   5.853
 4938SOL    HW215714   2.717   5.665   5.928
 4939SOL     OW15715   5.167   2.021   4.933
 4939SOL    HW115716   5.190   1.935   4.978
 4939SOL    HW215717   5.084   2.009   4.879
 4940SOL     OW15718   1.239   1.129   4.749
 4940SOL    HW115719   1.283   1.192   4.685
 4940SOL    HW215720   1.253   1.034   4.718
 4941SOL     OW15721   4.020   2.212   6.354
 4941SOL    HW115722   4.119   2.209   6.336
 4941SOL    HW215723   3.970   2.195   6.270
 4942SOL     OW15724   5.190   3.412   5.480
 4942SOL    HW115725   5.134   3.431   5.399
 4942SOL    HW215726   5.133   3.421   5.562
 4943SOL     OW15727   3.782   3.072   1.053
 4943SOL    HW115728   3.825   3.080   1.144
 4943SOL    HW215729   3.828   3.000   1.001
 4944SOL     OW15730   1.767   4.140   2.683
 4944SOL    HW115731   1.849   4.180   2.643
 4944SOL    HW215732   1.713   4.097   2.611
 4945SOL     OW15733   1.046   1.110   3.595
 4945SOL    HW115734   0.964   1.054   3.609
 4945SOL    HW215735   1.125   1.050   3.582
 4946SOL     OW15736   0.926   3.071   1.843
 4946SOL    HW115737   0.964   3.072   1.935
 4946SOL    HW215738   0.826   3.064   1.848
 4947SOL     OW15739   1.460   6.868   0.943
 4947SOL    HW115740   1.451   6.881   1.042
 4947SOL    HW215741   1.406   6.937   0.895
 4948SOL     OW15742   2.736   0.611   2.283
 4948SOL    HW115743   2.765   0.522   2.318
 4948SOL    HW215744   2.751   0.614   2.184
 4949SOL     OW15745   4.832   0.685   5.480
 4949SOL    HW115746   4.892   0.664   5.558
 4949SOL    HW215747   4.784   0.602   5.452
 4950SOL     OW15748   3.033   5.577   3.496
 4950SOL    HW115749   3.033   5.478   3.479
 4950SOL    HW215750   2.974   5.597   3.574
 4951SOL     OW15751   5.811   1.265   4.899
 4951SOL    HW115752   5.748   1.245   4.824
 4951SOL    HW215753   5.854   1.354   4.884
 4952SOL     OW15754   0.458   0.882   4.748
 4952SOL    HW115755   0.448   0.783   4.736
 4952SOL    HW215756   0.392   0.930   4.690
 4953SOL     OW15757   2.163   6.021   2.135
 4953SOL    HW115758   2.108   6.041   2.216
 4953SOL    HW215759   2.259   6.045   2.154
 4954SOL     OW15760   4.512   4.288   6.381
 4954SOL    HW115761   4.499   4.238   6.467
 4954SOL    HW215762   4.424   4.318   6.346
 4955SOL     OW15763   1.648   6.052   6.895
 4955SOL    HW115764   1.572   6.069   6.957
 4955SOL    HW215765   1.732   6.039   6.949
 4956SOL     OW15766   3.142   6.998   5.096
 4956SOL    HW115767   3.156   6.978   4.999
 4956SOL    HW215768   3.226   0.013   5.134
 4957SOL     OW15769   6.897   1.071   3.394
 4957SOL    HW115770   6.948   1.114   3.467
 4957SOL    HW215771   6.909   0.971   3.399
 4958SOL     OW15772   0.182   6.379   5.945
 4958SOL    HW115773   0.215   6.315   5.875
 4958SOL    HW215774   0.110   6.335   5.999
 4959SOL     OW15775   6.854   1.298   6.922
 4959SOL    HW115776   6.813   1.258   6.839
 4959SOL    HW215777   6.912   1.375   6.896
 4960SOL     OW15778   3.324   6.507   3.560
 4960SOL    HW115779   3.340   6.444   3.484
 4960SOL    HW215780   3.401   6.503   3.623
 4961SOL     OW15781   5.241   1.122   5.157
 4961SOL    HW115782   5.154   1.156   5.192
 4961SOL    HW215783   5.316   1.162   5.209
 4962SOL     OW15784   5.606   2.830   1.365
 4962SOL    HW115785   5.633   2.911   1.312
 4962SOL    HW215786   5.508   2.814   1.354
 4963SOL     OW15787   5.943   5.735   1.336
 4963SOL    HW115788   5.904   5.742   1.245
 4963SOL    HW215789   5.988   5.820   1.360
 4964SOL     OW15790   3.737   6.472   3.222
 4964SOL    HW115791   3.755   6.525   3.305
 4964SOL    HW215792   3.726   6.375   3.247
 4965SOL     OW15793   0.469   0.012   4.354
 4965SOL    HW115794   0.510   0.014   4.445
 4965SOL    HW215795   0.541   7.024   4.286
 4966SOL     OW15796   2.411   6.771   4.528
 4966SOL    HW115797   2.423   6.677   4.562
 4966SOL    HW215798   2.338   6.816   4.579
 4967SOL     OW15799   4.346   3.141   6.550
 4967SOL    HW115800   4.289   3.189   6.484
 4967SOL    HW215801   4.337   3.183   6.640
 4968SOL     OW15802   5.525   2.921   3.394
 4968SOL    HW115803   5.475   2.839   3.366
 4968SOL    HW215804   5.623   2.900   3.400
 4969SOL     OW15805   1.915   1.032   2.584
 4969SOL    HW115806   1.938   0.942   2.623
 4969SOL    HW215807   1.899   1.023   2.486
 4970SOL     OW15808   1.687   2.600   4.948
 4970SOL    HW115809   1.747   2.675   4.920
 4970SOL    HW215810   1.594   2.618   4.914
 4971SOL     OW15811   6.296   5.936   3.832
 4971SOL    HW115812   6.343   6.023   3.846
 4971SOL    HW215813   6.318   5.900   3.741
 4972SOL     OW15814   2.256   3.309   1.020
 4972SOL    HW115815   2.201   3.230   0.995
 4972SOL    HW215816   2.234   3.386   0.960
 4973SOL     OW15817   0.072   6.993   1.868
 4973SOL    HW115818   0.010   0.046   1.860
 4973SOL    HW215819   0.070   6.942   1.782
 4974SOL     OW15820   6.729   4.656   0.510
 4974SOL    HW115821   6.687   4.732   0.559
 4974SOL    HW215822   6.825   4.648   0.536
 4975SOL     OW15823   6.157   5.691   0.766
 4975SOL    HW115824   6.220   5.631   0.815
 4975SOL    HW215825   6.187   5.786   0.777
 4976SOL     OW15826   2.721   0.350   4.494
 4976SOL    HW115827   2.622   0.344   4.495
 4976SOL    HW215828   2.753   0.369   4.401
 4977SOL     OW15829   5.106   4.068   0.785
 4977SOL    HW115830   5.012   4.049   0.757
 4977SOL    HW215831   5.124   4.166   0.777
 4978SOL     OW15832   6.992   3.631   5.412
 4978SOL    HW115833   0.047   3.572   5.397
 4978SOL    HW215834   6.918   3.603   5.352
 4979SOL     OW15835   6.964   2.127   4.944
 4979SOL    HW115836   0.012   2.168   4.999
 4979SOL    HW215837   6.889   2.193   4.935
 4980SOL     OW15838   4.724   6.720   3.244
 4980SOL    HW115839   4.808   6.665   3.242
 4980SOL    HW215840   4.655   6.674   3.301
 4981SOL     OW15841   4.947   5.956   5.691
 4981SOL    HW115842   4.877   5.978   5.623
 4981SOL    HW215843   4.939   6.020   5.768
 4982SOL     OW15844   2.445   1.188   6.928
 4982SOL    HW115845   2.422   1.095   6.956
 4982SOL    HW215846   2.364   1.246   6.935
 4983SOL     OW15847   4.982   3.234   4.575
 4983SOL    HW115848   5.057   3.212   4.513
 4983SOL    HW215849   5.001   3.321   4.621
 4984SOL     OW15850   5.531   3.228   4.278
 4984SOL    HW115851   5.500   3.138   4.248
 4984SOL    HW215852   5.520   3.293   4.203
 4985SOL     OW15853   6.703   6.409   3.607
 4985SOL    HW115854   6.735   6.342   3.540
 4985SOL    HW215855   6.604   6.420   3.599
 4986SOL     OW15856   6.620   4.557   3.014
 4986SOL    HW115857   6.594   4.597   3.101
 4986SOL    HW215858   6.545   4.502   2.978
 4987SOL     OW15859   0.781   2.099   1.067
 4987SOL    HW115860   0.726   2.178   1.092
 4987SOL    HW215861   0.851   2.085   1.136
 4988SOL     OW15862   6.929   1.435   3.844
 4988SOL    HW115863   6.906   1.341   3.821
 4988SOL    HW215864   6.925   1.447   3.943
 4989SOL     OW15865   5.928   1.360   1.884
 4989SOL    HW115866   6.021   1.368   1.849
 4989SOL    HW215867   5.877   1.296   1.826
 4990SOL     OW15868   1.221   2.155   6.210
 4990SOL    HW115869   1.321   2.153   6.204
 4990SOL    HW215870   1.188   2.066   6.242
 4991SOL     OW15871   0.839   3.284   3.954
 4991SOL    HW115872   0.775   3.217   3.993
 4991SOL    HW215873   0.922   3.237   3.924
 4992SOL     OW15874   4.438   1.071   4.092
 4992SOL    HW115875   4.516   1.061   4.155
 4992SOL    HW215876   4.360   1.020   4.128
 4993SOL     OW15877   2.551   4.485   3.921
 4993SOL    HW115878   2.616   4.560   3.925
 4993SOL    HW215879   2.509   4.482   3.830
 4994SOL     OW15880   1.508   0.106   2.422
 4994SOL    HW115881   1.444   0.056   2.362
 4994SOL    HW215882   1.598   0.109   2.379
 4995SOL     OW15883   6.899   3.589   5.687
 4995SOL    HW115884   6.868   3.494   5.680
 4995SOL    HW215885   6.925   3.623   5.597
 4996SOL     OW15886   1.015   0.444   2.411
 4996SOL    HW115887   1.017   0.508   2.489
 4996SOL    HW215888   1.082   0.372   2.426
 4997SOL     OW15889   6.619   2.130   2.719
 4997SOL    HW115890   6.630   2.162   2.813
 4997SOL    HW215891   6.542   2.065   2.715
 4998SOL     OW15892   1.843   4.183   4.743
 4998SOL    HW115893   1.768   4.249   4.737
 4998SOL    HW215894   1.930   4.231   4.732
 4999SOL     OW15895   4.796   5.804   1.315
 4999SOL    HW115896   4.729   5.770   1.381
 4999SOL    HW215897   4.771   5.897   1.287
 5000SOL     OW15898   1.278   0.460   3.767
 5000SOL    HW115899   1.226   0.545   3.758
 5000SOL    HW215900   1.282   0.435   3.864
 5001SOL     OW15901   1.742   3.885   6.141
 5001SOL    HW115902   1.680   3.876   6.063
 5001SOL    HW215903   1.823   3.829   6.125
 5002SOL     OW15904   1.256   2.873   2.591
 5002SOL    HW115905   1.243   2.959   2.640
 5002SOL    HW215906   1.270   2.799   2.657
 5003SOL     OW15907   1.167   6.455   3.367
 5003SOL    HW115908   1.080   6.502   3.350
 5003SOL    HW215909   1.219   6.450   3.282
 5004SOL     OW15910   2.539   5.799   5.976
 5004SOL    HW115911   2.524   5.747   6.061
 5004SOL    HW215912   2.452   5.831   5.940
 5005SOL     OW15913   3.892   2.232   0.585
 5005SOL    HW115914   3.866   2.223   0.681
 5005SOL    HW215915   3.882   2.328   0.556
 5006SOL     OW15916   5.750   6.862   6.177
 5006SOL    HW115917   5.668   6.835   6.127
 5006SOL    HW215918   5.729   6.939   6.238
 5007SOL     OW15919   2.658   0.468   6.202
 5007SOL    HW115920   2.585   0.428   6.147
 5007SOL    HW215921   2.746   0.456   6.155
 5008SOL     OW15922   6.366   0.619   3.803
 5008SOL    HW115923   6.301   0.573   3.863
 5008SOL    HW215924   6.457   0.617   3.844
 5009SOL     OW15925   1.490   5.841   1.677
 5009SOL    HW115926   1.457   5.856   1.771
 5009SOL    HW215927   1.524   5.928   1.640
 5010SOL     OW15928   3.935   3.658   3.862
 5010SOL    HW115929   3.858   3.609   3.821
 5010SOL    HW215930   3.906   3.698   3.949
 5011SOL     OW15931   2.171   3.225   1.890
 5011SOL    HW115932   2.158   3.177   1.977
 5011SOL    HW215933   2.202   3.319   1.908
 5012SOL     OW15934   5.884   2.753   6.371
 5012SOL    HW115935   5.818   2.821   6.340
 5012SOL    HW215936   5.973   2.796   6.382
 5013SOL     OW15937   4.991   0.726   6.877
 5013SOL    HW115938   4.914   0.759   6.933
 5013SOL    HW215939   5.075   0.727   6.932
 5014SOL     OW15940   6.459   5.484   0.362
 5014SOL    HW115941   6.413   5.570   0.343
 5014SOL    HW215942   6.412   5.409   0.314
 5015SOL     OW15943   4.074   1.820   3.811
 5015SOL    HW115944   4.033   1.774   3.732
 5015SOL    HW215945   4.169   1.842   3.791
 5016SOL     OW15946   2.198   1.154   2.428
 5016SOL    HW115947   2.290   1.195   2.424
 5016SOL    HW215948   2.139   1.200   2.362
 5017SOL     OW15949   2.471   2.362   0.736
 5017SOL    HW115950   2.513   2.441   0.781
 5017SOL    HW215951   2.503   2.357   0.641
 5018SOL     OW15952   0.876   4.518   1.520
 5018SOL    HW115953   0.908   4.487   1.431
 5018SOL    HW215954   0.777   4.528   1.519
 5019SOL     OW15955   2.312   4.480   0.586
 5019SOL    HW115956   2.268   4.567   0.566
 5019SOL    HW215957   2.408   4.483   0.556
 5020SOL     OW15958   5.502   6.561   5.029
 5020SOL    HW115959   5.552   6.548   5.115
 5020SOL    HW215960   5.404   6.569   5.049
 5021SOL     OW15961   0.794   3.615   6.265
 5021SOL    HW115962   0.812   3.553   6.189
 5021SOL    HW215963   0.878   3.659   6.294
 5022SOL     OW15964   1.548   0.244   0.750
 5022SOL    HW115965   1.634   0.192   0.758
 5022SOL    HW215966   1.558   0.315   0.680
 5023SOL     OW15967   6.365   3.130   0.654
 5023SOL    HW115968   6.340   3.063   0.724
 5023SOL    HW215969   6.302   3.207   0.658
 5024SOL     OW15970   0.318   4.335   2.478
 5024SOL    HW115971   0.391   4.283   2.434
 5024SOL    HW215972   0.356   4.407   2.535
 5025SOL     OW15973   4.625   2.227   2.232
 5025SOL    HW115974   4.712   2.257   2.193
 5025SOL    HW215975   4.582   2.303   2.281
 5026SOL     OW15976   6.245   6.112   5.959
 5026SOL    HW115977   6.146   6.128   5.958
 5026SOL    HW215978   6.292   6.195   5.990
 5027SOL     OW15979   1.022   6.595   2.917
 5027SOL    HW115980   1.053   6.517   2.972
 5027SOL    HW215981   1.100   6.653   2.895
 5028SOL     OW15982   0.365   5.977   1.871
 5028SOL    HW115983   0.376   5.914   1.948
 5028SOL    HW215984   0.320   5.930   1.795
 5029SOL     OW15985   6.620   3.206   3.127
 5029SOL    HW115986   6.627   3.203   3.027
 5029SOL    HW215987   6.573   3.290   3.154
 5030SOL     OW15988   0.144   0.699   0.125
 5030SOL    HW115989   0.185   0.624   0.176
 5030SOL    HW215990   0.083   0.663   0.055
 5031SOL     OW15991   6.229   1.119   4.485
 5031SOL    HW115992   6.192   1.184   4.552
 5031SOL    HW215993   6.154   1.085   4.428
 5032SOL     OW15994   1.043   4.540   0.975
 5032SOL    HW115995   1.042   4.441   0.962
 5032SOL    HW215996   1.107   4.581   0.910
 5033SOL     OW15997   2.152   5.278   5.856
 5033SOL    HW115998   2.084   5.268   5.929
 5033SOL    HW215999   2.197   5.367   5.863
 5034SOL     OW16000   6.771   3.334   1.534
 5034SOL    HW116001   6.861   3.294   1.552
 5034SOL    HW216002   6.775   3.433   1.546
 5035SOL     OW16003   5.735   4.639   1.147
 5035SOL    HW116004   5.818   4.670   1.193
 5035SOL    HW216005   5.756   4.616   1.052
 5036SOL     OW16006   0.521   5.841   6.326
 5036SOL    HW116007   0.530   5.919   6.388
 5036SOL    HW216008   0.527   5.756   6.378
 5037SOL     OW16009   4.849   2.282   3.361
 5037SOL    HW116010   4.929   2.325   3.403
 5037SOL    HW216011   4.805   2.347   3.300
 5038SOL     OW16012   1.999   5.945   5.728
 5038SOL    HW116013   2.011   6.014   5.658
 5038SOL    HW216014   2.015   5.854   5.689
 5039SOL     OW16015   1.697   3.563   5.038
 5039SOL    HW116016   1.754   3.618   5.099
 5039SOL    HW216017   1.708   3.596   4.944
 5040SOL     OW16018   2.724   3.568   6.511
 5040SOL    HW116019   2.792   3.518   6.457
 5040SOL    HW216020   2.717   3.526   6.602
 5041SOL     OW16021   0.797   3.624   1.245
 5041SOL    HW116022   0.888   3.584   1.246
 5041SOL    HW216023   0.733   3.564   1.293
 5042SOL     OW16024   6.719   3.167   6.773
 5042SOL    HW116025   6.815   3.160   6.799
 5042SOL    HW216026   6.666   3.097   6.820
 5043SOL     OW16027   3.437   1.196   5.641
 5043SOL    HW116028   3.476   1.216   5.551
 5043SOL    HW216029   3.450   1.276   5.701
 5044SOL     OW16030   6.272   6.201   3.506
 5044SOL    HW116031   6.239   6.212   3.412
 5044SOL    HW216032   6.198   6.169   3.564
 5045SOL     OW16033   4.933   3.355   0.171
 5045SOL    HW116034   5.022   3.360   0.125
 5045SOL    HW216035   4.863   3.394   0.111
 5046SOL     OW16036   3.625   2.962   4.983
 5046SOL    HW116037   3.597   3.041   5.037
 5046SOL    HW216038   3.665   2.893   5.043
 5047SOL     OW16039   6.053   1.463   2.447
 5047SOL    HW116040   5.990   1.531   2.408
 5047SOL    HW216041   6.085   1.493   2.537
 5048SOL     OW16042   6.498   2.111   1.919
 5048SOL    HW116043   6.560   2.073   1.988
 5048SOL    HW216044   6.525   2.079   1.829
 5049SOL     OW16045   6.298   0.918   3.075
 5049SOL    HW116046   6.225   0.984   3.094
 5049SOL    HW216047   6.361   0.915   3.152
 5050SOL     OW16048   0.514   1.701   1.802
 5050SOL    HW116049   0.582   1.739   1.865
 5050SOL    HW216050   0.429   1.684   1.852
 5051SOL     OW16051   3.421   3.606   0.621
 5051SOL    HW116052   3.342   3.639   0.568
 5051SOL    HW216053   3.391   3.535   0.684
 5052SOL     OW16054   3.076   4.772   0.170
 5052SOL    HW116055   3.025   4.780   0.084
 5052SOL    HW216056   3.148   4.703   0.160
 5053SOL     OW16057   1.995   3.766   2.264
 5053SOL    HW116058   2.054   3.846   2.254
 5053SOL    HW216059   1.904   3.787   2.231
 5054SOL     OW16060   3.760   6.033   5.468
 5054SOL    HW116061   3.823   5.968   5.426
 5054SOL    HW216062   3.692   6.062   5.401
 5055SOL     OW16063   0.543   1.697   4.844
 5055SOL    HW116064   0.513   1.710   4.938
 5055SOL    HW216065   0.642   1.704   4.839
 5056SOL     OW16066   6.894   4.268   6.386
 5056SOL    HW116067   6.922   4.176   6.414
 5056SOL    HW216068   6.954   4.300   6.312
 5057SOL     OW16069   0.998   5.260   3.444
 5057SOL    HW116070   0.948   5.334   3.489
 5057SOL    HW216071   0.983   5.265   3.346
 5058SOL     OW16072   3.668   3.773   6.516
 5058SOL    HW116073   3.667   3.741   6.610
 5058SOL    HW216074   3.579   3.755   6.474
 5059SOL     OW16075   4.766   2.727   4.974
 5059SOL    HW116076   4.710   2.702   4.895
 5059SOL    HW216077   4.845   2.779   4.944
 5060SOL     OW16078   6.868   3.272   4.815
 5060SOL    HW116079   6.851   3.180   4.780
 5060SOL    HW216080   6.847   3.339   4.745
 5061SOL     OW16081   2.956   3.379   4.269
 5061SOL    HW116082   2.907   3.296   4.244
 5061SOL    HW216083   2.938   3.450   4.201
 5062SOL     OW16084   4.866   1.675   2.822
 5062SOL    HW116085   4.900   1.662   2.915
 5062SOL    HW216086   4.925   1.625   2.758
 5063SOL     OW16087   1.059   6.635   1.596
 5063SOL    HW116088   1.055   6.672   1.689
 5063SOL    HW216089   1.125   6.687   1.542
 5064SOL     OW16090   4.576   5.150   0.825
 5064SOL    HW116091   4.643   5.088   0.784
 5064SOL    HW216092   4.576   5.139   0.924
 5065SOL     OW16093   2.043   0.715   3.071
 5065SOL    HW116094   2.066   0.665   3.154
 5065SOL    HW216095   1.945   0.709   3.055
 5066SOL     OW16096   2.297   4.080   1.746
 5066SOL    HW116097   2.364   4.148   1.777
 5066SOL    HW216098   2.225   4.126   1.695
 5067SOL     OW16099   4.144   2.221   2.058
 5067SOL    HW116100   4.197   2.280   2.118
 5067SOL    HW216101   4.156   2.251   1.963
 5068SOL     OW16102   3.129   5.674   0.274
 5068SOL    HW116103   3.170   5.747   0.219
 5068SOL    HW216104   3.030   5.684   0.274
 5069SOL     OW16105   2.281   3.238   5.561
 5069SOL    HW116106   2.190   3.226   5.601
 5069SOL    HW216107   2.274   3.247   5.462
 5070SOL     OW16108   6.068   4.201   3.766
 5070SOL    HW116109   5.970   4.182   3.765
 5070SOL    HW216110   6.091   4.259   3.844
 5071SOL     OW16111   3.458   1.807   3.545
 5071SOL    HW116112   3.538   1.796   3.486
 5071SOL    HW216113   3.446   1.726   3.602
 5072SOL     OW16114   2.194   0.807   1.284
 5072SOL    HW116115   2.136   0.888   1.283
 5072SOL    HW216116   2.270   0.821   1.348
 5073SOL     OW16117   2.123   6.298   2.073
 5073SOL    HW116118   2.105   6.204   2.104
 5073SOL    HW216119   2.077   6.313   1.986
 5074SOL     OW16120   3.499   1.565   1.720
 5074SOL    HW116121   3.493   1.622   1.638
 5074SOL    HW216122   3.408   1.531   1.744
 5075SOL     OW16123   1.528   2.430   6.950
 5075SOL    HW116124   1.477   2.405   0.007
 5075SOL    HW216125   1.626   2.418   6.966
 5076SOL     OW16126   5.435   0.462   6.941
 5076SOL    HW116127   5.522   0.421   6.913
 5076SOL    HW216128   5.395   0.408   7.015
 5077SOL     OW16129   1.649   3.510   6.281
 5077SOL    HW116130   1.595   3.593   6.271
 5077SOL    HW216131   1.693   3.488   6.193
 5078SOL     OW16132   0.602   1.149   4.286
 5078SOL    HW116133   0.654   1.067   4.311
 5078SOL    HW216134   0.526   1.161   4.350
 5079SOL     OW16135   2.161   2.144   5.953
 5079SOL    HW116136   2.173   2.225   6.011
 5079SOL    HW216137   2.082   2.157   5.893
 5080SOL     OW16138   5.931   5.721   5.836
 5080SOL    HW116139   5.856   5.664   5.801
 5080SOL    HW216140   5.951   5.793   5.770
 5081SOL     OW16141   2.504   4.966   5.172
 5081SOL    HW116142   2.475   5.057   5.201
 5081SOL    HW216143   2.465   4.898   5.234
 5082SOL     OW16144   4.785   6.836   0.080
 5082SOL    HW116145   4.787   6.921   0.027
 5082SOL    HW216146   4.698   6.789   0.064
 5083SOL     OW16147   3.274   0.440   1.415
 5083SOL    HW116148   3.195   0.390   1.449
 5083SOL    HW216149   3.265   0.453   1.316
 5084SOL     OW16150   0.771   4.988   4.815
 5084SOL    HW116151   0.771   4.968   4.913
 5084SOL    HW216152   0.713   4.922   4.767
 5085SOL     OW16153   1.035   2.847   5.663
 5085SOL    HW116154   0.993   2.848   5.572
 5085SOL    HW216155   1.009   2.764   5.711
 5086SOL     OW16156   0.549   4.310   1.996
 5086SOL    HW116157   0.590   4.275   1.912
 5086SOL    HW216158   0.561   4.409   2.001
 5087SOL     OW16159   6.810   5.236   2.142
 5087SOL    HW116160   6.818   5.322   2.193
 5087SOL    HW216161   6.834   5.159   2.202
 5088SOL     OW16162   4.627   6.650   2.971
 5088SOL    HW116163   4.689   6.716   3.013
 5088SOL    HW216164   4.673   6.561   2.964
 5089SOL     OW16165   5.843   3.923   4.100
 5089SOL    HW116166   5.821   4.019   4.118
 5089SOL    HW216167   5.781   3.888   4.030
 5090SOL     OW16168   2.045   1.303   3.093
 5090SOL    HW116169   2.139   1.334   3.082
 5090SOL    HW216170   2.038   1.247   3.176
 5091SOL     OW16171   6.863   0.391   0.822
 5091SOL    HW116172   6.838   0.447   0.901
 5091SOL    HW216173   6.846   0.295   0.843
 5092SOL     OW16174   4.017   3.150   4.013
 5092SOL    HW116175   3.927   3.152   4.055
 5092SOL    HW216176   4.021   3.076   3.946
 5093SOL     OW16177   2.739   1.694   1.685
 5093SOL    HW116178   2.791   1.634   1.746
 5093SOL    HW216179   2.799   1.768   1.653
 5094SOL     OW16180   2.130   5.870   6.999
 5094SOL    HW116181   2.141   5.950   6.940
 5094SOL    HW216182   2.103   5.792   6.944
 5095SOL     OW16183   0.332   1.209   2.940
 5095SOL    HW116184   0.301   1.174   3.029
 5095SOL    HW216185   0.323   1.138   2.871
 5096SOL     OW16186   5.620   4.590   6.385
 5096SOL    HW116187   5.615   4.682   6.346
 5096SOL    HW216188   5.528   4.552   6.393
 5097SOL     OW16189   6.428   0.639   6.930
 5097SOL    HW116190   6.512   0.594   6.900
 5097SOL    HW216191   6.370   0.658   6.851
 5098SOL     OW16192   3.625   2.301   1.473
 5098SOL    HW116193   3.576   2.371   1.525
 5098SOL    HW216194   3.697   2.345   1.419
 5099SOL     OW16195   0.184   6.510   1.390
 5099SOL    HW116196   0.128   6.431   1.368
 5099SOL    HW216197   0.275   6.500   1.349
 5100SOL     OW16198   3.434   5.244   3.359
 5100SOL    HW116199   3.488   5.328   3.361
 5100SOL    HW216200   3.372   5.242   3.438
 5101SOL     OW16201   3.949   0.374   4.427
 5101SOL    HW116202   3.958   0.302   4.496
 5101SOL    HW216203   3.869   0.430   4.448
 5102SOL     OW16204   5.095   5.747   4.541
 5102SOL    HW116205   5.133   5.736   4.449
 5102SOL    HW216206   5.138   5.681   4.603
 5103SOL     OW16207   0.677   1.276   4.592
 5103SOL    HW116208   0.677   1.186   4.635
 5103SOL    HW216209   0.606   1.279   4.521
 5104SOL     OW16210   3.221   5.803   1.775
 5104SOL    HW116211   3.140   5.819   1.831
 5104SOL    HW216212   3.200   5.739   1.702
 5105SOL     OW16213   3.340   3.160   6.565
 5105SOL    HW116214   3.318   3.247   6.609
 5105SOL    HW216215   3.273   3.142   6.493
 5106SOL     OW16216   3.990   1.656   1.108
 5106SOL    HW116217   4.020   1.660   1.203
 5106SOL    HW216218   3.970   1.748   1.075
 5107SOL     OW16219   4.815   2.367   0.985
 5107SOL    HW116220   4.826   2.369   1.084
 5107SOL    HW216221   4.881   2.303   0.945
 5108SOL     OW16222   4.337   4.104   5.366
 5108SOL    HW116223   4.257   4.146   5.321
 5108SOL    HW216224   4.306   4.048   5.443
 5109SOL     OW16225   1.237   2.731   0.940
 5109SOL    HW116226   1.186   2.669   0.879
 5109SOL    HW216227   1.188   2.740   1.027
 5110SOL     OW16228   0.200   0.427   6.403
 5110SOL    HW116229   0.230   0.490   6.475
 5110SOL    HW216230   0.217   0.468   6.313
 5111SOL     OW16231   1.263   6.975   4.172
 5111SOL    HW116232   1.314   0.036   4.183
 5111SOL    HW216233   1.286   6.934   4.084
 5112SOL     OW16234   0.044   0.219   2.881
 5112SOL    HW116235   6.987   0.189   2.930
 5112SOL    HW216236   0.082   0.142   2.829
 5113SOL     OW16237   1.264   6.055   1.230
 5113SOL    HW116238   1.218   5.988   1.288
 5113SOL    HW216239   1.346   6.088   1.276
 5114SOL     OW16240   3.818   6.790   0.143
 5114SOL    HW116241   3.852   6.737   0.066
 5114SOL    HW216242   3.720   6.806   0.133
 5115SOL     OW16243   1.821   4.201   2.112
 5115SOL    HW116244   1.876   4.232   2.034
 5115SOL    HW216245   1.784   4.110   2.091
 5116SOL     OW16246   2.059   6.611   0.045
 5116SOL    HW116247   2.040   6.524   0.091
 5116SOL    HW216248   2.122   6.596   6.994
 5117SOL     OW16249   1.198   3.604   3.918
 5117SOL    HW116250   1.267   3.659   3.965
 5117SOL    HW216251   1.156   3.541   3.982
 5118SOL     OW16252   5.760   6.800   0.173
 5118SOL    HW116253   5.769   6.806   0.074
 5118SOL    HW216254   5.828   6.860   0.216
 5119SOL     OW16255   4.621   1.696   1.485
 5119SOL    HW116256   4.642   1.609   1.529
 5119SOL    HW216257   4.690   1.715   1.414
 5120SOL     OW16258   4.363   6.792   5.226
 5120SOL    HW116259   4.276   6.778   5.272
 5120SOL    HW216260   4.438   6.768   5.287
 5121SOL     OW16261   3.359   3.363   0.253
 5121SOL    HW116262   3.294   3.338   0.325
 5121SOL    HW216263   3.309   3.408   0.178
 5122SOL     OW16264   3.974   6.023   3.015
 5122SOL    HW116265   3.976   5.974   2.927
 5122SOL    HW216266   3.941   5.961   3.086
 5123SOL     OW16267   5.540   2.530   3.541
 5123SOL    HW116268   5.469   2.536   3.611
 5123SOL    HW216269   5.507   2.574   3.457
 5124SOL     OW16270   2.016   6.655   3.544
 5124SOL    HW116271   2.108   6.653   3.503
 5124SOL    HW216272   1.953   6.603   3.486
 5125SOL     OW16273   0.482   2.083   3.016
 5125SOL    HW116274   0.471   2.120   2.923
 5125SOL    HW216275   0.515   1.989   3.010
 5126SOL     OW16276   1.065   6.353   0.043
 5126SOL    HW116277   1.096   6.268   0.085
 5126SOL    HW216278   1.138   6.422   0.049
 5127SOL     OW16279   0.935   5.583   6.951
 5127SOL    HW116280   0.908   5.544   0.014
 5127SOL    HW216281   0.913   5.681   6.950
 5128SOL     OW16282   6.486   6.603   0.802
 5128SOL    HW116283   6.472   6.563   0.711
 5128SOL    HW216284   6.492   6.702   0.794
 5129SOL     OW16285   5.163   6.436   2.294
 5129SOL    HW116286   5.112   6.378   2.358
 5129SOL    HW216287   5.256   6.401   2.285
 5130SOL     OW16288   0.025   5.282   2.621
 5130SOL    HW116289   0.039   5.289   2.720
 5130SOL    HW216290   0.078   5.353   2.575
 5131SOL     OW16291   1.801   3.474   4.328
 5131SOL    HW116292   1.897   3.451   4.341
 5131SOL    HW216293   1.778   3.466   4.231
 5132SOL     OW16294   4.359   2.640   5.855
 5132SOL    HW116295   4.435   2.575   5.847
 5132SOL    HW216296   4.348   2.667   5.951
 5133SOL     OW16297   3.040   4.852   0.712
 5133SOL    HW116298   3.129   4.823   0.678
 5133SOL    HW216299   3.004   4.925   0.653
 5134SOL     OW16300   7.013   2.690   1.954
 5134SOL    HW116301   7.014   2.737   2.042
 5134SOL    HW216302   0.070   2.633   1.945
 5135SOL     OW16303   6.387   2.392   5.482
 5135SOL    HW116304   6.476   2.350   5.463
 5135SOL    HW216305   6.317   2.321   5.491
 5136SOL     OW16306   4.952   0.104   5.935
 5136SOL    HW116307   4.974   0.063   6.023
 5136SOL    HW216308   4.894   0.042   5.883
 5137SOL     OW16309   6.040   3.147   6.224
 5137SOL    HW116310   6.127   3.180   6.187
 5137SOL    HW216311   5.970   3.218   6.210
 5138SOL     OW16312   3.357   2.815   5.931
 5138SOL    HW116313   3.410   2.785   5.852
 5138SOL    HW216314   3.268   2.771   5.930
 5139SOL     OW16315   1.506   0.001   3.616
 5139SOL    HW116316   1.514   6.949   3.552
 5139SOL    HW216317   1.597   0.036   3.638
 5140SOL     OW16318   3.100   1.642   0.248
 5140SOL    HW116319   3.004   1.666   0.254
 5140SOL    HW216320   3.142   1.689   0.170
 5141SOL     OW16321   6.776   3.491   0.411
 5141SOL    HW116322   6.748   3.579   0.449
 5141SOL    HW216323   6.694   3.438   0.388
 5142SOL     OW16324   6.082   1.288   3.814
 5142SOL    HW116325   6.040   1.248   3.732
 5142SOL    HW216326   6.147   1.223   3.853
 5143SOL     OW16327   0.655   4.141   3.695
 5143SOL    HW116328   0.711   4.063   3.670
 5143SOL    HW216329   0.631   4.193   3.613
 5144SOL     OW16330   0.887   6.148   6.349
 5144SOL    HW116331   0.893   6.236   6.302
 5144SOL    HW216332   0.864   6.163   6.446
 5145SOL     OW16333   1.872   5.529   5.858
 5145SOL    HW116334   1.821   5.443   5.859
 5145SOL    HW216335   1.941   5.526   5.786
 5146SOL     OW16336   4.528   3.618   5.792
 5146SOL    HW116337   4.601   3.687   5.789
 5146SOL    HW216338   4.536   3.557   5.713
 5147SOL     OW16339   0.185   4.333   2.078
 5147SOL    HW116340   0.256   4.334   2.007
 5147SOL    HW216341   0.204   4.260   2.143
 5148SOL     OW16342   0.495   6.478   0.819
 5148SOL    HW116343   0.416   6.539   0.815
 5148SOL    HW216344   0.564   6.517   0.881
 5149SOL     OW16345   5.911   5.993   4.238
 5149SOL    HW116346   5.936   6.090   4.249
 5149SOL    HW216347   5.965   5.937   4.300
 5150SOL     OW16348   2.294   4.662   3.133
 5150SOL    HW116349   2.316   4.570   3.099
 5150SOL    HW216350   2.280   4.724   3.055
 5151SOL     OW16351   5.448   1.336   0.448
 5151SOL    HW116352   5.378   1.400   0.416
 5151SOL    HW216353   5.450   1.256   0.389
 5152SOL     OW16354   2.086   4.932   6.289
 5152SOL    HW116355   2.005   4.887   6.252
 5152SOL    HW216356   2.168   4.898   6.242
 5153SOL     OW16357   2.033   0.830   6.267
 5153SOL    HW116358   1.954   0.844   6.207
 5153SOL    HW216359   2.012   0.864   6.359
 5154SOL     OW16360   1.911   2.609   6.470
 5154SOL    HW116361   1.891   2.585   6.375
 5154SOL    HW216362   1.831   2.654   6.510
 5155SOL     OW16363   3.542   6.416   2.145
 5155SOL    HW116364   3.526   6.318   2.133
 5155SOL    HW216365   3.585   6.433   2.233
 5156SOL     OW16366   6.820   3.321   5.601
 5156SOL    HW116367   6.838   3.331   5.504
 5156SOL    HW216368   6.724   3.298   5.615
 5157SOL     OW16369   4.630   2.552   3.907
 5157SOL    HW116370   4.592   2.575   3.817
 5157SOL    HW216371   4.719   2.507   3.894
 5158SOL     OW16372   3.280   1.685   1.304
 5158SOL    HW116373   3.243   1.592   1.295
 5158SOL    HW216374   3.280   1.730   1.215
 5159SOL     OW16375   0.510   3.345   4.674
 5159SOL    HW116376   0.419   3.385   4.688
 5159SOL    HW216377   0.501   3.250   4.647
 5160SOL     OW16378   0.493   3.711   3.797
 5160SOL    HW116379   0.437   3.640   3.839
 5160SOL    HW216380   0.479   3.798   3.845
 5161SOL     OW16381   1.243   3.581   4.867
 5161SOL    HW116382   1.327   3.526   4.868
 5161SOL    HW216383   1.247   3.646   4.790
 5162SOL     OW16384   0.974   5.272   4.219
 5162SOL    HW116385   0.948   5.194   4.275
 5162SOL    HW216386   0.894   5.331   4.205
 5163SOL     OW16387   4.063   5.128   1.226
 5163SOL    HW116388   4.030   5.112   1.133
 5163SOL    HW216389   4.157   5.097   1.234
 5164SOL     OW16390   6.301   2.330   6.462
 5164SOL    HW116391   6.352   2.252   6.497
 5164SOL    HW216392   6.211   2.300   6.430
 5165SOL     OW16393   6.035   3.839   5.023
 5165SOL    HW116394   6.135   3.844   5.019
 5165SOL    HW216395   6.001   3.789   4.943
 5166SOL     OW16396   1.289   5.199   1.644
 5166SOL    HW116397   1.274   5.135   1.719
 5166SOL    HW216398   1.381   5.187   1.607
 5167SOL     OW16399   6.331   0.416   5.641
 5167SOL    HW116400   6.236   0.385   5.647
 5167SOL    HW216401   6.335   0.502   5.591
 5168SOL     OW16402   5.002   2.513   3.551
 5168SOL    HW116403   4.986   2.483   3.645
 5168SOL    HW216404   4.981   2.611   3.543
 5169SOL     OW16405   3.101   2.580   5.606
 5169SOL    HW116406   3.112   2.501   5.667
 5169SOL    HW216407   3.117   2.552   5.512
 5170SOL     OW16408   0.014   4.070   5.610
 5170SOL    HW116409   0.094   4.013   5.629
 5170SOL    HW216410   0.043   4.165   5.596
 5171SOL     OW16411   2.534   5.227   4.766
 5171SOL    HW116412   2.599   5.302   4.778
 5171SOL    HW216413   2.507   5.222   4.670
 5172SOL     OW16414   0.395   2.964   2.235
 5172SOL    HW116415   0.485   2.925   2.213
 5172SOL    HW216416   0.326   2.924   2.175
 5173SOL     OW16417   5.861   4.665   6.487
 5173SOL    HW116418   5.865   4.764   6.495
 5173SOL    HW216419   5.767   4.636   6.471
 5174SOL     OW16420   2.053   4.864   4.589
 5174SOL    HW116421   2.106   4.947   4.572
 5174SOL    HW216422   2.097   4.786   4.544
 5175SOL     OW16423   2.310   4.043   6.700
 5175SOL    HW116424   2.261   4.118   6.745
 5175SOL    HW216425   2.408   4.061   6.702
 5176SOL     OW16426   4.248   3.502   1.243
 5176SOL    HW116427   4.172   3.520   1.181
 5176SOL    HW216428   4.235   3.413   1.288
 5177SOL     OW16429   4.774   6.995   5.785
 5177SOL    HW116430   4.685   7.001   5.831
 5177SOL    HW216431   4.766   0.004   5.691
 5178SOL     OW16432   2.300   2.385   1.383
 5178SOL    HW116433   2.386   2.403   1.432
 5178SOL    HW216434   2.223   2.410   1.441
 5179SOL     OW16435   4.019   5.674   5.420
 5179SOL    HW116436   4.056   5.739   5.485
 5179SOL    HW216437   4.022   5.713   5.328
 5180SOL     OW16438   2.957   2.872   6.277
 5180SOL    HW116439   2.864   2.854   6.244
 5180SOL    HW216440   2.999   2.943   6.220
 5181SOL     OW16441   5.017   1.223   2.884
 5181SOL    HW116442   5.009   1.290   2.810
 5181SOL    HW216443   5.057   1.139   2.848
 5182SOL     OW16444   5.088   5.327   1.208
 5182SOL    HW116445   5.155   5.303   1.278
 5182SOL    HW216446   5.043   5.413   1.233
 5183SOL     OW16447   4.450   0.163   2.527
 5183SOL    HW116448   4.412   0.128   2.613
 5183SOL    HW216449   4.378   0.163   2.457
 5184SOL     OW16450   0.772   1.640   3.686
 5184SOL    HW116451   0.763   1.738   3.706
 5184SOL    HW216452   0.741   1.588   3.765
 5185SOL     OW16453   4.857   6.881   2.941
 5185SOL    HW116454   4.788   6.921   3.002
 5185SOL    HW216455   4.869   6.939   2.861
 5186SOL     OW16456   6.157   3.670   0.774
 5186SOL    HW116457   6.203   3.694   0.859
 5186SOL    HW216458   6.168   3.744   0.707
 5187SOL     OW16459   6.331   1.133   3.489
 5187SOL    HW116460   6.334   1.098   3.396
 5187SOL    HW216461   6.261   1.084   3.541
 5188SOL     OW16462   0.659   4.982   0.624
 5188SOL    HW116463   0.754   5.014   0.626
 5188SOL    HW216464   0.613   5.020   0.543
 5189SOL     OW16465   4.592   5.513   0.899
 5189SOL    HW116466   4.620   5.609   0.905
 5189SOL    HW216467   4.550   5.496   0.810
 5190SOL     OW16468   0.720   2.276   4.529
 5190SOL    HW116469   0.666   2.208   4.479
 5190SOL    HW216470   0.752   2.236   4.615
 5191SOL     OW16471   3.859   0.487   1.708
 5191SOL    HW116472   3.947   0.449   1.736
 5191SOL    HW216473   3.873   0.555   1.637
 5192SOL     OW16474   4.338   5.631   2.388
 5192SOL    HW116475   4.290   5.632   2.300
 5192SOL    HW216476   4.290   5.570   2.451
 5193SOL     OW16477   4.818   4.597   4.023
 5193SOL    HW116478   4.806   4.611   3.925
 5193SOL    HW216479   4.864   4.676   4.063
 5194SOL     OW16480   4.588   6.990   6.070
 5194SOL    HW116481   4.552   0.015   6.149
 5194SOL    HW216482   4.588   6.892   6.090
 5195SOL     OW16483   6.350   6.094   4.483
 5195SOL    HW116484   6.344   6.110   4.385
 5195SOL    HW216485   6.441   6.119   4.516
 5196SOL     OW16486   0.940   3.633   0.666
 5196SOL    HW116487   0.950   3.541   0.703
 5196SOL    HW216488   0.845   3.663   0.677
 5197SOL     OW16489   2.070   6.159   4.236
 5197SOL    HW116490   2.151   6.195   4.282
 5197SOL    HW216491   1.988   6.187   4.288
 5198SOL     OW16492   3.135   0.218   4.557
 5198SOL    HW116493   3.099   0.170   4.476
 5198SOL    HW216494   3.234   0.224   4.551
 5199SOL     OW16495   2.158   6.244   1.042
 5199SOL    HW116496   2.095   6.244   1.120
 5199SOL    HW216497   2.223   6.168   1.051
 5200SOL     OW16498   0.837   2.171   5.041
 5200SOL    HW116499   0.749   2.123   5.028
 5200SOL    HW216500   0.908   2.104   5.064
 5201SOL     OW16501   5.408   5.677   4.007
 5201SOL    HW116502   5.372   5.762   4.045
 5201SOL    HW216503   5.496   5.694   3.964
 5202SOL     OW16504   5.436   3.754   6.263
 5202SOL    HW116505   5.354   3.703   6.288
 5202SOL    HW216506   5.410   3.845   6.231
 5203SOL     OW16507   1.613   0.825   6.329
 5203SOL    HW116508   1.605   0.739   6.280
 5203SOL    HW216509   1.600   0.901   6.265
 5204SOL     OW16510   3.136   6.633   6.820
 5204SOL    HW116511   3.037   6.631   6.835
 5204SOL    HW216512   3.155   6.669   6.729
 5205SOL     OW16513   0.074   5.515   0.029
 5205SOL    HW116514   0.141   5.521   0.103
 5205SOL    HW216515   0.036   5.605   0.011
 5206SOL     OW16516   0.259   5.379   5.673
 5206SOL    HW116517   0.270   5.280   5.683
 5206SOL    HW216518   0.271   5.404   5.577
 5207SOL     OW16519   0.348   0.438   3.785
 5207SOL    HW116520   0.380   0.454   3.692
 5207SOL    HW216521   0.313   0.345   3.793
 5208SOL     OW16522   4.787   2.337   0.044
 5208SOL    HW116523   4.882   2.368   0.053
 5208SOL    HW216524   4.727   2.397   0.097
 5209SOL     OW16525   5.083   0.239   2.193
 5209SOL    HW116526   5.095   0.309   2.264
 5209SOL    HW216527   5.171   0.222   2.148
 5210SOL     OW16528   5.395   4.053   0.826
 5210SOL    HW116529   5.437   4.107   0.753
 5210SOL    HW216530   5.296   4.050   0.812
 5211SOL     OW16531   5.393   1.687   4.391
 5211SOL    HW116532   5.390   1.600   4.440
 5211SOL    HW216533   5.300   1.717   4.370
 5212SOL     OW16534   1.108   2.585   0.736
 5212SOL    HW116535   1.201   2.579   0.699
 5212SOL    HW216536   1.043   2.596   0.661
 5213SOL     OW16537   4.185   3.891   1.840
 5213SOL    HW116538   4.102   3.941   1.814
 5213SOL    HW216539   4.266   3.940   1.807
 5214SOL     OW16540   4.819   4.089   5.914
 5214SOL    HW116541   4.909   4.055   5.885
 5214SOL    HW216542   4.832   4.151   5.992
 5215SOL     OW16543   0.048   4.073   4.108
 5215SOL    HW116544   6.999   4.017   4.146
 5215SOL    HW216545   0.125   4.074   4.172
 5216SOL     OW16546   4.887   5.676   1.063
 5216SOL    HW116547   4.859   5.738   0.990
 5216SOL    HW216548   4.870   5.719   1.151
 5217SOL     OW16549   3.754   5.537   4.465
 5217SOL    HW116550   3.727   5.591   4.386
 5217SOL    HW216551   3.730   5.586   4.549
 5218SOL     OW16552   0.197   1.547   0.944
 5218SOL    HW116553   0.157   1.529   0.854
 5218SOL    HW216554   0.125   1.543   1.014
 5219SOL     OW16555   3.502   1.362   4.577
 5219SOL    HW116556   3.570   1.303   4.621
 5219SOL    HW216557   3.513   1.455   4.610
 5220SOL     OW16558   1.523   4.985   3.050
 5220SOL    HW116559   1.535   4.930   3.132
 5220SOL    HW216560   1.527   4.927   2.969
 5221SOL     OW16561   0.304   0.495   1.864
 5221SOL    HW116562   0.358   0.452   1.791
 5221SOL    HW216563   0.258   0.424   1.917
 5222SOL     OW16564   3.932   5.619   2.525
 5222SOL    HW116565   3.833   5.638   2.523
 5222SOL    HW216566   3.981   5.699   2.491
 5223SOL     OW16567   6.861   2.365   1.246
 5223SOL    HW116568   6.774   2.351   1.200
 5223SOL    HW216569   6.928   2.298   1.212
 5224SOL     OW16570   0.575   2.037   4.385
 5224SOL    HW116571   0.522   1.959   4.418
 5224SOL    HW216572   0.519   2.091   4.322
 5225SOL     OW16573   0.097   1.204   4.396
 5225SOL    HW116574   0.112   1.132   4.328
 5225SOL    HW216575   0.176   1.208   4.458
 5226SOL     OW16576   0.132   6.046   3.401
 5226SOL    HW116577   0.102   6.141   3.397
 5226SOL    HW216578   0.071   5.994   3.461
 5227SOL     OW16579   0.321   3.569   5.916
 5227SOL    HW116580   0.286   3.483   5.879
 5227SOL    HW216581   0.264   3.645   5.884
 5228SOL     OW16582   0.793   2.505   6.814
 5228SOL    HW116583   0.824   2.410   6.817
 5228SOL    HW216584   0.693   2.508   6.819
 5229SOL     OW16585   3.176   6.240   6.276
 5229SOL    HW116586   3.154   6.190   6.359
 5229SOL    HW216587   3.232   6.182   6.216
 5230SOL     OW16588   6.418   0.294   2.804
 5230SOL    HW116589   6.354   0.371   2.792
 5230SOL    HW216590   6.427   0.274   2.901
 5231SOL     OW16591   5.027   1.916   3.515
 5231SOL    HW116592   5.045   1.825   3.477
 5231SOL    HW216593   4.998   1.977   3.442
 5232SOL     OW16594   1.546   4.328   6.112
 5232SOL    HW116595   1.482   4.308   6.185
 5232SOL    HW216596   1.576   4.242   6.069
 5233SOL     OW16597   3.252   1.091   1.945
 5233SOL    HW116598   3.220   1.002   1.977
 5233SOL    HW216599   3.197   1.164   1.986
 5234SOL     OW16600   3.270   3.396   6.722
 5234SOL    HW116601   3.329   3.476   6.713
 5234SOL    HW216602   3.176   3.425   6.740
 5235SOL     OW16603   2.246   2.158   0.454
 5235SOL    HW116604   2.275   2.106   0.534
 5235SOL    HW216605   2.178   2.106   0.403
 5236SOL     OW16606   3.071   4.944   1.842
 5236SOL    HW116607   2.985   4.893   1.854
 5236SOL    HW216608   3.141   4.907   1.903
 5237SOL     OW16609   2.278   1.351   4.682
 5237SOL    HW116610   2.242   1.341   4.589
 5237SOL    HW216611   2.378   1.344   4.679
 5238SOL     OW16612   1.082   4.895   1.582
 5238SOL    HW116613   1.137   4.824   1.538
 5238SOL    HW216614   1.081   4.977   1.525
 5239SOL     OW16615   3.351   3.471   1.174
 5239SOL    HW116616   3.274   3.493   1.234
 5239SOL    HW216617   3.434   3.461   1.229
 5240SOL     OW16618   2.763   2.642   5.487
 5240SOL    HW116619   2.807   2.731   5.478
 5240SOL    HW216620   2.830   2.570   5.469
 5241SOL     OW16621   0.680   5.909   2.413
 5241SOL    HW116622   0.683   5.836   2.345
 5241SOL    HW216623   0.705   5.996   2.370
 5242SOL     OW16624   4.985   0.254   1.831
 5242SOL    HW116625   4.973   0.189   1.755
 5242SOL    HW216626   4.956   0.345   1.801
 5243SOL     OW16627   2.003   6.101   1.920
 5243SOL    HW116628   1.935   6.060   1.859
 5243SOL    HW216629   2.070   6.031   1.947
 5244SOL     OW16630   5.279   3.373   0.245
 5244SOL    HW116631   5.226   3.447   0.286
 5244SOL    HW216632   5.221   3.321   0.183
 5245SOL     OW16633   4.251   4.018   0.634
 5245SOL    HW116634   4.224   3.941   0.693
 5245SOL    HW216635   4.211   4.102   0.670
 5246SOL     OW16636   5.847   2.558   2.179
 5246SOL    HW116637   5.833   2.639   2.237
 5246SOL    HW216638   5.943   2.552   2.152
 5247SOL     OW16639   3.794   1.198   5.762
 5247SOL    HW116640   3.806   1.261   5.839
 5247SOL    HW216641   3.805   1.248   5.676
 5248SOL     OW16642   0.214   1.972   2.929
 5248SOL    HW116643   0.274   1.892   2.926
 5248SOL    HW216644   0.260   2.048   2.976
 5249SOL     OW16645   1.734   5.483   6.558
 5249SOL    HW116646   1.677   5.413   6.601
 5249SOL    HW216647   1.772   5.543   6.628
 5250SOL     OW16648   1.383   5.998   0.308
 5250SOL    HW116649   1.372   6.013   0.406
 5250SOL    HW216650   1.468   5.948   0.291
 5251SOL     OW16651   0.750   4.734   0.729
 5251SOL    HW116652   0.704   4.820   0.704
 5251SOL    HW216653   0.773   4.684   0.646
 5252SOL     OW16654   2.785   6.549   2.148
 5252SOL    HW116655   2.872   6.527   2.105
 5252SOL    HW216656   2.797   6.557   2.247
 5253SOL     OW16657   6.790   4.177   4.733
 5253SOL    HW116658   6.753   4.222   4.651
 5253SOL    HW216659   6.888   4.195   4.739
 5254SOL     OW16660   5.899   0.416   3.789
 5254SOL    HW116661   5.880   0.502   3.742
 5254SOL    HW216662   5.907   0.433   3.887
 5255SOL     OW16663   5.547   2.160   4.840
 5255SOL    HW116664   5.561   2.210   4.926
 5255SOL    HW216665   5.496   2.217   4.776
 5256SOL     OW16666   5.177   1.675   3.939
 5256SOL    HW116667   5.104   1.678   3.872
 5256SOL    HW216668   5.221   1.585   3.936
 5257SOL     OW16669   5.011   6.789   1.197
 5257SOL    HW116670   5.033   6.692   1.181
 5257SOL    HW216671   5.076   6.846   1.148
 5258SOL     OW16672   5.486   1.870   3.188
 5258SOL    HW116673   5.462   1.944   3.125
 5258SOL    HW216674   5.582   1.846   3.176
 5259SOL     OW16675   4.867   5.245   2.778
 5259SOL    HW116676   4.804   5.229   2.854
 5259SOL    HW216677   4.926   5.165   2.766
 5260SOL     OW16678   3.624   5.735   0.340
 5260SOL    HW116679   3.702   5.699   0.289
 5260SOL    HW216680   3.577   5.659   0.386
 5261SOL     OW16681   0.629   4.181   6.956
 5261SOL    HW116682   0.683   4.237   7.018
 5261SOL    HW216683   0.679   4.097   6.933
 5262SOL     OW16684   2.462   0.471   3.358
 5262SOL    HW116685   2.555   0.478   3.322
 5262SOL    HW216686   2.463   0.481   3.458
 5263SOL     OW16687   2.003   1.297   2.682
 5263SOL    HW116688   2.094   1.309   2.722
 5263SOL    HW216689   1.992   1.203   2.649
 5264SOL     OW16690   6.835   1.984   2.105
 5264SOL    HW116691   6.751   2.025   2.139
 5264SOL    HW216692   6.893   1.956   2.181
 5265SOL     OW16693   6.224   3.031   4.458
 5265SOL    HW116694   6.323   3.022   4.445
 5265SOL    HW216695   6.178   3.015   4.371
 5266SOL     OW16696   2.860   6.052   0.892
 5266SOL    HW116697   2.889   6.147   0.904
 5266SOL    HW216698   2.875   6.001   0.976
 5267SOL     OW16699   4.809   2.314   4.706
 5267SOL    HW116700   4.888   2.376   4.699
 5267SOL    HW216701   4.755   2.339   4.787
 5268SOL     OW16702   5.062   0.476   6.704
 5268SOL    HW116703   5.051   0.445   6.609
 5268SOL    HW216704   5.027   0.569   6.713
 5269SOL     OW16705   1.186   6.505   2.339
 5269SOL    HW116706   1.132   6.485   2.421
 5269SOL    HW216707   1.168   6.435   2.269
 5270SOL     OW16708   5.450   1.803   1.583
 5270SOL    HW116709   5.546   1.821   1.603
 5270SOL    HW216710   5.394   1.879   1.618
 5271SOL     OW16711   6.028   4.681   5.561
 5271SOL    HW116712   6.126   4.701   5.560
 5271SOL    HW216713   6.014   4.583   5.550
 5272SOL     OW16714   3.343   5.642   1.275
 5272SOL    HW116715   3.306   5.668   1.186
 5272SOL    HW216716   3.301   5.699   1.346
 5273SOL     OW16717   0.683   3.423   2.431
 5273SOL    HW116718   0.755   3.493   2.440
 5273SOL    HW216719   0.602   3.463   2.388
 5274SOL     OW16720   5.236   6.727   2.665
 5274SOL    HW116721   5.290   6.782   2.730
 5274SOL    HW216722   5.231   6.633   2.699
 5275SOL     OW16723   3.583   1.095   0.756
 5275SOL    HW116724   3.595   1.072   0.852
 5275SOL    HW216725   3.551   1.190   0.748
 5276SOL     OW16726   2.155   0.485   1.442
 5276SOL    HW116727   2.212   0.404   1.427
 5276SOL    HW216728   2.210   0.567   1.431
 5277SOL     OW16729   2.946   0.994   2.856
 5277SOL    HW116730   3.017   1.064   2.859
 5277SOL    HW216731   2.869   1.021   2.914
 5278SOL     OW16732   4.773   5.406   3.876
 5278SOL    HW116733   4.678   5.404   3.908
 5278SOL    HW216734   4.804   5.312   3.859
 5279SOL     OW16735   2.452   6.093   1.128
 5279SOL    HW116736   2.432   6.087   1.226
 5279SOL    HW216737   2.468   6.188   1.104
 5280SOL     OW16738   3.004   6.131   4.807
 5280SOL    HW116739   3.085   6.110   4.752
 5280SOL    HW216740   2.948   6.199   4.759
 5281SOL     OW16741   6.200   2.224   2.373
 5281SOL    HW116742   6.213   2.151   2.440
 5281SOL    HW216743   6.260   2.301   2.395
 5282SOL     OW16744   2.652   1.552   3.714
 5282SOL    HW116745   2.680   1.597   3.630
 5282SOL    HW216746   2.680   1.607   3.793
 5283SOL     OW16747   4.869   6.660   1.992
 5283SOL    HW116748   4.895   6.750   1.956
 5283SOL    HW216749   4.951   6.611   2.022
 5284SOL     OW16750   5.534   4.280   2.867
 5284SOL    HW116751   5.537   4.238   2.776
 5284SOL    HW216752   5.497   4.215   2.932
 5285SOL     OW16753   3.090   4.958   4.181
 5285SOL    HW116754   3.178   4.966   4.228
 5285SOL    HW216755   3.097   4.889   4.110
 5286SOL     OW16756   2.394   3.976   1.074
 5286SOL    HW116757   2.377   3.911   1.147
 5286SOL    HW216758   2.309   3.995   1.025
 5287SOL     OW16759   2.751   1.144   0.850
 5287SOL    HW116760   2.825   1.208   0.871
 5287SOL    HW216761   2.736   1.142   0.751
 5288SOL     OW16762   4.323   0.396   1.406
 5288SOL    HW116763   4.285   0.477   1.451
 5288SOL    HW216764   4.249   0.336   1.376
 5289SOL     OW16765   1.442   5.017   0.444
 5289SOL    HW116766   1.422   5.108   0.407
 5289SOL    HW216767   1.496   5.027   0.528
 5290SOL     OW16768   3.309   5.716   6.778
 5290SOL    HW116769   3.350   5.627   6.799
 5290SOL    HW216770   3.329   5.781   6.852
 5291SOL     OW16771   2.409   5.611   5.456
 5291SOL    HW116772   2.492   5.661   5.433
 5291SOL    HW216773   2.427   5.551   5.534
 5292SOL     OW16774   5.811   3.131   6.873
 5292SOL    HW116775   5.888   3.180   6.913
 5292SOL    HW216776   5.727   3.182   6.891
 5293SOL     OW16777   0.558   1.009   4.987
 5293SOL    HW116778   0.599   1.100   4.975
 5293SOL    HW216779   0.492   0.992   4.914
 5294SOL     OW16780   5.969   3.134   6.672
 5294SOL    HW116781   5.924   3.204   6.617
 5294SOL    HW216782   5.907   3.102   6.743
 5295SOL     OW16783   5.492   1.277   3.028
 5295SOL    HW116784   5.472   1.200   2.967
 5295SOL    HW216785   5.466   1.363   2.983
 5296SOL     OW16786   1.692   4.936   0.035
 5296SOL    HW116787   1.766   4.887   7.014
 5296SOL    HW216788   1.622   4.962   6.994
 5297SOL     OW16789   2.467   1.911   0.554
 5297SOL    HW116790   2.509   1.881   0.640
 5297SOL    HW216791   2.497   2.004   0.533
 5298SOL     OW16792   6.495   5.319   2.201
 5298SOL    HW116793   6.560   5.274   2.139
 5298SOL    HW216794   6.517   5.416   2.207
 5299SOL     OW16795   2.882   0.798   1.645
 5299SOL    HW116796   2.896   0.734   1.570
 5299SOL    HW216797   2.875   0.891   1.610
 5300SOL     OW16798   0.382   5.465   3.136
 5300SOL    HW116799   0.449   5.500   3.201
 5300SOL    HW216800   0.391   5.365   3.131
 5301SOL     OW16801   4.233   1.718   0.055
 5301SOL    HW116802   4.226   1.630   0.007
 5301SOL    HW216803   4.322   1.725   0.100
 5302SOL     OW16804   6.765   4.140   2.347
 5302SOL    HW116805   6.752   4.155   2.249
 5302SOL    HW216806   6.724   4.215   2.398
 5303SOL     OW16807   6.374   4.980   3.551
 5303SOL    HW116808   6.279   4.968   3.580
 5303SOL    HW216809   6.383   5.063   3.497
 5304SOL     OW16810   5.267   2.220   6.187
 5304SOL    HW116811   5.213   2.301   6.211
 5304SOL    HW216812   5.347   2.215   6.246
 5305SOL     OW16813   1.832   0.820   3.887
 5305SOL    HW116814   1.774   0.873   3.949
 5305SOL    HW216815   1.819   0.853   3.794
 5306SOL     OW16816   2.593   5.850   5.599
 5306SOL    HW116817   2.513   5.899   5.564
 5306SOL    HW216818   2.629   5.898   5.678
 5307SOL     OW16819   4.342   6.471   6.013
 5307SOL    HW116820   4.413   6.471   6.083
 5307SOL    HW216821   4.375   6.518   5.932
 5308SOL     OW16822   0.516   0.723   4.173
 5308SOL    HW116823   0.457   0.661   4.121
 5308SOL    HW216824   0.536   0.804   4.117
 5309SOL     OW16825   3.728   3.882   3.364
 5309SOL    HW116826   3.671   3.802   3.344
 5309SOL    HW216827   3.727   3.944   3.285
 5310SOL     OW16828   5.073   2.652   1.623
 5310SOL    HW116829   5.104   2.680   1.714
 5310SOL    HW216830   5.035   2.731   1.575
 5311SOL     OW16831   1.707   5.614   6.968
 5311SOL    HW116832   1.704   5.524   7.012
 5311SOL    HW216833   1.728   5.684   0.011
 5312SOL     OW16834   0.880   4.752   2.397
 5312SOL    HW116835   0.825   4.758   2.314
 5312SOL    HW216836   0.913   4.843   2.423
 5313SOL     OW16837   0.856   6.271   6.888
 5313SOL    HW116838   0.815   6.190   6.931
 5313SOL    HW216839   0.926   6.310   6.949
 5314SOL     OW16840   4.515   5.225   0.348
 5314SOL    HW116841   4.516   5.303   0.285
 5314SOL    HW216842   4.513   5.140   0.296
 5315SOL     OW16843   4.938   4.330   1.872
 5315SOL    HW116844   4.876   4.263   1.830
 5315SOL    HW216845   4.887   4.413   1.893
 5316SOL     OW16846   6.817   5.115   4.821
 5316SOL    HW116847   6.844   5.177   4.747
 5316SOL    HW216848   6.774   5.034   4.783
 5317SOL     OW16849   5.725   1.159   3.123
 5317SOL    HW116850   5.652   1.224   3.101
 5317SOL    HW216851   5.809   1.188   3.077
 5318SOL     OW16852   6.984   2.892   4.860
 5318SOL    HW116853   0.051   2.862   4.883
 5318SOL    HW216854   6.925   2.811   4.848
 5319SOL     OW16855   5.481   6.860   6.667
 5319SOL    HW116856   5.389   6.862   6.705
 5319SOL    HW216857   5.529   6.778   6.700
 5320SOL     OW16858   6.448   3.913   6.345
 5320SOL    HW116859   6.368   3.968   6.319
 5320SOL    HW216860   6.427   3.816   6.334
 5321SOL     OW16861   1.818   4.906   4.466
 5321SOL    HW116862   1.905   4.894   4.514
 5321SOL    HW216863   1.802   5.004   4.451
 5322SOL     OW16864   3.931   6.493   6.698
 5322SOL    HW116865   3.922   6.420   6.631
 5322SOL    HW216866   3.992   6.463   6.772
 5323SOL     OW16867   4.279   2.113   0.615
 5323SOL    HW116868   4.276   2.204   0.573
 5323SOL    HW216869   4.351   2.111   0.685
 5324SOL     OW16870   3.965   2.385   1.650
 5324SOL    HW116871   3.926   2.472   1.679
 5324SOL    HW216872   4.034   2.401   1.578
 5325SOL     OW16873   4.720   6.456   2.252
 5325SOL    HW116874   4.788   6.488   2.317
 5325SOL    HW216875   4.761   6.450   2.161
 5326SOL     OW16876   6.873   5.538   1.467
 5326SOL    HW116877   6.941   5.544   1.540
 5326SOL    HW216878   6.903   5.593   1.389
 5327SOL     OW16879   0.253   6.959   4.610
 5327SOL    HW116880   0.255   0.002   4.537
 5327SOL    HW216881   0.345   6.942   4.643
 5328SOL     OW16882   4.007   3.711   6.628
 5328SOL    HW116883   4.006   3.811   6.638
 5328SOL    HW216884   3.918   3.675   6.654
 5329SOL     OW16885   0.578   4.568   0.267
 5329SOL    HW116886   0.645   4.499   0.295
 5329SOL    HW216887   0.496   4.522   0.232
 5330SOL     OW16888   3.690   3.568   0.596
 5330SOL    HW116889   3.733   3.600   0.680
 5330SOL    HW216890   3.591   3.565   0.608
 5331SOL     OW16891   4.603   2.128   0.625
 5331SOL    HW116892   4.580   2.135   0.721
 5331SOL    HW216893   4.637   2.036   0.605
 5332SOL     OW16894   6.402   5.130   0.394
 5332SOL    HW116895   6.410   5.128   0.494
 5332SOL    HW216896   6.434   5.043   0.357
 5333SOL     OW16897   2.183   1.286   3.582
 5333SOL    HW116898   2.160   1.296   3.485
 5333SOL    HW216899   2.142   1.361   3.634
 5334SOL     OW16900   4.804   4.789   3.532
 5334SOL    HW116901   4.705   4.800   3.545
 5334SOL    HW216902   4.822   4.757   3.439
 5335SOL     OW16903   6.948   4.350   2.301
 5335SOL    HW116904   6.872   4.415   2.297
 5335SOL    HW216905   7.010   4.367   2.224
 5336SOL     OW16906   1.814   1.897   3.967
 5336SOL    HW116907   1.764   1.817   3.934
 5336SOL    HW216908   1.794   1.913   4.063
 5337SOL     OW16909   6.043   4.084   1.410
 5337SOL    HW116910   6.034   4.170   1.360
 5337SOL    HW216911   6.129   4.084   1.461
 5338SOL     OW16912   6.100   2.970   6.869
 5338SOL    HW116913   6.068   3.042   6.932
 5338SOL    HW216914   6.157   3.011   6.799
 5339SOL     OW16915   5.948   2.323   2.338
 5339SOL    HW116916   5.924   2.409   2.292
 5339SOL    HW216917   6.046   2.304   2.324
 5340SOL     OW16918   5.658   2.944   2.184
 5340SOL    HW116919   5.739   2.990   2.221
 5340SOL    HW216920   5.685   2.890   2.104
 5341SOL     OW16921   4.880   4.670   3.752
 5341SOL    HW116922   4.932   4.584   3.750
 5341SOL    HW216923   4.846   4.690   3.660
 5342SOL     OW16924   5.763   6.895   5.780
 5342SOL    HW116925   5.674   6.938   5.765
 5342SOL    HW216926   5.750   6.797   5.793
 5343SOL     OW16927   3.706   3.730   5.592
 5343SOL    HW116928   3.614   3.732   5.554
 5343SOL    HW216929   3.725   3.817   5.638
 5344SOL     OW16930   0.716   1.565   0.112
 5344SOL    HW116931   0.771   1.501   0.057
 5344SOL    HW216932   0.724   1.541   0.209
 5345SOL     OW16933   4.746   1.528   6.778
 5345SOL    HW116934   4.661   1.525   6.830
 5345SOL    HW216935   4.776   1.434   6.759
 5346SOL     OW16936   3.028   5.080   3.881
 5346SOL    HW116937   3.032   5.118   3.973
 5346SOL    HW216938   2.981   5.145   3.821
 5347SOL     OW16939   6.584   2.323   3.725
 5347SOL    HW116940   6.493   2.352   3.753
 5347SOL    HW216941   6.578   2.273   3.638
 5348SOL     OW16942   5.547   1.819   4.212
 5348SOL    HW116943   5.603   1.873   4.275
 5348SOL    HW216944   5.497   1.749   4.263
 5349SOL     OW16945   0.608   2.733   2.031
 5349SOL    HW116946   0.704   2.717   2.051
 5349SOL    HW216947   0.600   2.779   1.942
 5350SOL     OW16948   1.743   6.797   5.604
 5350SOL    HW116949   1.724   6.863   5.531
 5350SOL    HW216950   1.724   6.840   5.693
 5351SOL     OW16951   0.375   5.449   1.432
 5351SOL    HW116952   0.336   5.368   1.387
 5351SOL    HW216953   0.474   5.438   1.438
 5352SOL     OW16954   1.887   4.132   3.576
 5352SOL    HW116955   1.852   4.174   3.493
 5352SOL    HW216956   1.901   4.034   3.562
 5353SOL     OW16957   4.435   5.236   3.798
 5353SOL    HW116958   4.494   5.228   3.718
 5353SOL    HW216959   4.376   5.317   3.788
 5354SOL     OW16960   3.484   5.179   0.723
 5354SOL    HW116961   3.450   5.270   0.748
 5354SOL    HW216962   3.497   5.125   0.806
 5355SOL     OW16963   5.515   5.337   5.423
 5355SOL    HW116964   5.428   5.341   5.471
 5355SOL    HW216965   5.500   5.328   5.325
 5356SOL     OW16966   0.201   4.309   1.589
 5356SOL    HW116967   0.224   4.310   1.491
 5356SOL    HW216968   0.173   4.216   1.615
 5357SOL     OW16969   4.569   5.144   1.958
 5357SOL    HW116970   4.511   5.166   2.037
 5357SOL    HW216971   4.511   5.110   1.883
 5358SOL     OW16972   4.519   1.796   7.017
 5358SOL    HW116973   4.590   1.812   6.947
 5358SOL    HW216974   4.527   1.866   0.063
 5359SOL     OW16975   1.901   1.340   0.409
 5359SOL    HW116976   1.804   1.317   0.400
 5359SOL    HW216977   1.956   1.257   0.395
 5360SOL     OW16978   5.620   5.045   4.204
 5360SOL    HW116979   5.624   5.097   4.119
 5360SOL    HW216980   5.688   5.082   4.269
 5361SOL     OW16981   3.700   6.174   2.523
 5361SOL    HW116982   3.721   6.143   2.615
 5361SOL    HW216983   3.685   6.095   2.463
 5362SOL     OW16984   5.451   6.805   2.210
 5362SOL    HW116985   5.388   6.829   2.284
 5362SOL    HW216986   5.468   6.707   2.211
 5363SOL     OW16987   5.787   5.988   4.771
 5363SOL    HW116988   5.798   5.915   4.838
 5363SOL    HW216989   5.730   6.061   4.810
 5364SOL     OW16990   4.998   0.578   2.609
 5364SOL    HW116991   5.024   0.634   2.687
 5364SOL    HW216992   4.942   0.631   2.546
 5365SOL     OW16993   3.131   3.090   3.783
 5365SOL    HW116994   3.065   3.148   3.830
 5365SOL    HW216995   3.110   3.088   3.685
 5366SOL     OW16996   6.575   0.055   1.606
 5366SOL    HW116997   6.593   0.151   1.629
 5366SOL    HW216998   6.506   0.051   1.535
 5367SOL     OW16999   6.516   6.869   0.753
 5367SOL    HW117000   6.453   6.943   0.732
 5367SOL    HW217001   6.600   6.880   0.700
 5368SOL     OW17002   6.632   5.824   2.351
 5368SOL    HW117003   6.689   5.863   2.278
 5368SOL    HW217004   6.661   5.862   2.439
 5369SOL     OW17005   2.748   5.057   1.919
 5369SOL    HW117006   2.784   4.988   1.855
 5369SOL    HW217007   2.798   5.051   2.005
 5370SOL     OW17008   3.865   3.955   1.447
 5370SOL    HW117009   3.856   4.055   1.439
 5370SOL    HW217010   3.800   3.921   1.514
 5371SOL     OW17011   6.986   5.068   5.134
 5371SOL    HW117012   6.950   4.976   5.145
 5371SOL    HW217013   6.999   5.111   5.223
 5372SOL     OW17014   1.551   0.439   2.594
 5372SOL    HW117015   1.560   0.463   2.690
 5372SOL    HW217016   1.463   0.395   2.579
 5373SOL     OW17017   4.020   6.646   5.720
 5373SOL    HW117018   4.043   6.621   5.814
 5373SOL    HW217019   3.960   6.726   5.720
 5374SOL     OW17020   2.485   5.548   1.135
 5374SOL    HW117021   2.527   5.639   1.132
 5374SOL    HW217022   2.543   5.483   1.085
 5375SOL     OW17023   0.523   6.317   5.090
 5375SOL    HW117024   0.602   6.335   5.031
 5375SOL    HW217025   0.445   6.371   5.058
 5376SOL     OW17026   1.049   1.939   0.412
 5376SOL    HW117027   0.969   1.985   0.449
 5376SOL    HW217028   1.118   1.928   0.484
 5377SOL     OW17029   2.172   0.996   2.833
 5377SOL    HW117030   2.117   1.016   2.914
 5377SOL    HW217031   2.112   0.969   2.758
 5378SOL     OW17032   5.833   0.737   1.181
 5378SOL    HW117033   5.794   0.746   1.272
 5378SOL    HW217034   5.789   0.660   1.134
 5379SOL     OW17035   1.219   2.993   5.777
 5379SOL    HW117036   1.269   2.964   5.859
 5379SOL    HW217037   1.153   2.922   5.752
 5380SOL     OW17038   4.154   0.207   1.633
 5380SOL    HW117039   4.108   0.153   1.562
 5380SOL    HW217040   4.217   0.148   1.684
 5381SOL     OW17041   5.309   6.664   3.151
 5381SOL    HW117042   5.228   6.624   3.110
 5381SOL    HW217043   5.390   6.634   3.100
 5382SOL     OW17044   4.055   1.560   3.034
 5382SOL    HW117045   4.020   1.617   2.959
 5382SOL    HW217046   4.105   1.482   2.996
 5383SOL     OW17047   1.333   2.983   4.053
 5383SOL    HW117048   1.332   2.889   4.019
 5383SOL    HW217049   1.280   2.988   4.137
 5384SOL     OW17050   4.486   5.877   5.429
 5384SOL    HW117051   4.404   5.893   5.484
 5384SOL    HW217052   4.463   5.881   5.332
 5385SOL     OW17053   6.310   2.555   5.844
 5385SOL    HW117054   6.233   2.582   5.902
 5385SOL    HW217055   6.339   2.632   5.788
 5386SOL     OW17056   6.281   3.135   3.926
 5386SOL    HW117057   6.258   3.229   3.952
 5386SOL    HW217058   6.368   3.135   3.877
 5387SOL     OW17059   2.513   0.360   2.283
 5387SOL    HW117060   2.440   0.425   2.304
 5387SOL    HW217061   2.483   0.268   2.308
 5388SOL     OW17062   0.595   6.530   2.806
 5388SOL    HW117063   0.504   6.554   2.772
 5388SOL    HW217064   0.639   6.611   2.845
 5389SOL     OW17065   4.270   1.732   4.682
 5389SOL    HW117066   4.320   1.665   4.737
 5389SOL    HW217067   4.175   1.736   4.714
 5390SOL     OW17068   6.422   3.429   3.868
 5390SOL    HW117069   6.465   3.519   3.879
 5390SOL    HW217070   6.341   3.438   3.810
 5391SOL     OW17071   2.273   1.951   0.055
 5391SOL    HW117072   2.242   2.007   7.003
 5391SOL    HW217073   2.365   1.978   0.083
 5392SOL     OW17074   4.567   2.020   3.629
 5392SOL    HW117075   4.499   2.031   3.701
 5392SOL    HW217076   4.591   1.923   3.620
 5393SOL     OW17077   4.154   0.729   5.626
 5393SOL    HW117078   4.217   0.762   5.556
 5393SOL    HW217079   4.127   0.805   5.685
 5394SOL     OW17080   1.822   0.156   0.798
 5394SOL    HW117081   1.891   0.167   0.870
 5394SOL    HW217082   1.863   0.114   0.718
 5395SOL     OW17083   5.002   1.871   1.522
 5395SOL    HW117084   5.100   1.861   1.535
 5395SOL    HW217085   4.955   1.863   1.610
 5396SOL     OW17086   5.817   5.535   2.614
 5396SOL    HW117087   5.803   5.633   2.601
 5396SOL    HW217088   5.911   5.519   2.642
 5397SOL     OW17089   6.003   1.523   3.071
 5397SOL    HW117090   5.978   1.441   3.020
 5397SOL    HW217091   6.030   1.497   3.164
 5398SOL     OW17092   4.558   2.173   4.009
 5398SOL    HW117093   4.536   2.076   4.004
 5398SOL    HW217094   4.638   2.193   3.952
 5399SOL     OW17095   1.936   0.166   5.396
 5399SOL    HW117096   1.956   0.151   5.493
 5399SOL    HW217097   2.003   0.117   5.340
 5400SOL     OW17098   3.478   3.097   1.364
 5400SOL    HW117099   3.406   3.084   1.433
 5400SOL    HW217100   3.437   3.093   1.273
 5401SOL     OW17101   5.247   4.352   2.752
 5401SOL    HW117102   5.273   4.444   2.783
 5401SOL    HW217103   5.164   4.324   2.800
 5402SOL     OW17104   2.082   0.120   0.925
 5402SOL    HW117105   2.114   0.206   0.966
 5402SOL    HW217106   2.099   0.044   0.988
 5403SOL     OW17107   5.245   3.224   0.005
 5403SOL    HW117108   5.227   3.159   6.956
 5403SOL    HW217109   5.333   3.203   0.047
 5404SOL     OW17110   0.051   0.715   1.170
 5404SOL    HW117111   0.022   0.770   1.249
 5404SOL    HW217112   0.150   0.723   1.158
 5405SOL     OW17113   5.239   5.534   0.240
 5405SOL    HW117114   5.183   5.452   0.252
 5405SOL    HW217115   5.214   5.601   0.310
 5406SOL     OW17116   2.400   0.752   4.741
 5406SOL    HW117117   2.395   0.838   4.691
 5406SOL    HW217118   2.486   0.706   4.719
 5407SOL     OW17119   2.535   0.518   1.469
 5407SOL    HW117120   2.514   0.582   1.544
 5407SOL    HW217121   2.574   0.568   1.392
 5408SOL     OW17122   2.628   2.352   4.510
 5408SOL    HW117123   2.660   2.343   4.605
 5408SOL    HW217124   2.655   2.272   4.458
 5409SOL     OW17125   6.826   2.739   1.497
 5409SOL    HW117126   6.925   2.753   1.494
 5409SOL    HW217127   6.805   2.643   1.481
 5410SOL     OW17128   0.864   2.120   1.432
 5410SOL    HW117129   0.918   2.204   1.424
 5410SOL    HW217130   0.908   2.047   1.379
 5411SOL     OW17131   4.689   5.402   6.495
 5411SOL    HW117132   4.759   5.337   6.467
 5411SOL    HW217133   4.710   5.437   6.587
 5412SOL     OW17134   0.938   1.672   6.480
 5412SOL    HW117135   0.973   1.766   6.479
 5412SOL    HW217136   0.856   1.667   6.424
 5413SOL     OW17137   6.502   6.821   5.394
 5413SOL    HW117138   6.486   6.838   5.297
 5413SOL    HW217139   6.520   6.908   5.441
 5414SOL     OW17140   6.760   4.657   5.850
 5414SOL    HW117141   6.662   4.668   5.837
 5414SOL    HW217142   6.781   4.561   5.868
 5415SOL     OW17143   3.308   0.028   0.205
 5415SOL    HW117144   3.248   0.084   0.262
 5415SOL    HW217145   3.330   0.076   0.121
 5416SOL     OW17146   2.820   4.946   5.630
 5416SOL    HW117147   2.773   5.002   5.561
 5416SOL    HW217148   2.885   5.003   5.680
 5417SOL     OW17149   4.781   5.489   3.417
 5417SOL    HW117150   4.873   5.517   3.445
 5417SOL    HW217151   4.716   5.510   3.489
 5418SOL     OW17152   6.136   4.523   4.416
 5418SOL    HW117153   6.060   4.499   4.476
 5418SOL    HW217154   6.107   4.514   4.321
 5419SOL     OW17155   4.108   0.026   6.897
 5419SOL    HW117156   4.022   0.008   6.945
 5419SOL    HW217157   4.117   0.125   6.883
 5420SOL     OW17158   1.633   1.487   1.190
 5420SOL    HW117159   1.573   1.421   1.145
 5420SOL    HW217160   1.718   1.442   1.218
 5421SOL     OW17161   3.383   5.282   1.856
 5421SOL    HW117162   3.363   5.374   1.888
 5421SOL    HW217163   3.297   5.233   1.842
 5422SOL     OW17164   2.047   5.808   3.875
 5422SOL    HW117165   2.034   5.710   3.858
 5422SOL    HW217166   2.029   5.828   3.971
 5423SOL     OW17167   6.494   6.408   2.199
 5423SOL    HW117168   6.444   6.369   2.276
 5423SOL    HW217169   6.485   6.507   2.200
 5424SOL     OW17170   4.754   4.198   5.096
 5424SOL    HW117171   4.769   4.099   5.095
 5424SOL    HW217172   4.666   4.218   5.140
 5425SOL     OW17173   0.451   3.509   6.145
 5425SOL    HW117174   0.474   3.596   6.190
 5425SOL    HW217175   0.397   3.529   6.063
 5426SOL     OW17176   5.382   5.148   2.071
 5426SOL    HW117177   5.386   5.178   1.976
 5426SOL    HW217178   5.302   5.089   2.084
 5427SOL     OW17179   4.846   2.671   6.964
 5427SOL    HW117180   4.784   2.704   0.010
 5427SOL    HW217181   4.923   2.623   7.006
 5428SOL     OW17182   6.520   5.381   2.916
 5428SOL    HW117183   6.490   5.291   2.949
 5428SOL    HW217184   6.452   5.450   2.942
 5429SOL     OW17185   2.708   0.444   3.981
 5429SOL    HW117186   2.673   0.520   3.926
 5429SOL    HW217187   2.633   0.382   4.004
 5430SOL     OW17188   2.586   3.884   6.243
 5430SOL    HW117189   2.497   3.842   6.262
 5430SOL    HW217190   2.586   3.921   6.150
 5431SOL     OW17191   2.986   4.930   6.738
 5431SOL    HW117192   2.975   4.988   6.657
 5431SOL    HW217193   3.078   4.941   6.775
 5432SOL     OW17194   5.453   5.657   1.409
 5432SOL    HW117195   5.413   5.706   1.486
 5432SOL    HW217196   5.551   5.643   1.425
 5433SOL     OW17197   1.436   0.167   1.029
 5433SOL    HW117198   1.342   0.142   1.007
 5433SOL    HW217199   1.478   0.210   0.949
 5434SOL     OW17200   4.771   1.382   5.462
 5434SOL    HW117201   4.780   1.374   5.363
 5434SOL    HW217202   4.730   1.298   5.499
 5435SOL     OW17203   6.388   4.160   0.605
 5435SOL    HW117204   6.362   4.084   0.664
 5435SOL    HW217205   6.356   4.142   0.512
 5436SOL     OW17206   1.442   5.125   2.573
 5436SOL    HW117207   1.526   5.100   2.621
 5436SOL    HW217208   1.464   5.186   2.497
 5437SOL     OW17209   3.836   5.433   0.050
 5437SOL    HW117210   3.893   5.352   0.036
 5437SOL    HW217211   3.783   5.423   0.134
 5438SOL     OW17212   4.780   4.047   2.365
 5438SOL    HW117213   4.778   3.951   2.394
 5438SOL    HW217214   4.789   4.052   2.266
 5439SOL     OW17215   0.927   3.893   1.167
 5439SOL    HW117216   0.868   3.949   1.225
 5439SOL    HW217217   0.903   3.907   1.071
 5440SOL     OW17218   5.658   6.071   3.405
 5440SOL    HW117219   5.655   5.972   3.396
 5440SOL    HW217220   5.592   6.101   3.474
 5441SOL     OW17221   4.782   2.841   4.032
 5441SOL    HW117222   4.726   2.768   3.991
 5441SOL    HW217223   4.794   2.823   4.130
 5442SOL     OW17224   5.195   0.074   4.607
 5442SOL    HW117225   5.099   0.077   4.637
 5442SOL    HW217226   5.247   0.147   4.651
 5443SOL     OW17227   4.434   6.325   4.941
 5443SOL    HW117228   4.352   6.299   4.891
 5443SOL    HW217229   4.408   6.379   5.022
 5444SOL     OW17230   0.297   0.858   3.988
 5444SOL    HW117231   0.392   0.887   3.976
 5444SOL    HW217232   0.295   0.762   4.016
 5445SOL     OW17233   5.151   5.573   5.811
 5445SOL    HW117234   5.055   5.602   5.808
 5445SOL    HW217235   5.163   5.491   5.756
 5446SOL     OW17236   0.231   4.734   5.574
 5446SOL    HW117237   0.171   4.685   5.510
 5446SOL    HW217238   0.216   4.699   5.666
 5447SOL     OW17239   1.434   1.712   0.350
 5447SOL    HW117240   1.428   1.780   0.277
 5447SOL    HW217241   1.499   1.744   0.419
 5448SOL     OW17242   4.271   5.888   3.711
 5448SOL    HW117243   4.172   5.877   3.706
 5448SOL    HW217244   4.310   5.813   3.765
 5449SOL     OW17245   3.063   1.476   2.198
 5449SOL    HW117246   3.108   1.560   2.228
 5449SOL    HW217247   2.964   1.486   2.206
 5450SOL     OW17248   4.063   6.174   1.835
 5450SOL    HW117249   4.093   6.112   1.762
 5450SOL    HW217250   4.141   6.195   1.894
 5451SOL     OW17251   1.490   0.231   3.306
 5451SOL    HW117252   1.421   0.265   3.242
 5451SOL    HW217253   1.579   0.268   3.280
 5452SOL     OW17254   1.789   4.835   1.805
 5452SOL    HW117255   1.819   4.740   1.806
 5452SOL    HW217256   1.708   4.845   1.863
 5453SOL     OW17257   6.097   4.005   3.162
 5453SOL    HW117258   6.018   4.061   3.137
 5453SOL    HW217259   6.075   3.951   3.244
 5454SOL     OW17260   6.288   5.494   3.003
 5454SOL    HW117261   6.231   5.480   3.084
 5454SOL    HW217262   6.250   5.442   2.926
 5455SOL     OW17263   6.565   1.805   2.202
 5455SOL    HW117264   6.535   1.901   2.205
 5455SOL    HW217265   6.538   1.760   2.287
 5456SOL     OW17266   4.722   1.054   6.501
 5456SOL    HW117267   4.815   1.036   6.532
 5456SOL    HW217268   4.698   1.149   6.522
 5457SOL     OW17269   6.151   2.726   0.560
 5457SOL    HW117270   6.130   2.789   0.486
 5457SOL    HW217271   6.067   2.699   0.606
 5458SOL     OW17272   6.132   4.274   1.181
 5458SOL    HW117273   6.157   4.205   1.114
 5458SOL    HW217274   6.212   4.330   1.203
 5459SOL     OW17275   1.603   4.779   5.836
 5459SOL    HW117276   1.518   4.821   5.868
 5459SOL    HW217277   1.645   4.838   5.767
 5460SOL     OW17278   1.540   0.899   0.660
 5460SOL    HW117279   1.488   0.840   0.598
 5460SOL    HW217280   1.632   0.863   0.671
 5461SOL     OW17281   0.291   1.451   6.102
 5461SOL    HW117282   0.202   1.439   6.147
 5461SOL    HW217283   0.339   1.528   6.144
 5462SOL     OW17284   5.232   5.957   6.442
 5462SOL    HW117285   5.312   5.941   6.500
 5462SOL    HW217286   5.232   5.892   6.366
 5463SOL     OW17287   0.111   2.655   6.655
 5463SOL    HW117288   0.070   2.745   6.648
 5463SOL    HW217289   0.154   2.631   6.567
 5464SOL     OW17290   6.208   6.340   5.348
 5464SOL    HW117291   6.276   6.270   5.329
 5464SOL    HW217292   6.163   6.367   5.263
 5465SOL     OW17293   6.506   6.274   3.372
 5465SOL    HW117294   6.533   6.368   3.391
 5465SOL    HW217295   6.422   6.253   3.423
 5466SOL     OW17296   5.738   2.390   5.257
 5466SOL    HW117297   5.699   2.300   5.236
 5466SOL    HW217298   5.820   2.379   5.312
 5467SOL     OW17299   5.976   3.890   3.370
 5467SOL    HW117300   5.910   3.830   3.324
 5467SOL    HW217301   5.965   3.880   3.469
 5468SOL     OW17302   6.610   1.727   2.803
 5468SOL    HW117303   6.632   1.765   2.714
 5468SOL    HW217304   6.690   1.734   2.863
 5469SOL     OW17305   1.931   0.874   5.883
 5469SOL    HW117306   1.899   0.835   5.970
 5469SOL    HW217307   2.013   0.825   5.853
 5470SOL     OW17308   4.110   5.321   4.871
 5470SOL    HW117309   4.099   5.339   4.969
 5470SOL    HW217310   4.191   5.263   4.857
 5471SOL     OW17311   5.090   6.813   2.204
 5471SOL    HW117312   5.079   6.713   2.197
 5471SOL    HW217313   5.085   6.853   2.112
 5472SOL     OW17314   3.056   1.983   6.465
 5472SOL    HW117315   3.117   2.033   6.405
 5472SOL    HW217316   2.970   2.032   6.474
 5473SOL     OW17317   1.630   5.088   1.121
 5473SOL    HW117318   1.674   5.021   1.181
 5473SOL    HW217319   1.691   5.165   1.106
 5474SOL     OW17320   0.836   5.616   3.754
 5474SOL    HW117321   0.906   5.681   3.724
 5474SOL    HW217322   0.865   5.575   3.841
 5475SOL     OW17323   1.283   2.140   7.015
 5475SOL    HW117324   1.309   2.099   6.928
 5475SOL    HW217325   1.322   2.086   0.065
 5476SOL     OW17326   2.310   6.008   5.417
 5476SOL    HW117327   2.214   6.009   5.388
 5476SOL    HW217328   2.316   6.039   5.512
 5477SOL     OW17329   1.887   4.810   3.718
 5477SOL    HW117330   1.839   4.764   3.644
 5477SOL    HW217331   1.894   4.748   3.796
 5478SOL     OW17332   5.626   5.168   6.548
 5478SOL    HW117333   5.542   5.180   6.494
 5478SOL    HW217334   5.648   5.071   6.555
 5479SOL     OW17335   4.602   1.377   4.965
 5479SOL    HW117336   4.555   1.361   4.879
 5479SOL    HW217337   4.576   1.466   5.002
 5480SOL     OW17338   6.223   4.438   4.953
 5480SOL    HW117339   6.298   4.458   5.015
 5480SOL    HW217340   6.233   4.346   4.915
 5481SOL     OW17341   3.917   1.134   6.194
 5481SOL    HW117342   3.886   1.206   6.257
 5481SOL    HW217343   3.844   1.114   6.129
 5482SOL     OW17344   3.544   3.720   2.154
 5482SOL    HW117345   3.514   3.663   2.231
 5482SOL    HW217346   3.637   3.693   2.128
 5483SOL     OW17347   6.311   3.299   5.697
 5483SOL    HW117348   6.382   3.230   5.682
 5483SOL    HW217349   6.289   3.344   5.611
 5484SOL     OW17350   6.982   6.934   4.018
 5484SOL    HW117351   0.034   6.871   4.010
 5484SOL    HW217352   6.943   6.951   3.928
 5485SOL     OW17353   3.105   0.132   4.830
 5485SOL    HW117354   3.134   0.039   4.808
 5485SOL    HW217355   3.077   0.180   4.746
 5486SOL     OW17356   1.677   0.351   3.531
 5486SOL    HW117357   1.616   0.310   3.462
 5486SOL    HW217358   1.770   0.356   3.494
 5487SOL     OW17359   6.231   4.091   0.087
 5487SOL    HW117360   6.329   4.098   0.066
 5487SOL    HW217361   6.200   4.176   0.130
 5488SOL     OW17362   4.413   2.163   0.180
 5488SOL    HW117363   4.314   2.145   0.179
 5488SOL    HW217364   4.437   2.222   0.103
 5489SOL     OW17365   1.255   4.426   1.981
 5489SOL    HW117366   1.341   4.382   2.005
 5489SOL    HW217367   1.274   4.503   1.920
 5490SOL     OW17368   3.549   6.980   0.380
 5490SOL    HW117369   3.486   7.003   0.306
 5490SOL    HW217370   3.638   7.022   0.362
 5491SOL     OW17371   1.666   4.571   6.766
 5491SOL    HW117372   1.586   4.515   6.744
 5491SOL    HW217373   1.749   4.527   6.730
 5492SOL     OW17374   1.046   1.185   6.138
 5492SOL    HW117375   1.037   1.127   6.058
 5492SOL    HW217376   1.035   1.281   6.111
 5493SOL     OW17377   3.570   3.181   5.407
 5493SOL    HW117378   3.604   3.275   5.408
 5493SOL    HW217379   3.570   3.146   5.313
 5494SOL     OW17380   6.629   3.115   0.542
 5494SOL    HW117381   6.661   3.029   0.502
 5494SOL    HW217382   6.542   3.099   0.590
 5495SOL     OW17383   3.544   3.369   1.339
 5495SOL    HW117384   3.509   3.276   1.329
 5495SOL    HW217385   3.560   3.389   1.436
 5496SOL     OW17386   3.601   6.051   1.743
 5496SOL    HW117387   3.564   5.961   1.766
 5496SOL    HW217388   3.690   6.041   1.699
 5497SOL     OW17389   0.569   1.763   2.997
 5497SOL    HW117390   0.662   1.732   3.015
 5497SOL    HW217391   0.508   1.684   2.995
 5498SOL     OW17392   4.409   1.416   6.669
 5498SOL    HW117393   4.455   1.434   6.756
 5498SOL    HW217394   4.404   1.501   6.616
 5499SOL     OW17395   0.011   0.483   3.234
 5499SOL    HW117396   6.983   0.560   3.198
 5499SOL    HW217397   0.089   0.465   3.174
 5500SOL     OW17398   1.806   5.774   0.155
 5500SOL    HW117399   1.848   5.854   0.114
 5500SOL    HW217400   1.782   5.794   0.250
 5501SOL     OW17401   2.944   0.097   1.942
 5501SOL    HW117402   2.919   0.143   2.027
 5501SOL    HW217403   2.928   0.159   1.865
 5502SOL     OW17404   6.157   4.111   5.849
 5502SOL    HW117405   6.243   4.062   5.861
 5502SOL    HW217406   6.088   4.072   5.910
 5503SOL     OW17407   0.992   5.329   3.171
 5503SOL    HW117408   0.931   5.277   3.111
 5503SOL    HW217409   1.027   5.409   3.121
 5504SOL     OW17410   2.762   1.018   4.851
 5504SOL    HW117411   2.662   1.013   4.859
 5504SOL    HW217412   2.787   1.038   4.756
 5505SOL     OW17413   1.887   6.076   5.051
 5505SOL    HW117414   1.799   6.073   5.003
 5505SOL    HW217415   1.930   6.165   5.035
 5506SOL     OW17416   6.988   0.483   4.612
 5506SOL    HW117417   6.941   0.426   4.680
 5506SOL    HW217418   6.944   0.573   4.609
 5507SOL     OW17419   2.710   6.524   2.985
 5507SOL    HW117420   2.613   6.539   3.003
 5507SOL    HW217421   2.765   6.570   3.055
 5508SOL     OW17422   2.492   0.909   6.837
 5508SOL    HW117423   2.549   0.990   6.823
 5508SOL    HW217424   2.442   0.887   6.753
 5509SOL     OW17425   6.628   6.068   0.455
 5509SOL    HW117426   6.669   6.145   0.503
 5509SOL    HW217427   6.590   6.099   0.368
 5510SOL     OW17428   4.486   6.630   6.898
 5510SOL    HW117429   4.398   6.670   6.925
 5510SOL    HW217430   4.557   6.700   6.901
 5511SOL     OW17431   1.392   0.545   3.097
 5511SOL    HW117432   1.482   0.576   3.128
 5511SOL    HW217433   1.325   0.618   3.111
 5512SOL     OW17434   6.536   2.319   0.490
 5512SOL    HW117435   6.570   2.409   0.516
 5512SOL    HW217436   6.518   2.317   0.391
 5513SOL     OW17437   4.754   4.347   4.897
 5513SOL    HW117438   4.673   4.404   4.887
 5513SOL    HW217439   4.742   4.284   4.974
 5514SOL     OW17440   5.552   5.212   3.024
 5514SOL    HW117441   5.461   5.228   3.061
 5514SOL    HW217442   5.550   5.132   2.964
 5515SOL     OW17443   5.878   3.416   1.276
 5515SOL    HW117444   5.888   3.318   1.291
 5515SOL    HW217445   5.937   3.466   1.339
 5516SOL     OW17446   1.723   2.471   0.286
 5516SOL    HW117447   1.630   2.506   0.272
 5516SOL    HW217448   1.773   2.533   0.347
 5517SOL     OW17449   3.226   2.082   2.313
 5517SOL    HW117450   3.146   2.140   2.328
 5517SOL    HW217451   3.257   2.046   2.401
 5518SOL     OW17452   6.288   5.714   6.281
 5518SOL    HW117453   6.349   5.710   6.360
 5518SOL    HW217454   6.308   5.638   6.219
 5519SOL     OW17455   5.316   3.787   3.099
 5519SOL    HW117456   5.325   3.694   3.063
 5519SOL    HW217457   5.264   3.785   3.184
 5520SOL     OW17458   1.065   4.245   3.105
 5520SOL    HW117459   1.010   4.301   3.043
 5520SOL    HW217460   1.095   4.162   3.057
 5521SOL     OW17461   4.639   6.026   1.957
 5521SOL    HW117462   4.680   5.939   1.930
 5521SOL    HW217463   4.543   6.028   1.928
 5522SOL     OW17464   2.111   3.931   1.314
 5522SOL    HW117465   2.163   3.892   1.238
 5522SOL    HW217466   2.015   3.938   1.289
 5523SOL     OW17467   3.468   6.994   2.887
 5523SOL    HW117468   3.478   6.992   2.788
 5523SOL    HW217469   3.371   6.994   2.911
 5524SOL     OW17470   0.406   6.152   4.836
 5524SOL    HW117471   0.425   6.143   4.738
 5524SOL    HW217472   0.441   6.072   4.884
 5525SOL     OW17473   0.229   4.597   0.213
 5525SOL    HW117474   0.288   4.656   0.159
 5525SOL    HW217475   0.264   4.503   0.210
 5526SOL     OW17476   6.032   3.469   4.479
 5526SOL    HW117477   6.050   3.405   4.405
 5526SOL    HW217478   5.939   3.458   4.512
 5527SOL     OW17479   0.418   3.151   2.456
 5527SOL    HW117480   0.394   3.074   2.397
 5527SOL    HW217481   0.407   3.124   2.552
 5528SOL     OW17482   0.715   1.836   6.104
 5528SOL    HW117483   0.713   1.922   6.154
 5528SOL    HW217484   0.700   1.760   6.167
 5529SOL     OW17485   2.042   0.223   4.465
 5529SOL    HW117486   2.091   0.306   4.438
 5529SOL    HW217487   1.960   0.248   4.516
 5530SOL     OW17488   0.100   2.136   2.099
 5530SOL    HW117489   0.189   2.146   2.142
 5530SOL    HW217490   0.043   2.074   2.154
 5531SOL     OW17491   4.091   3.371   4.598
 5531SOL    HW117492   4.144   3.347   4.517
 5531SOL    HW217493   4.070   3.289   4.650
 5532SOL     OW17494   2.083   1.039   0.831
 5532SOL    HW117495   2.045   0.963   0.884
 5532SOL    HW217496   2.042   1.040   0.740
 5533SOL     OW17497   3.077   0.817   2.317
 5533SOL    HW117498   3.072   0.725   2.279
 5533SOL    HW217499   3.068   0.813   2.417
 5534SOL     OW17500   1.373   3.293   6.672
 5534SOL    HW117501   1.458   3.241   6.673
 5534SOL    HW217502   1.379   3.364   6.602
 5535SOL     OW17503   0.105   3.188   2.836
 5535SOL    HW117504   0.034   3.118   2.845
 5535SOL    HW217505   0.138   3.214   2.927
 5536SOL     OW17506   2.287   0.802   4.011
 5536SOL    HW117507   2.360   0.864   4.042
 5536SOL    HW217508   2.249   0.754   4.090
 5537SOL     OW17509   3.382   0.905   4.788
 5537SOL    HW117510   3.396   0.938   4.881
 5537SOL    HW217511   3.302   0.844   4.786
 5538SOL     OW17512   3.770   0.143   5.117
 5538SOL    HW117513   3.823   0.202   5.057
 5538SOL    HW217514   3.805   0.149   5.210
 5539SOL     OW17515   0.595   2.013   0.899
 5539SOL    HW117516   0.670   2.060   0.945
 5539SOL    HW217517   0.589   1.919   0.933
 5540SOL     OW17518   5.304   3.053   1.592
 5540SOL    HW117519   5.214   3.084   1.624
 5540SOL    HW217520   5.329   2.969   1.640
 5541SOL     OW17521   5.034   3.395   5.718
 5541SOL    HW117522   5.093   3.343   5.780
 5541SOL    HW217523   4.939   3.366   5.731
 5542SOL     OW17524   5.952   5.955   5.693
 5542SOL    HW117525   5.985   6.013   5.768
 5542SOL    HW217526   6.010   5.967   5.613
 5543SOL     OW17527   1.942   5.538   6.363
 5543SOL    HW117528   1.860   5.536   6.421
 5543SOL    HW217529   1.918   5.575   6.273
 5544SOL     OW17530   5.520   5.679   5.507
 5544SOL    HW117531   5.590   5.737   5.550
 5544SOL    HW217532   5.436   5.683   5.561
 5545SOL     OW17533   4.935   0.768   2.385
 5545SOL    HW117534   5.034   0.757   2.380
 5545SOL    HW217535   4.891   0.713   2.314
 5546SOL     OW17536   0.858   6.223   4.292
 5546SOL    HW117537   0.831   6.272   4.374
 5546SOL    HW217538   0.950   6.187   4.302
 5547SOL     OW17539   4.062   1.198   4.902
 5547SOL    HW117540   4.102   1.137   4.833
 5547SOL    HW217541   4.027   1.281   4.857
 5548SOL     OW17542   6.448   3.867   5.572
 5548SOL    HW117543   6.408   3.957   5.554
 5548SOL    HW217544   6.481   3.828   5.486
 5549SOL     OW17545   4.092   3.867   1.064
 5549SOL    HW117546   4.149   3.793   1.028
 5549SOL    HW217547   3.996   3.847   1.047
 5550SOL     OW17548   2.309   4.361   2.081
 5550SOL    HW117549   2.291   4.390   2.175
 5550SOL    HW217550   2.383   4.417   2.043
 5551SOL     OW17551   1.674   6.207   2.630
 5551SOL    HW117552   1.686   6.306   2.616
 5551SOL    HW217553   1.649   6.190   2.725
 5552SOL     OW17554   5.877   0.947   6.947
 5552SOL    HW117555   5.947   1.016   6.962
 5552SOL    HW217556   5.864   0.933   6.849
 5553SOL     OW17557   4.032   6.503   5.948
 5553SOL    HW117558   3.998   6.410   5.934
 5553SOL    HW217559   4.127   6.499   5.979
 5554SOL     OW17560   4.723   2.917   1.208
 5554SOL    HW117561   4.792   2.845   1.213
 5554SOL    HW217562   4.714   2.962   1.297
 5555SOL     OW17563   1.228   3.316   2.191
 5555SOL    HW117564   1.168   3.316   2.111
 5555SOL    HW217565   1.299   3.247   2.178
 5556SOL     OW17566   6.523   1.555   3.685
 5556SOL    HW117567   6.473   1.613   3.620
 5556SOL    HW217568   6.497   1.459   3.670
 5557SOL     OW17569   4.132   5.817   1.935
 5557SOL    HW117570   4.035   5.804   1.955
 5557SOL    HW217571   4.157   5.760   1.857
 5558SOL     OW17572   3.177   3.370   6.377
 5558SOL    HW117573   3.232   3.351   6.296
 5558SOL    HW217574   3.222   3.441   6.431
 5559SOL     OW17575   2.038   0.435   2.196
 5559SOL    HW117576   2.057   0.441   2.099
 5559SOL    HW217577   1.977   0.510   2.223
 5560SOL     OW17578   6.964   5.345   1.241
 5560SOL    HW117579   0.007   5.411   1.211
 5560SOL    HW217580   6.974   5.329   1.340
 5561SOL     OW17581   2.258   0.824   4.386
 5561SOL    HW117582   2.250   0.754   4.457
 5561SOL    HW217583   2.193   0.805   4.312
 5562SOL     OW17584   4.242   2.971   6.994
 5562SOL    HW117585   4.313   2.999   0.034
 5562SOL    HW217586   4.232   3.040   6.923
 5563SOL     OW17587   3.019   5.153   2.825
 5563SOL    HW117588   2.973   5.184   2.908
 5563SOL    HW217589   3.053   5.059   2.839
 5564SOL     OW17590   4.940   0.097   0.226
 5564SOL    HW117591   5.031   0.090   0.185
 5564SOL    HW217592   4.912   0.007   0.261
 5565SOL     OW17593   3.824   2.374   6.055
 5565SOL    HW117594   3.840   2.393   5.958
 5565SOL    HW217595   3.793   2.458   6.100
 5566SOL     OW17596   1.865   4.580   0.206
 5566SOL    HW117597   1.782   4.555   0.157
 5566SOL    HW217598   1.876   4.680   0.203
 5567SOL     OW17599   6.871   4.002   1.460
 5567SOL    HW117600   6.775   3.977   1.448
 5567SOL    HW217601   6.907   3.959   1.543
 5568SOL     OW17602   5.298   1.493   3.584
 5568SOL    HW117603   5.241   1.412   3.572
 5568SOL    HW217604   5.395   1.468   3.573
 5569SOL     OW17605   1.918   1.965   2.125
 5569SOL    HW117606   1.906   2.064   2.124
 5569SOL    HW217607   1.972   1.937   2.046
 5570SOL     OW17608   5.757   3.629   4.333
 5570SOL    HW117609   5.707   3.675   4.261
 5570SOL    HW217610   5.840   3.681   4.355
 5571SOL     OW17611   6.093   5.944   1.524
 5571SOL    HW117612   6.169   5.995   1.564
 5571SOL    HW217613   6.075   5.977   1.432
 5572SOL     OW17614   1.277   4.072   4.969
 5572SOL    HW117615   1.326   4.015   4.903
 5572SOL    HW217616   1.265   4.164   4.931
 5573SOL     OW17617   1.687   5.802   5.231
 5573SOL    HW117618   1.776   5.846   5.246
 5573SOL    HW217619   1.628   5.863   5.179
 5574SOL     OW17620   0.427   2.347   2.008
 5574SOL    HW117621   0.514   2.387   2.038
 5574SOL    HW217622   0.407   2.267   2.064
 5575SOL     OW17623   6.454   1.215   0.935
 5575SOL    HW117624   6.507   1.131   0.927
 5575SOL    HW217625   6.503   1.279   0.996
 5576SOL     OW17626   0.894   4.489   1.933
 5576SOL    HW117627   0.897   4.389   1.941
 5576SOL    HW217628   0.956   4.518   1.860
 5577SOL     OW17629   2.794   2.777   0.117
 5577SOL    HW117630   2.864   2.811   0.055
 5577SOL    HW217631   2.752   2.695   0.078
 5578SOL     OW17632   3.480   3.891   1.954
 5578SOL    HW117633   3.540   3.971   1.943
 5578SOL    HW217634   3.503   3.844   2.039
 5579SOL     OW17635   0.201   3.447   0.341
 5579SOL    HW117636   0.191   3.483   0.248
 5579SOL    HW217637   0.148   3.363   0.351
 5580SOL     OW17638   4.658   2.586   5.548
 5580SOL    HW117639   4.708   2.576   5.462
 5580SOL    HW217640   4.715   2.555   5.624
 5581SOL     OW17641   1.894   0.050   2.052
 5581SOL    HW117642   1.917   7.002   2.115
 5581SOL    HW217643   1.795   0.049   2.034
 5582SOL     OW17644   3.758   3.681   6.747
 5582SOL    HW117645   3.764   3.769   6.795
 5582SOL    HW217646   3.728   3.610   6.811
 5583SOL     OW17647   4.730   0.902   2.842
 5583SOL    HW117648   4.788   0.896   2.761
 5583SOL    HW217649   4.705   0.810   2.872
 5584SOL     OW17650   0.036   4.215   4.738
 5584SOL    HW117651   0.066   4.298   4.785
 5584SOL    HW217652   0.109   4.146   4.740
 5585SOL     OW17653   5.991   5.173   3.258
 5585SOL    HW117654   5.904   5.216   3.236
 5585SOL    HW217655   6.025   5.124   3.178
 5586SOL     OW17656   0.294   3.259   6.373
 5586SOL    HW117657   0.271   3.312   6.291
 5586SOL    HW217658   0.363   3.308   6.425
 5587SOL     OW17659   4.360   6.524   0.661
 5587SOL    HW117660   4.359   6.624   0.666
 5587SOL    HW217661   4.324   6.495   0.573
 5588SOL     OW17662   2.179   5.458   2.998
 5588SOL    HW117663   2.103   5.404   3.034
 5588SOL    HW217664   2.169   5.468   2.899
 5589SOL     OW17665   6.305   3.690   5.720
 5589SOL    HW117666   6.369   3.624   5.760
 5589SOL    HW217667   6.356   3.756   5.665
 5590SOL     OW17668   0.093   6.127   3.810
 5590SOL    HW117669   0.146   6.171   3.738
 5590SOL    HW217670   0.155   6.087   3.878
 5591SOL     OW17671   5.757   2.076   1.338
 5591SOL    HW117672   5.819   2.012   1.382
 5591SOL    HW217673   5.676   2.028   1.306
 5592SOL     OW17674   1.774   5.504   2.797
 5592SOL    HW117675   1.874   5.500   2.805
 5592SOL    HW217676   1.735   5.414   2.819
 5593SOL     OW17677   0.462   2.934   0.802
 5593SOL    HW117678   0.509   2.901   0.720
 5593SOL    HW217679   0.446   2.857   0.864
 5594SOL     OW17680   5.136   0.711   5.884
 5594SOL    HW117681   5.142   0.768   5.802
 5594SOL    HW217682   5.069   0.639   5.869
 5595SOL     OW17683   0.437   1.493   4.702
 5595SOL    HW117684   0.475   1.570   4.752
 5595SOL    HW217685   0.365   1.525   4.641
 5596SOL     OW17686   4.584   0.788   2.523
 5596SOL    HW117687   4.625   0.867   2.568
 5596SOL    HW217688   4.573   0.713   2.589
 5597SOL     OW17689   4.801   2.928   4.404
 5597SOL    HW117690   4.776   3.015   4.361
 5597SOL    HW217691   4.896   2.932   4.433
 5598SOL     OW17692   5.084   3.762   4.306
 5598SOL    HW117693   5.100   3.797   4.214
 5598SOL    HW217694   5.154   3.693   4.329
 5599SOL     OW17695   0.858   2.212   3.463
 5599SOL    HW117696   0.885   2.134   3.519
 5599SOL    HW217697   0.777   2.256   3.503
 5600SOL     OW17698   1.374   1.180   1.843
 5600SOL    HW117699   1.396   1.277   1.852
 5600SOL    HW217700   1.277   1.166   1.861
 5601SOL     OW17701   1.813   0.744   6.105
 5601SOL    HW117702   1.802   0.680   6.181
 5601SOL    HW217703   1.727   0.753   6.056
 5602SOL     OW17704   6.467   1.592   1.194
 5602SOL    HW117705   6.535   1.542   1.141
 5602SOL    HW217706   6.386   1.534   1.208
 5603SOL     OW17707   5.927   2.581   6.661
 5603SOL    HW117708   5.949   2.514   6.732
 5603SOL    HW217709   5.874   2.536   6.589
 5604SOL     OW17710   6.141   2.001   5.010
 5604SOL    HW117711   6.211   2.012   5.081
 5604SOL    HW217712   6.174   2.040   4.925
 5605SOL     OW17713   7.012   1.843   5.173
 5605SOL    HW117714   0.016   1.774   5.107
 5605SOL    HW217715   6.949   1.801   5.239
 5606SOL     OW17716   5.043   6.570   0.360
 5606SOL    HW117717   5.092   6.646   0.317
 5606SOL    HW217718   4.947   6.595   0.372
 5607SOL     OW17719   5.595   1.316   2.663
 5607SOL    HW117720   5.572   1.341   2.569
 5607SOL    HW217721   5.569   1.390   2.725
 5608SOL     OW17722   5.238   6.950   4.128
 5608SOL    HW117723   5.217   7.019   4.198
 5608SOL    HW217724   5.315   6.894   4.158
 5609SOL     OW17725   3.214   6.209   0.939
 5609SOL    HW117726   3.251   6.266   1.013
 5609SOL    HW217727   3.242   6.114   0.954
 5610SOL     OW17728   3.726   6.157   0.743
 5610SOL    HW117729   3.671   6.101   0.805
 5610SOL    HW217730   3.680   6.164   0.654
 5611SOL     OW17731   0.695   5.985   2.995
 5611SOL    HW117732   0.714   5.948   3.086
 5611SOL    HW217733   0.626   5.928   2.950
 5612SOL     OW17734   3.911   2.377   6.569
 5612SOL    HW117735   3.929   2.462   6.519
 5612SOL    HW217736   3.955   2.301   6.523
 5613SOL     OW17737   5.705   4.193   3.323
 5613SOL    HW117738   5.622   4.242   3.349
 5613SOL    HW217739   5.779   4.217   3.386
 5614SOL     OW17740   4.353   1.856   4.407
 5614SOL    HW117741   4.429   1.828   4.349
 5614SOL    HW217742   4.320   1.778   4.459
 5615SOL     OW17743   0.388   1.851   4.457
 5615SOL    HW117744   0.376   1.863   4.555
 5615SOL    HW217745   0.324   1.909   4.407
 5616SOL     OW17746   2.500   1.896   5.102
 5616SOL    HW117747   2.429   1.924   5.167
 5616SOL    HW217748   2.491   1.948   5.017
 5617SOL     OW17749   2.923   6.874   5.800
 5617SOL    HW117750   2.970   6.865   5.888
 5617SOL    HW217751   2.853   6.945   5.807
 5618SOL     OW17752   0.059   4.753   3.973
 5618SOL    HW117753   0.022   4.757   3.880
 5618SOL    HW217754   0.017   4.677   4.022
 5619SOL     OW17755   2.914   3.684   5.563
 5619SOL    HW117756   2.929   3.625   5.643
 5619SOL    HW217757   2.993   3.678   5.502
 5620SOL     OW17758   4.429   3.678   0.653
 5620SOL    HW117759   4.359   3.688   0.582
 5620SOL    HW217760   4.480   3.594   0.638
 5621SOL     OW17761   2.301   1.669   0.080
 5621SOL    HW117762   2.302   1.753   0.025
 5621SOL    HW217763   2.287   1.693   0.176
 5622SOL     OW17764   5.211   0.204   6.254
 5622SOL    HW117765   5.182   0.289   6.210
 5622SOL    HW217766   5.185   0.205   6.350
 5623SOL     OW17767   2.792   5.749   4.855
 5623SOL    HW117768   2.820   5.679   4.921
 5623SOL    HW217769   2.824   5.723   4.764
 5624SOL     OW17770   0.987   4.279   3.763
 5624SOL    HW117771   0.892   4.289   3.734
 5624SOL    HW217772   1.012   4.355   3.823
 5625SOL     OW17773   6.406   1.550   4.721
 5625SOL    HW117774   6.439   1.459   4.699
 5625SOL    HW217775   6.326   1.572   4.665
 5626SOL     OW17776   3.097   6.116   4.181
 5626SOL    HW117777   3.080   6.157   4.091
 5626SOL    HW217778   3.013   6.074   4.214
 5627SOL     OW17779   0.814   5.741   6.362
 5627SOL    HW117780   0.903   5.718   6.322
 5627SOL    HW217781   0.749   5.667   6.344
 5628SOL     OW17782   1.058   2.396   0.460
 5628SOL    HW117783   1.106   2.317   0.497
 5628SOL    HW217784   0.960   2.378   0.458
 5629SOL     OW17785   3.707   4.014   2.726
 5629SOL    HW117786   3.689   3.938   2.789
 5629SOL    HW217787   3.621   4.060   2.703
 5630SOL     OW17788   2.197   3.872   0.394
 5630SOL    HW117789   2.137   3.797   0.365
 5630SOL    HW217790   2.178   3.953   0.340
 5631SOL     OW17791   4.452   1.802   0.513
 5631SOL    HW117792   4.516   1.784   0.439
 5631SOL    HW217793   4.379   1.862   0.480
 5632SOL     OW17794   3.158   2.548   6.189
 5632SOL    HW117795   3.230   2.542   6.120
 5632SOL    HW217796   3.072   2.516   6.149
 5633SOL     OW17797   6.233   3.652   4.127
 5633SOL    HW117798   6.322   3.625   4.162
 5633SOL    HW217799   6.173   3.572   4.124
 5634SOL     OW17800   2.474   5.252   4.500
 5634SOL    HW117801   2.519   5.311   4.432
 5634SOL    HW217802   2.424   5.179   4.453
 5635SOL     OW17803   2.177   4.235   5.336
 5635SOL    HW117804   2.269   4.271   5.325
 5635SOL    HW217805   2.164   4.157   5.276
 5636SOL     OW17806   4.084   6.099   4.281
 5636SOL    HW117807   4.068   6.165   4.207
 5636SOL    HW217808   4.180   6.070   4.279
 5637SOL     OW17809   5.025   6.773   3.346
 5637SOL    HW117810   5.043   6.740   3.254
 5637SOL    HW217811   5.078   6.856   3.364
 5638SOL     OW17812   6.237   3.856   1.267
 5638SOL    HW117813   6.303   3.928   1.289
 5638SOL    HW217814   6.181   3.836   1.347
 5639SOL     OW17815   0.957   1.601   1.574
 5639SOL    HW117816   0.952   1.503   1.556
 5639SOL    HW217817   0.865   1.640   1.570
 5640SOL     OW17818   2.858   0.278   3.735
 5640SOL    HW117819   2.866   0.335   3.817
 5640SOL    HW217820   2.847   0.337   3.654
 5641SOL     OW17821   1.092   5.486   5.426
 5641SOL    HW117822   1.093   5.394   5.467
 5641SOL    HW217823   1.003   5.502   5.384
 5642SOL     OW17824   1.665   7.022   5.460
 5642SOL    HW117825   1.608   0.064   5.507
 5642SOL    HW217826   1.748   0.041   5.427
 5643SOL     OW17827   4.562   1.584   5.154
 5643SOL    HW117828   4.531   1.674   5.123
 5643SOL    HW217829   4.496   1.547   5.219
 5644SOL     OW17830   3.053   0.531   5.241
 5644SOL    HW117831   2.987   0.462   5.213
 5644SOL    HW217832   3.138   0.486   5.271
 5645SOL     OW17833   6.342   4.386   3.757
 5645SOL    HW117834   6.280   4.392   3.835
 5645SOL    HW217835   6.423   4.441   3.775
 5646SOL     OW17836   1.556   5.630   3.221
 5646SOL    HW117837   1.654   5.645   3.228
 5646SOL    HW217838   1.535   5.590   3.131
 5647SOL     OW17839   5.015   6.195   1.251
 5647SOL    HW117840   4.935   6.135   1.254
 5647SOL    HW217841   5.098   6.140   1.258
 5648SOL     OW17842   2.105   5.461   2.715
 5648SOL    HW117843   2.044   5.403   2.662
 5648SOL    HW217844   2.172   5.504   2.655
 5649SOL     OW17845   0.932   6.799   4.140
 5649SOL    HW117846   0.949   6.788   4.043
 5649SOL    HW217847   0.981   6.729   4.191
 5650SOL     OW17848   1.382   5.027   1.315
 5650SOL    HW117849   1.364   4.928   1.309
 5650SOL    HW217850   1.427   5.047   1.401
 5651SOL     OW17851   2.210   1.263   0.565
 5651SOL    HW117852   2.161   1.272   0.651
 5651SOL    HW217853   2.302   1.227   0.581
 5652SOL     OW17854   6.128   5.860   1.060
 5652SOL    HW117855   6.189   5.878   0.983
 5652SOL    HW217856   6.054   5.800   1.031
 5653SOL     OW17857   6.649   6.723   6.481
 5653SOL    HW117858   6.592   6.804   6.468
 5653SOL    HW217859   6.630   6.657   6.408
 5654SOL     OW17860   1.022   6.007   4.556
 5654SOL    HW117861   0.966   5.981   4.634
 5654SOL    HW217862   1.003   5.945   4.479
 5655SOL     OW17863   0.337   3.012   3.861
 5655SOL    HW117864   0.368   3.105   3.879
 5655SOL    HW217865   0.262   3.013   3.795
 5656SOL     OW17866   6.609   4.264   6.576
 5656SOL    HW117867   6.599   4.165   6.560
 5656SOL    HW217868   6.678   4.301   6.514
 5657SOL     OW17869   5.520   3.182   5.720
 5657SOL    HW117870   5.456   3.233   5.777
 5657SOL    HW217871   5.504   3.203   5.624
 5658SOL     OW17872   2.840   3.217   6.189
 5658SOL    HW117873   2.801   3.133   6.227
 5658SOL    HW217874   2.785   3.248   6.111
 5659SOL     OW17875   3.803   3.359   6.413
 5659SOL    HW117876   3.783   3.447   6.371
 5659SOL    HW217877   3.730   3.294   6.393
 5660SOL     OW17878   4.776   6.596   5.583
 5660SOL    HW117879   4.822   6.509   5.603
 5660SOL    HW217880   4.845   6.667   5.568
 5661SOL     OW17881   1.524   5.879   4.344
 5661SOL    HW117882   1.569   5.962   4.311
 5661SOL    HW217883   1.583   5.834   4.412
 5662SOL     OW17884   2.859   6.826   2.787
 5662SOL    HW117885   2.882   6.869   2.699
 5662SOL    HW217886   2.767   6.787   2.782
 5663SOL     OW17887   2.248   2.188   0.767
 5663SOL    HW117888   2.335   2.235   0.752
 5663SOL    HW217889   2.173   2.253   0.754
 5664SOL     OW17890   6.749   3.629   4.057
 5664SOL    HW117891   6.811   3.605   3.982
 5664SOL    HW217892   6.766   3.567   4.135
 5665SOL     OW17893   0.963   0.065   0.488
 5665SOL    HW117894   1.044   0.031   0.536
 5665SOL    HW217895   0.900   7.014   0.472
 5666SOL     OW17896   6.441   0.336   3.962
 5666SOL    HW117897   6.405   0.427   3.981
 5666SOL    HW217898   6.518   0.318   4.023
 5667SOL     OW17899   1.659   5.069   4.834
 5667SOL    HW117900   1.580   5.008   4.840
 5667SOL    HW217901   1.741   5.016   4.814
 5668SOL     OW17902   6.108   3.161   3.344
 5668SOL    HW117903   6.116   3.072   3.299
 5668SOL    HW217904   6.070   3.148   3.436
 5669SOL     OW17905   6.498   4.531   0.905
 5669SOL    HW117906   6.542   4.451   0.864
 5669SOL    HW217907   6.557   4.611   0.894
 5670SOL     OW17908   1.495   3.468   3.555
 5670SOL    HW117909   1.484   3.400   3.628
 5670SOL    HW217910   1.454   3.554   3.584
 5671SOL     OW17911   5.959   6.403   5.500
 5671SOL    HW117912   6.036   6.395   5.436
 5671SOL    HW217913   5.896   6.473   5.468
 5672SOL     OW17914   5.259   4.509   5.958
 5672SOL    HW117915   5.203   4.569   6.015
 5672SOL    HW217916   5.354   4.541   5.960
 5673SOL     OW17917   1.578   6.584   1.140
 5673SOL    HW117918   1.548   6.613   1.049
 5673SOL    HW217919   1.585   6.484   1.143
 5674SOL     OW17920   1.724   4.700   4.850
 5674SOL    HW117921   1.767   4.790   4.857
 5674SOL    HW217922   1.778   4.634   4.902
 5675SOL     OW17923   4.369   2.545   6.546
 5675SOL    HW117924   4.289   2.530   6.488
 5675SOL    HW217925   4.366   2.638   6.583
 5676SOL     OW17926   2.737   1.733   2.504
 5676SOL    HW117927   2.799   1.764   2.432
 5676SOL    HW217928   2.782   1.663   2.559
 5677SOL     OW17929   0.653   0.669   0.979
 5677SOL    HW117930   0.607   0.758   0.980
 5677SOL    HW217931   0.704   0.658   1.064
 5678SOL     OW17932   4.409   0.843   2.938
 5678SOL    HW117933   4.357   0.809   2.860
 5678SOL    HW217934   4.507   0.830   2.922
 5679SOL     OW17935   5.899   1.230   3.995
 5679SOL    HW117936   5.831   1.300   4.018
 5679SOL    HW217937   5.941   1.252   3.907
 5680SOL     OW17938   1.783   5.344   6.223
 5680SOL    HW117939   1.855   5.391   6.274
 5680SOL    HW217940   1.757   5.260   6.270
 5681SOL     OW17941   0.419   3.738   1.952
 5681SOL    HW117942   0.480   3.681   1.897
 5681SOL    HW217943   0.327   3.701   1.948
 5682SOL     OW17944   2.598   5.391   4.317
 5682SOL    HW117945   2.560   5.453   4.248
 5682SOL    HW217946   2.629   5.307   4.273
 5683SOL     OW17947   3.588   2.024   6.349
 5683SOL    HW117948   3.656   2.047   6.280
 5683SOL    HW217949   3.606   2.077   6.432
 5684SOL     OW17950   2.021   3.511   5.718
 5684SOL    HW117951   2.117   3.526   5.741
 5684SOL    HW217952   1.996   3.416   5.738
 5685SOL     OW17953   2.510   2.007   3.072
 5685SOL    HW117954   2.610   1.998   3.067
 5685SOL    HW217955   2.471   1.923   3.109
 5686SOL     OW17956   2.724   1.396   4.966
 5686SOL    HW117957   2.791   1.350   5.025
 5686SOL    HW217958   2.766   1.476   4.924
 5687SOL     OW17959   0.843   6.207   5.676
 5687SOL    HW117960   0.926   6.165   5.639
 5687SOL    HW217961   0.763   6.153   5.648
 5688SOL     OW17962   1.743   2.321   2.923
 5688SOL    HW117963   1.703   2.230   2.935
 5688SOL    HW217964   1.717   2.380   3.000
 5689SOL     OW17965   2.645   0.863   1.786
 5689SOL    HW117966   2.564   0.818   1.748
 5689SOL    HW217967   2.725   0.839   1.732
 5690SOL     OW17968   1.150   5.770   0.188
 5690SOL    HW117969   1.238   5.763   0.141
 5690SOL    HW217970   1.163   5.814   0.277
 5691SOL     OW17971   3.648   0.817   1.870
 5691SOL    HW117972   3.745   0.810   1.846
 5691SOL    HW217973   3.593   0.817   1.787
 5692SOL     OW17974   4.892   4.902   0.912
 5692SOL    HW117975   4.813   4.904   0.850
 5692SOL    HW217976   4.902   4.991   0.956
 5693SOL     OW17977   4.704   1.031   1.666
 5693SOL    HW117978   4.793   1.003   1.631
 5693SOL    HW217979   4.653   0.949   1.694
 5694SOL     OW17980   0.953   0.837   2.456
 5694SOL    HW117981   1.008   0.763   2.495
 5694SOL    HW217982   0.991   0.864   2.368
 5695SOL     OW17983   1.557   1.217   3.055
 5695SOL    HW117984   1.630   1.282   3.037
 5695SOL    HW217985   1.555   1.148   2.983
 5696SOL     OW17986   0.853   6.607   4.454
 5696SOL    HW117987   0.951   6.623   4.439
 5696SOL    HW217988   0.839   6.511   4.478
 5697SOL     OW17989   5.908   2.727   2.386
 5697SOL    HW117990   5.870   2.723   2.479
 5697SOL    HW217991   5.902   2.821   2.352
 5698SOL     OW17992   1.673   4.429   4.278
 5698SOL    HW117993   1.742   4.400   4.344
 5698SOL    HW217994   1.671   4.366   4.201
 5699SOL     OW17995   1.578   2.220   2.718
 5699SOL    HW117996   1.517   2.279   2.666
 5699SOL    HW217997   1.633   2.275   2.780
 5700SOL     OW17998   6.399   6.808   3.687
 5700SOL    HW117999   6.457   6.733   3.721
 5700SOL    HW218000   6.418   6.823   3.590
 5701SOL     OW18001   0.242   0.685   1.601
 5701SOL    HW118002   0.261   0.624   1.524
 5701SOL    HW218003   0.227   0.630   1.684
 5702SOL     OW18004   2.089   6.197   3.967
 5702SOL    HW118005   2.085   6.164   4.062
 5702SOL    HW218006   2.038   6.136   3.908
 5703SOL     OW18007   0.146   4.627   6.872
 5703SOL    HW118008   0.087   4.659   6.798
 5703SOL    HW218009   0.097   4.633   6.959
 5704SOL     OW18010   4.850   4.032   3.306
 5704SOL    HW118011   4.924   4.003   3.244
 5704SOL    HW218012   4.841   4.131   3.302
 5705SOL     OW18013   4.806   5.702   6.477
 5705SOL    HW118014   4.729   5.639   6.473
 5705SOL    HW218015   4.872   5.678   6.407
 5706SOL     OW18016   5.388   2.322   2.172
 5706SOL    HW118017   5.403   2.239   2.117
 5706SOL    HW218018   5.332   2.387   2.121
 5707SOL     OW18019   6.517   0.223   0.802
 5707SOL    HW118020   6.440   0.158   0.797
 5707SOL    HW218021   6.589   0.194   0.739
 5708SOL     OW18022   5.307   5.864   2.444
 5708SOL    HW118023   5.225   5.892   2.394
 5708SOL    HW218024   5.388   5.907   2.405
 5709SOL     OW18025   0.357   1.239   2.400
 5709SOL    HW118026   0.286   1.253   2.468
 5709SOL    HW218027   0.319   1.253   2.308
 5710SOL     OW18028   3.226   2.235   0.401
 5710SOL    HW118029   3.180   2.147   0.400
 5710SOL    HW218030   3.303   2.233   0.338
 5711SOL     OW18031   5.397   1.040   1.445
 5711SOL    HW118032   5.434   1.001   1.530
 5711SOL    HW218033   5.377   1.137   1.458
 5712SOL     OW18034   6.356   0.008   7.015
 5712SOL    HW118035   6.315   0.021   0.080
 5712SOL    HW218036   6.289   0.031   6.944
 5713SOL     OW18037   2.935   3.865   1.530
 5713SOL    HW118038   2.957   3.962   1.517
 5713SOL    HW218039   2.854   3.843   1.476
 5714SOL     OW18040   6.552   6.249   1.396
 5714SOL    HW118041   6.639   6.256   1.348
 5714SOL    HW218042   6.567   6.260   1.494
 5715SOL     OW18043   0.090   0.051   2.441
 5715SOL    HW118044   0.004   0.019   2.481
 5715SOL    HW218045   0.162   7.010   2.459
 5716SOL     OW18046   1.027   6.120   5.518
 5716SOL    HW118047   1.112   6.076   5.488
 5716SOL    HW218048   0.973   6.147   5.438
 5717SOL     OW18049   1.754   4.927   1.293
 5717SOL    HW118050   1.777   4.830   1.283
 5717SOL    HW218051   1.761   4.954   1.389
 5718SOL     OW18052   1.698   3.404   0.205
 5718SOL    HW118053   1.611   3.353   0.205
 5718SOL    HW218054   1.681   3.499   0.230
 5719SOL     OW18055   2.303   3.528   0.428
 5719SOL    HW118056   2.330   3.461   0.358
 5719SOL    HW218057   2.343   3.617   0.406
 5720SOL     OW18058   1.675   6.894   4.664
 5720SOL    HW118059   1.728   6.932   4.740
 5720SOL    HW218060   1.580   6.882   4.693
 5721SOL     OW18061   5.805   4.242   1.096
 5721SOL    HW118062   5.711   4.277   1.099
 5721SOL    HW218063   5.864   4.306   1.046
 5722SOL     OW18064   6.522   2.485   5.188
 5722SOL    HW118065   6.490   2.567   5.235
 5722SOL    HW218066   6.445   2.440   5.143
 5723SOL     OW18067   4.724   3.838   6.899
 5723SOL    HW118068   4.637   3.799   6.931
 5723SOL    HW218069   4.791   3.765   6.887
 5724SOL     OW18070   6.022   2.711   3.877
 5724SOL    HW118071   6.102   2.655   3.900
 5724SOL    HW218072   5.996   2.765   3.957
 5725SOL     OW18073   6.910   4.557   4.082
 5725SOL    HW118074   6.943   4.465   4.059
 5725SOL    HW218075   6.881   4.560   4.178
 5726SOL     OW18076   6.772   5.354   3.993
 5726SOL    HW118077   6.757   5.453   3.988
 5726SOL    HW218078   6.684   5.307   3.998
 5727SOL     OW18079   6.579   2.645   4.690
 5727SOL    HW118080   6.545   2.732   4.726
 5727SOL    HW218081   6.601   2.654   4.593
 5728SOL     OW18082   5.044   6.224   5.298
 5728SOL    HW118083   4.982   6.289   5.343
 5728SOL    HW218084   4.990   6.147   5.263
 5729SOL     OW18085   1.714   1.743   6.872
 5729SOL    HW118086   1.774   1.697   6.938
 5729SOL    HW218087   1.768   1.804   6.814
 5730SOL     OW18088   6.150   4.606   6.469
 5730SOL    HW118089   6.196   4.517   6.475
 5730SOL    HW218090   6.057   4.597   6.505
 5731SOL     OW18091   6.515   0.495   2.505
 5731SOL    HW118092   6.515   0.580   2.557
 5731SOL    HW218093   6.593   0.439   2.533
 5732SOL     OW18094   0.568   6.152   3.938
 5732SOL    HW118095   0.527   6.215   3.872
 5732SOL    HW218096   0.524   6.164   4.027
 5733SOL     OW18097   3.575   6.575   5.013
 5733SOL    HW118098   3.590   6.478   4.991
 5733SOL    HW218099   3.571   6.629   4.929
 5734SOL     OW18100   1.207   0.554   5.178
 5734SOL    HW118101   1.265   0.477   5.154
 5734SOL    HW218102   1.233   0.588   5.269
 5735SOL     OW18103   3.317   1.347   0.924
 5735SOL    HW118104   3.301   1.250   0.906
 5735SOL    HW218105   3.348   1.358   1.019
 5736SOL     OW18106   6.943   4.506   0.218
 5736SOL    HW118107   6.937   4.430   0.154
 5736SOL    HW218108   0.001   4.498   0.272
 5737SOL     OW18109   5.525   5.801   0.702
 5737SOL    HW118110   5.498   5.837   0.613
 5737SOL    HW218111   5.444   5.768   0.751
 5738SOL     OW18112   2.068   3.072   6.319
 5738SOL    HW118113   2.135   3.142   6.347
 5738SOL    HW218114   1.994   3.116   6.268
 5739SOL     OW18115   1.832   1.477   6.406
 5739SOL    HW118116   1.843   1.534   6.488
 5739SOL    HW218117   1.756   1.512   6.351
 5740SOL     OW18118   4.346   5.618   0.409
 5740SOL    HW118119   4.401   5.604   0.327
 5740SOL    HW218120   4.259   5.660   0.384
 5741SOL     OW18121   0.200   5.564   3.995
 5741SOL    HW118122   0.137   5.541   3.920
 5741SOL    HW218123   0.275   5.498   3.996
 5742SOL     OW18124   5.042   6.273   2.495
 5742SOL    HW118125   5.059   6.219   2.577
 5742SOL    HW218126   4.955   6.320   2.504
 5743SOL     OW18127   2.831   6.075   5.029
 5743SOL    HW118128   2.756   6.016   5.000
 5743SOL    HW218129   2.893   6.091   4.951
 5744SOL     OW18130   4.711   0.131   1.002
 5744SOL    HW118131   4.739   0.037   0.986
 5744SOL    HW218132   4.783   0.180   1.052
 5745SOL     OW18133   3.190   1.181   4.558
 5745SOL    HW118134   3.159   1.204   4.466
 5745SOL    HW218135   3.268   1.239   4.583
 5746SOL     OW18136   4.841   1.067   1.061
 5746SOL    HW118137   4.886   1.093   1.147
 5746SOL    HW218138   4.767   1.132   1.042
 5747SOL     OW18139   0.247   5.193   2.817
 5747SOL    HW118140   0.293   5.203   2.729
 5747SOL    HW218141   0.282   5.113   2.866
 5748SOL     OW18142   1.780   4.665   1.262
 5748SOL    HW118143   1.685   4.636   1.250
 5748SOL    HW218144   1.838   4.610   1.202
 5749SOL     OW18145   2.432   1.169   4.054
 5749SOL    HW118146   2.498   1.096   4.035
 5749SOL    HW218147   2.379   1.145   4.135
 5750SOL     OW18148   6.096   5.189   4.689
 5750SOL    HW118149   6.126   5.169   4.596
 5750SOL    HW218150   6.148   5.135   4.754
 5751SOL     OW18151   2.647   2.350   4.937
 5751SOL    HW118152   2.682   2.388   5.023
 5751SOL    HW218153   2.723   2.307   4.887
 5752SOL     OW18154   6.273   1.248   6.086
 5752SOL    HW118155   6.218   1.215   6.009
 5752SOL    HW218156   6.284   1.176   6.153
 5753SOL     OW18157   3.416   3.355   6.115
 5753SOL    HW118158   3.420   3.412   6.033
 5753SOL    HW218159   3.488   3.286   6.111
 5754SOL     OW18160   5.697   5.580   1.458
 5754SOL    HW118161   5.774   5.627   1.414
 5754SOL    HW218162   5.719   5.565   1.554
 5755SOL     OW18163   3.040   3.664   6.032
 5755SOL    HW118164   2.987   3.684   6.115
 5755SOL    HW218165   3.134   3.642   6.058
 5756SOL     OW18166   6.814   5.134   3.657
 5756SOL    HW118167   6.884   5.114   3.588
 5756SOL    HW218168   6.856   5.136   3.747
 5757SOL     OW18169   6.495   6.644   1.766
 5757SOL    HW118170   6.476   6.567   1.827
 5757SOL    HW218171   6.428   6.717   1.783
 5758SOL     OW18172   2.750   2.161   4.342
 5758SOL    HW118173   2.774   2.136   4.249
 5758SOL    HW218174   2.719   2.080   4.392
 5759SOL     OW18175   4.911   2.358   6.736
 5759SOL    HW118176   4.966   2.285   6.776
 5759SOL    HW218177   4.819   2.323   6.715
 5760SOL     OW18178   1.314   6.053   2.239
 5760SOL    HW118179   1.279   6.101   2.319
 5760SOL    HW218180   1.239   6.034   2.176
 5761SOL     OW18181   6.155   6.982   5.158
 5761SOL    HW118182   6.133   7.006   5.253
 5761SOL    HW218183   6.230   0.016   5.126
 5762SOL     OW18184   5.502   0.153   0.050
 5762SOL    HW118185   5.562   0.175   0.127
 5762SOL    HW218186   5.412   0.194   0.065
 5763SOL     OW18187   1.058   6.552   0.766
 5763SOL    HW118188   0.991   6.501   0.713
 5763SOL    HW218189   1.104   6.491   0.830
 5764SOL     OW18190   5.671   4.725   5.735
 5764SOL    HW118191   5.674   4.799   5.802
 5764SOL    HW218192   5.745   4.660   5.755
 5765SOL     OW18193   6.307   4.736   6.655
 5765SOL    HW118194   6.232   4.801   6.671
 5765SOL    HW218195   6.287   4.681   6.574
 5766SOL     OW18196   2.686   1.116   1.660
 5766SOL    HW118197   2.769   1.099   1.607
 5766SOL    HW218198   2.642   1.029   1.681
 5767SOL     OW18199   1.698   6.714   0.600
 5767SOL    HW118200   1.777   6.716   0.661
 5767SOL    HW218201   1.708   6.638   0.535
 5768SOL     OW18202   6.742   0.262   2.793
 5768SOL    HW118203   6.666   0.274   2.728
 5768SOL    HW218204   6.719   0.307   2.879
 5769SOL     OW18205   2.999   6.934   3.505
 5769SOL    HW118206   2.929   6.977   3.448
 5769SOL    HW218207   3.016   6.841   3.472
 5770SOL     OW18208   0.088   0.159   0.800
 5770SOL    HW118209   0.058   0.184   0.892
 5770SOL    HW218210   0.068   0.234   0.736
 5771SOL     OW18211   1.581   6.974   1.431
 5771SOL    HW118212   1.629   6.890   1.407
 5771SOL    HW218213   1.587   0.013   1.355
 5772SOL     OW18214   5.925   2.588   0.658
 5772SOL    HW118215   5.827   2.594   0.675
 5772SOL    HW218216   5.974   2.589   0.745
 5773SOL     OW18217   5.420   6.807   3.786
 5773SOL    HW118218   5.462   6.891   3.820
 5773SOL    HW218219   5.432   6.734   3.852
 5774SOL     OW18220   2.573   4.535   3.107
 5774SOL    HW118221   2.671   4.547   3.089
 5774SOL    HW218222   2.559   4.524   3.206
 5775SOL     OW18223   1.041   0.486   0.713
 5775SOL    HW118224   1.136   0.515   0.703
 5775SOL    HW218225   0.992   0.550   0.773
 5776SOL     OW18226   6.082   0.844   6.420
 5776SOL    HW118227   6.047   0.768   6.474
 5776SOL    HW218228   6.110   0.810   6.330
 5777SOL     OW18229   5.863   0.866   4.497
 5777SOL    HW118230   5.897   0.934   4.561
 5777SOL    HW218231   5.872   0.774   4.536
 5778SOL     OW18232   2.657   0.431   2.604
 5778SOL    HW118233   2.576   0.374   2.595
 5778SOL    HW218234   2.734   0.388   2.556
 5779SOL     OW18235   3.705   0.544   1.017
 5779SOL    HW118236   3.692   0.510   0.924
 5779SOL    HW218237   3.675   0.474   1.082
 5780SOL     OW18238   6.406   4.985   1.664
 5780SOL    HW118239   6.483   4.929   1.631
 5780SOL    HW218240   6.332   4.982   1.597
 5781SOL     OW18241   1.827   3.930   4.628
 5781SOL    HW118242   1.898   3.930   4.558
 5781SOL    HW218243   1.851   3.995   4.700
 5782SOL     OW18244   1.505   1.011   1.327
 5782SOL    HW118245   1.492   0.958   1.411
 5782SOL    HW218246   1.425   1.000   1.268
 5783SOL     OW18247   1.967   1.012   0.583
 5783SOL    HW118248   1.941   0.921   0.550
 5783SOL    HW218249   1.886   1.070   0.590
 5784SOL     OW18250   0.669   6.265   0.189
 5784SOL    HW118251   0.648   6.186   0.132
 5784SOL    HW218252   0.612   6.262   0.272
 5785SOL     OW18253   1.324   1.131   0.646
 5785SOL    HW118254   1.391   1.114   0.719
 5785SOL    HW218255   1.242   1.171   0.686
 5786SOL     OW18256   1.659   3.807   1.738
 5786SOL    HW118257   1.703   3.777   1.823
 5786SOL    HW218258   1.561   3.819   1.754
 5787SOL     OW18259   5.860   2.245   4.438
 5787SOL    HW118260   5.929   2.299   4.391
 5787SOL    HW218261   5.842   2.161   4.387
 5788SOL     OW18262   3.185   0.107   1.820
 5788SOL    HW118263   3.205   0.203   1.836
 5788SOL    HW218264   3.097   0.084   1.861
 5789SOL     OW18265   3.831   2.825   0.299
 5789SOL    HW118266   3.828   2.925   0.294
 5789SOL    HW218267   3.870   2.789   0.214
 5790SOL     OW18268   6.120   5.504   4.712
 5790SOL    HW118269   6.209   5.500   4.758
 5790SOL    HW218270   6.099   5.414   4.674
 5791SOL     OW18271   3.082   1.634   2.487
 5791SOL    HW118272   3.174   1.602   2.511
 5791SOL    HW218273   3.015   1.590   2.547
 5792SOL     OW18274   5.027   3.359   3.186
 5792SOL    HW118275   4.983   3.420   3.120
 5792SOL    HW218276   4.996   3.266   3.171
 5793SOL     OW18277   5.937   2.375   5.434
 5793SOL    HW118278   5.963   2.290   5.479
 5793SOL    HW218279   5.967   2.453   5.488
 5794SOL     OW18280   2.839   6.592   5.960
 5794SOL    HW118281   2.905   6.516   5.962
 5794SOL    HW218282   2.880   6.673   6.000
 5795SOL     OW18283   0.821   5.663   1.729
 5795SOL    HW118284   0.832   5.564   1.735
 5795SOL    HW218285   0.870   5.707   1.804
 5796SOL     OW18286   4.590   1.685   6.338
 5796SOL    HW118287   4.607   1.784   6.340
 5796SOL    HW218288   4.516   1.663   6.401
 5797SOL     OW18289   5.615   1.823   0.147
 5797SOL    HW118290   5.648   1.873   0.227
 5797SOL    HW218291   5.618   1.725   0.164
 5798SOL     OW18292   0.921   3.919   4.867
 5798SOL    HW118293   0.937   3.820   4.860
 5798SOL    HW218294   0.933   3.961   4.777
 5799SOL     OW18295   1.675   6.292   3.068
 5799SOL    HW118296   1.602   6.319   3.131
 5799SOL    HW218297   1.637   6.229   2.999
 5800SOL     OW18298   0.383   0.074   0.762
 5800SOL    HW118299   0.428   0.068   0.851
 5800SOL    HW218300   0.287   0.097   0.774
 5801SOL     OW18301   2.342   2.639   2.225
 5801SOL    HW118302   2.303   2.547   2.224
 5801SOL    HW218303   2.407   2.647   2.300
 5802SOL     OW18304   6.796   1.842   3.370
 5802SOL    HW118305   6.859   1.919   3.383
 5802SOL    HW218306   6.844   1.767   3.325
 5803SOL     OW18307   1.815   5.224   4.374
 5803SOL    HW118308   1.786   5.286   4.447
 5803SOL    HW218309   1.758   5.240   4.292
 5804SOL     OW18310   6.166   6.559   3.875
 5804SOL    HW118311   6.132   6.632   3.816
 5804SOL    HW218312   6.187   6.596   3.965
 5805SOL     OW18313   1.804   3.437   1.132
 5805SOL    HW118314   1.804   3.348   1.086
 5805SOL    HW218315   1.712   3.456   1.167
 5806SOL     OW18316   0.409   3.301   3.834
 5806SOL    HW118317   0.372   3.393   3.848
 5806SOL    HW218318   0.504   3.300   3.865
 5807SOL     OW18319   1.378   5.761   1.082
 5807SOL    HW118320   1.297   5.746   1.025
 5807SOL    HW218321   1.399   5.859   1.084
 5808SOL     OW18322   6.269   6.703   4.360
 5808SOL    HW118323   6.288   6.789   4.407
 5808SOL    HW218324   6.235   6.635   4.426
 5809SOL     OW18325   0.411   2.402   6.060
 5809SOL    HW118326   0.485   2.350   6.016
 5809SOL    HW218327   0.394   2.365   6.151
 5810SOL     OW18328   3.882   6.706   4.999
 5810SOL    HW118329   3.948   6.633   4.984
 5810SOL    HW218330   3.909   6.786   4.945
 5811SOL     OW18331   3.071   3.090   6.108
 5811SOL    HW118332   2.995   3.144   6.146
 5811SOL    HW218333   3.051   3.066   6.013
 5812SOL     OW18334   5.708   3.094   0.237
 5812SOL    HW118335   5.692   3.073   0.141
 5812SOL    HW218336   5.750   3.185   0.245
 5813SOL     OW18337   4.127   6.150   1.327
 5813SOL    HW118338   4.099   6.176   1.235
 5813SOL    HW218339   4.209   6.200   1.353
 5814SOL     OW18340   6.189   1.801   2.294
 5814SOL    HW118341   6.181   1.828   2.198
 5814SOL    HW218342   6.199   1.883   2.350
 5815SOL     OW18343   6.384   1.321   3.667
 5815SOL    HW118344   6.331   1.280   3.741
 5815SOL    HW218345   6.363   1.274   3.581
 5816SOL     OW18346   0.474   4.895   2.807
 5816SOL    HW118347   0.561   4.879   2.761
 5816SOL    HW218348   0.401   4.849   2.756
 5817SOL     OW18349   5.672   3.994   4.795
 5817SOL    HW118350   5.672   3.933   4.716
 5817SOL    HW218351   5.743   4.063   4.783
 5818SOL     OW18352   1.380   6.861   4.785
 5818SOL    HW118353   1.287   6.837   4.813
 5818SOL    HW218354   1.434   6.777   4.773
 5819SOL     OW18355   3.614   4.837   0.133
 5819SOL    HW118356   3.579   4.753   0.091
 5819SOL    HW218357   3.692   4.814   0.192
 5820SOL     OW18358   5.534   4.939   2.173
 5820SOL    HW118359   5.489   4.877   2.237
 5820SOL    HW218360   5.473   5.016   2.152
 5821SOL     OW18361   6.804   0.824   1.418
 5821SOL    HW118362   6.770   0.766   1.344
 5821SOL    HW218363   6.884   0.875   1.387
 5822SOL     OW18364   1.495   2.038   2.922
 5822SOL    HW118365   1.553   1.960   2.899
 5822SOL    HW218366   1.470   2.087   2.838
 5823SOL     OW18367   2.268   6.575   3.881
 5823SOL    HW118368   2.221   6.641   3.822
 5823SOL    HW218369   2.322   6.624   3.949
 5824SOL     OW18370   1.052   7.013   2.314
 5824SOL    HW118371   0.975   7.020   2.377
 5824SOL    HW218372   1.064   6.917   2.288
 5825SOL     OW18373   6.411   0.284   4.732
 5825SOL    HW118374   6.467   0.344   4.789
 5825SOL    HW218375   6.378   0.335   4.653
 5826SOL     OW18376   0.273   0.642   5.347
 5826SOL    HW118377   0.328   0.618   5.267
 5826SOL    HW218378   0.176   0.638   5.323
 5827SOL     OW18379   1.159   3.853   5.400
 5827SOL    HW118380   1.185   3.859   5.303
 5827SOL    HW218381   1.230   3.894   5.456
 5828SOL     OW18382   5.368   6.603   3.985
 5828SOL    HW118383   5.410   6.674   4.043
 5828SOL    HW218384   5.399   6.513   4.016
 5829SOL     OW18385   1.983   0.878   4.535
 5829SOL    HW118386   1.926   0.960   4.523
 5829SOL    HW218387   2.080   0.905   4.534
 5830SOL     OW18388   3.385   4.912   5.316
 5830SOL    HW118389   3.445   4.887   5.391
 5830SOL    HW218390   3.427   4.984   5.261
 5831SOL     OW18391   1.275   1.434   5.404
 5831SOL    HW118392   1.353   1.497   5.395
 5831SOL    HW218393   1.296   1.348   5.357
 5832SOL     OW18394   3.218   4.756   1.443
 5832SOL    HW118395   3.214   4.851   1.412
 5832SOL    HW218396   3.226   4.754   1.543
 5833SOL     OW18397   3.966   3.845   5.441
 5833SOL    HW118398   4.053   3.811   5.475
 5833SOL    HW218399   3.894   3.777   5.460
 5834SOL     OW18400   6.524   4.506   6.677
 5834SOL    HW118401   6.538   4.600   6.647
 5834SOL    HW218402   6.560   4.444   6.607
 5835SOL     OW18403   5.325   0.696   2.947
 5835SOL    HW118404   5.337   0.618   3.009
 5835SOL    HW218405   5.319   0.780   3.000
 5836SOL     OW18406   4.362   6.385   2.438
 5836SOL    HW118407   4.269   6.368   2.406
 5836SOL    HW218408   4.426   6.368   2.364
 5837SOL     OW18409   3.623   4.129   0.666
 5837SOL    HW118410   3.711   4.129   0.714
 5837SOL    HW218411   3.584   4.037   0.668
 5838SOL     OW18412   2.714   1.987   1.437
 5838SOL    HW118413   2.726   2.080   1.403
 5838SOL    HW218414   2.790   1.964   1.499
 5839SOL     OW18415   1.416   2.379   1.925
 5839SOL    HW118416   1.478   2.433   1.868
 5839SOL    HW218417   1.401   2.290   1.882
 5840SOL     OW18418   0.658   3.642   2.211
 5840SOL    HW118419   0.680   3.738   2.194
 5840SOL    HW218420   0.590   3.636   2.284
 5841SOL     OW18421   4.984   0.741   1.325
 5841SOL    HW118422   5.013   0.647   1.341
 5841SOL    HW218423   5.064   0.801   1.318
 5842SOL     OW18424   3.435   1.676   0.242
 5842SOL    HW118425   3.431   1.709   0.148
 5842SOL    HW218426   3.478   1.745   0.300
 5843SOL     OW18427   1.831   3.645   0.956
 5843SOL    HW118428   1.821   3.591   1.040
 5843SOL    HW218429   1.908   3.707   0.965
 5844SOL     OW18430   0.689   0.268   4.908
 5844SOL    HW118431   0.723   0.223   4.826
 5844SOL    HW218432   0.655   0.198   4.972
 5845SOL     OW18433   0.586   6.570   2.042
 5845SOL    HW118434   0.504   6.570   1.986
 5845SOL    HW218435   0.601   6.662   2.079
 5846SOL     OW18436   6.721   3.888   5.397
 5846SOL    HW118437   6.719   3.856   5.303
 5846SOL    HW218438   6.763   3.819   5.455
 5847SOL     OW18439   2.826   2.978   1.389
 5847SOL    HW118440   2.767   2.957   1.312
 5847SOL    HW218441   2.824   2.902   1.455
 5848SOL     OW18442   2.454   6.175   3.775
 5848SOL    HW118443   2.406   6.226   3.846
 5848SOL    HW218444   2.418   6.081   3.771
 5849SOL     OW18445   2.096   6.663   5.226
 5849SOL    HW118446   2.005   6.621   5.222
 5849SOL    HW218447   2.153   6.625   5.154
 5850SOL     OW18448   1.674   2.090   1.800
 5850SOL    HW118449   1.574   2.091   1.810
 5850SOL    HW218450   1.701   2.008   1.748
 5851SOL     OW18451   5.850   2.978   4.138
 5851SOL    HW118452   5.821   3.018   4.224
 5851SOL    HW218453   5.798   3.018   4.063
 5852SOL     OW18454   5.011   5.555   3.806
 5852SOL    HW118455   5.017   5.589   3.712
 5852SOL    HW218456   4.918   5.523   3.824
 5853SOL     OW18457   3.507   4.827   5.542
 5853SOL    HW118458   3.448   4.828   5.623
 5853SOL    HW218459   3.598   4.861   5.567
 5854SOL     OW18460   3.132   4.491   6.082
 5854SOL    HW118461   3.095   4.503   5.990
 5854SOL    HW218462   3.211   4.551   6.094
 5855SOL     OW18463   2.119   2.572   3.891
 5855SOL    HW118464   2.189   2.519   3.937
 5855SOL    HW218465   2.159   2.657   3.857
 5856SOL     OW18466   1.627   6.508   2.552
 5856SOL    HW118467   1.718   6.539   2.524
 5856SOL    HW218468   1.619   6.512   2.651
 5857SOL     OW18469   0.064   3.311   6.121
 5857SOL    HW118470   0.052   3.219   6.084
 5857SOL    HW218471   0.113   3.367   6.054
 5858SOL     OW18472   1.599   1.524   3.264
 5858SOL    HW118473   1.669   1.539   3.334
 5858SOL    HW218474   1.641   1.481   3.184
 5859SOL     OW18475   5.866   0.205   1.859
 5859SOL    HW118476   5.854   0.185   1.762
 5859SOL    HW218477   5.918   0.290   1.870
 5860SOL     OW18478   0.100   3.724   3.094
 5860SOL    HW118479   0.112   3.625   3.094
 5860SOL    HW218480   0.100   3.758   3.000
 5861SOL     OW18481   5.852   0.397   5.173
 5861SOL    HW118482   5.803   0.395   5.086
 5861SOL    HW218483   5.943   0.358   5.160
 5862SOL     OW18484   6.282   5.759   2.479
 5862SOL    HW118485   6.376   5.738   2.507
 5862SOL    HW218486   6.283   5.842   2.423
 5863SOL     OW18487   3.148   0.745   4.746
 5863SOL    HW118488   3.126   0.700   4.833
 5863SOL    HW218489   3.079   0.722   4.678
 5864SOL     OW18490   3.586   3.629   3.325
 5864SOL    HW118491   3.679   3.593   3.336
 5864SOL    HW218492   3.521   3.569   3.372
 5865SOL     OW18493   6.188   1.246   5.806
 5865SOL    HW118494   6.273   1.297   5.794
 5865SOL    HW218495   6.157   1.212   5.717
 5866SOL     OW18496   4.013   3.426   1.660
 5866SOL    HW118497   3.996   3.348   1.600
 5866SOL    HW218498   3.974   3.509   1.619
 5867SOL     OW18499   2.358   2.157   1.557
 5867SOL    HW118500   2.351   2.207   1.471
 5867SOL    HW218501   2.281   2.094   1.565
 5868SOL     OW18502   0.952   1.731   5.991
 5868SOL    HW118503   0.883   1.793   6.029
 5868SOL    HW218504   1.043   1.760   6.022
 5869SOL     OW18505   0.730   4.623   4.015
 5869SOL    HW118506   0.784   4.552   3.972
 5869SOL    HW218507   0.788   4.701   4.039
 5870SOL     OW18508   4.136   4.700   5.518
 5870SOL    HW118509   4.095   4.790   5.536
 5870SOL    HW218510   4.064   4.631   5.518
 5871SOL     OW18511   3.158   3.361   3.881
 5871SOL    HW118512   3.254   3.381   3.859
 5871SOL    HW218513   3.106   3.446   3.885
 5872SOL     OW18514   4.334   5.995   1.862
 5872SOL    HW118515   4.281   5.914   1.886
 5872SOL    HW218516   4.311   6.069   1.925
 5873SOL     OW18517   3.145   4.954   2.607
 5873SOL    HW118518   3.237   4.932   2.576
 5873SOL    HW218519   3.139   4.944   2.706
 5874SOL     OW18520   2.185   4.234   4.917
 5874SOL    HW118521   2.102   4.244   4.973
 5874SOL    HW218522   2.222   4.142   4.928
 5875SOL     OW18523   3.644   2.174   6.996
 5875SOL    HW118524   3.667   2.226   6.914
 5875SOL    HW218525   3.712   2.102   7.010
 5876SOL     OW18526   3.823   3.704   2.336
 5876SOL    HW118527   3.838   3.644   2.257
 5876SOL    HW218528   3.816   3.648   2.419
 5877SOL     OW18529   6.026   6.193   0.975
 5877SOL    HW118530   6.120   6.207   1.004
 5877SOL    HW218531   5.974   6.150   1.049
 5878SOL     OW18532   1.306   5.597   3.304
 5878SOL    HW118533   1.269   5.504   3.304
 5878SOL    HW218534   1.383   5.603   3.240
 5879SOL     OW18535   6.328   3.654   6.864
 5879SOL    HW118536   6.294   3.561   6.852
 5879SOL    HW218537   6.326   3.679   6.961
 5880SOL     OW18538   2.981   6.030   1.282
 5880SOL    HW118539   2.930   6.109   1.316
 5880SOL    HW218540   3.058   6.012   1.343
 5881SOL     OW18541   0.218   4.573   3.714
 5881SOL    HW118542   0.212   4.672   3.729
 5881SOL    HW218543   0.125   4.534   3.713
 5882SOL     OW18544   6.060   0.680   0.821
 5882SOL    HW118545   6.004   0.680   0.738
 5882SOL    HW218546   6.121   0.601   0.820
 5883SOL     OW18547   0.463   2.337   6.398
 5883SOL    HW118548   0.473   2.432   6.367
 5883SOL    HW218549   0.529   2.318   6.471
 5884SOL     OW18550   1.706   1.412   3.630
 5884SOL    HW118551   1.744   1.501   3.603
 5884SOL    HW218552   1.746   1.340   3.573
 5885SOL     OW18553   6.678   6.584   1.288
 5885SOL    HW118554   6.682   6.681   1.264
 5885SOL    HW218555   6.681   6.574   1.388
 5886SOL     OW18556   0.130   2.405   5.242
 5886SOL    HW118557   0.186   2.475   5.197
 5886SOL    HW218558   0.076   2.447   5.316
 5887SOL     OW18559   4.103   0.927   3.890
 5887SOL    HW118560   4.105   1.016   3.845
 5887SOL    HW218561   4.010   0.906   3.919
 5888SOL     OW18562   2.774   5.996   2.706
 5888SOL    HW118563   2.835   5.919   2.726
 5888SOL    HW218564   2.702   6.001   2.775
 5889SOL     OW18565   1.784   6.969   1.617
 5889SOL    HW118566   1.698   6.979   1.567
 5889SOL    HW218567   1.850   0.011   1.583
 5890SOL     OW18568   1.174   0.046   5.283
 5890SOL    HW118569   1.157   6.978   5.318
 5890SOL    HW218570   1.087   0.087   5.256
 5891SOL     OW18571   4.055   3.324   6.833
 5891SOL    HW118572   4.002   3.293   6.754
 5891SOL    HW218573   4.047   3.423   6.842
 5892SOL     OW18574   0.835   6.115   1.158
 5892SOL    HW118575   0.924   6.161   1.148
 5892SOL    HW218576   0.849   6.022   1.189
 5893SOL     OW18577   1.732   3.136   3.266
 5893SOL    HW118578   1.679   3.053   3.288
 5893SOL    HW218579   1.794   3.157   3.341
 5894SOL     OW18580   1.339   4.963   3.508
 5894SOL    HW118581   1.420   4.924   3.552
 5894SOL    HW218582   1.267   4.976   3.576
 5895SOL     OW18583   5.167   2.250   4.639
 5895SOL    HW118584   5.091   2.272   4.700
 5895SOL    HW218585   5.247   2.305   4.666
 5896SOL     OW18586   4.143   1.971   6.987
 5896SOL    HW118587   4.183   1.889   0.003
 5896SOL    HW218588   4.098   2.025   0.034
 5897SOL     OW18589   4.063   6.908   1.841
 5897SOL    HW118590   4.091   6.861   1.757
 5897SOL    HW218591   4.143   6.953   1.881
 5898SOL     OW18592   1.660   0.306   2.055
 5898SOL    HW118593   1.651   0.297   1.955
 5898SOL    HW218594   1.684   0.400   2.078
 5899SOL     OW18595   5.822   6.893   5.201
 5899SOL    HW118596   5.772   6.946   5.270
 5899SOL    HW218597   5.886   6.831   5.246
 5900SOL     OW18598   4.658   5.169   3.570
 5900SOL    HW118599   4.614   5.164   3.481
 5900SOL    HW218600   4.754   5.142   3.562
 5901SOL     OW18601   2.095   0.365   6.493
 5901SOL    HW118602   2.119   0.426   6.568
 5901SOL    HW218603   2.078   0.273   6.529
 5902SOL     OW18604   6.815   2.347   0.667
 5902SOL    HW118605   6.857   2.399   0.741
 5902SOL    HW218606   6.716   2.348   0.677
 5903SOL     OW18607   5.560   4.373   0.813
 5903SOL    HW118608   5.490   4.339   0.750
 5903SOL    HW218609   5.647   4.381   0.765
 5904SOL     OW18610   0.467   3.594   2.383
 5904SOL    HW118611   0.452   3.621   2.479
 5904SOL    HW218612   0.403   3.643   2.325
 5905SOL     OW18613   6.420   6.414   2.803
 5905SOL    HW118614   6.505   6.452   2.840
 5905SOL    HW218615   6.342   6.459   2.846
 5906SOL     OW18616   5.468   0.362   3.899
 5906SOL    HW118617   5.516   0.448   3.883
 5906SOL    HW218618   5.478   0.303   3.818
 5907SOL     OW18619   1.099   6.203   1.753
 5907SOL    HW118620   1.063   6.197   1.660
 5907SOL    HW218621   1.026   6.183   1.819
 5908SOL     OW18622   0.826   2.451   5.750
 5908SOL    HW118623   0.810   2.363   5.795
 5908SOL    HW218624   0.740   2.501   5.742
 5909SOL     OW18625   0.494   5.774   0.839
 5909SOL    HW118626   0.569   5.748   0.898
 5909SOL    HW218627   0.419   5.708   0.848
 5910SOL     OW18628   0.940   2.674   3.309
 5910SOL    HW118629   0.949   2.575   3.323
 5910SOL    HW218630   0.867   2.692   3.243
 5911SOL     OW18631   0.263   5.555   6.611
 5911SOL    HW118632   0.357   5.581   6.592
 5911SOL    HW218633   0.206   5.573   6.531
 5912SOL     OW18634   6.397   1.160   5.447
 5912SOL    HW118635   6.307   1.188   5.481
 5912SOL    HW218636   6.468   1.204   5.502
 5913SOL     OW18637   5.410   3.018   0.072
 5913SOL    HW118638   5.479   2.948   0.053
 5913SOL    HW218639   5.385   3.015   0.169
 5914SOL     OW18640   0.978   6.895   6.508
 5914SOL    HW118641   1.003   6.981   6.464
 5914SOL    HW218642   1.056   6.859   6.559
 5915SOL     OW18643   3.596   6.567   0.494
 5915SOL    HW118644   3.532   6.537   0.565
 5915SOL    HW218645   3.549   6.629   0.431
 5916SOL     OW18646   0.145   6.785   2.087
 5916SOL    HW118647   0.132   6.850   2.012
 5916SOL    HW218648   0.110   6.696   2.059
 5917SOL     OW18649   2.909   3.885   5.864
 5917SOL    HW118650   2.925   3.973   5.909
 5917SOL    HW218651   2.965   3.814   5.906
 5918SOL     OW18652   2.073   5.806   6.106
 5918SOL    HW118653   2.136   5.789   6.030
 5918SOL    HW218654   2.125   5.811   6.191
 5919SOL     OW18655   2.876   3.358   3.149
 5919SOL    HW118656   2.832   3.365   3.239
 5919SOL    HW218657   2.915   3.447   3.124
 5920SOL     OW18658   4.974   1.461   6.040
 5920SOL    HW118659   5.021   1.384   6.082
 5920SOL    HW218660   4.956   1.531   6.109
 5921SOL     OW18661   3.699   4.937   6.930
 5921SOL    HW118662   3.795   4.907   6.932
 5921SOL    HW218663   3.662   4.934   7.023
 5922SOL     OW18664   6.258   3.831   3.699
 5922SOL    HW118665   6.354   3.825   3.675
 5922SOL    HW218666   6.210   3.888   3.632
 5923SOL     OW18667   6.950   0.948   1.849
 5923SOL    HW118668   7.002   1.029   1.823
 5923SOL    HW218669   6.896   0.916   1.771
 5924SOL     OW18670   6.027   6.797   3.227
 5924SOL    HW118671   6.033   6.800   3.127
 5924SOL    HW218672   5.933   6.776   3.254
 5925SOL     OW18673   3.782   6.109   1.952
 5925SOL    HW118674   3.870   6.140   1.916
 5925SOL    HW218675   3.713   6.114   1.880
 5926SOL     OW18676   4.628   4.429   2.718
 5926SOL    HW118677   4.543   4.479   2.732
 5926SOL    HW218678   4.623   4.378   2.632
 5927SOL     OW18679   1.089   3.349   1.959
 5927SOL    HW118680   1.005   3.393   1.990
 5927SOL    HW218681   1.078   3.317   1.865
 5928SOL     OW18682   3.622   6.841   1.502
 5928SOL    HW118683   3.609   6.925   1.449
 5928SOL    HW218684   3.632   6.865   1.599
 5929SOL     OW18685   6.372   0.872   5.606
 5929SOL    HW118686   6.322   0.958   5.594
 5929SOL    HW218687   6.362   0.841   5.700
 5930SOL     OW18688   0.710   3.017   2.240
 5930SOL    HW118689   0.798   2.972   2.225
 5930SOL    HW218690   0.688   3.016   2.338
 5931SOL     OW18691   6.015   6.099   2.676
 5931SOL    HW118692   6.084   6.095   2.749
 5931SOL    HW218693   5.986   6.194   2.663
 5932SOL     OW18694   3.419   0.179   6.518
 5932SOL    HW118695   3.494   0.191   6.583
 5932SOL    HW218696   3.455   0.153   6.429
 5933SOL     OW18697   6.868   4.642   4.366
 5933SOL    HW118698   6.771   4.628   4.348
 5933SOL    HW218699   6.884   4.637   4.465
 5934SOL     OW18700   3.807   3.316   5.896
 5934SOL    HW118701   3.843   3.230   5.932
 5934SOL    HW218702   3.708   3.310   5.888
 5935SOL     OW18703   0.733   6.032   5.300
 5935SOL    HW118704   0.718   5.937   5.326
 5935SOL    HW218705   0.667   6.091   5.348
 5936SOL     OW18706   2.858   3.497   2.512
 5936SOL    HW118707   2.876   3.400   2.531
 5936SOL    HW218708   2.901   3.553   2.584
 5937SOL     OW18709   6.429   3.131   1.929
 5937SOL    HW118710   6.425   3.214   1.986
 5937SOL    HW218711   6.512   3.134   1.873
 5938SOL     OW18712   5.742   5.709   4.690
 5938SOL    HW118713   5.708   5.705   4.596
 5938SOL    HW218714   5.764   5.804   4.713
 5939SOL     OW18715   3.247   5.880   4.152
 5939SOL    HW118716   3.343   5.884   4.182
 5939SOL    HW218717   3.199   5.961   4.186
 5940SOL     OW18718   4.279   4.803   3.170
 5940SOL    HW118719   4.200   4.779   3.227
 5940SOL    HW218720   4.359   4.752   3.202
 5941SOL     OW18721   6.035   2.492   3.380
 5941SOL    HW118722   6.131   2.465   3.372
 5941SOL    HW218723   6.029   2.583   3.422
 5942SOL     OW18724   5.670   2.893   6.288
 5942SOL    HW118725   5.639   2.955   6.359
 5942SOL    HW218726   5.660   2.936   6.199
 5943SOL     OW18727   3.924   3.817   0.396
 5943SOL    HW118728   4.008   3.842   0.347
 5943SOL    HW218729   3.891   3.729   0.363
 5944SOL     OW18730   0.501   2.826   0.522
 5944SOL    HW118731   0.474   2.730   0.519
 5944SOL    HW218732   0.542   2.852   0.434
 5945SOL     OW18733   0.143   6.027   5.495
 5945SOL    HW118734   0.078   6.020   5.420
 5945SOL    HW218735   0.181   5.937   5.516
 5946SOL     OW18736   3.434   4.632   6.987
 5946SOL    HW118737   3.522   4.587   6.971
 5946SOL    HW218738   3.374   4.617   6.908
 5947SOL     OW18739   3.218   3.234   4.114
 5947SOL    HW118740   3.206   3.261   4.018
 5947SOL    HW218741   3.175   3.302   4.173
 5948SOL     OW18742   4.441   4.668   2.353
 5948SOL    HW118743   4.479   4.578   2.330
 5948SOL    HW218744   4.504   4.739   2.321
 5949SOL     OW18745   5.313   5.708   0.858
 5949SOL    HW118746   5.316   5.632   0.923
 5949SOL    HW218747   5.229   5.760   0.870
 5950SOL     OW18748   4.831   2.474   5.349
 5950SOL    HW118749   4.884   2.485   5.264
 5950SOL    HW218750   4.779   2.389   5.345
 5951SOL     OW18751   0.934   5.647   5.198
 5951SOL    HW118752   0.994   5.726   5.207
 5951SOL    HW218753   0.983   5.573   5.153
 5952SOL     OW18754   4.190   5.656   3.059
 5952SOL    HW118755   4.221   5.613   3.144
 5952SOL    HW218756   4.220   5.752   3.058
 5953SOL     OW18757   6.973   3.769   4.548
 5953SOL    HW118758   0.031   3.730   4.589
 5953SOL    HW218759   6.990   3.864   4.523
 5954SOL     OW18760   0.387   5.631   5.760
 5954SOL    HW118761   0.354   5.546   5.720
 5954SOL    HW218762   0.367   5.707   5.698
 5955SOL     OW18763   4.666   5.177   1.632
 5955SOL    HW118764   4.694   5.230   1.552
 5955SOL    HW218765   4.657   5.238   1.711
 5956SOL     OW18766   5.750   1.666   4.151
 5956SOL    HW118767   5.665   1.710   4.182
 5956SOL    HW218768   5.735   1.626   4.061
 5957SOL     OW18769   2.412   1.559   3.608
 5957SOL    HW118770   2.501   1.552   3.652
 5957SOL    HW218771   2.342   1.585   3.675
 5958SOL     OW18772   4.283   0.596   3.117
 5958SOL    HW118773   4.241   0.685   3.134
 5958SOL    HW218774   4.331   0.565   3.200
 5959SOL     OW18775   4.284   3.046   5.371
 5959SOL    HW118776   4.223   3.098   5.431
 5959SOL    HW218777   4.240   2.959   5.346
 5960SOL     OW18778   2.679   6.382   3.848
 5960SOL    HW118779   2.669   6.394   3.750
 5960SOL    HW218780   2.699   6.286   3.868
 5961SOL     OW18781   3.980   1.583   2.426
 5961SOL    HW118782   3.924   1.633   2.360
 5961SOL    HW218783   4.056   1.640   2.456
 5962SOL     OW18784   5.342   5.801   6.263
 5962SOL    HW118785   5.422   5.861   6.260
 5962SOL    HW218786   5.284   5.818   6.184
 5963SOL     OW18787   3.444   3.925   6.976
 5963SOL    HW118788   3.481   3.835   6.953
 5963SOL    HW218789   3.468   3.947   0.046
 5964SOL     OW18790   2.333   6.703   3.640
 5964SOL    HW118791   2.317   6.664   3.549
 5964SOL    HW218792   2.357   6.630   3.704
 5965SOL     OW18793   1.797   0.604   6.638
 5965SOL    HW118794   1.885   0.604   6.685
 5965SOL    HW218795   1.732   0.659   6.691
 5966SOL     OW18796   1.165   0.002   5.829
 5966SOL    HW118797   1.106   0.054   5.892
 5966SOL    HW218798   1.237   0.061   5.795
 5967SOL     OW18799   2.475   1.071   5.344
 5967SOL    HW118800   2.491   1.037   5.251
 5967SOL    HW218801   2.391   1.125   5.345
 5968SOL     OW18802   5.441   2.740   0.338
 5968SOL    HW118803   5.361   2.797   0.319
 5968SOL    HW218804   5.513   2.797   0.379
 5969SOL     OW18805   5.073   1.705   6.338
 5969SOL    HW118806   4.979   1.686   6.308
 5969SOL    HW218807   5.079   1.695   6.437
 5970SOL     OW18808   0.555   4.429   0.604
 5970SOL    HW118809   0.647   4.468   0.602
 5970SOL    HW218810   0.490   4.499   0.631
 5971SOL     OW18811   6.120   0.196   1.542
 5971SOL    HW118812   6.161   0.237   1.623
 5971SOL    HW218813   6.186   0.136   1.497
 5972SOL     OW18814   5.393   5.569   6.380
 5972SOL    HW118815   5.362   5.659   6.350
 5972SOL    HW218816   5.493   5.568   6.384
 5973SOL     OW18817   1.845   3.308   3.071
 5973SOL    HW118818   1.818   3.233   3.132
 5973SOL    HW218819   1.944   3.307   3.058
 5974SOL     OW18820   5.077   0.654   0.150
 5974SOL    HW118821   5.098   0.589   0.224
 5974SOL    HW218822   5.103   0.746   0.179
 5975SOL     OW18823   4.365   5.953   1.400
 5975SOL    HW118824   4.405   5.879   1.345
 5975SOL    HW218825   4.364   6.037   1.346
 5976SOL     OW18826   3.558   3.243   5.735
 5976SOL    HW118827   3.576   3.213   5.641
 5976SOL    HW218828   3.468   3.211   5.763
 5977SOL     OW18829   0.586   5.766   0.587
 5977SOL    HW118830   0.569   5.782   0.684
 5977SOL    HW218831   0.684   5.763   0.570
 5978SOL     OW18832   3.802   5.493   1.276
 5978SOL    HW118833   3.869   5.443   1.330
 5978SOL    HW218834   3.710   5.477   1.314
 5979SOL     OW18835   6.384   0.821   2.255
 5979SOL    HW118836   6.316   0.894   2.249
 5979SOL    HW218837   6.466   0.855   2.301
 5980SOL     OW18838   3.737   2.902   2.168
 5980SOL    HW118839   3.654   2.950   2.195
 5980SOL    HW218840   3.816   2.943   2.214
 5981SOL     OW18841   4.947   1.600   0.403
 5981SOL    HW118842   4.858   1.607   0.359
 5981SOL    HW218843   4.988   1.691   0.412
 5982SOL     OW18844   5.980   2.422   2.616
 5982SOL    HW118845   5.980   2.406   2.517
 5982SOL    HW218846   5.993   2.336   2.664
 5983SOL     OW18847   1.539   0.519   4.266
 5983SOL    HW118848   1.592   0.436   4.250
 5983SOL    HW218849   1.515   0.525   4.362
 5984SOL     OW18850   5.689   6.468   3.691
 5984SOL    HW118851   5.750   6.545   3.713
 5984SOL    HW218852   5.744   6.386   3.673
 5985SOL     OW18853   6.327   2.530   3.342
 5985SOL    HW118854   6.426   2.536   3.340
 5985SOL    HW218855   6.288   2.599   3.281
 5986SOL     OW18856   3.879   4.101   6.133
 5986SOL    HW118857   3.823   4.166   6.081
 5986SOL    HW218858   3.962   4.080   6.082
 5987SOL     OW18859   5.594   0.604   4.485
 5987SOL    HW118860   5.563   0.636   4.396
 5987SOL    HW218861   5.519   0.607   4.550
 5988SOL     OW18862   3.694   1.167   6.441
 5988SOL    HW118863   3.738   1.158   6.531
 5988SOL    HW218864   3.597   1.184   6.454
 5989SOL     OW18865   2.040   5.671   5.627
 5989SOL    HW118866   1.942   5.651   5.618
 5989SOL    HW218867   2.083   5.670   5.537
 5990SOL     OW18868   3.818   3.617   0.830
 5990SOL    HW118869   3.849   3.538   0.882
 5990SOL    HW218870   3.786   3.688   0.892
 5991SOL     OW18871   4.510   6.120   0.170
 5991SOL    HW118872   4.443   6.089   0.238
 5991SOL    HW218873   4.584   6.169   0.216
 5992SOL     OW18874   3.392   6.833   2.302
 5992SOL    HW118875   3.416   6.747   2.347
 5992SOL    HW218876   3.467   6.898   2.310
 5993SOL     OW18877   5.779   4.615   6.081
 5993SOL    HW118878   5.834   4.601   5.999
 5993SOL    HW218879   5.788   4.709   6.112
 5994SOL     OW18880   6.499   3.061   1.285
 5994SOL    HW118881   6.578   3.008   1.317
 5994SOL    HW218882   6.526   3.155   1.267
 5995SOL     OW18883   4.580   2.842   1.714
 5995SOL    HW118884   4.611   2.926   1.760
 5995SOL    HW218885   4.505   2.864   1.651
 5996SOL     OW18886   1.671   5.690   1.884
 5996SOL    HW118887   1.615   5.612   1.857
 5996SOL    HW218888   1.613   5.761   1.924
 5997SOL     OW18889   0.922   6.609   3.380
 5997SOL    HW118890   0.895   6.571   3.469
 5997SOL    HW218891   0.851   6.591   3.313
 5998SOL     OW18892   5.890   1.158   1.435
 5998SOL    HW118893   5.798   1.133   1.406
 5998SOL    HW218894   5.957   1.112   1.377
 5999SOL     OW18895   3.155   3.226   1.122
 5999SOL    HW118896   3.165   3.249   1.025
 5999SOL    HW218897   3.219   3.153   1.146
 6000SOL     OW18898   0.278   6.322   0.217
 6000SOL    HW118899   0.256   6.340   0.313
 6000SOL    HW218900   0.206   6.266   0.176
 6001SOL     OW18901   5.353   5.236   0.272
 6001SOL    HW118902   5.442   5.198   0.299
 6001SOL    HW218903   5.365   5.296   0.192
 6002SOL     OW18904   6.980   6.952   5.702
 6002SOL    HW118905   6.963   6.936   5.605
 6002SOL    HW218906   6.957   6.869   5.754
 6003SOL     OW18907   6.178   2.533   4.067
 6003SOL    HW118908   6.276   2.551   4.058
 6003SOL    HW218909   6.145   2.565   4.156
 6004SOL     OW18910   6.322   2.404   3.769
 6004SOL    HW118911   6.323   2.504   3.770
 6004SOL    HW218912   6.246   2.372   3.712
 6005SOL     OW18913   5.738   5.021   5.277
 6005SOL    HW118914   5.692   4.943   5.236
 6005SOL    HW218915   5.707   5.032   5.372
 6006SOL     OW18916   2.925   0.151   5.160
 6006SOL    HW118917   3.016   0.116   5.138
 6006SOL    HW218918   2.893   0.210   5.086
 6007SOL     OW18919   0.058   2.966   6.514
 6007SOL    HW118920   7.002   2.934   6.565
 6007SOL    HW218921   0.108   3.032   6.570
 6008SOL     OW18922   2.160   4.584   5.236
 6008SOL    HW118923   2.083   4.541   5.283
 6008SOL    HW218924   2.214   4.637   5.301
 6009SOL     OW18925   4.203   5.813   3.401
 6009SOL    HW118926   4.200   5.811   3.501
 6009SOL    HW218927   4.278   5.872   3.372
 6010SOL     OW18928   0.319   4.307   3.689
 6010SOL    HW118929   0.263   4.390   3.688
 6010SOL    HW218930   0.365   4.297   3.600
 6011SOL     OW18931   4.781   2.894   2.541
 6011SOL    HW118932   4.697   2.851   2.574
 6011SOL    HW218933   4.820   2.952   2.613
 6012SOL     OW18934   6.349   0.626   0.162
 6012SOL    HW118935   6.393   0.628   0.072
 6012SOL    HW218936   6.403   0.570   0.224
 6013SOL     OW18937   4.551   1.088   2.764
 6013SOL    HW118938   4.609   1.015   2.801
 6013SOL    HW218939   4.588   1.177   2.791
 6014SOL     OW18940   3.367   3.854   4.039
 6014SOL    HW118941   3.275   3.892   4.038
 6014SOL    HW218942   3.369   3.772   4.096
 6015SOL     OW18943   6.280   3.661   4.446
 6015SOL    HW118944   6.202   3.606   4.416
 6015SOL    HW218945   6.364   3.623   4.408
 6016SOL     OW18946   5.421   1.844   5.538
 6016SOL    HW118947   5.340   1.817   5.487
 6016SOL    HW218948   5.407   1.829   5.636
 6017SOL     OW18949   0.102   4.586   5.408
 6017SOL    HW118950   0.174   4.597   5.339
 6017SOL    HW218951   0.020   4.550   5.365
 6018SOL     OW18952   2.883   1.359   4.525
 6018SOL    HW118953   2.870   1.377   4.427
 6018SOL    HW218954   2.951   1.422   4.562
 6019SOL     OW18955   0.583   3.238   6.171
 6019SOL    HW118956   0.524   3.319   6.163
 6019SOL    HW218957   0.542   3.173   6.235
 6020SOL     OW18958   0.793   5.335   0.775
 6020SOL    HW118959   0.758   5.315   0.684
 6020SOL    HW218960   0.876   5.283   0.792
 6021SOL     OW18961   5.093   0.095   2.826
 6021SOL    HW118962   5.151   0.014   2.839
 6021SOL    HW218963   5.016   0.071   2.768
 6022SOL     OW18964   6.503   1.335   3.285
 6022SOL    HW118965   6.552   1.307   3.367
 6022SOL    HW218966   6.464   1.254   3.241
 6023SOL     OW18967   5.450   0.238   1.265
 6023SOL    HW118968   5.415   0.149   1.294
 6023SOL    HW218969   5.539   0.254   1.307
 6024SOL     OW18970   0.510   5.155   0.445
 6024SOL    HW118971   0.523   5.166   0.346
 6024SOL    HW218972   0.436   5.214   0.476
 6025SOL     OW18973   3.264   1.128   3.765
 6025SOL    HW118974   3.271   1.030   3.786
 6025SOL    HW218975   3.311   1.147   3.679
 6026SOL     OW18976   0.077   5.306   4.904
 6026SOL    HW118977   0.058   5.297   4.806
 6026SOL    HW218978   0.036   5.230   4.953
 6027SOL     OW18979   6.681   3.452   5.969
 6027SOL    HW118980   6.719   3.389   6.036
 6027SOL    HW218981   6.745   3.528   5.955
 6028SOL     OW18982   5.152   4.869   1.285
 6028SOL    HW118983   5.234   4.893   1.338
 6028SOL    HW218984   5.165   4.779   1.244
 6029SOL     OW18985   2.276   6.995   3.611
 6029SOL    HW118986   2.218   0.003   3.538
 6029SOL    HW218987   2.288   6.896   3.603
 6030SOL     OW18988   5.094   3.549   5.026
 6030SOL    HW118989   4.996   3.563   5.017
 6030SOL    HW218990   5.117   3.454   5.002
 6031SOL     OW18991   1.920   5.617   4.189
 6031SOL    HW118992   1.854   5.543   4.174
 6031SOL    HW218993   2.009   5.578   4.211
 6032SOL     OW18994   2.634   5.117   3.106
 6032SOL    HW118995   2.597   5.097   3.015
 6032SOL    HW218996   2.624   5.036   3.164
 6033SOL     OW18997   2.393   2.705   2.522
 6033SOL    HW118998   2.338   2.781   2.488
 6033SOL    HW218999   2.396   2.708   2.622
 6034SOL     OW19000   0.815   0.362   6.214
 6034SOL    HW119001   0.755   0.390   6.140
 6034SOL    HW219002   0.826   0.262   6.212
 6035SOL     OW19003   1.255   0.351   2.672
 6035SOL    HW119004   1.233   0.311   2.583
 6035SOL    HW219005   1.245   0.281   2.743
 6036SOL     OW19006   5.770   4.884   1.402
 6036SOL    HW119007   5.840   4.825   1.442
 6036SOL    HW219008   5.684   4.834   1.397
 6037SOL     OW19009   3.998   0.584   0.874
 6037SOL    HW119010   4.061   0.660   0.860
 6037SOL    HW219011   3.904   0.616   0.864
 6038SOL     OW19012   0.884   2.674   6.589
 6038SOL    HW119013   0.892   2.620   6.672
 6038SOL    HW219014   0.859   2.768   6.612
 6039SOL     OW19015   3.757   3.986   3.788
 6039SOL    HW119016   3.782   4.081   3.768
 6039SOL    HW219017   3.824   3.924   3.748
 6040SOL     OW19018   1.810   1.023   6.982
 6040SOL    HW119019   1.753   1.105   6.977
 6040SOL    HW219020   1.810   0.978   6.893
 6041SOL     OW19021   3.290   2.558   5.319
 6041SOL    HW119022   3.373   2.536   5.371
 6041SOL    HW219023   3.269   2.482   5.257
 6042SOL     OW19024   4.035   6.440   2.872
 6042SOL    HW119025   4.133   6.443   2.893
 6042SOL    HW219026   3.984   6.486   2.944
 6043SOL     OW19027   1.344   0.445   4.063
 6043SOL    HW119028   1.247   0.460   4.083
 6043SOL    HW219029   1.399   0.483   4.137
 6044SOL     OW19030   2.390   2.346   2.229
 6044SOL    HW119031   2.484   2.321   2.251
 6044SOL    HW219032   2.371   2.327   2.133
 6045SOL     OW19033   5.152   3.121   3.962
 6045SOL    HW119034   5.238   3.083   3.996
 6045SOL    HW219035   5.076   3.090   4.020
 6046SOL     OW19036   3.248   2.808   1.041
 6046SOL    HW119037   3.285   2.715   1.042
 6046SOL    HW219038   3.149   2.804   1.055
 6047SOL     OW19039   5.135   2.407   1.100
 6047SOL    HW119040   5.138   2.402   1.000
 6047SOL    HW219041   5.216   2.363   1.138
 6048SOL     OW19042   4.986   5.756   5.143
 6048SOL    HW119043   4.985   5.721   5.050
 6048SOL    HW219044   5.080   5.756   5.178
 6049SOL     OW19045   5.607   4.825   6.245
 6049SOL    HW119046   5.698   4.857   6.218
 6049SOL    HW219047   5.550   4.816   6.164
 6050SOL     OW19048   2.615   5.339   1.007
 6050SOL    HW119049   2.681   5.309   0.938
 6050SOL    HW219050   2.594   5.263   1.068
 6051SOL     OW19051   2.027   6.854   2.937
 6051SOL    HW119052   2.095   6.828   3.006
 6051SOL    HW219053   1.954   6.906   2.981
 6052SOL     OW19054   5.532   1.094   1.786
 6052SOL    HW119055   5.439   1.059   1.782
 6052SOL    HW219056   5.534   1.181   1.837
 6053SOL     OW19057   4.053   0.533   6.249
 6053SOL    HW119058   4.067   0.436   6.268
 6053SOL    HW219059   4.083   0.588   6.327
 6054SOL     OW19060   3.456   4.807   0.804
 6054SOL    HW119061   3.431   4.886   0.860
 6054SOL    HW219062   3.525   4.834   0.737
 6055SOL     OW19063   3.231   5.589   6.162
 6055SOL    HW119064   3.176   5.540   6.229
 6055SOL    HW219065   3.174   5.613   6.083
 6056SOL     OW19066   5.428   2.892   5.124
 6056SOL    HW119067   5.439   2.980   5.078
 6056SOL    HW219068   5.426   2.818   5.057
 6057SOL     OW19069   5.861   0.523   2.088
 6057SOL    HW119070   5.810   0.485   2.011
 6057SOL    HW219071   5.824   0.613   2.111
 6058SOL     OW19072   5.349   3.635   0.105
 6058SOL    HW119073   5.319   3.622   0.199
 6058SOL    HW219074   5.425   3.700   0.103
 6059SOL     OW19075   5.254   4.498   5.326
 6059SOL    HW119076   5.238   4.491   5.228
 6059SOL    HW219077   5.277   4.592   5.350
 6060SOL     OW19078   2.957   3.228   6.976
 6060SOL    HW119079   2.960   3.145   6.921
 6060SOL    HW219080   2.944   3.307   6.917
 6061SOL     OW19081   4.694   4.643   0.648
 6061SOL    HW119082   4.745   4.586   0.583
 6061SOL    HW219083   4.596   4.630   0.635
 6062SOL     OW19084   2.005   1.403   6.717
 6062SOL    HW119085   1.982   1.330   6.652
 6062SOL    HW219086   2.033   1.363   6.804
 6063SOL     OW19087   3.463   4.053   5.835
 6063SOL    HW119088   3.453   4.096   5.745
 6063SOL    HW219089   3.452   4.122   5.906
 6064SOL     OW19090   0.794   0.403   1.406
 6064SOL    HW119091   0.888   0.399   1.372
 6064SOL    HW219092   0.778   0.491   1.451
 6065SOL     OW19093   0.293   5.609   1.864
 6065SOL    HW119094   0.265   5.625   1.770
 6065SOL    HW219095   0.248   5.675   1.924
 6066SOL     OW19096   5.763   0.869   4.815
 6066SOL    HW119097   5.695   0.938   4.839
 6066SOL    HW219098   5.790   0.819   4.897
 6067SOL     OW19099   4.774   1.049   5.293
 6067SOL    HW119100   4.774   0.960   5.247
 6067SOL    HW219101   4.717   1.113   5.242
 6068SOL     OW19102   5.217   2.478   4.389
 6068SOL    HW119103   5.154   2.487   4.313
 6068SOL    HW219104   5.191   2.540   4.462
 6069SOL     OW19105   6.674   3.899   5.781
 6069SOL    HW119106   6.598   3.905   5.716
 6069SOL    HW219107   6.740   3.972   5.763
 6070SOL     OW19108   3.705   2.724   1.456
 6070SOL    HW119109   3.707   2.648   1.520
 6070SOL    HW219110   3.637   2.706   1.385
 6071SOL     OW19111   0.619   5.787   4.646
 6071SOL    HW119112   0.612   5.730   4.728
 6071SOL    HW219113   0.530   5.793   4.601
 6072SOL     OW19114   0.269   1.239   2.156
 6072SOL    HW119115   0.279   1.277   2.064
 6072SOL    HW219116   0.260   1.140   2.150
 6073SOL     OW19117   4.922   2.870   0.783
 6073SOL    HW119118   4.979   2.819   0.847
 6073SOL    HW219119   4.969   2.954   0.757
 6074SOL     OW19120   1.643   6.853   1.828
 6074SOL    HW119121   1.692   6.766   1.817
 6074SOL    HW219122   1.678   6.919   1.761
 6075SOL     OW19123   4.977   0.191   5.187
 6075SOL    HW119124   4.920   0.183   5.269
 6075SOL    HW219125   4.940   0.133   5.115
 6076SOL     OW19126   2.420   5.417   3.424
 6076SOL    HW119127   2.418   5.517   3.429
 6076SOL    HW219128   2.441   5.388   3.331
 6077SOL     OW19129   5.794   6.471   1.097
 6077SOL    HW119130   5.816   6.379   1.131
 6077SOL    HW219131   5.856   6.493   1.021
 6078SOL     OW19132   4.311   5.051   0.507
 6078SOL    HW119133   4.392   4.996   0.487
 6078SOL    HW219134   4.327   5.104   0.591
 6079SOL     OW19135   4.730   4.778   6.166
 6079SOL    HW119136   4.727   4.845   6.092
 6079SOL    HW219137   4.685   4.693   6.137
 6080SOL     OW19138   0.358   5.036   1.489
 6080SOL    HW119139   0.330   5.076   1.577
 6080SOL    HW219140   0.348   4.937   1.493
 6081SOL     OW19141   6.548   3.267   5.478
 6081SOL    HW119142   6.554   3.288   5.381
 6081SOL    HW219143   6.533   3.169   5.491
 6082SOL     OW19144   3.464   6.646   2.662
 6082SOL    HW119145   3.561   6.630   2.644
 6082SOL    HW219146   3.409   6.579   2.612
 6083SOL     OW19147   5.571   5.502   0.738
 6083SOL    HW119148   5.547   5.596   0.713
 6083SOL    HW219149   5.671   5.493   0.739
 6084SOL     OW19150   1.055   6.750   2.271
 6084SOL    HW119151   1.095   6.667   2.308
 6084SOL    HW219152   1.014   6.730   2.181
 6085SOL     OW19153   6.777   5.833   6.420
 6085SOL    HW119154   6.726   5.850   6.504
 6085SOL    HW219155   6.757   5.904   6.354
 6086SOL     OW19156   2.615   2.143   5.983
 6086SOL    HW119157   2.595   2.237   5.955
 6086SOL    HW219158   2.532   2.101   6.021
 6087SOL     OW19159   3.890   5.864   1.045
 6087SOL    HW119160   3.948   5.873   0.964
 6087SOL    HW219161   3.943   5.884   1.127
 6088SOL     OW19162   5.155   6.525   4.974
 6088SOL    HW119163   5.155   6.433   5.012
 6088SOL    HW219164   5.078   6.535   4.911
 6089SOL     OW19165   6.553   2.283   2.965
 6089SOL    HW119166   6.589   2.249   3.052
 6089SOL    HW219167   6.467   2.235   2.943
 6090SOL     OW19168   2.653   4.999   4.887
 6090SOL    HW119169   2.615   5.083   4.849
 6090SOL    HW219170   2.578   4.937   4.912
 6091SOL     OW19171   3.086   1.683   0.576
 6091SOL    HW119172   3.142   1.656   0.498
 6091SOL    HW219173   3.108   1.777   0.602
 6092SOL     OW19174   4.088   1.197   1.627
 6092SOL    HW119175   4.120   1.178   1.719
 6092SOL    HW219176   4.132   1.280   1.592
 6093SOL     OW19177   2.297   2.303   1.921
 6093SOL    HW119178   2.227   2.328   1.854
 6093SOL    HW219179   2.340   2.386   1.957
 6094SOL     OW19180   1.532   5.955   3.506
 6094SOL    HW119181   1.438   5.967   3.538
 6094SOL    HW219182   1.594   6.005   3.566
 6095SOL     OW19183   4.563   4.862   6.359
 6095SOL    HW119184   4.564   4.798   6.435
 6095SOL    HW219185   4.628   4.831   6.289
 6096SOL     OW19186   5.703   0.004   1.966
 6096SOL    HW119187   5.768   0.073   1.932
 6096SOL    HW219188   5.704   0.004   2.066
 6097SOL     OW19189   1.790   5.085   2.433
 6097SOL    HW119190   1.741   5.107   2.348
 6097SOL    HW219191   1.835   4.996   2.423
 6098SOL     OW19192   6.522   1.035   6.244
 6098SOL    HW119193   6.429   1.047   6.280
 6098SOL    HW219194   6.588   1.060   6.314
 6099SOL     OW19195   4.718   5.991   5.470
 6099SOL    HW119196   4.637   5.933   5.460
 6099SOL    HW219197   4.771   5.989   5.385
 6100SOL     OW19198   0.415   6.252   2.218
 6100SOL    HW119199   0.463   6.248   2.130
 6100SOL    HW219200   0.448   6.332   2.269
 6101SOL     OW19201   6.555   2.756   2.892
 6101SOL    HW119202   6.474   2.749   2.835
 6101SOL    HW219203   6.637   2.759   2.835
 6102SOL     OW19204   4.345   6.039   2.800
 6102SOL    HW119205   4.354   5.950   2.845
 6102SOL    HW219206   4.370   6.111   2.864
 6103SOL     OW19207   0.285   0.962   1.333
 6103SOL    HW119208   0.322   0.873   1.304
 6103SOL    HW219209   0.330   1.035   1.283
 6104SOL     OW19210   6.340   6.778   5.084
 6104SOL    HW119211   6.254   6.827   5.100
 6104SOL    HW219212   6.399   6.832   5.023
 6105SOL     OW19213   1.711   5.281   5.862
 6105SOL    HW119214   1.679   5.208   5.802
 6105SOL    HW219215   1.756   5.242   5.942
 6106SOL     OW19216   1.255   5.206   0.280
 6106SOL    HW119217   1.162   5.189   0.314
 6106SOL    HW219218   1.255   5.202   0.180
 6107SOL     OW19219   4.681   5.610   4.748
 6107SOL    HW119220   4.705   5.523   4.791
 6107SOL    HW219221   4.582   5.614   4.734
 6108SOL     OW19222   1.986   2.354   3.194
 6108SOL    HW119223   1.978   2.453   3.210
 6108SOL    HW219224   2.021   2.338   3.101
 6109SOL     OW19225   5.564   1.009   4.942
 6109SOL    HW119226   5.510   1.092   4.957
 6109SOL    HW219227   5.629   0.998   5.016
 6110SOL     OW19228   2.054   2.918   0.453
 6110SOL    HW119229   2.041   2.896   0.356
 6110SOL    HW219230   1.971   2.893   0.504
 6111SOL     OW19231   1.391   3.096   2.188
 6111SOL    HW119232   1.456   3.069   2.117
 6111SOL    HW219233   1.400   3.035   2.267
 6112SOL     OW19234   4.599   0.387   2.476
 6112SOL    HW119235   4.603   0.433   2.564
 6112SOL    HW219236   4.551   0.300   2.486
 6113SOL     OW19237   2.620   2.972   6.538
 6113SOL    HW119238   2.542   3.034   6.544
 6113SOL    HW219239   2.630   2.922   6.624
 6114SOL     OW19240   4.986   3.454   2.533
 6114SOL    HW119241   4.980   3.462   2.434
 6114SOL    HW219242   5.018   3.541   2.572
 6115SOL     OW19243   6.674   1.451   4.833
 6115SOL    HW119244   6.721   1.539   4.845
 6115SOL    HW219245   6.642   1.444   4.738
 6116SOL     OW19246   4.142   1.913   5.850
 6116SOL    HW119247   4.146   2.006   5.813
 6116SOL    HW219248   4.216   1.858   5.810
 6117SOL     OW19249   1.903   2.105   3.140
 6117SOL    HW119250   1.954   2.184   3.173
 6117SOL    HW219251   1.905   2.103   3.040
 6118SOL     OW19252   6.363   1.291   1.515
 6118SOL    HW119253   6.401   1.363   1.573
 6118SOL    HW219254   6.263   1.293   1.521
 6119SOL     OW19255   1.460   3.287   0.233
 6119SOL    HW119256   1.407   3.259   0.153
 6119SOL    HW219257   1.422   3.371   0.271
 6120SOL     OW19258   1.714   6.829   5.281
 6120SOL    HW119259   1.669   6.875   5.358
 6120SOL    HW219260   1.810   6.857   5.277
 6121SOL     OW19261   1.046   3.947   6.145
 6121SOL    HW119262   1.024   4.033   6.100
 6121SOL    HW219263   0.996   3.941   6.232
 6122SOL     OW19264   4.634   5.477   6.232
 6122SOL    HW119265   4.554   5.436   6.188
 6122SOL    HW219266   4.639   5.447   6.327
 6123SOL     OW19267   4.936   0.168   5.467
 6123SOL    HW119268   4.846   0.141   5.503
 6123SOL    HW219269   4.957   0.261   5.496
 6124SOL     OW19270   0.112   6.583   5.694
 6124SOL    HW119271   0.020   6.545   5.686
 6124SOL    HW219272   0.155   6.550   5.778
 6125SOL     OW19273   2.573   3.868   6.915
 6125SOL    HW119274   2.483   3.904   6.891
 6125SOL    HW219275   2.573   3.840   7.011
 6126SOL     OW19276   0.768   1.800   4.941
 6126SOL    HW119277   0.725   1.862   5.007
 6126SOL    HW219278   0.780   1.847   4.853
 6127SOL     OW19279   4.068   0.080   2.107
 6127SOL    HW119280   4.153   0.061   2.059
 6127SOL    HW219281   4.041   0.175   2.090
 6128SOL     OW19282   5.223   5.086   0.817
 6128SOL    HW119283   5.157   5.020   0.780
 6128SOL    HW219284   5.224   5.079   0.916
 6129SOL     OW19285   1.208   3.209   3.939
 6129SOL    HW119286   1.254   3.122   3.958
 6129SOL    HW219287   1.251   3.281   3.992
 6130SOL     OW19288   5.580   2.392   3.079
 6130SOL    HW119289   5.667   2.392   3.127
 6130SOL    HW219290   5.587   2.338   2.995
 6131SOL     OW19291   1.239   1.708   2.870
 6131SOL    HW119292   1.220   1.718   2.968
 6131SOL    HW219293   1.336   1.687   2.857
 6132SOL     OW19294   3.988   1.584   6.707
 6132SOL    HW119295   3.900   1.537   6.712
 6132SOL    HW219296   4.045   1.555   6.785
 6133SOL     OW19297   2.164   3.070   3.135
 6133SOL    HW119298   2.160   3.165   3.106
 6133SOL    HW219299   2.219   3.061   3.218
 6134SOL     OW19300   4.246   6.679   0.201
 6134SOL    HW119301   4.341   6.681   0.232
 6134SOL    HW219302   4.240   6.717   0.109
 6135SOL     OW19303   0.057   5.781   0.927
 6135SOL    HW119304   0.103   5.844   0.991
 6135SOL    HW219305   6.984   5.799   0.928
 6136SOL     OW19306   1.400   3.075   1.684
 6136SOL    HW119307   1.329   3.035   1.741
 6136SOL    HW219308   1.426   3.164   1.722
 6137SOL     OW19309   0.339   3.784   2.229
 6137SOL    HW119310   0.347   3.872   2.276
 6137SOL    HW219311   0.389   3.788   2.142
 6138SOL     OW19312   4.065   6.868   3.059
 6138SOL    HW119313   4.010   6.947   3.087
 6138SOL    HW219314   4.057   6.856   2.960
 6139SOL     OW19315   0.838   6.800   5.426
 6139SOL    HW119316   0.887   6.840   5.503
 6139SOL    HW219317   0.758   6.751   5.459
 6140SOL     OW19318   0.481   1.004   2.543
 6140SOL    HW119319   0.544   1.020   2.619
 6140SOL    HW219320   0.453   1.092   2.505
 6141SOL     OW19321   0.223   6.887   6.340
 6141SOL    HW119322   0.247   6.862   6.246
 6141SOL    HW219323   0.123   6.891   6.348
 6142SOL     OW19324   1.055   6.526   6.141
 6142SOL    HW119325   1.035   6.512   6.238
 6142SOL    HW219326   1.051   6.438   6.093
 6143SOL     OW19327   6.958   4.126   0.894
 6143SOL    HW119328   7.004   4.215   0.893
 6143SOL    HW219329   6.917   4.108   0.805
 6144SOL     OW19330   5.256   4.875   3.388
 6144SOL    HW119331   5.212   4.817   3.456
 6144SOL    HW219332   5.189   4.941   3.352
 6145SOL     OW19333   5.733   4.793   4.128
 6145SOL    HW119334   5.662   4.773   4.061
 6145SOL    HW219335   5.713   4.880   4.173
 6146SOL     OW19336   3.608   6.124   3.303
 6146SOL    HW119337   3.696   6.164   3.276
 6146SOL    HW219338   3.548   6.119   3.223
 6147SOL     OW19339   2.098   2.377   4.742
 6147SOL    HW119340   2.118   2.420   4.654
 6147SOL    HW219341   2.128   2.282   4.741
 6148SOL     OW19342   3.716   5.619   5.788
 6148SOL    HW119343   3.712   5.716   5.767
 6148SOL    HW219344   3.673   5.602   5.877
 6149SOL     OW19345   2.311   0.278   1.990
 6149SOL    HW119346   2.244   0.350   2.005
 6149SOL    HW219347   2.283   0.196   2.039
 6150SOL     OW19348   6.239   3.975   6.574
 6150SOL    HW119349   6.302   3.974   6.652
 6150SOL    HW219350   6.291   3.972   6.489
 6151SOL     OW19351   5.581   5.254   4.910
 6151SOL    HW119352   5.663   5.256   4.853
 6151SOL    HW219353   5.543   5.161   4.911
 6152SOL     OW19354   0.584   5.188   4.736
 6152SOL    HW119355   0.497   5.176   4.783
 6152SOL    HW219356   0.653   5.128   4.777
 6153SOL     OW19357   4.923   5.163   1.037
 6153SOL    HW119358   4.892   5.257   1.022
 6153SOL    HW219359   5.020   5.164   1.061
 6154SOL     OW19360   5.793   3.089   2.898
 6154SOL    HW119361   5.884   3.085   2.856
 6154SOL    HW219362   5.802   3.086   2.998
 6155SOL     OW19363   2.892   1.393   2.891
 6155SOL    HW119364   2.896   1.473   2.951
 6155SOL    HW219365   2.981   1.347   2.892
 6156SOL     OW19366   4.341   5.165   1.490
 6156SOL    HW119367   4.320   5.134   1.397
 6156SOL    HW219368   4.426   5.217   1.489
 6157SOL     OW19369   0.785   2.257   2.964
 6157SOL    HW119370   0.761   2.352   2.982
 6157SOL    HW219371   0.773   2.204   3.048
 6158SOL     OW19372   3.616   2.282   0.569
 6158SOL    HW119373   3.714   2.261   0.566
 6158SOL    HW219374   3.603   2.381   0.563
 6159SOL     OW19375   4.674   2.442   0.761
 6159SOL    HW119376   4.593   2.388   0.738
 6159SOL    HW219377   4.725   2.396   0.834
 6160SOL     OW19378   6.529   6.949   6.429
 6160SOL    HW119379   6.545   6.992   6.341
 6160SOL    HW219380   6.511   7.019   6.498
 6161SOL     OW19381   5.151   0.997   0.409
 6161SOL    HW119382   5.242   0.982   0.448
 6161SOL    HW219383   5.100   1.060   0.468
 6162SOL     OW19384   6.266   6.267   3.892
 6162SOL    HW119385   6.254   6.366   3.901
 6162SOL    HW219386   6.338   6.248   3.826
 6163SOL     OW19387   5.588   5.703   2.316
 6163SOL    HW119388   5.542   5.787   2.342
 6163SOL    HW219389   5.521   5.628   2.313
 6164SOL     OW19390   3.580   4.183   4.966
 6164SOL    HW119391   3.678   4.170   4.979
 6164SOL    HW219392   3.536   4.197   5.055
 6165SOL     OW19393   3.741   1.941   6.004
 6165SOL    HW119394   3.712   1.849   6.028
 6165SOL    HW219395   3.762   1.946   5.907
 6166SOL     OW19396   5.890   1.767   0.467
 6166SOL    HW119397   5.971   1.727   0.509
 6166SOL    HW219398   5.810   1.713   0.492
 6167SOL     OW19399   0.181   4.723   3.059
 6167SOL    HW119400   0.096   4.699   3.013
 6167SOL    HW219401   0.192   4.667   3.141
 6168SOL     OW19402   1.023   2.917   3.396
 6168SOL    HW119403   0.971   2.833   3.381
 6168SOL    HW219404   0.964   2.996   3.381
 6169SOL     OW19405   1.023   1.429   6.675
 6169SOL    HW119406   0.970   1.509   6.646
 6169SOL    HW219407   1.116   1.437   6.640
 6170SOL     OW19408   2.865   4.023   5.599
 6170SOL    HW119409   2.857   3.973   5.686
 6170SOL    HW219410   2.866   3.958   5.523
 6171SOL     OW19411   1.504   3.475   1.504
 6171SOL    HW119412   1.439   3.533   1.455
 6171SOL    HW219413   1.596   3.512   1.494
 6172SOL     OW19414   0.602   0.534   2.785
 6172SOL    HW119415   0.505   0.560   2.792
 6172SOL    HW219416   0.658   0.617   2.780
 6173SOL     OW19417   0.042   4.981   2.597
 6173SOL    HW119418   0.030   5.080   2.591
 6173SOL    HW219419   0.056   4.944   2.505
 6174SOL     OW19420   6.067   5.069   3.014
 6174SOL    HW119421   6.090   5.105   2.924
 6174SOL    HW219422   6.053   4.970   3.008
 6175SOL     OW19423   4.963   0.073   3.802
 6175SOL    HW119424   4.914   0.019   3.733
 6175SOL    HW219425   5.050   0.103   3.764
 6176SOL     OW19426   6.437   2.948   6.997
 6176SOL    HW119427   6.363   2.881   6.991
 6176SOL    HW219428   6.525   2.901   6.988
 6177SOL     OW19429   5.947   1.478   1.111
 6177SOL    HW119430   5.987   1.427   1.035
 6177SOL    HW219431   5.851   1.451   1.121
 6178SOL     OW19432   4.710   5.522   2.195
 6178SOL    HW119433   4.786   5.459   2.179
 6178SOL    HW219434   4.661   5.494   2.278
 6179SOL     OW19435   6.754   4.480   4.835
 6179SOL    HW119436   6.707   4.473   4.747
 6179SOL    HW219437   6.852   4.467   4.822
 6180SOL     OW19438   3.153   6.480   6.373
 6180SOL    HW119439   3.205   6.478   6.459
 6180SOL    HW219440   3.152   6.389   6.332
 6181SOL     OW19441   4.738   6.364   1.203
 6181SOL    HW119442   4.832   6.395   1.187
 6181SOL    HW219443   4.693   6.425   1.268
 6182SOL     OW19444   5.654   4.026   5.311
 6182SOL    HW119445   5.662   3.995   5.217
 6182SOL    HW219446   5.561   4.010   5.344
 6183SOL     OW19447   2.797   0.062   3.124
 6183SOL    HW119448   2.756   0.068   3.033
 6183SOL    HW219449   2.873   7.023   3.123
 6184SOL     OW19450   2.402   6.560   5.998
 6184SOL    HW119451   2.411   6.656   6.025
 6184SOL    HW219452   2.465   6.504   6.051
 6185SOL     OW19453   1.342   5.026   6.503
 6185SOL    HW119454   1.400   4.944   6.500
 6185SOL    HW219455   1.395   5.105   6.471
 6186SOL     OW19456   5.851   0.061   4.294
 6186SOL    HW119457   5.793   0.137   4.323
 6186SOL    HW219458   5.804   6.999   4.312
 6187SOL     OW19459   4.665   4.588   4.383
 6187SOL    HW119460   4.639   4.599   4.479
 6187SOL    HW219461   4.765   4.586   4.375
 6188SOL     OW19462   1.967   6.786   1.247
 6188SOL    HW119463   2.012   6.707   1.289
 6188SOL    HW219464   1.977   6.866   1.306
 6189SOL     OW19465   4.543   4.518   3.969
 6189SOL    HW119466   4.479   4.510   4.046
 6189SOL    HW219467   4.627   4.561   4.001
 6190SOL     OW19468   6.450   3.625   6.043
 6190SOL    HW119469   6.445   3.710   5.990
 6190SOL    HW219470   6.525   3.569   6.010
 6191SOL     OW19471   4.510   2.940   0.061
 6191SOL    HW119472   4.453   2.931   0.142
 6191SOL    HW219473   4.606   2.927   0.087
 6192SOL     OW19474   3.129   3.306   0.379
 6192SOL    HW119475   3.038   3.347   0.375
 6192SOL    HW219476   3.122   3.211   0.411
 6193SOL     OW19477   5.427   1.122   2.798
 6193SOL    HW119478   5.340   1.079   2.774
 6193SOL    HW219479   5.464   1.168   2.717
 6194SOL     OW19480   1.586   6.676   0.123
 6194SOL    HW119481   1.592   6.764   0.171
 6194SOL    HW219482   1.527   6.687   0.043
 6195SOL     OW19483   3.482   5.490   5.373
 6195SOL    HW119484   3.466   5.580   5.413
 6195SOL    HW219485   3.444   5.487   5.280
 6196SOL     OW19486   5.403   2.335   1.192
 6196SOL    HW119487   5.459   2.335   1.275
 6196SOL    HW219488   5.449   2.282   1.121
 6197SOL     OW19489   4.166   3.892   0.244
 6197SOL    HW119490   4.132   3.941   0.164
 6197SOL    HW219491   4.224   3.952   0.298
 6198SOL     OW19492   3.191   5.299   2.393
 6198SOL    HW119493   3.199   5.253   2.482
 6198SOL    HW219494   3.218   5.237   2.320
 6199SOL     OW19495   0.655   0.047   1.179
 6199SOL    HW119496   0.644   6.980   1.215
 6199SOL    HW219497   0.753   0.068   1.169
 6200SOL     OW19498   1.849   1.001   5.639
 6200SOL    HW119499   1.938   1.014   5.596
 6200SOL    HW219500   1.854   0.925   5.705
 6201SOL     OW19501   1.676   4.005   5.422
 6201SOL    HW119502   1.750   3.943   5.398
 6201SOL    HW219503   1.594   3.982   5.369
 6202SOL     OW19504   3.800   1.994   1.492
 6202SOL    HW119505   3.748   2.040   1.564
 6202SOL    HW219506   3.872   2.056   1.459
 6203SOL     OW19507   5.720   7.000   3.610
 6203SOL    HW119508   5.665   0.043   3.658
 6203SOL    HW219509   5.678   6.979   3.522
 6204SOL     OW19510   0.435   5.140   5.384
 6204SOL    HW119511   0.357   5.116   5.443
 6204SOL    HW219512   0.520   5.127   5.435
 6205SOL     OW19513   5.346   6.179   0.180
 6205SOL    HW119514   5.420   6.231   0.222
 6205SOL    HW219515   5.348   6.084   0.213
 6206SOL     OW19516   5.971   0.350   2.885
 6206SOL    HW119517   5.980   0.257   2.850
 6206SOL    HW219518   6.009   0.414   2.818
 6207SOL     OW19519   1.679   4.243   4.092
 6207SOL    HW119520   1.779   4.245   4.084
 6207SOL    HW219521   1.652   4.166   4.150
 6208SOL     OW19522   6.102   1.191   6.655
 6208SOL    HW119523   6.011   1.196   6.613
 6208SOL    HW219524   6.166   1.248   6.602
 6209SOL     OW19525   4.794   5.395   6.771
 6209SOL    HW119526   4.731   5.319   6.790
 6209SOL    HW219527   4.750   5.482   6.793
 6210SOL     OW19528   6.120   4.968   3.651
 6210SOL    HW119529   6.085   4.899   3.713
 6210SOL    HW219530   6.052   5.040   3.638
 6211SOL     OW19531   3.330   6.578   4.381
 6211SOL    HW119532   3.310   6.491   4.335
 6211SOL    HW219533   3.392   6.632   4.325
 6212SOL     OW19534   2.095   5.077   3.252
 6212SOL    HW119535   2.135   5.040   3.168
 6212SOL    HW219536   2.154   5.148   3.289
 6213SOL     OW19537   4.785   0.322   6.724
 6213SOL    HW119538   4.747   0.404   6.681
 6213SOL    HW219539   4.884   0.321   6.712
 6214SOL     OW19540   5.051   4.595   3.267
 6214SOL    HW119541   5.105   4.527   3.217
 6214SOL    HW219542   5.090   4.608   3.358
 6215SOL     OW19543   4.005   1.855   6.736
 6215SOL    HW119544   4.006   1.878   6.834
 6215SOL    HW219545   3.971   1.762   6.724
 6216SOL     OW19546   6.557   2.345   2.208
 6216SOL    HW119547   6.643   2.392   2.225
 6216SOL    HW219548   6.512   2.385   2.128
 6217SOL     OW19549   0.128   2.820   2.838
 6217SOL    HW119550   0.057   2.752   2.854
 6217SOL    HW219551   0.127   2.849   2.742
 6218SOL     OW19552   3.324   5.176   4.993
 6218SOL    HW119553   3.294   5.087   4.958
 6218SOL    HW219554   3.244   5.233   5.013
 6219SOL     OW19555   1.260   2.062   4.591
 6219SOL    HW119556   1.331   2.109   4.644
 6219SOL    HW219557   1.173   2.109   4.604
 6220SOL     OW19558   1.110   3.406   5.447
 6220SOL    HW119559   1.036   3.373   5.388
 6220SOL    HW219560   1.190   3.427   5.392
 6221SOL     OW19561   6.297   6.128   6.717
 6221SOL    HW119562   6.258   6.218   6.697
 6221SOL    HW219563   6.224   6.064   6.741
 6222SOL     OW19564   0.730   6.552   0.964
 6222SOL    HW119565   0.765   6.637   0.925
 6222SOL    HW219566   0.792   6.520   1.036
 6223SOL     OW19567   0.354   4.361   4.949
 6223SOL    HW119568   0.334   4.447   4.903
 6223SOL    HW219569   0.445   4.329   4.920
 6224SOL     OW19570   2.535   2.068   6.472
 6224SOL    HW119571   2.481   2.081   6.389
 6224SOL    HW219572   2.519   1.976   6.508
 6225SOL     OW19573   3.105   2.886   1.388
 6225SOL    HW119574   3.025   2.849   1.435
 6225SOL    HW219575   3.170   2.921   1.456
 6226SOL     OW19576   5.495   1.942   5.078
 6226SOL    HW119577   5.466   2.035   5.100
 6226SOL    HW219578   5.415   1.887   5.054
 6227SOL     OW19579   3.307   5.500   5.783
 6227SOL    HW119580   3.371   5.445   5.728
 6227SOL    HW219581   3.355   5.539   5.861
 6228SOL     OW19582   0.370   2.828   2.609
 6228SOL    HW119583   0.361   2.927   2.624
 6228SOL    HW219584   0.456   2.796   2.650
 6229SOL     OW19585   0.672   2.636   2.487
 6229SOL    HW119586   0.722   2.550   2.480
 6229SOL    HW219587   0.626   2.655   2.400
 6230SOL     OW19588   1.226   1.313   4.155
 6230SOL    HW119589   1.177   1.343   4.236
 6230SOL    HW219590   1.232   1.389   4.090
 6231SOL     OW19591   6.840   4.894   1.236
 6231SOL    HW119592   6.890   4.807   1.238
 6231SOL    HW219593   6.790   4.901   1.149
 6232SOL     OW19594   6.083   2.136   0.907
 6232SOL    HW119595   6.012   2.087   0.957
 6232SOL    HW219596   6.044   2.218   0.864
 6233SOL     OW19597   5.611   1.059   7.022
 6233SOL    HW119598   5.705   1.029   7.003
 6233SOL    HW219599   5.610   1.109   0.083
 6234SOL     OW19600   6.806   1.129   5.709
 6234SOL    HW119601   6.802   1.048   5.767
 6234SOL    HW219602   6.898   1.170   5.715
 6235SOL     OW19603   1.315   0.362   2.086
 6235SOL    HW119604   1.229   0.390   2.043
 6235SOL    HW219605   1.320   0.262   2.087
 6236SOL     OW19606   0.740   4.356   0.238
 6236SOL    HW119607   0.786   4.305   0.311
 6236SOL    HW219608   0.806   4.379   0.167
 6237SOL     OW19609   3.314   6.012   6.550
 6237SOL    HW119610   3.409   6.002   6.519
 6237SOL    HW219611   3.253   5.962   6.489
 6238SOL     OW19612   4.005   5.059   3.287
 6238SOL    HW119613   4.092   5.016   3.261
 6238SOL    HW219614   3.945   4.991   3.329
 6239SOL     OW19615   3.052   6.153   1.954
 6239SOL    HW119616   3.114   6.169   2.030
 6239SOL    HW219617   2.991   6.231   1.943
 6240SOL     OW19618   2.886   3.068   6.471
 6240SOL    HW119619   2.924   2.995   6.414
 6240SOL    HW219620   2.787   3.054   6.482
 6241SOL     OW19621   2.885   0.272   1.747
 6241SOL    HW119622   2.871   0.325   1.831
 6241SOL    HW219623   2.798   0.265   1.697
 6242SOL     OW19624   5.170   0.454   3.497
 6242SOL    HW119625   5.214   0.537   3.529
 6242SOL    HW219626   5.097   0.427   3.559
 6243SOL     OW19627   5.800   6.715   3.703
 6243SOL    HW119628   5.803   6.721   3.803
 6243SOL    HW219629   5.769   6.803   3.666
 6244SOL     OW19630   1.661   2.185   2.284
 6244SOL    HW119631   1.754   2.222   2.282
 6244SOL    HW219632   1.658   2.106   2.345
 6245SOL     OW19633   1.738   4.587   0.595
 6245SOL    HW119634   1.640   4.571   0.607
 6245SOL    HW219635   1.781   4.506   0.555
 6246SOL     OW19636   1.758   2.971   5.891
 6246SOL    HW119637   1.851   2.969   5.927
 6246SOL    HW219638   1.745   3.053   5.836
 6247SOL     OW19639   1.294   6.694   3.489
 6247SOL    HW119640   1.319   6.666   3.396
 6247SOL    HW219641   1.277   6.612   3.545
 6248SOL     OW19642   2.830   4.105   0.849
 6248SOL    HW119643   2.894   4.179   0.868
 6248SOL    HW219644   2.878   4.032   0.799
 6249SOL     OW19645   0.999   3.828   0.317
 6249SOL    HW119646   1.073   3.879   0.274
 6249SOL    HW219647   0.996   3.848   0.415
 6250SOL     OW19648   6.916   6.317   0.311
 6250SOL    HW119649   6.883   6.287   0.400
 6250SOL    HW219650   6.919   6.417   0.309
 6251SOL     OW19651   3.542   6.112   0.053
 6251SOL    HW119652   3.493   6.180   7.023
 6251SOL    HW219653   3.625   6.085   0.004
 6252SOL     OW19654   1.403   6.917   6.008
 6252SOL    HW119655   1.326   6.869   6.052
 6252SOL    HW219656   1.368   6.971   5.931
 6253SOL     OW19657   2.092   3.817   2.524
 6253SOL    HW119658   2.103   3.788   2.429
 6253SOL    HW219659   2.064   3.913   2.527
 6254SOL     OW19660   4.691   1.235   0.486
 6254SOL    HW119661   4.706   1.272   0.578
 6254SOL    HW219662   4.595   1.248   0.461
 6255SOL     OW19663   2.591   0.720   1.288
 6255SOL    HW119664   2.560   0.710   1.193
 6255SOL    HW219665   2.563   0.809   1.323
 6256SOL     OW19666   3.232   5.289   2.665
 6256SOL    HW119667   3.222   5.387   2.646
 6256SOL    HW219668   3.168   5.262   2.736
 6257SOL     OW19669   4.962   2.282   0.678
 6257SOL    HW119670   4.877   2.312   0.634
 6257SOL    HW219671   5.023   2.241   0.611
 6258SOL     OW19672   4.252   6.973   3.936
 6258SOL    HW119673   4.262   0.023   4.001
 6258SOL    HW219674   4.326   6.976   3.868
 6259SOL     OW19675   2.968   2.730   0.684
 6259SOL    HW119676   2.978   2.708   0.781
 6259SOL    HW219677   2.894   2.796   0.673
 6260SOL     OW19678   2.755   5.152   0.142
 6260SOL    HW119679   2.771   5.218   0.215
 6260SOL    HW219680   2.829   5.084   0.142
 6261SOL     OW19681   3.794   0.358   6.517
 6261SOL    HW119682   3.778   0.425   6.444
 6261SOL    HW219683   3.891   0.360   6.542
 6262SOL     OW19684   1.521   4.604   0.933
 6262SOL    HW119685   1.477   4.596   0.844
 6262SOL    HW219686   1.585   4.682   0.932
 6263SOL     OW19687   0.093   0.642   5.637
 6263SOL    HW119688   0.135   0.636   5.547
 6263SOL    HW219689   7.019   0.650   5.627
 6264SOL     OW19690   1.402   0.146   1.536
 6264SOL    HW119691   1.302   0.154   1.538
 6264SOL    HW219692   1.428   0.054   1.509
 6265SOL     OW19693   2.904   4.441   0.604
 6265SOL    HW119694   2.957   4.518   0.565
 6265SOL    HW219695   2.898   4.452   0.703
 6266SOL     OW19696   3.733   0.511   4.485
 6266SOL    HW119697   3.706   0.419   4.514
 6266SOL    HW219698   3.706   0.577   4.555
 6267SOL     OW19699   2.692   0.231   6.851
 6267SOL    HW119700   2.628   0.280   6.911
 6267SOL    HW219701   2.780   0.279   6.851
 6268SOL     OW19702   3.447   6.367   3.340
 6268SOL    HW119703   3.535   6.357   3.386
 6268SOL    HW219704   3.452   6.443   3.274
 6269SOL     OW19705   6.845   5.811   1.693
 6269SOL    HW119706   6.938   5.783   1.669
 6269SOL    HW219707   6.781   5.779   1.623
 6270SOL     OW19708   1.746   0.340   5.323
 6270SOL    HW119709   1.822   0.276   5.321
 6270SOL    HW219710   1.673   0.303   5.381
 6271SOL     OW19711   5.307   2.433   5.814
 6271SOL    HW119712   5.217   2.436   5.857
 6271SOL    HW219713   5.296   2.435   5.714
 6272SOL     OW19714   0.743   2.410   6.212
 6272SOL    HW119715   0.792   2.410   6.299
 6272SOL    HW219716   0.793   2.356   6.144
 6273SOL     OW19717   2.513   0.157   2.608
 6273SOL    HW119718   2.447   0.104   2.555
 6273SOL    HW219719   2.465   0.211   2.676
 6274SOL     OW19720   2.290   5.513   5.940
 6274SOL    HW119721   2.281   5.613   5.937
 6274SOL    HW219722   2.324   5.486   6.031
 6275SOL     OW19723   2.000   6.340   5.024
 6275SOL    HW119724   1.921   6.401   5.032
 6275SOL    HW219725   2.044   6.354   4.935
 6276SOL     OW19726   1.994   5.115   3.822
 6276SOL    HW119727   1.926   5.115   3.896
 6276SOL    HW219728   2.081   5.079   3.856
 6277SOL     OW19729   5.348   3.409   1.293
 6277SOL    HW119730   5.444   3.385   1.276
 6277SOL    HW219731   5.333   3.504   1.267
 6278SOL     OW19732   4.845   6.801   4.737
 6278SOL    HW119733   4.906   6.722   4.739
 6278SOL    HW219734   4.840   6.842   4.829
 6279SOL     OW19735   3.607   0.784   6.564
 6279SOL    HW119736   3.511   0.808   6.571
 6279SOL    HW219737   3.619   0.711   6.497
 6280SOL     OW19738   0.648   2.684   5.307
 6280SOL    HW119739   0.677   2.698   5.212
 6280SOL    HW219740   0.699   2.608   5.346
 6281SOL     OW19741   1.576   5.315   4.248
 6281SOL    HW119742   1.526   5.237   4.285
 6281SOL    HW219743   1.541   5.399   4.290
 6282SOL     OW19744   1.107   0.424   4.748
 6282SOL    HW119745   1.105   0.374   4.662
 6282SOL    HW219746   1.025   0.403   4.801
 6283SOL     OW19747   6.564   3.578   5.757
 6283SOL    HW119748   6.582   3.496   5.809
 6283SOL    HW219749   6.648   3.631   5.746
 6284SOL     OW19750   2.055   5.614   4.966
 6284SOL    HW119751   2.093   5.567   4.886
 6284SOL    HW219752   1.955   5.612   4.961
 6285SOL     OW19753   0.672   2.900   3.791
 6285SOL    HW119754   0.635   2.808   3.776
 6285SOL    HW219755   0.746   2.917   3.726
 6286SOL     OW19756   6.764   1.764   3.923
 6286SOL    HW119757   6.781   1.801   3.831
 6286SOL    HW219758   6.829   1.805   3.987
 6287SOL     OW19759   3.733   5.292   3.494
 6287SOL    HW119760   3.765   5.207   3.451
 6287SOL    HW219761   3.683   5.347   3.427
 6288SOL     OW19762   5.974   4.826   2.686
 6288SOL    HW119763   5.948   4.919   2.662
 6288SOL    HW219764   5.943   4.805   2.778
 6289SOL     OW19765   1.277   4.921   2.401
 6289SOL    HW119766   1.281   4.914   2.501
 6289SOL    HW219767   1.336   4.996   2.370
 6290SOL     OW19768   6.039   3.344   4.220
 6290SOL    HW119769   5.954   3.372   4.177
 6290SOL    HW219770   6.098   3.300   4.152
 6291SOL     OW19771   3.768   3.183   4.187
 6291SOL    HW119772   3.685   3.223   4.227
 6291SOL    HW219773   3.753   3.085   4.171
 6292SOL     OW19774   1.806   2.225   3.680
 6292SOL    HW119775   1.709   2.246   3.693
 6292SOL    HW219776   1.838   2.266   3.594
 6293SOL     OW19777   4.097   0.437   0.112
 6293SOL    HW119778   4.187   0.394   0.113
 6293SOL    HW219779   4.051   0.422   0.200
 6294SOL     OW19780   3.894   5.076   3.939
 6294SOL    HW119781   3.945   5.015   4.000
 6294SOL    HW219782   3.848   5.147   3.993
 6295SOL     OW19783   5.196   5.331   5.680
 6295SOL    HW119784   5.173   5.238   5.710
 6295SOL    HW219785   5.185   5.337   5.580
 6296SOL     OW19786   6.865   6.809   5.142
 6296SOL    HW119787   6.792   6.761   5.093
 6296SOL    HW219788   6.904   6.748   5.212
 6297SOL     OW19789   4.475   0.050   5.349
 6297SOL    HW119790   4.489   0.005   5.260
 6297SOL    HW219791   4.380   0.078   5.358
 6298SOL     OW19792   1.577   2.558   5.765
 6298SOL    HW119793   1.478   2.552   5.752
 6298SOL    HW219794   1.614   2.632   5.709
 6299SOL     OW19795   5.260   1.734   0.582
 6299SOL    HW119796   5.278   1.715   0.679
 6299SOL    HW219797   5.341   1.778   0.542
 6300SOL     OW19798   5.010   0.426   6.437
 6300SOL    HW119799   5.078   0.411   6.365
 6300SOL    HW219800   4.920   0.439   6.396
 6301SOL     OW19801   3.396   0.650   1.074
 6301SOL    HW119802   3.422   0.598   0.993
 6301SOL    HW219803   3.326   0.718   1.049
 6302SOL     OW19804   1.515   1.687   4.169
 6302SOL    HW119805   1.598   1.644   4.132
 6302SOL    HW219806   1.519   1.786   4.152
 6303SOL     OW19807   2.295   1.016   4.626
 6303SOL    HW119808   2.318   1.088   4.560
 6303SOL    HW219809   2.214   1.043   4.678
 6304SOL     OW19810   2.482   1.173   0.912
 6304SOL    HW119811   2.446   1.116   0.985
 6304SOL    HW219812   2.580   1.155   0.899
 6305SOL     OW19813   6.260   6.883   1.648
 6305SOL    HW119814   6.263   6.790   1.683
 6305SOL    HW219815   6.306   6.944   1.713
 6306SOL     OW19816   1.234   3.386   4.197
 6306SOL    HW119817   1.318   3.441   4.191
 6306SOL    HW219818   1.234   3.334   4.282
 6307SOL     OW19819   3.997   4.479   5.703
 6307SOL    HW119820   4.084   4.518   5.732
 6307SOL    HW219821   3.924   4.544   5.722
 6308SOL     OW19822   1.974   1.823   4.668
 6308SOL    HW119823   1.978   1.725   4.689
 6308SOL    HW219824   1.879   1.847   4.645
 6309SOL     OW19825   5.186   3.972   4.478
 6309SOL    HW119826   5.218   4.015   4.563
 6309SOL    HW219827   5.183   3.873   4.490
 6310SOL     OW19828   2.115   5.661   3.249
 6310SOL    HW119829   2.170   5.698   3.173
 6310SOL    HW219830   2.154   5.574   3.279
 6311SOL     OW19831   5.630   0.042   5.386
 6311SOL    HW119832   5.538   0.073   5.360
 6311SOL    HW219833   5.689   0.122   5.400
 6312SOL     OW19834   5.765   5.177   5.834
 6312SOL    HW119835   5.777   5.080   5.815
 6312SOL    HW219836   5.756   5.227   5.748
 6313SOL     OW19837   1.265   5.996   3.571
 6313SOL    HW119838   1.204   6.071   3.543
 6313SOL    HW219839   1.259   5.984   3.670
 6314SOL     OW19840   3.841   6.640   1.309
 6314SOL    HW119841   3.797   6.654   1.398
 6314SOL    HW219842   3.790   6.690   1.239
 6315SOL     OW19843   3.880   3.187   6.163
 6315SOL    HW119844   3.941   3.123   6.209
 6315SOL    HW219845   3.862   3.265   6.222
 6316SOL     OW19846   4.778   1.734   6.573
 6316SOL    HW119847   4.724   1.651   6.585
 6316SOL    HW219848   4.760   1.772   6.482
 6317SOL     OW19849   5.304   5.273   3.099
 6317SOL    HW119850   5.251   5.188   3.093
 6317SOL    HW219851   5.257   5.345   3.048
 6318SOL     OW19852   2.790   2.216   4.710
 6318SOL    HW119853   2.862   2.185   4.773
 6318SOL    HW219854   2.764   2.142   4.649
 6319SOL     OW19855   0.235   2.082   3.651
 6319SOL    HW119856   0.180   2.031   3.584
 6319SOL    HW219857   0.175   2.142   3.705
 6320SOL     OW19858   6.010   5.153   5.300
 6320SOL    HW119859   6.031   5.212   5.222
 6320SOL    HW219860   5.921   5.110   5.286
 6321SOL     OW19861   3.409   4.551   0.918
 6321SOL    HW119862   3.425   4.479   0.850
 6321SOL    HW219863   3.439   4.639   0.881
 6322SOL     OW19864   1.555   2.264   6.732
 6322SOL    HW119865   1.519   2.328   6.800
 6322SOL    HW219866   1.591   2.315   6.654
 6323SOL     OW19867   3.218   2.678   1.569
 6323SOL    HW119868   3.171   2.666   1.481
 6323SOL    HW219869   3.185   2.609   1.633
 6324SOL     OW19870   4.941   6.933   6.516
 6324SOL    HW119871   4.846   6.957   6.493
 6324SOL    HW219872   4.992   7.016   6.538
 6325SOL     OW19873   2.104   1.801   2.247
 6325SOL    HW119874   2.192   1.847   2.237
 6325SOL    HW219875   2.030   1.867   2.229
 6326SOL     OW19876   4.795   5.813   1.855
 6326SOL    HW119877   4.746   5.757   1.787
 6326SOL    HW219878   4.838   5.754   1.922
 6327SOL     OW19879   0.170   0.654   4.931
 6327SOL    HW119880   0.202   0.738   4.889
 6327SOL    HW219881   0.242   0.615   4.988
 6328SOL     OW19882   2.071   3.796   0.663
 6328SOL    HW119883   2.134   3.810   0.587
 6328SOL    HW219884   2.111   3.730   0.727
 6329SOL     OW19885   2.464   2.561   3.309
 6329SOL    HW119886   2.484   2.581   3.405
 6329SOL    HW219887   2.365   2.566   3.294
 6330SOL     OW19888   4.488   1.468   1.242
 6330SOL    HW119889   4.537   1.555   1.248
 6330SOL    HW219890   4.546   1.395   1.278
 6331SOL     OW19891   5.968   2.178   0.158
 6331SOL    HW119892   5.908   2.105   0.191
 6331SOL    HW219893   6.048   2.139   0.113
 6332SOL     OW19894   6.491   3.889   1.858
 6332SOL    HW119895   6.511   3.798   1.822
 6332SOL    HW219896   6.546   3.957   1.808
 6333SOL     OW19897   4.090   5.245   4.275
 6333SOL    HW119898   4.125   5.322   4.222
 6333SOL    HW219899   4.059   5.278   4.364
 6334SOL     OW19900   2.936   6.916   2.277
 6334SOL    HW119901   3.022   6.964   2.259
 6334SOL    HW219902   2.881   6.914   2.194
 6335SOL     OW19903   4.697   1.661   0.286
 6335SOL    HW119904   4.697   1.761   0.292
 6335SOL    HW219905   4.603   1.628   0.279
 6336SOL     OW19906   0.522   1.795   6.506
 6336SOL    HW119907   0.492   1.854   6.431
 6336SOL    HW219908   0.564   1.851   6.578
 6337SOL     OW19909   4.668   4.522   6.140
 6337SOL    HW119910   4.653   4.517   6.239
 6337SOL    HW219911   4.765   4.507   6.121
 6338SOL     OW19912   3.575   2.062   2.823
 6338SOL    HW119913   3.583   2.044   2.921
 6338SOL    HW219914   3.603   1.980   2.772
 6339SOL     OW19915   1.538   3.017   2.854
 6339SOL    HW119916   1.608   3.053   2.792
 6339SOL    HW219917   1.452   3.066   2.841
 6340SOL     OW19918   1.548   4.710   2.964
 6340SOL    HW119919   1.521   4.734   2.871
 6340SOL    HW219920   1.467   4.692   3.019
 6341SOL     OW19921   0.673   4.310   3.944
 6341SOL    HW119922   0.600   4.377   3.961
 6341SOL    HW219923   0.664   4.274   3.851
 6342SOL     OW19924   2.542   1.880   1.778
 6342SOL    HW119925   2.510   1.902   1.870
 6342SOL    HW219926   2.632   1.836   1.784
 6343SOL     OW19927   4.946   2.595   6.597
 6343SOL    HW119928   4.968   2.515   6.653
 6343SOL    HW219929   4.858   2.580   6.551
 6344SOL     OW19930   5.730   3.644   5.100
 6344SOL    HW119931   5.772   3.733   5.120
 6344SOL    HW219932   5.738   3.624   5.003
 6345SOL     OW19933   4.480   2.011   2.219
 6345SOL    HW119934   4.530   1.951   2.156
 6345SOL    HW219935   4.510   2.106   2.205
 6346SOL     OW19936   6.715   4.405   3.782
 6346SOL    HW119937   6.644   4.458   3.735
 6346SOL    HW219938   6.728   4.318   3.734
 6347SOL     OW19939   1.815   0.240   1.758
 6347SOL    HW119940   1.883   0.171   1.782
 6347SOL    HW219941   1.855   0.331   1.771
 6348SOL     OW19942   1.443   3.885   5.236
 6348SOL    HW119943   1.438   3.978   5.199
 6348SOL    HW219944   1.373   3.829   5.192
 6349SOL     OW19945   3.289   0.078   1.349
 6349SOL    HW119946   3.274   0.042   1.257
 6349SOL    HW219947   3.385   0.104   1.360
 6350SOL     OW19948   2.626   4.736   4.228
 6350SOL    HW119949   2.596   4.682   4.307
 6350SOL    HW219950   2.712   4.783   4.251
 6351SOL     OW19951   6.508   3.433   3.160
 6351SOL    HW119952   6.561   3.500   3.212
 6351SOL    HW219953   6.410   3.447   3.176
 6352SOL     OW19954   2.662   5.480   4.793
 6352SOL    HW119955   2.724   5.477   4.871
 6352SOL    HW219956   2.582   5.537   4.816
 6353SOL     OW19957   6.713   1.079   6.060
 6353SOL    HW119958   6.653   1.049   6.134
 6353SOL    HW219959   6.668   1.153   6.009
 6354SOL     OW19960   1.764   0.079   2.675
 6354SOL    HW119961   1.722   7.021   2.639
 6354SOL    HW219962   1.779   0.143   2.599
 6355SOL     OW19963   1.295   5.368   5.902
 6355SOL    HW119964   1.286   5.415   5.989
 6355SOL    HW219965   1.315   5.435   5.830
 6356SOL     OW19966   3.614   4.881   3.097
 6356SOL    HW119967   3.532   4.880   3.041
 6356SOL    HW219968   3.591   4.857   3.191
 6357SOL     OW19969   5.182   2.885   2.337
 6357SOL    HW119970   5.185   2.978   2.300
 6357SOL    HW219971   5.273   2.857   2.365
 6358SOL     OW19972   1.437   2.087   6.034
 6358SOL    HW119973   1.448   1.998   6.077
 6358SOL    HW219974   1.484   2.156   6.088
 6359SOL     OW19975   6.239   6.734   5.539
 6359SOL    HW119976   6.323   6.745   5.486
 6359SOL    HW219977   6.239   6.798   5.615
 6360SOL     OW19978   1.717   3.750   4.160
 6360SOL    HW119979   1.683   3.717   4.248
 6360SOL    HW219980   1.813   3.776   4.170
 6361SOL     OW19981   6.226   0.345   0.330
 6361SOL    HW119982   6.297   0.401   0.372
 6361SOL    HW219983   6.163   0.403   0.279
 6362SOL     OW19984   6.874   5.808   6.694
 6362SOL    HW119985   6.874   5.902   6.659
 6362SOL    HW219986   6.928   5.750   6.633
 6363SOL     OW19987   2.244   4.227   3.229
 6363SOL    HW119988   2.289   4.185   3.149
 6363SOL    HW219989   2.149   4.247   3.207
 6364SOL     OW19990   3.530   1.514   5.939
 6364SOL    HW119991   3.465   1.537   6.012
 6364SOL    HW219992   3.568   1.423   5.957
 6365SOL     OW19993   5.731   6.465   4.499
 6365SOL    HW119994   5.758   6.554   4.535
 6365SOL    HW219995   5.716   6.471   4.401
 6366SOL     OW19996   0.916   5.788   6.611
 6366SOL    HW119997   0.974   5.868   6.624
 6366SOL    HW219998   0.864   5.799   6.526
 6367SOL     OW19999   3.998   0.433   4.157
 6367SOL    HW120000   3.967   0.411   4.250
 6367SOL    HW220001   4.096   0.415   4.149
 6368SOL     OW20002   3.572   6.528   3.693
 6368SOL    HW120003   3.543   6.542   3.788
 6368SOL    HW220004   3.609   6.436   3.683
 6369SOL     OW20005   2.362   4.979   4.702
 6369SOL    HW120006   2.384   4.927   4.785
 6369SOL    HW220007   2.408   4.938   4.623
 6370SOL     OW20008   0.954   3.216   2.468
 6370SOL    HW120009   0.968   3.146   2.539
 6370SOL    HW220010   0.913   3.297   2.509
 6371SOL     OW20011   5.205   3.359   4.098
 6371SOL    HW120012   5.196   3.279   4.038
 6371SOL    HW220013   5.115   3.389   4.127
 6372SOL     OW20014   3.640   0.240   2.073
 6372SOL    HW120015   3.650   0.338   2.085
 6372SOL    HW220016   3.612   0.219   1.979
 6373SOL     OW20017   5.527   4.363   3.468
 6373SOL    HW120018   5.460   4.393   3.536
 6373SOL    HW220019   5.595   4.435   3.455
 6374SOL     OW20020   3.459   4.212   4.441
 6374SOL    HW120021   3.397   4.290   4.429
 6374SOL    HW220022   3.493   4.211   4.535
 6375SOL     OW20023   0.128   1.768   3.982
 6375SOL    HW120024   0.227   1.770   4.002
 6375SOL    HW220025   0.111   1.705   3.906
 6376SOL     OW20026   6.345   2.679   5.301
 6376SOL    HW120027   6.365   2.675   5.399
 6376SOL    HW220028   6.267   2.621   5.280
 6377SOL     OW20029   6.462   1.764   5.409
 6377SOL    HW120030   6.486   1.752   5.313
 6377SOL    HW220031   6.528   1.715   5.466
 6378SOL     OW20032   5.418   4.920   3.658
 6378SOL    HW120033   5.476   4.982   3.711
 6378SOL    HW220034   5.399   4.960   3.568
 6379SOL     OW20035   2.288   4.184   4.298
 6379SOL    HW120036   2.248   4.172   4.208
 6379SOL    HW220037   2.229   4.142   4.367
 6380SOL     OW20038   0.747   1.396   6.333
 6380SOL    HW120039   0.803   1.405   6.415
 6380SOL    HW220040   0.684   1.319   6.342
 6381SOL     OW20041   4.133   3.426   2.109
 6381SOL    HW120042   4.118   3.330   2.087
 6381SOL    HW220043   4.155   3.477   2.026
 6382SOL     OW20044   1.087   2.639   0.320
 6382SOL    HW120045   1.003   2.681   0.353
 6382SOL    HW220046   1.101   2.552   0.366
 6383SOL     OW20047   1.942   2.083   2.862
 6383SOL    HW120048   1.948   1.985   2.881
 6383SOL    HW220049   1.961   2.100   2.766
 6384SOL     OW20050   5.191   4.123   1.140
 6384SOL    HW120051   5.224   4.065   1.065
 6384SOL    HW220052   5.094   4.102   1.157
 6385SOL     OW20053   6.672   4.504   4.582
 6385SOL    HW120054   6.591   4.475   4.633
 6385SOL    HW220055   6.688   4.440   4.506
 6386SOL     OW20056   2.555   4.417   6.585
 6386SOL    HW120057   2.627   4.367   6.536
 6386SOL    HW220058   2.576   4.420   6.682
 6387SOL     OW20059   0.660   1.383   6.873
 6387SOL    HW120060   0.687   1.359   6.966
 6387SOL    HW220061   0.717   1.458   6.841
 6388SOL     OW20062   3.997   4.678   0.987
 6388SOL    HW120063   4.096   4.673   0.970
 6388SOL    HW220064   3.981   4.707   1.081
 6389SOL     OW20065   0.751   6.201   2.439
 6389SOL    HW120066   0.771   6.293   2.403
 6389SOL    HW220067   0.696   6.209   2.522
 6390SOL     OW20068   1.364   2.258   4.770
 6390SOL    HW120069   1.320   2.246   4.859
 6390SOL    HW220070   1.295   2.284   4.703
 6391SOL     OW20071   3.148   0.079   6.077
 6391SOL    HW120072   3.053   0.076   6.047
 6391SOL    HW220073   3.152   0.104   6.174
 6392SOL     OW20074   2.474   0.102   3.492
 6392SOL    HW120075   2.512   0.142   3.575
 6392SOL    HW220076   2.416   0.025   3.515
 6393SOL     OW20077   5.810   7.013   1.217
 6393SOL    HW120078   5.742   6.966   1.274
 6393SOL    HW220079   5.808   0.086   1.238
 6394SOL     OW20080   2.598   4.626   1.118
 6394SOL    HW120081   2.571   4.587   1.206
 6394SOL    HW220082   2.575   4.723   1.116
 6395SOL     OW20083   6.330   2.732   1.606
 6395SOL    HW120084   6.349   2.644   1.562
 6395SOL    HW220085   6.232   2.746   1.612
 6396SOL     OW20086   5.386   3.012   6.643
 6396SOL    HW120087   5.343   3.011   6.553
 6396SOL    HW220088   5.439   2.928   6.655
 6397SOL     OW20089   5.771   2.516   6.448
 6397SOL    HW120090   5.676   2.526   6.476
 6397SOL    HW220091   5.807   2.604   6.418
 6398SOL     OW20092   3.180   0.792   0.989
 6398SOL    HW120093   3.192   0.749   0.900
 6398SOL    HW220094   3.124   0.734   1.048
 6399SOL     OW20095   1.637   5.263   6.677
 6399SOL    HW120096   1.663   5.293   6.768
 6399SOL    HW220097   1.672   5.171   6.660
 6400SOL     OW20098   2.291   5.968   2.601
 6400SOL    HW120099   2.326   5.925   2.518
 6400SOL    HW220100   2.331   6.058   2.612
 6401SOL     OW20101   0.236   4.643   3.420
 6401SOL    HW120102   0.209   4.732   3.386
 6401SOL    HW220103   0.247   4.647   3.520
 6402SOL     OW20104   4.130   0.824   3.139
 6402SOL    HW120105   4.108   0.867   3.051
 6402SOL    HW220106   4.059   0.758   3.163
 6403SOL     OW20107   0.349   6.476   6.281
 6403SOL    HW120108   0.376   6.518   6.368
 6403SOL    HW220109   0.322   6.548   6.217
 6404SOL     OW20110   3.906   1.142   3.136
 6404SOL    HW120111   3.969   1.157   3.059
 6404SOL    HW220112   3.823   1.195   3.121
 6405SOL     OW20113   2.037   1.127   3.358
 6405SOL    HW120114   2.086   1.081   3.431
 6405SOL    HW220115   1.954   1.076   3.336
 6406SOL     OW20116   2.064   2.654   3.602
 6406SOL    HW120117   2.035   2.643   3.697
 6406SOL    HW220118   2.097   2.567   3.567
 6407SOL     OW20119   3.264   0.274   3.065
 6407SOL    HW120120   3.223   0.188   3.032
 6407SOL    HW220121   3.219   0.302   3.149
 6408SOL     OW20122   6.011   2.478   6.924
 6408SOL    HW120123   6.008   2.511   7.018
 6408SOL    HW220124   6.006   2.378   6.924
 6409SOL     OW20125   0.341   4.950   3.056
 6409SOL    HW120126   0.400   4.913   2.984
 6409SOL    HW220127   0.271   4.882   3.079
 6410SOL     OW20128   2.092   1.132   0.351
 6410SOL    HW120129   2.146   1.193   0.409
 6410SOL    HW220130   2.046   1.064   0.408
 6411SOL     OW20131   0.219   2.334   3.020
 6411SOL    HW120132   0.211   2.271   3.098
 6411SOL    HW220133   0.179   2.422   3.044
 6412SOL     OW20134   6.893   3.286   5.327
 6412SOL    HW120135   6.896   3.193   5.363
 6412SOL    HW220136   6.855   3.284   5.234
 6413SOL     OW20137   4.798   4.665   3.220
 6413SOL    HW120138   4.891   4.628   3.229
 6413SOL    HW220139   4.759   4.635   3.133
 6414SOL     OW20140   6.025   0.816   1.658
 6414SOL    HW120141   6.061   0.743   1.716
 6414SOL    HW220142   6.080   0.825   1.576
 6415SOL     OW20143   2.250   2.034   2.948
 6415SOL    HW120144   2.237   2.042   2.849
 6415SOL    HW220145   2.347   2.040   2.970
 6416SOL     OW20146   1.483   1.367   6.169
 6416SOL    HW120147   1.534   1.341   6.088
 6416SOL    HW220148   1.444   1.458   6.157
 6417SOL     OW20149   6.993   4.574   2.099
 6417SOL    HW120150   6.986   4.674   2.099
 6417SOL    HW220151   0.062   4.548   2.123
 6418SOL     OW20152   4.852   4.605   2.032
 6418SOL    HW120153   4.758   4.622   2.002
 6418SOL    HW220154   4.850   4.545   2.112
 6419SOL     OW20155   2.270   4.535   2.626
 6419SOL    HW120156   2.369   4.552   2.624
 6419SOL    HW220157   2.223   4.618   2.656
 6420SOL     OW20158   2.668   3.765   5.784
 6420SOL    HW120159   2.759   3.795   5.814
 6420SOL    HW220160   2.665   3.665   5.784
 6421SOL     OW20161   5.415   1.285   2.204
 6421SOL    HW120162   5.413   1.202   2.149
 6421SOL    HW220163   5.494   1.341   2.177
 6422SOL     OW20164   6.998   0.575   4.160
 6422SOL    HW120165   0.073   0.572   4.170
 6422SOL    HW220166   6.969   0.669   4.143
 6423SOL     OW20167   4.777   5.251   2.423
 6423SOL    HW120168   4.821   5.331   2.465
 6423SOL    HW220169   4.815   5.236   2.332
 6424SOL     OW20170   6.757   5.868   5.546
 6424SOL    HW120171   6.844   5.852   5.593
 6424SOL    HW220172   6.696   5.790   5.560
 6425SOL     OW20173   6.455   5.632   3.154
 6425SOL    HW120174   6.399   5.610   3.074
 6425SOL    HW220175   6.533   5.569   3.158
 6426SOL     OW20176   0.428   4.909   3.452
 6426SOL    HW120177   0.504   4.858   3.412
 6426SOL    HW220178   0.413   4.878   3.546
 6427SOL     OW20179   2.225   2.970   6.609
 6427SOL    HW120180   2.197   3.056   6.568
 6427SOL    HW220181   2.280   2.988   6.691
 6428SOL     OW20182   6.856   3.255   0.539
 6428SOL    HW120183   6.840   3.334   0.481
 6428SOL    HW220184   6.769   3.215   0.568
 6429SOL     OW20185   0.559   1.528   5.526
 6429SOL    HW120186   0.468   1.497   5.498
 6429SOL    HW220187   0.599   1.585   5.454
 6430SOL     OW20188   5.141   1.088   2.445
 6430SOL    HW120189   5.193   1.042   2.372
 6430SOL    HW220190   5.060   1.130   2.405
 6431SOL     OW20191   5.460   6.516   3.373
 6431SOL    HW120192   5.467   6.523   3.473
 6431SOL    HW220193   5.433   6.604   3.335
 6432SOL     OW20194   4.450   3.755   6.924
 6432SOL    HW120195   4.403   3.712   7.001
 6432SOL    HW220196   4.385   3.772   6.850
 6433SOL     OW20197   3.580   4.561   0.466
 6433SOL    HW120198   3.633   4.540   0.384
 6433SOL    HW220199   3.638   4.608   0.532
 6434SOL     OW20200   2.055   3.644   0.022
 6434SOL    HW120201   2.040   3.641   0.121
 6434SOL    HW220202   2.153   3.657   0.004
 6435SOL     OW20203   4.254   6.255   6.262
 6435SOL    HW120204   4.164   6.293   6.283
 6435SOL    HW220205   4.255   6.221   6.168
 6436SOL     OW20206   2.087   3.556   3.775
 6436SOL    HW120207   1.988   3.548   3.763
 6436SOL    HW220208   2.120   3.638   3.728
 6437SOL     OW20209   2.402   0.985   1.083
 6437SOL    HW120210   2.466   0.965   1.158
 6437SOL    HW220211   2.355   0.901   1.056
 6438SOL     OW20212   0.700   4.829   6.315
 6438SOL    HW120213   0.735   4.875   6.396
 6438SOL    HW220214   0.650   4.894   6.258
 6439SOL     OW20215   6.570   0.310   1.701
 6439SOL    HW120216   6.593   0.309   1.799
 6439SOL    HW220217   6.601   0.396   1.661
 6440SOL     OW20218   2.213   1.941   1.436
 6440SOL    HW120219   2.288   1.884   1.472
 6440SOL    HW220220   2.215   1.938   1.336
 6441SOL     OW20221   1.284   6.707   2.553
 6441SOL    HW120222   1.198   6.666   2.522
 6441SOL    HW220223   1.345   6.719   2.474
 6442SOL     OW20224   2.452   1.220   3.479
 6442SOL    HW120225   2.455   1.124   3.452
 6442SOL    HW220226   2.360   1.244   3.508
 6443SOL     OW20227   4.049   2.788   0.038
 6443SOL    HW120228   4.051   2.735   6.978
 6443SOL    HW220229   4.098   2.874   0.025
 6444SOL     OW20230   0.547   2.531   3.787
 6444SOL    HW120231   0.489   2.531   3.705
 6444SOL    HW220232   0.571   2.437   3.811
 6445SOL     OW20233   4.815   2.866   5.785
 6445SOL    HW120234   4.797   2.793   5.720
 6445SOL    HW220235   4.761   2.947   5.760
 6446SOL     OW20236   1.317   1.165   6.318
 6446SOL    HW120237   1.375   1.236   6.279
 6446SOL    HW220238   1.227   1.168   6.275
 6447SOL     OW20239   0.281   5.605   2.580
 6447SOL    HW120240   0.298   5.701   2.558
 6447SOL    HW220241   0.234   5.599   2.668
 6448SOL     OW20242   5.136   4.142   2.297
 6448SOL    HW120243   5.093   4.060   2.257
 6448SOL    HW220244   5.089   4.165   2.382
 6449SOL     OW20245   3.055   4.628   0.454
 6449SOL    HW120246   3.131   4.663   0.509
 6449SOL    HW220247   3.048   4.682   0.370
 6450SOL     OW20248   0.057   3.132   1.341
 6450SOL    HW120249   0.032   3.227   1.358
 6450SOL    HW220250   0.053   3.114   1.243
 6451SOL     OW20251   2.523   6.586   5.047
 6451SOL    HW120252   2.475   6.580   5.135
 6451SOL    HW220253   2.535   6.683   5.023
 6452SOL     OW20254   3.543   6.292   5.076
 6452SOL    HW120255   3.477   6.229   5.117
 6452SOL    HW220256   3.615   6.312   5.142
 6453SOL     OW20257   1.280   6.499   7.019
 6453SOL    HW120258   1.272   6.450   6.932
 6453SOL    HW220259   1.327   6.586   7.005
 6454SOL     OW20260   3.115   1.353   3.700
 6454SOL    HW120261   3.161   1.266   3.717
 6454SOL    HW220262   3.096   1.361   3.603
 6455SOL     OW20263   0.817   1.972   4.228
 6455SOL    HW120264   0.737   1.994   4.283
 6455SOL    HW220265   0.838   1.874   4.238
 6456SOL     OW20266   1.838   0.868   3.596
 6456SOL    HW120267   1.895   0.950   3.588
 6456SOL    HW220268   1.765   0.871   3.529
 6457SOL     OW20269   5.137   1.330   1.318
 6457SOL    HW120270   5.066   1.400   1.332
 6457SOL    HW220271   5.181   1.309   1.405
 6458SOL     OW20272   1.104   6.906   3.617
 6458SOL    HW120273   1.169   6.831   3.606
 6458SOL    HW220274   1.153   6.993   3.612
 6459SOL     OW20275   5.752   5.197   0.680
 6459SOL    HW120276   5.717   5.124   0.739
 6459SOL    HW220277   5.679   5.262   0.660
 6460SOL     OW20278   4.594   5.387   5.453
 6460SOL    HW120279   4.574   5.470   5.401
 6460SOL    HW220280   4.673   5.403   5.512
 6461SOL     OW20281   2.903   4.882   4.930
 6461SOL    HW120282   2.819   4.929   4.904
 6461SOL    HW220283   2.881   4.804   4.989
 6462SOL     OW20284   2.328   2.714   5.053
 6462SOL    HW120285   2.372   2.801   5.030
 6462SOL    HW220286   2.392   2.658   5.106
 6463SOL     OW20287   1.432   3.624   6.731
 6463SOL    HW120288   1.360   3.578   6.784
 6463SOL    HW220289   1.439   3.582   6.641
 6464SOL     OW20290   1.109   5.443   5.106
 6464SOL    HW120291   1.049   5.388   5.048
 6464SOL    HW220292   1.200   5.449   5.065
 6465SOL     OW20293   6.437   2.086   3.888
 6465SOL    HW120294   6.367   2.124   3.827
 6465SOL    HW220295   6.416   2.112   3.982
 6466SOL     OW20296   0.786   1.615   6.690
 6466SOL    HW120297   0.814   1.677   6.763
 6466SOL    HW220298   0.835   1.636   6.606
 6467SOL     OW20299   3.162   0.869   0.261
 6467SOL    HW120300   3.140   0.957   0.220
 6467SOL    HW220301   3.257   0.844   0.240
 6468SOL     OW20302   4.011   6.444   1.775
 6468SOL    HW120303   4.036   6.495   1.856
 6468SOL    HW220304   3.997   6.348   1.799
 6469SOL     OW20305   4.489   0.650   5.467
 6469SOL    HW120306   4.581   0.652   5.430
 6469SOL    HW220307   4.482   0.716   5.542
 6470SOL     OW20308   5.909   5.799   6.494
 6470SOL    HW120309   5.962   5.733   6.442
 6470SOL    HW220310   5.852   5.750   6.561
 6471SOL     OW20311   6.594   5.843   5.968
 6471SOL    HW120312   6.515   5.836   5.907
 6471SOL    HW220313   6.637   5.753   5.976
 6472SOL     OW20314   0.424   4.538   0.919
 6472SOL    HW120315   0.410   4.441   0.942
 6472SOL    HW220316   0.522   4.559   0.925
 6473SOL     OW20317   2.063   1.910   4.220
 6473SOL    HW120318   1.972   1.879   4.246
 6473SOL    HW220319   2.103   1.964   4.294
 6474SOL     OW20320   2.083   3.618   5.460
 6474SOL    HW120321   2.060   3.578   5.549
 6474SOL    HW220322   2.107   3.545   5.396
 6475SOL     OW20323   0.005   5.350   4.187
 6475SOL    HW120324   6.931   5.348   4.170
 6475SOL    HW220325   0.043   5.436   4.153
 6476SOL     OW20326   4.264   3.526   1.585
 6476SOL    HW120327   4.257   3.539   1.486
 6476SOL    HW220328   4.191   3.466   1.617
 6477SOL     OW20329   6.940   4.661   1.212
 6477SOL    HW120330   6.940   4.598   1.290
 6477SOL    HW220331   6.927   4.609   1.128
 6478SOL     OW20332   3.686   5.969   2.341
 6478SOL    HW120333   3.665   5.925   2.253
 6478SOL    HW220334   3.770   6.021   2.333
 6479SOL     OW20335   3.901   5.640   3.789
 6479SOL    HW120336   3.874   5.549   3.757
 6479SOL    HW220337   3.984   5.632   3.844
 6480SOL     OW20338   3.117   2.343   5.734
 6480SOL    HW120339   3.194   2.306   5.786
 6480SOL    HW220340   3.124   2.314   5.639
 6481SOL     OW20341   3.215   1.966   2.071
 6481SOL    HW120342   3.219   2.013   2.160
 6481SOL    HW220343   3.180   2.029   2.002
 6482SOL     OW20344   0.454   0.909   6.191
 6482SOL    HW120345   0.405   0.929   6.107
 6482SOL    HW220346   0.499   0.992   6.224
 6483SOL     OW20347   2.375   5.701   1.711
 6483SOL    HW120348   2.283   5.722   1.680
 6483SOL    HW220349   2.418   5.784   1.748
 6484SOL     OW20350   3.979   0.558   2.639
 6484SOL    HW120351   4.042   0.517   2.705
 6484SOL    HW220352   3.893   0.507   2.639
 6485SOL     OW20353   2.163   3.818   3.337
 6485SOL    HW120354   2.157   3.890   3.406
 6485SOL    HW220355   2.257   3.811   3.304
 6486SOL     OW20356   1.471   4.522   4.417
 6486SOL    HW120357   1.546   4.488   4.361
 6486SOL    HW220358   1.418   4.445   4.453
 6487SOL     OW20359   6.647   5.741   4.938
 6487SOL    HW120360   6.615   5.708   5.026
 6487SOL    HW220361   6.594   5.821   4.910
 6488SOL     OW20362   3.133   5.776   4.812
 6488SOL    HW120363   3.116   5.817   4.902
 6488SOL    HW220364   3.090   5.831   4.741
 6489SOL     OW20365   2.725   3.638   6.987
 6489SOL    HW120366   2.797   3.708   6.985
 6489SOL    HW220367   2.705   3.608   6.894
 6490SOL     OW20368   4.305   2.116   6.787
 6490SOL    HW120369   4.260   2.100   6.700
 6490SOL    HW220370   4.253   2.072   6.860
 6491SOL     OW20371   4.321   1.172   6.652
 6491SOL    HW120372   4.410   1.128   6.656
 6491SOL    HW220373   4.333   1.271   6.648
 6492SOL     OW20374   5.931   5.875   0.212
 6492SOL    HW120375   5.974   5.965   0.219
 6492SOL    HW220376   5.842   5.876   0.258
 6493SOL     OW20377   1.445   5.873   5.027
 6493SOL    HW120378   1.506   5.821   4.967
 6493SOL    HW220379   1.462   5.971   5.016
 6494SOL     OW20380   0.136   0.839   2.937
 6494SOL    HW120381   0.226   0.809   2.968
 6494SOL    HW220382   0.104   0.777   2.865
 6495SOL     OW20383   5.027   6.387   4.401
 6495SOL    HW120384   4.969   6.364   4.479
 6495SOL    HW220385   5.063   6.480   4.413
 6496SOL     OW20386   0.557   6.956   2.402
 6496SOL    HW120387   0.476   6.951   2.343
 6496SOL    HW220388   0.537   7.012   2.482
 6497SOL     OW20389   2.551   3.482   0.083
 6497SOL    HW120390   2.611   3.533   0.022
 6497SOL    HW220391   2.584   3.488   0.177
 6498SOL     OW20392   2.340   4.268   3.876
 6498SOL    HW120393   2.285   4.347   3.848
 6498SOL    HW220394   2.437   4.291   3.868
 6499SOL     OW20395   5.483   2.407   4.982
 6499SOL    HW120396   5.447   2.359   5.062
 6499SOL    HW220397   5.500   2.503   5.005
 6500SOL     OW20398   0.173   5.030   3.322
 6500SOL    HW120399   0.262   4.995   3.353
 6500SOL    HW220400   0.181   5.064   3.228
 6501SOL     OW20401   6.914   2.196   6.786
 6501SOL    HW120402   6.924   2.269   6.718
 6501SOL    HW220403   6.852   2.126   6.751
 6502SOL     OW20404   6.597   4.233   2.655
 6502SOL    HW120405   6.518   4.173   2.667
 6502SOL    HW220406   6.592   4.278   2.566
 6503SOL     OW20407   5.791   6.755   4.005
 6503SOL    HW120408   5.869   6.809   4.036
 6503SOL    HW220409   5.711   6.815   3.994
 6504SOL     OW20410   4.879   6.403   6.004
 6504SOL    HW120411   4.946   6.473   6.028
 6504SOL    HW220412   4.789   6.446   5.992
 6505SOL     OW20413   5.419   4.850   1.631
 6505SOL    HW120414   5.436   4.757   1.600
 6505SOL    HW220415   5.354   4.848   1.707
 6506SOL     OW20416   6.817   3.606   1.401
 6506SOL    HW120417   6.894   3.548   1.377
 6506SOL    HW220418   6.791   3.661   1.322
 6507SOL     OW20419   1.637   5.711   5.835
 6507SOL    HW120420   1.653   5.772   5.913
 6507SOL    HW220421   1.723   5.696   5.787
 6508SOL     OW20422   2.367   1.801   3.175
 6508SOL    HW120423   2.274   1.829   3.151
 6508SOL    HW220424   2.382   1.707   3.145
 6509SOL     OW20425   2.718   2.402   4.066
 6509SOL    HW120426   2.804   2.356   4.087
 6509SOL    HW220427   2.651   2.335   4.035
 6510SOL     OW20428   0.018   5.175   6.757
 6510SOL    HW120429   0.050   5.263   6.790
 6510SOL    HW220430   6.943   5.171   6.763
 6511SOL     OW20431   5.237   0.825   4.864
 6511SOL    HW120432   5.140   0.817   4.887
 6511SOL    HW220433   5.251   0.906   4.808
 6512SOL     OW20434   5.000   0.468   2.053
 6512SOL    HW120435   5.006   0.373   2.084
 6512SOL    HW220436   5.045   0.528   2.120
 6513SOL     OW20437   3.173   5.177   3.170
 6513SOL    HW120438   3.149   5.240   3.096
 6513SOL    HW220439   3.271   5.160   3.169
 6514SOL     OW20440   5.788   0.169   3.030
 6514SOL    HW120441   5.879   0.197   3.060
 6514SOL    HW220442   5.725   0.246   3.036
 6515SOL     OW20443   0.524   5.419   4.061
 6515SOL    HW120444   0.550   5.421   3.964
 6515SOL    HW220445   0.574   5.491   4.110
 6516SOL     OW20446   0.152   2.766   0.899
 6516SOL    HW120447   0.180   2.832   0.829
 6516SOL    HW220448   0.082   2.706   0.861
 6517SOL     OW20449   6.463   1.166   0.660
 6517SOL    HW120450   6.462   1.164   0.760
 6517SOL    HW220451   6.375   1.201   0.627
 6518SOL     OW20452   0.323   6.620   6.730
 6518SOL    HW120453   0.274   6.555   6.788
 6518SOL    HW220454   0.339   6.705   6.780
 6519SOL     OW20455   2.568   2.214   3.418
 6519SOL    HW120456   2.471   2.216   3.395
 6519SOL    HW220457   2.617   2.280   3.361
 6520SOL     OW20458   6.100   5.551   2.579
 6520SOL    HW120459   6.146   5.617   2.520
 6520SOL    HW220460   6.168   5.485   2.614
 6521SOL     OW20461   1.288   1.784   4.571
 6521SOL    HW120462   1.339   1.739   4.644
 6521SOL    HW220463   1.303   1.882   4.575
 6522SOL     OW20464   3.665   4.322   6.989
 6522SOL    HW120465   3.689   4.302   0.059
 6522SOL    HW220466   3.580   4.275   6.965
 6523SOL     OW20467   3.326   0.903   6.809
 6523SOL    HW120468   3.394   0.876   6.878
 6523SOL    HW220469   3.322   1.003   6.804
 6524SOL     OW20470   3.341   2.937   3.034
 6524SOL    HW120471   3.256   2.970   2.993
 6524SOL    HW220472   3.383   2.869   2.974
 6525SOL     OW20473   2.270   2.935   2.885
 6525SOL    HW120474   2.298   2.842   2.863
 6525SOL    HW220475   2.237   2.938   2.980
 6526SOL     OW20476   1.249   6.710   5.739
 6526SOL    HW120477   1.253   6.808   5.724
 6526SOL    HW220478   1.154   6.680   5.740
 6527SOL     OW20479   0.848   1.709   4.319
 6527SOL    HW120480   0.799   1.678   4.400
 6527SOL    HW220481   0.946   1.689   4.329
 6528SOL     OW20482   6.649   0.382   3.041
 6528SOL    HW120483   6.644   0.482   3.048
 6528SOL    HW220484   6.563   0.342   3.074
 6529SOL     OW20485   6.881   1.623   3.144
 6529SOL    HW120486   6.911   1.605   3.238
 6529SOL    HW220487   6.798   1.571   3.125
 6530SOL     OW20488   6.484   3.700   1.173
 6530SOL    HW120489   6.414   3.761   1.209
 6530SOL    HW220490   6.574   3.741   1.188
 6531SOL     OW20491   5.472   3.452   4.866
 6531SOL    HW120492   5.454   3.460   4.964
 6531SOL    HW220493   5.536   3.377   4.850
 6532SOL     OW20494   6.008   0.995   0.446
 6532SOL    HW120495   6.016   0.905   0.402
 6532SOL    HW220496   6.027   0.986   0.544
 6533SOL     OW20497   5.083   5.807   1.423
 6533SOL    HW120498   5.099   5.824   1.326
 6533SOL    HW220499   4.986   5.817   1.444
 6534SOL     OW20500   2.877   4.532   1.353
 6534SOL    HW120501   2.781   4.507   1.347
 6534SOL    HW220502   2.907   4.527   1.448
 6535SOL     OW20503   6.549   3.041   4.239
 6535SOL    HW120504   6.467   2.995   4.208
 6535SOL    HW220505   6.628   2.980   4.228
 6536SOL     OW20506   0.033   2.177   5.744
 6536SOL    HW120507   0.026   2.181   5.644
 6536SOL    HW220508   7.021   2.090   5.776
 6537SOL     OW20509   6.373   5.540   6.771
 6537SOL    HW120510   6.350   5.476   6.697
 6537SOL    HW220511   6.461   5.516   6.810
 6538SOL     OW20512   4.054   4.257   0.213
 6538SOL    HW120513   4.108   4.287   0.135
 6538SOL    HW220514   4.114   4.219   0.283
 6539SOL     OW20515   3.222   1.222   6.271
 6539SOL    HW120516   3.252   1.260   6.183
 6539SOL    HW220517   3.209   1.124   6.262
 6540SOL     OW20518   4.819   1.651   5.154
 6540SOL    HW120519   4.724   1.633   5.179
 6540SOL    HW220520   4.834   1.623   5.059
 6541SOL     OW20521   4.004   1.822   5.225
 6541SOL    HW120522   4.046   1.769   5.298
 6541SOL    HW220523   4.068   1.829   5.148
 6542SOL     OW20524   6.775   4.918   3.398
 6542SOL    HW120525   6.755   5.006   3.354
 6542SOL    HW220526   6.713   4.905   3.476
 6543SOL     OW20527   6.461   4.047   6.810
 6543SOL    HW120528   6.427   4.125   6.757
 6543SOL    HW220529   6.494   4.079   6.899
 6544SOL     OW20530   0.402   6.040   3.239
 6544SOL    HW120531   0.456   6.116   3.202
 6544SOL    HW220532   0.350   6.071   3.319
 6545SOL     OW20533   5.493   2.120   6.736
 6545SOL    HW120534   5.453   2.202   6.694
 6545SOL    HW220535   5.471   2.120   6.834
 6546SOL     OW20536   4.860   4.420   6.428
 6546SOL    HW120537   4.805   4.337   6.418
 6546SOL    HW220538   4.891   4.429   6.523
 6547SOL     OW20539   4.826   1.518   5.817
 6547SOL    HW120540   4.872   1.593   5.769
 6547SOL    HW220541   4.882   1.487   5.893
 6548SOL     OW20542   1.194   3.635   0.053
 6548SOL    HW120543   1.222   3.580   7.000
 6548SOL    HW220544   1.275   3.661   0.106
 6549SOL     OW20545   3.619   1.356   0.898
 6549SOL    HW120546   3.637   1.356   0.997
 6549SOL    HW220547   3.565   1.437   0.874
 6550SOL     OW20548   0.085   6.518   3.584
 6550SOL    HW120549   0.121   6.568   3.663
 6550SOL    HW220550   0.101   6.571   3.501
 6551SOL     OW20551   1.479   4.279   2.066
 6551SOL    HW120552   1.513   4.244   1.979
 6551SOL    HW220553   1.466   4.204   2.130
 6552SOL     OW20554   2.147   0.083   5.262
 6552SOL    HW120555   2.169   0.048   5.353
 6552SOL    HW220556   2.223   0.139   5.229
 6553SOL     OW20557   0.402   1.861   2.168
 6553SOL    HW120558   0.401   1.781   2.228
 6553SOL    HW220559   0.327   1.854   2.102
 6554SOL     OW20560   6.057   1.801   5.692
 6554SOL    HW120561   6.105   1.888   5.704
 6554SOL    HW220562   5.986   1.811   5.622
 6555SOL     OW20563   1.313   1.676   1.792
 6555SOL    HW120564   1.222   1.663   1.830
 6555SOL    HW220565   1.325   1.773   1.768
 6556SOL     OW20566   4.500   4.864   5.239
 6556SOL    HW120567   4.587   4.881   5.191
 6556SOL    HW220568   4.448   4.948   5.244
 6557SOL     OW20569   5.460   5.319   1.474
 6557SOL    HW120570   5.490   5.358   1.561
 6557SOL    HW220571   5.373   5.272   1.488
 6558SOL     OW20572   5.797   5.685   1.096
 6558SOL    HW120573   5.757   5.744   1.026
 6558SOL    HW220574   5.733   5.611   1.118
 6559SOL     OW20575   6.791   4.055   6.793
 6559SOL    HW120576   6.726   4.043   6.718
 6559SOL    HW220577   6.849   3.974   6.800
 6560SOL     OW20578   3.648   2.989   1.515
 6560SOL    HW120579   3.595   3.020   1.436
 6560SOL    HW220580   3.654   2.889   1.514
 6561SOL     OW20581   3.527   3.818   2.485
 6561SOL    HW120582   3.458   3.865   2.541
 6561SOL    HW220583   3.510   3.719   2.487
 6562SOL     OW20584   5.786   4.620   0.033
 6562SOL    HW120585   5.881   4.639   0.009
 6562SOL    HW220586   5.780   4.532   0.080
 6563SOL     OW20587   0.489   6.444   0.064
 6563SOL    HW120588   0.414   6.408   0.120
 6563SOL    HW220589   0.577   6.411   0.100
 6564SOL     OW20590   0.288   4.142   2.263
 6564SOL    HW120591   0.225   4.069   2.236
 6564SOL    HW220592   0.379   4.123   2.225
 6565SOL     OW20593   6.337   1.849   3.982
 6565SOL    HW120594   6.374   1.938   3.955
 6565SOL    HW220595   6.277   1.861   4.062
 6566SOL     OW20596   3.387   0.186   0.742
 6566SOL    HW120597   3.458   0.124   0.708
 6566SOL    HW220598   3.337   0.226   0.665
 6567SOL     OW20599   3.822   2.411   1.330
 6567SOL    HW120600   3.778   2.407   1.240
 6567SOL    HW220601   3.880   2.492   1.334
 6568SOL     OW20602   5.068   5.390   2.965
 6568SOL    HW120603   5.047   5.297   2.935
 6568SOL    HW220604   5.042   5.454   2.893
 6569SOL     OW20605   3.427   3.983   0.985
 6569SOL    HW120606   3.487   4.006   1.062
 6569SOL    HW220607   3.410   3.884   0.984
 6570SOL     OW20608   4.464   6.540   1.596
 6570SOL    HW120609   4.383   6.483   1.576
 6570SOL    HW220610   4.497   6.520   1.688
 6571SOL     OW20611   2.194   6.488   2.293
 6571SOL    HW120612   2.100   6.513   2.267
 6571SOL    HW220613   2.257   6.516   2.221
 6572SOL     OW20614   6.270   5.298   5.524
 6572SOL    HW120615   6.193   5.247   5.565
 6572SOL    HW220616   6.353   5.281   5.577
 6573SOL     OW20617   2.630   1.357   2.799
 6573SOL    HW120618   2.612   1.258   2.802
 6573SOL    HW220619   2.717   1.377   2.844
 6574SOL     OW20620   3.031   5.793   2.363
 6574SOL    HW120621   3.105   5.781   2.297
 6574SOL    HW220622   3.058   5.861   2.431
 6575SOL     OW20623   1.239   1.873   1.601
 6575SOL    HW120624   1.167   1.840   1.540
 6575SOL    HW220625   1.240   1.973   1.601
 6576SOL     OW20626   1.455   7.017   6.629
 6576SOL    HW120627   1.355   7.016   6.629
 6576SOL    HW220628   1.488   6.991   6.719
 6577SOL     OW20629   0.054   1.323   3.533
 6577SOL    HW120630   0.005   1.354   3.451
 6577SOL    HW220631   0.136   1.378   3.546
 6578SOL     OW20632   0.670   4.303   3.041
 6578SOL    HW120633   0.571   4.291   3.051
 6578SOL    HW220634   0.717   4.224   3.081
 6579SOL     OW20635   0.837   4.086   4.608
 6579SOL    HW120636   0.820   4.108   4.511
 6579SOL    HW220637   0.823   4.168   4.663
 6580SOL     OW20638   6.684   1.406   1.447
 6580SOL    HW120639   6.622   1.476   1.482
 6580SOL    HW220640   6.639   1.355   1.374
 6581SOL     OW20641   3.474   1.386   6.300
 6581SOL    HW120642   3.525   1.462   6.341
 6581SOL    HW220643   3.538   1.323   6.256
 6582SOL     OW20644   1.647   0.799   1.959
 6582SOL    HW120645   1.578   0.770   1.893
 6582SOL    HW220646   1.668   0.723   2.021
 6583SOL     OW20647   3.940   0.514   5.894
 6583SOL    HW120648   3.973   0.459   5.818
 6583SOL    HW220649   3.960   0.467   5.980
 6584SOL     OW20650   5.133   1.491   0.139
 6584SOL    HW120651   5.134   1.394   0.114
 6584SOL    HW220652   5.195   1.506   0.215
 6585SOL     OW20653   6.339   1.002   0.409
 6585SOL    HW120654   6.288   1.040   0.333
 6585SOL    HW220655   6.360   1.074   0.475
 6586SOL     OW20656   5.943   2.499   5.913
 6586SOL    HW120657   5.926   2.403   5.888
 6586SOL    HW220658   5.935   2.509   6.012
 6587SOL     OW20659   3.126   5.399   3.938
 6587SOL    HW120660   3.088   5.348   4.016
 6587SOL    HW220661   3.093   5.493   3.941
 6588SOL     OW20662   1.394   4.128   1.657
 6588SOL    HW120663   1.374   4.042   1.704
 6588SOL    HW220664   1.427   4.109   1.564
 6589SOL     OW20665   4.513   0.564   6.392
 6589SOL    HW120666   4.473   0.638   6.339
 6589SOL    HW220667   4.537   0.488   6.332
 6590SOL     OW20668   0.922   1.452   6.091
 6590SOL    HW120669   0.923   1.549   6.066
 6590SOL    HW220670   0.855   1.437   6.163
 6591SOL     OW20671   5.261   6.100   2.179
 6591SOL    HW120672   5.301   6.048   2.104
 6591SOL    HW220673   5.324   6.174   2.205
 6592SOL     OW20674   5.714   6.467   4.235
 6592SOL    HW120675   5.729   6.535   4.163
 6592SOL    HW220676   5.646   6.400   4.203
 6593SOL     OW20677   2.202   2.433   3.501
 6593SOL    HW120678   2.245   2.372   3.434
 6593SOL    HW220679   2.194   2.385   3.589
 6594SOL     OW20680   3.976   1.725   0.710
 6594SOL    HW120681   3.903   1.658   0.694
 6594SOL    HW220682   4.055   1.703   0.653
 6595SOL     OW20683   0.464   3.564   0.317
 6595SOL    HW120684   0.369   3.537   0.330
 6595SOL    HW220685   0.471   3.664   0.321
 6596SOL     OW20686   3.668   6.794   4.793
 6596SOL    HW120687   3.658   6.865   4.863
 6596SOL    HW220688   3.750   6.812   4.739
 6597SOL     OW20689   1.397   6.298   3.112
 6597SOL    HW120690   1.344   6.253   3.040
 6597SOL    HW220691   1.368   6.394   3.119
 6598SOL     OW20692   1.111   6.635   4.390
 6598SOL    HW120693   1.176   6.708   4.370
 6598SOL    HW220694   1.134   6.593   4.478
 6599SOL     OW20695   3.521   5.106   5.174
 6599SOL    HW120696   3.589   5.178   5.191
 6599SOL    HW220697   3.440   5.147   5.131
 6600SOL     OW20698   4.760   5.389   5.790
 6600SOL    HW120699   4.790   5.294   5.796
 6600SOL    HW220700   4.660   5.392   5.789
 6601SOL     OW20701   0.834   1.085   0.512
 6601SOL    HW120702   0.911   1.143   0.485
 6601SOL    HW220703   0.756   1.143   0.537
 6602SOL     OW20704   6.325   1.511   1.935
 6602SOL    HW120705   6.391   1.449   1.894
 6602SOL    HW220706   6.371   1.595   1.964
 6603SOL     OW20707   1.148   2.655   4.255
 6603SOL    HW120708   1.178   2.728   4.317
 6603SOL    HW220709   1.197   2.571   4.277
 6604SOL     OW20710   2.410   6.503   1.355
 6604SOL    HW120711   2.441   6.465   1.268
 6604SOL    HW220712   2.322   6.548   1.342
 6605SOL     OW20713   5.162   4.823   0.466
 6605SOL    HW120714   5.142   4.831   0.564
 6605SOL    HW220715   5.119   4.741   0.429
 6606SOL     OW20716   5.116   7.019   1.997
 6606SOL    HW120717   5.216   7.014   2.006
 6606SOL    HW220718   5.088   0.089   1.985
 6607SOL     OW20719   1.650   2.329   1.245
 6607SOL    HW120720   1.560   2.333   1.202
 6607SOL    HW220721   1.660   2.407   1.307
 6608SOL     OW20722   5.090   5.224   1.740
 6608SOL    HW120723   5.047   5.249   1.828
 6608SOL    HW220724   5.029   5.161   1.691
 6609SOL     OW20725   4.638   0.933   6.248
 6609SOL    HW120726   4.679   0.847   6.279
 6609SOL    HW220727   4.680   1.009   6.298
 6610SOL     OW20728   2.192   0.601   6.236
 6610SOL    HW120729   2.123   0.669   6.262
 6610SOL    HW220730   2.258   0.642   6.173
 6611SOL     OW20731   6.585   2.549   3.375
 6611SOL    HW120732   6.607   2.565   3.471
 6611SOL    HW220733   6.607   2.631   3.322
 6612SOL     OW20734   0.576   2.805   6.810
 6612SOL    HW120735   0.524   2.734   6.857
 6612SOL    HW220736   0.530   2.893   6.820
 6613SOL     OW20737   5.619   6.041   4.106
 6613SOL    HW120738   5.693   6.089   4.060
 6613SOL    HW220739   5.616   6.068   4.202
 6614SOL     OW20740   5.130   5.915   6.848
 6614SOL    HW120741   5.208   5.929   6.786
 6614SOL    HW220742   5.058   5.864   6.801
 6615SOL     OW20743   0.959   4.489   3.965
 6615SOL    HW120744   0.925   4.439   4.045
 6615SOL    HW220745   0.985   4.581   3.992
 6616SOL     OW20746   4.390   1.105   6.235
 6616SOL    HW120747   4.473   1.050   6.228
 6616SOL    HW220748   4.342   1.082   6.320
 6617SOL     OW20749   3.148   6.496   3.220
 6617SOL    HW120750   3.168   6.589   3.190
 6617SOL    HW220751   3.209   6.432   3.172
 6618SOL     OW20752   1.311   3.276   3.008
 6618SOL    HW120753   1.277   3.353   3.061
 6618SOL    HW220754   1.403   3.297   2.974
 6619SOL     OW20755   6.757   0.094   4.744
 6619SOL    HW120756   6.841   0.047   4.714
 6619SOL    HW220757   6.750   0.088   4.843
 6620SOL     OW20758   2.209   2.980   5.281
 6620SOL    HW120759   2.155   3.057   5.316
 6620SOL    HW220760   2.294   3.015   5.241
 6621SOL     OW20761   2.623   3.160   6.889
 6621SOL    HW120762   2.721   3.151   6.872
 6621SOL    HW220763   2.607   3.172   6.987
 6622SOL     OW20764   5.967   6.515   1.717
 6622SOL    HW120765   5.921   6.523   1.628
 6622SOL    HW220766   5.955   6.422   1.752
 6623SOL     OW20767   2.905   3.300   1.222
 6623SOL    HW120768   2.994   3.298   1.177
 6623SOL    HW220769   2.909   3.359   1.302
 6624SOL     OW20770   1.944   0.583   3.990
 6624SOL    HW120771   1.886   0.651   3.945
 6624SOL    HW220772   1.933   0.495   3.945
 6625SOL     OW20773   5.187   1.866   6.073
 6625SOL    HW120774   5.153   1.837   6.162
 6625SOL    HW220775   5.287   1.857   6.070
 6626SOL     OW20776   4.048   4.855   4.026
 6626SOL    HW120777   3.990   4.774   4.013
 6626SOL    HW220778   4.094   4.876   3.940
 6627SOL     OW20779   2.465   0.498   5.874
 6627SOL    HW120780   2.459   0.422   5.938
 6627SOL    HW220781   2.424   0.471   5.787
 6628SOL     OW20782   4.726   5.017   4.062
 6628SOL    HW120783   4.769   5.081   3.997
 6628SOL    HW220784   4.657   5.065   4.115
 6629SOL     OW20785   2.728   5.744   7.022
 6629SOL    HW120786   2.804   5.682   0.018
 6629SOL    HW220787   2.654   5.693   6.979
 6630SOL     OW20788   3.600   1.387   1.422
 6630SOL    HW120789   3.571   1.482   1.409
 6630SOL    HW220790   3.689   1.385   1.468
 6631SOL     OW20791   4.196   0.502   2.381
 6631SOL    HW120792   4.214   0.428   2.315
 6631SOL    HW220793   4.270   0.569   2.375
 6632SOL     OW20794   0.553   0.500   2.136
 6632SOL    HW120795   0.519   0.427   2.077
 6632SOL    HW220796   0.652   0.490   2.149
 6633SOL     OW20797   1.362   4.851   5.934
 6633SOL    HW120798   1.343   4.908   6.014
 6633SOL    HW220799   1.321   4.761   5.946
 6634SOL     OW20800   5.782   3.099   5.275
 6634SOL    HW120801   5.751   3.176   5.219
 6634SOL    HW220802   5.842   3.132   5.348
 6635SOL     OW20803   4.317   5.377   3.489
 6635SOL    HW120804   4.314   5.425   3.576
 6635SOL    HW220805   4.242   5.311   3.484
 6636SOL     OW20806   3.240   2.092   6.301
 6636SOL    HW120807   3.334   2.064   6.320
 6636SOL    HW220808   3.232   2.192   6.308
 6637SOL     OW20809   1.733   0.192   6.441
 6637SOL    HW120810   1.740   0.232   6.532
 6637SOL    HW220811   1.739   0.264   6.372
 6638SOL     OW20812   3.864   4.704   5.377
 6638SOL    HW120813   3.845   4.781   5.315
 6638SOL    HW220814   3.856   4.618   5.326
 6639SOL     OW20815   5.677   6.032   0.058
 6639SOL    HW120816   5.732   5.981   7.018
 6639SOL    HW220817   5.724   6.117   0.083
 6640SOL     OW20818   6.619   2.251   5.412
 6640SOL    HW120819   6.569   2.206   5.338
 6640SOL    HW220820   6.702   2.199   5.433
 6641SOL     OW20821   2.289   2.316   6.875
 6641SOL    HW120822   2.268   2.410   6.847
 6641SOL    HW220823   2.333   2.317   6.965
 6642SOL     OW20824   2.436   5.773   0.510
 6642SOL    HW120825   2.446   5.749   0.413
 6642SOL    HW220826   2.519   5.748   0.559
 6643SOL     OW20827   6.532   4.839   6.518
 6643SOL    HW120828   6.534   4.901   6.440
 6643SOL    HW220829   6.438   4.828   6.550
 6644SOL     OW20830   2.837   4.804   1.808
 6644SOL    HW120831   2.832   4.787   1.709
 6644SOL    HW220832   2.808   4.722   1.857
 6645SOL     OW20833   0.230   5.208   0.032
 6645SOL    HW120834   0.251   5.284   0.094
 6645SOL    HW220835   0.260   5.231   6.965
 6646SOL     OW20836   3.670   6.249   4.307
 6646SOL    HW120837   3.652   6.247   4.406
 6646SOL    HW220838   3.766   6.274   4.292
 6647SOL     OW20839   3.465   1.439   2.180
 6647SOL    HW120840   3.461   1.340   2.167
 6647SOL    HW220841   3.498   1.458   2.272
 6648SOL     OW20842   3.237   5.843   2.123
 6648SOL    HW120843   3.306   5.905   2.085
 6648SOL    HW220844   3.147   5.865   2.085
 6649SOL     OW20845   4.937   1.665   7.024
 6649SOL    HW120846   4.984   1.596   0.054
 6649SOL    HW220847   4.880   1.620   6.956
 6650SOL     OW20848   4.375   1.217   5.428
 6650SOL    HW120849   4.370   1.303   5.377
 6650SOL    HW220850   4.357   1.235   5.525
 6651SOL     OW20851   1.898   1.651   6.610
 6651SOL    HW120852   1.939   1.581   6.669
 6651SOL    HW220853   1.968   1.687   6.548
 6652SOL     OW20854   6.844   4.977   0.395
 6652SOL    HW120855   6.768   5.016   0.447
 6652SOL    HW220856   6.808   4.928   0.315
 6653SOL     OW20857   3.746   3.214   2.795
 6653SOL    HW120858   3.787   3.212   2.704
 6653SOL    HW220859   3.687   3.295   2.803
 6654SOL     OW20860   2.060   3.113   1.103
 6654SOL    HW120861   1.964   3.140   1.094
 6654SOL    HW220862   2.066   3.026   1.151
 6655SOL     OW20863   2.886   6.995   1.368
 6655SOL    HW120864   2.975   7.015   1.409
 6655SOL    HW220865   2.898   6.939   1.287
 6656SOL     OW20866   5.715   1.672   2.539
 6656SOL    HW120867   5.652   1.610   2.493
 6656SOL    HW220868   5.740   1.634   2.628
 6657SOL     OW20869   4.977   6.007   6.567
 6657SOL    HW120870   4.950   5.928   6.621
 6657SOL    HW220871   5.063   5.988   6.520
 6658SOL     OW20872   6.185   1.626   4.586
 6658SOL    HW120873   6.233   1.646   4.501
 6658SOL    HW220874   6.095   1.587   4.565
 6659SOL     OW20875   2.586   2.174   0.539
 6659SOL    HW120876   2.678   2.164   0.502
 6659SOL    HW220877   2.526   2.210   0.468
 6660SOL     OW20878   0.073   6.115   0.851
 6660SOL    HW120879   0.126   6.055   0.790
 6660SOL    HW220880   7.004   6.120   0.819
 6661SOL     OW20881   0.268   6.032   3.992
 6661SOL    HW120882   0.335   6.095   4.031
 6661SOL    HW220883   0.301   5.939   4.002
 6662SOL     OW20884   1.257   0.407   6.657
 6662SOL    HW120885   1.233   0.483   6.597
 6662SOL    HW220886   1.218   0.423   6.748
 6663SOL     OW20887   0.044   5.635   2.855
 6663SOL    HW120888   6.974   5.646   2.826
 6663SOL    HW220889   0.053   5.552   2.909
 6664SOL     OW20890   1.727   6.900   0.845
 6664SOL    HW120891   1.758   6.994   0.842
 6664SOL    HW220892   1.634   6.897   0.883
 6665SOL     OW20893   2.271   0.564   2.952
 6665SOL    HW120894   2.329   0.612   2.885
 6665SOL    HW220895   2.206   0.629   2.992
 6666SOL     OW20896   5.393   1.326   6.226
 6666SOL    HW120897   5.363   1.421   6.217
 6666SOL    HW220898   5.471   1.310   6.165
 6667SOL     OW20899   0.046   5.387   5.311
 6667SOL    HW120900   0.027   5.304   5.364
 6667SOL    HW220901   0.001   5.381   5.222
 6668SOL     OW20902   6.352   6.041   1.619
 6668SOL    HW120903   6.411   6.008   1.546
 6668SOL    HW220904   6.397   6.026   1.708
 6669SOL     OW20905   2.182   3.035   4.016
 6669SOL    HW120906   2.082   3.031   4.011
 6669SOL    HW220907   2.212   3.130   4.005
 6670SOL     OW20908   3.704   2.950   5.844
 6670SOL    HW120909   3.640   2.885   5.804
 6670SOL    HW220910   3.726   3.021   5.777
 6671SOL     OW20911   5.163   5.714   1.128
 6671SOL    HW120912   5.069   5.685   1.110
 6671SOL    HW220913   5.219   5.635   1.151
 6672SOL     OW20914   1.080   1.897   4.914
 6672SOL    HW120915   1.056   1.941   5.001
 6672SOL    HW220916   1.179   1.893   4.905
 6673SOL     OW20917   4.777   6.198   3.134
 6673SOL    HW120918   4.703   6.133   3.146
 6673SOL    HW220919   4.865   6.153   3.152
 6674SOL     OW20920   0.977   5.133   6.629
 6674SOL    HW120921   1.018   5.189   6.557
 6674SOL    HW220922   0.984   5.181   6.717
 6675SOL     OW20923   4.390   3.996   1.714
 6675SOL    HW120924   4.371   4.026   1.620
 6675SOL    HW220925   4.433   4.071   1.764
 6676SOL     OW20926   0.327   4.219   5.582
 6676SOL    HW120927   0.304   4.206   5.679
 6676SOL    HW220928   0.382   4.142   5.550
 6677SOL     OW20929   0.371   2.561   0.137
 6677SOL    HW120930   0.324   2.510   0.209
 6677SOL    HW220931   0.325   2.544   0.049
 6678SOL     OW20932   1.896   2.330   0.115
 6678SOL    HW120933   1.843   2.380   0.184
 6678SOL    HW220934   1.919   2.239   0.150
 6679SOL     OW20935   2.731   1.811   4.211
 6679SOL    HW120936   2.689   1.721   4.222
 6679SOL    HW220937   2.821   1.811   4.256
 6680SOL     OW20938   4.235   6.560   6.405
 6680SOL    HW120939   4.304   6.488   6.407
 6680SOL    HW220940   4.146   6.521   6.380
 6681SOL     OW20941   4.714   5.055   0.001
 6681SOL    HW120942   4.810   5.059   0.026
 6681SOL    HW220943   4.690   5.138   6.974
 6682SOL     OW20944   0.979   3.839   2.196
 6682SOL    HW120945   0.974   3.796   2.106
 6682SOL    HW220946   1.014   3.773   2.262
 6683SOL     OW20947   4.874   2.565   5.706
 6683SOL    HW120948   4.929   2.627   5.649
 6683SOL    HW220949   4.934   2.518   5.771
 6684SOL     OW20950   1.916   7.002   0.575
 6684SOL    HW120951   1.965   6.935   0.631
 6684SOL    HW220952   1.981   0.025   0.516
 6685SOL     OW20953   5.291   2.729   5.296
 6685SOL    HW120954   5.244   2.761   5.379
 6685SOL    HW220955   5.339   2.806   5.254
 6686SOL     OW20956   5.079   5.844   3.865
 6686SOL    HW120957   5.045   5.759   3.905
 6686SOL    HW220958   5.166   5.826   3.818
 6687SOL     OW20959   0.155   1.804   1.117
 6687SOL    HW120960   0.230   1.798   1.052
 6687SOL    HW220961   0.084   1.738   1.092
 6688SOL     OW20962   0.037   4.071   1.982
 6688SOL    HW120963   0.068   4.164   1.998
 6688SOL    HW220964   0.051   4.016   2.064
 6689SOL     OW20965   4.106   3.312   0.475
 6689SOL    HW120966   4.153   3.245   0.533
 6689SOL    HW220967   4.038   3.361   0.530
 6690SOL     OW20968   2.423   0.960   2.177
 6690SOL    HW120969   2.446   0.928   2.269
 6690SOL    HW220970   2.338   0.916   2.147
 6691SOL     OW20971   2.996   5.884   1.954
 6691SOL    HW120972   3.011   5.982   1.944
 6691SOL    HW220973   2.902   5.861   1.926
 6692SOL     OW20974   2.769   4.886   5.192
 6692SOL    HW120975   2.787   4.801   5.142
 6692SOL    HW220976   2.677   4.919   5.171
 6693SOL     OW20977   4.762   3.806   5.867
 6693SOL    HW120978   4.840   3.839   5.815
 6693SOL    HW220979   4.703   3.884   5.893
 6694SOL     OW20980   4.777   6.383   0.101
 6694SOL    HW120981   4.733   6.449   0.162
 6694SOL    HW220982   4.716   6.360   0.026
 6695SOL     OW20983   1.997   1.872   5.612
 6695SOL    HW120984   2.019   1.776   5.593
 6695SOL    HW220985   2.011   1.927   5.529
 6696SOL     OW20986   1.708   2.067   6.984
 6696SOL    HW120987   1.727   2.129   6.907
 6696SOL    HW220988   1.790   2.059   0.016
 6697SOL     OW20989   4.545   2.542   3.648
 6697SOL    HW120990   4.447   2.551   3.631
 6697SOL    HW220991   4.574   2.448   3.630
 6698SOL     OW20992   3.257   3.018   0.680
 6698SOL    HW120993   3.211   3.042   0.595
 6698SOL    HW220994   3.344   2.973   0.660
 6699SOL     OW20995   3.364   4.969   0.133
 6699SOL    HW120996   3.455   4.928   0.140
 6699SOL    HW220997   3.295   4.897   0.142
 6700SOL     OW20998   0.068   6.300   1.309
 6700SOL    HW120999   0.055   6.301   1.210
 6700SOL    HW221000   0.069   6.205   1.341
 6701SOL     OW21001   5.621   3.120   1.276
 6701SOL    HW121002   5.661   3.211   1.262
 6701SOL    HW221003   5.531   3.116   1.232
 6702SOL     OW21004   2.472   2.564   0.434
 6702SOL    HW121005   2.553   2.527   0.480
 6702SOL    HW221006   2.476   2.664   0.436
 6703SOL     OW21007   6.588   1.740   0.080
 6703SOL    HW121008   6.554   1.656   0.122
 6703SOL    HW221009   6.511   1.794   0.048
 6704SOL     OW21010   4.349   2.351   2.956
 6704SOL    HW121011   4.428   2.362   3.017
 6704SOL    HW221012   4.266   2.340   3.011
 6705SOL     OW21013   0.153   1.925   1.905
 6705SOL    HW121014   0.126   1.988   1.977
 6705SOL    HW221015   0.169   1.976   1.820
 6706SOL     OW21016   1.047   3.891   0.574
 6706SOL    HW121017   1.032   3.973   0.628
 6706SOL    HW221018   0.986   3.818   0.606
 6707SOL     OW21019   0.237   5.311   4.630
 6707SOL    HW121020   0.178   5.231   4.622
 6707SOL    HW221021   0.296   5.317   4.549
 6708SOL     OW21022   1.703   5.014   2.709
 6708SOL    HW121023   1.771   5.000   2.781
 6708SOL    HW221024   1.742   5.074   2.638
 6709SOL     OW21025   2.862   5.555   1.778
 6709SOL    HW121026   2.820   5.485   1.719
 6709SOL    HW221027   2.961   5.546   1.774
 6710SOL     OW21028   2.719   1.812   6.187
 6710SOL    HW121029   2.796   1.790   6.127
 6710SOL    HW221030   2.714   1.911   6.199
 6711SOL     OW21031   5.773   4.948   6.624
 6711SOL    HW121032   5.788   4.959   6.722
 6711SOL    HW221033   5.853   4.981   6.574
 6712SOL     OW21034   4.300   5.298   6.938
 6712SOL    HW121035   4.206   5.263   6.948
 6712SOL    HW221036   4.307   5.387   6.982
 6713SOL     OW21037   2.237   1.909   1.169
 6713SOL    HW121038   2.268   1.998   1.134
 6713SOL    HW221039   2.306   1.839   1.146
 6714SOL     OW21040   5.205   0.436   5.776
 6714SOL    HW121041   5.275   0.456   5.707
 6714SOL    HW221042   5.141   0.513   5.781
 6715SOL     OW21043   0.284   0.888   7.016
 6715SOL    HW121044   0.258   0.982   0.011
 6715SOL    HW221045   0.233   0.826   0.051
 6716SOL     OW21046   1.079   6.279   2.202
 6716SOL    HW121047   1.008   6.318   2.145
 6716SOL    HW221048   1.049   6.190   2.237
 6717SOL     OW21049   4.268   2.829   0.953
 6717SOL    HW121050   4.327   2.761   0.996
 6717SOL    HW221051   4.185   2.785   0.920
 6718SOL     OW21052   4.031   6.410   6.334
 6718SOL    HW121053   3.953   6.422   6.274
 6718SOL    HW221054   4.009   6.341   6.404
 6719SOL     OW21055   0.168   0.225   6.221
 6719SOL    HW121056   0.105   0.152   6.250
 6719SOL    HW221057   0.212   0.265   6.301
 6720SOL     OW21058   1.709   6.170   2.305
 6720SOL    HW121059   1.707   6.255   2.358
 6720SOL    HW221060   1.800   6.129   2.311
 6721SOL     OW21061   6.231   6.627   4.758
 6721SOL    HW121062   6.160   6.600   4.694
 6721SOL    HW221063   6.215   6.583   4.846
 6722SOL     OW21064   5.113   3.382   0.802
 6722SOL    HW121065   5.083   3.362   0.709
 6722SOL    HW221066   5.091   3.477   0.824
 6723SOL     OW21067   2.397   6.970   3.007
 6723SOL    HW121068   2.312   6.945   3.052
 6723SOL    HW221069   2.449   0.008   3.064
 6724SOL     OW21070   1.290   3.743   5.987
 6724SOL    HW121071   1.224   3.787   6.048
 6724SOL    HW221072   1.245   3.717   5.902
 6725SOL     OW21073   0.735   4.193   1.796
 6725SOL    HW121074   0.780   4.222   1.711
 6725SOL    HW221075   0.800   4.195   1.871
 6726SOL     OW21076   0.985   2.122   4.073
 6726SOL    HW121077   0.980   2.076   3.985
 6726SOL    HW221078   0.928   2.073   4.139
 6727SOL     OW21079   6.084   3.883   5.531
 6727SOL    HW121080   6.047   3.855   5.619
 6727SOL    HW221081   6.162   3.826   5.507
 6728SOL     OW21082   4.644   1.324   4.356
 6728SOL    HW121083   4.649   1.230   4.388
 6728SOL    HW221084   4.715   1.379   4.401
 6729SOL     OW21085   6.300   1.548   2.335
 6729SOL    HW121086   6.248   1.625   2.297
 6729SOL    HW221087   6.242   1.496   2.397
 6730SOL     OW21088   2.014   6.319   6.690
 6730SOL    HW121089   1.995   6.283   6.598
 6730SOL    HW221090   1.967   6.407   6.700
 6731SOL     OW21091   2.571   4.358   1.046
 6731SOL    HW121092   2.580   4.454   1.075
 6731SOL    HW221093   2.651   4.307   1.075
 6732SOL     OW21094   3.757   5.710   6.661
 6732SOL    HW121095   3.739   5.627   6.713
 6732SOL    HW221096   3.670   5.750   6.632
 6733SOL     OW21097   4.014   5.366   6.518
 6733SOL    HW121098   4.106   5.349   6.553
 6733SOL    HW221099   4.019   5.425   6.437
 6734SOL     OW21100   0.807   3.281   5.937
 6734SOL    HW121101   0.710   3.274   5.916
 6734SOL    HW221102   0.850   3.192   5.922
 6735SOL     OW21103   0.497   5.451   5.201
 6735SOL    HW121104   0.472   5.415   5.111
 6735SOL    HW221105   0.594   5.435   5.217
 6736SOL     OW21106   1.861   3.460   0.633
 6736SOL    HW121107   1.826   3.419   0.549
 6736SOL    HW221108   1.791   3.521   0.671
 6737SOL     OW21109   1.810   2.289   0.997
 6737SOL    HW121110   1.801   2.192   0.971
 6737SOL    HW221111   1.754   2.307   1.078
 6738SOL     OW21112   1.649   2.745   1.845
 6738SOL    HW121113   1.611   2.655   1.823
 6738SOL    HW221114   1.661   2.798   1.761
 6739SOL     OW21115   3.043   5.281   6.032
 6739SOL    HW121116   3.054   5.345   5.956
 6739SOL    HW221117   2.975   5.212   6.008
 6740SOL     OW21118   2.029   1.569   4.722
 6740SOL    HW121119   2.123   1.533   4.722
 6740SOL    HW221120   1.964   1.493   4.714
 6741SOL     OW21121   4.844   1.674   6.212
 6741SOL    HW121122   4.855   1.753   6.151
 6741SOL    HW221123   4.748   1.668   6.242
 6742SOL     OW21124   0.152   5.639   3.252
 6742SOL    HW121125   0.236   5.619   3.203
 6742SOL    HW221126   0.138   5.738   3.257
 6743SOL     OW21127   4.247   4.343   6.719
 6743SOL    HW121128   4.320   4.276   6.707
 6743SOL    HW221129   4.284   4.435   6.709
 6744SOL     OW21130   4.402   5.941   6.102
 6744SOL    HW121131   4.444   5.901   6.020
 6744SOL    HW221132   4.328   6.002   6.075
 6745SOL     OW21133   0.984   5.326   2.662
 6745SOL    HW121134   1.077   5.304   2.692
 6745SOL    HW221135   0.948   5.401   2.717
 6746SOL     OW21136   0.380   0.690   2.719
 6746SOL    HW121137   0.281   0.691   2.708
 6746SOL    HW221138   0.424   0.707   2.631
 6747SOL     OW21139   5.518   6.052   4.589
 6747SOL    HW121140   5.615   6.070   4.609
 6747SOL    HW221141   5.503   5.953   4.589
 6748SOL     OW21142   1.097   0.639   2.571
 6748SOL    HW121143   1.196   0.628   2.577
 6748SOL    HW221144   1.061   0.663   2.661
 6749SOL     OW21145   2.871   6.678   6.856
 6749SOL    HW121146   2.852   6.776   6.863
 6749SOL    HW221147   2.822   6.629   6.927
 6750SOL     OW21148   3.750   1.819   4.769
 6750SOL    HW121149   3.710   1.777   4.851
 6750SOL    HW221150   3.712   1.776   4.688
 6751SOL     OW21151   3.331   1.973   3.762
 6751SOL    HW121152   3.338   1.935   3.854
 6751SOL    HW221153   3.332   1.899   3.695
 6752SOL     OW21154   6.168   3.089   1.690
 6752SOL    HW121155   6.267   3.076   1.698
 6752SOL    HW221156   6.137   3.148   1.765
 6753SOL     OW21157   4.436   1.875   6.716
 6753SOL    HW121158   4.377   1.932   6.773
 6753SOL    HW221159   4.528   1.874   6.754
 6754SOL     OW21160   6.745   2.100   5.849
 6754SOL    HW121161   6.797   2.039   5.789
 6754SOL    HW221162   6.733   2.056   5.938
 6755SOL     OW21163   4.983   1.642   3.735
 6755SOL    HW121164   5.010   1.660   3.641
 6755SOL    HW221165   4.935   1.555   3.740
 6756SOL     OW21166   4.858   4.358   4.365
 6756SOL    HW121167   4.782   4.396   4.417
 6756SOL    HW221168   4.873   4.263   4.392
 6757SOL     OW21169   4.820   6.226   0.529
 6757SOL    HW121170   4.725   6.230   0.559
 6757SOL    HW221171   4.880   6.243   0.608
 6758SOL     OW21172   5.039   3.394   2.005
 6758SOL    HW121173   5.136   3.416   1.994
 6758SOL    HW221174   4.998   3.379   1.915
 6759SOL     OW21175   1.177   4.020   3.941
 6759SOL    HW121176   1.132   4.073   4.013
 6759SOL    HW221177   1.176   4.072   3.856
 6760SOL     OW21178   6.888   4.660   4.646
 6760SOL    HW121179   6.807   4.617   4.684
 6760SOL    HW221180   6.895   4.754   4.681
 6761SOL     OW21181   5.590   2.510   6.153
 6761SOL    HW121182   5.675   2.473   6.116
 6761SOL    HW221183   5.540   2.559   6.080
 6762SOL     OW21184   6.742   5.539   3.040
 6762SOL    HW121185   6.696   5.459   3.002
 6762SOL    HW221186   6.834   5.514   3.071
 6763SOL     OW21187   6.529   6.066   4.002
 6763SOL    HW121188   6.590   6.133   3.961
 6763SOL    HW221189   6.537   6.070   4.102
 6764SOL     OW21190   3.161   3.955   6.214
 6764SOL    HW121191   3.207   4.042   6.195
 6764SOL    HW221192   3.226   3.880   6.202
 6765SOL     OW21193   6.317   4.656   3.822
 6765SOL    HW121194   6.240   4.704   3.781
 6765SOL    HW221195   6.364   4.602   3.753
 6766SOL     OW21196   2.735   0.036   5.797
 6766SOL    HW121197   2.708   0.118   5.746
 6766SOL    HW221198   2.656   7.000   5.806
 6767SOL     OW21199   0.445   2.565   0.509
 6767SOL    HW121200   0.353   2.549   0.546
 6767SOL    HW221201   0.508   2.497   0.548
 6768SOL     OW21202   0.672   0.651   3.111
 6768SOL    HW121203   0.699   0.685   3.021
 6768SOL    HW221204   0.744   0.592   3.148
 6769SOL     OW21205   3.137   2.004   5.437
 6769SOL    HW121206   3.125   1.910   5.467
 6769SOL    HW221207   3.115   2.012   5.340
 6770SOL     OW21208   0.360   2.668   4.268
 6770SOL    HW121209   0.406   2.708   4.347
 6770SOL    HW221210   0.387   2.717   4.185
 6771SOL     OW21211   3.914   2.121   3.307
 6771SOL    HW121212   3.903   2.123   3.208
 6771SOL    HW221213   3.827   2.099   3.350
 6772SOL     OW21214   5.110   1.954   2.470
 6772SOL    HW121215   5.184   2.011   2.434
 6772SOL    HW221216   5.075   1.994   2.554
 6773SOL     OW21217   6.961   6.476   1.778
 6773SOL    HW121218   6.919   6.394   1.738
 6773SOL    HW221219   6.900   6.555   1.764
 6774SOL     OW21220   2.052   1.723   5.371
 6774SOL    HW121221   2.123   1.694   5.307
 6774SOL    HW221222   2.021   1.645   5.425
 6775SOL     OW21223   1.303   1.632   3.759
 6775SOL    HW121224   1.375   1.651   3.693
 6775SOL    HW221225   1.218   1.613   3.710
 6776SOL     OW21226   3.820   4.064   1.084
 6776SOL    HW121227   3.825   3.985   1.145
 6776SOL    HW221228   3.750   4.127   1.117
 6777SOL     OW21229   4.475   5.755   1.257
 6777SOL    HW121230   4.405   5.741   1.187
 6777SOL    HW221231   4.528   5.671   1.270
 6778SOL     OW21232   5.596   3.293   2.485
 6778SOL    HW121233   5.606   3.266   2.581
 6778SOL    HW221234   5.559   3.217   2.433
 6779SOL     OW21235   6.182   4.358   6.004
 6779SOL    HW121236   6.118   4.367   6.080
 6779SOL    HW221237   6.164   4.273   5.955
 6780SOL     OW21238   2.251   2.763   3.323
 6780SOL    HW121239   2.213   2.845   3.366
 6780SOL    HW221240   2.343   2.782   3.289
 6781SOL     OW21241   6.419   1.034   4.178
 6781SOL    HW121242   6.466   0.946   4.182
 6781SOL    HW221243   6.344   1.034   4.244
 6782SOL     OW21244   0.043   1.242   3.244
 6782SOL    HW121245   6.988   1.222   3.300
 6782SOL    HW221246   0.016   1.250   3.148
 6783SOL     OW21247   1.318   4.497   5.535
 6783SOL    HW121248   1.392   4.448   5.489
 6783SOL    HW221249   1.231   4.453   5.515
 6784SOL     OW21250   2.545   3.253   1.724
 6784SOL    HW121251   2.603   3.334   1.716
 6784SOL    HW221252   2.464   3.274   1.777
 6785SOL     OW21253   5.423   4.755   5.061
 6785SOL    HW121254   5.498   4.757   5.127
 6785SOL    HW221255   5.414   4.663   5.022
 6786SOL     OW21256   6.013   2.949   0.882
 6786SOL    HW121257   5.981   2.955   0.787
 6786SOL    HW221258   6.050   2.858   0.898
 6787SOL     OW21259   3.452   2.143   0.749
 6787SOL    HW121260   3.515   2.182   0.682
 6787SOL    HW221261   3.382   2.211   0.772
 6788SOL     OW21262   0.635   3.595   3.186
 6788SOL    HW121263   0.665   3.505   3.218
 6788SOL    HW221264   0.708   3.662   3.200
 6789SOL     OW21265   6.480   4.193   3.949
 6789SOL    HW121266   6.428   4.229   3.871
 6789SOL    HW221267   6.513   4.101   3.928
 6790SOL     OW21268   0.914   5.080   6.272
 6790SOL    HW121269   0.824   5.048   6.303
 6790SOL    HW221270   0.927   5.055   6.176
 6791SOL     OW21271   4.151   1.598   4.362
 6791SOL    HW121272   4.101   1.684   4.375
 6791SOL    HW221273   4.162   1.580   4.264
 6792SOL     OW21274   4.309   0.153   5.026
 6792SOL    HW121275   4.242   0.157   5.100
 6792SOL    HW221276   4.333   0.057   5.008
 6793SOL     OW21277   2.668   2.869   6.782
 6793SOL    HW121278   2.601   2.867   6.856
 6793SOL    HW221279   2.679   2.776   6.745
 6794SOL     OW21280   4.567   1.424   5.849
 6794SOL    HW121281   4.656   1.469   5.846
 6794SOL    HW221282   4.561   1.367   5.931
 6795SOL     OW21283   1.283   0.981   1.171
 6795SOL    HW121284   1.205   0.924   1.196
 6795SOL    HW221285   1.255   1.046   1.100
 6796SOL     OW21286   6.241   1.046   2.329
 6796SOL    HW121287   6.279   1.097   2.406
 6796SOL    HW221288   6.261   1.095   2.244
 6797SOL     OW21289   6.984   2.325   1.822
 6797SOL    HW121290   6.910   2.259   1.811
 6797SOL    HW221291   6.956   2.396   1.886
 6798SOL     OW21292   5.296   0.667   1.976
 6798SOL    HW121293   5.246   0.745   2.015
 6798SOL    HW221294   5.387   0.663   2.017
 6799SOL     OW21295   5.523   0.151   3.273
 6799SOL    HW121296   5.581   0.228   3.298
 6799SOL    HW221297   5.567   0.066   3.303
 6800SOL     OW21298   0.998   0.912   1.204
 6800SOL    HW121299   0.972   0.920   1.108
 6800SOL    HW221300   0.961   0.990   1.255
 6801SOL     OW21301   1.481   6.617   4.767
 6801SOL    HW121302   1.426   6.539   4.799
 6801SOL    HW221303   1.571   6.585   4.738
 6802SOL     OW21304   3.242   5.646   1.533
 6802SOL    HW121305   3.294   5.604   1.608
 6802SOL    HW221306   3.152   5.603   1.528
 6803SOL     OW21307   4.954   4.762   0.221
 6803SOL    HW121308   4.981   4.854   0.191
 6803SOL    HW221309   4.933   4.707   0.141
 6804SOL     OW21310   2.680   4.839   2.983
 6804SOL    HW121311   2.629   4.849   2.898
 6804SOL    HW221312   2.615   4.827   3.059
 6805SOL     OW21313   0.348   5.100   5.777
 6805SOL    HW121314   0.443   5.132   5.771
 6805SOL    HW221315   0.313   5.116   5.869
 6806SOL     OW21316   6.624   0.768   3.615
 6806SOL    HW121317   6.694   0.811   3.672
 6806SOL    HW221318   6.602   0.829   3.538
 6807SOL     OW21319   3.204   4.021   3.266
 6807SOL    HW121320   3.158   3.934   3.246
 6807SOL    HW221321   3.178   4.053   3.357
 6808SOL     OW21322   4.617   1.281   5.232
 6808SOL    HW121323   4.540   1.304   5.292
 6808SOL    HW221324   4.615   1.339   5.151
 6809SOL     OW21325   5.599   4.517   2.185
 6809SOL    HW121326   5.556   4.560   2.265
 6809SOL    HW221327   5.620   4.422   2.207
 6810SOL     OW21328   2.827   1.151   3.496
 6810SOL    HW121329   2.919   1.127   3.466
 6810SOL    HW221330   2.770   1.173   3.417
 6811SOL     OW21331   5.908   1.735   2.360
 6811SOL    HW121332   5.835   1.744   2.427
 6811SOL    HW221333   5.996   1.749   2.404
 6812SOL     OW21334   3.049   3.647   5.324
 6812SOL    HW121335   2.995   3.701   5.260
 6812SOL    HW221336   3.025   3.551   5.316
 6813SOL     OW21337   5.076   3.352   1.264
 6813SOL    HW121338   5.166   3.394   1.276
 6813SOL    HW221339   5.084   3.253   1.277
 6814SOL     OW21340   4.143   1.555   6.490
 6814SOL    HW121341   4.085   1.514   6.420
 6814SOL    HW221342   4.092   1.564   6.575
 6815SOL     OW21343   1.950   5.291   6.663
 6815SOL    HW121344   1.861   5.321   6.629
 6815SOL    HW221345   2.001   5.246   6.589
 6816SOL     OW21346   0.440   2.179   4.195
 6816SOL    HW121347   0.469   2.272   4.175
 6816SOL    HW221348   0.361   2.181   4.257
 6817SOL     OW21349   2.875   2.266   2.678
 6817SOL    HW121350   2.962   2.285   2.723
 6817SOL    HW221351   2.807   2.334   2.705
 6818SOL     OW21352   2.320   6.203   6.128
 6818SOL    HW121353   2.411   6.164   6.113
 6818SOL    HW221354   2.266   6.192   6.044
 6819SOL     OW21355   4.880   4.912   3.149
 6819SOL    HW121356   4.838   4.824   3.172
 6819SOL    HW221357   4.969   4.895   3.106
 6820SOL     OW21358   1.894   6.316   1.650
 6820SOL    HW121359   1.939   6.344   1.734
 6820SOL    HW221360   1.796   6.335   1.657
 6821SOL     OW21361   4.124   2.791   5.329
 6821SOL    HW121362   4.122   2.778   5.428
 6821SOL    HW221363   4.134   2.702   5.285
 6822SOL     OW21364   6.951   2.682   6.424
 6822SOL    HW121365   6.940   2.633   6.510
 6822SOL    HW221366   6.945   2.617   6.348
 6823SOL     OW21367   5.686   3.475   6.951
 6823SOL    HW121368   5.781   3.508   6.946
 6823SOL    HW221369   5.641   3.490   6.863
 6824SOL     OW21370   1.355   1.779   6.958
 6824SOL    HW121371   1.391   1.789   0.026
 6824SOL    HW221372   1.430   1.780   6.892
 6825SOL     OW21373   0.075   5.964   1.248
 6825SOL    HW121374   0.174   5.956   1.258
 6825SOL    HW221375   0.034   5.873   1.245
 6826SOL     OW21376   1.337   3.476   3.215
 6826SOL    HW121377   1.407   3.417   3.256
 6826SOL    HW221378   1.380   3.542   3.154
 6827SOL     OW21379   4.373   5.413   5.071
 6827SOL    HW121380   4.284   5.383   5.104
 6827SOL    HW221381   4.363   5.462   4.985
 6828SOL     OW21382   3.799   1.500   3.102
 6828SOL    HW121383   3.770   1.449   3.183
 6828SOL    HW221384   3.899   1.506   3.101
 6829SOL     OW21385   4.796   6.543   4.947
 6829SOL    HW121386   4.839   6.542   4.857
 6829SOL    HW221387   4.804   6.453   4.989
 6830SOL     OW21388   5.667   0.717   3.049
 6830SOL    HW121389   5.659   0.783   3.124
 6830SOL    HW221390   5.620   0.753   2.969
 6831SOL     OW21391   1.502   1.403   5.698
 6831SOL    HW121392   1.411   1.443   5.687
 6831SOL    HW221393   1.523   1.345   5.619
 6832SOL     OW21394   3.008   2.208   0.700
 6832SOL    HW121395   3.017   2.306   0.682
 6832SOL    HW221396   2.983   2.194   0.796
 6833SOL     OW21397   3.140   5.182   6.259
 6833SOL    HW121398   3.090   5.225   6.184
 6833SOL    HW221399   3.195   5.106   6.223
 6834SOL     OW21400   4.929   0.210   0.709
 6834SOL    HW121401   5.000   0.221   0.639
 6834SOL    HW221402   4.855   0.155   0.673
 6835SOL     OW21403   3.351   2.083   4.197
 6835SOL    HW121404   3.422   2.115   4.261
 6835SOL    HW221405   3.274   2.146   4.199
 6836SOL     OW21406   1.811   4.771   6.613
 6836SOL    HW121407   1.743   4.721   6.668
 6836SOL    HW221408   1.833   4.717   6.532
 6837SOL     OW21409   1.047   0.549   2.138
 6837SOL    HW121410   0.968   0.606   2.117
 6837SOL    HW221411   1.052   0.532   2.236
 6838SOL     OW21412   2.579   4.619   5.157
 6838SOL    HW121413   2.539   4.602   5.067
 6838SOL    HW221414   2.673   4.584   5.157
 6839SOL     OW21415   5.344   2.186   4.022
 6839SOL    HW121416   5.391   2.098   4.017
 6839SOL    HW221417   5.411   2.259   4.034
 6840SOL     OW21418   2.509   6.525   4.594
 6840SOL    HW121419   2.461   6.438   4.580
 6840SOL    HW221420   2.591   6.527   4.536
 6841SOL     OW21421   3.882   5.698   1.951
 6841SOL    HW121422   3.901   5.615   2.003
 6841SOL    HW221423   3.820   5.756   2.003
 6842SOL     OW21424   0.419   3.010   6.882
 6842SOL    HW121425   0.346   3.054   6.935
 6842SOL    HW221426   0.507   3.048   6.910
 6843SOL     OW21427   4.518   2.349   1.961
 6843SOL    HW121428   4.545   2.443   1.940
 6843SOL    HW221429   4.451   2.350   2.035
 6844SOL     OW21430   4.531   5.327   4.503
 6844SOL    HW121431   4.629   5.334   4.523
 6844SOL    HW221432   4.499   5.235   4.527
 6845SOL     OW21433   4.398   4.600   2.763
 6845SOL    HW121434   4.447   4.665   2.706
 6845SOL    HW221435   4.306   4.633   2.782
 6846SOL     OW21436   3.471   3.130   2.143
 6846SOL    HW121437   3.428   3.218   2.119
 6846SOL    HW221438   3.465   3.116   2.242
 6847SOL     OW21439   5.069   3.594   1.696
 6847SOL    HW121440   5.137   3.544   1.643
 6847SOL    HW221441   4.984   3.541   1.699
 6848SOL     OW21442   0.759   5.355   4.511
 6848SOL    HW121443   0.778   5.353   4.610
 6848SOL    HW221444   0.665   5.384   4.496
 6849SOL     OW21445   3.458   5.643   3.873
 6849SOL    HW121446   3.507   5.633   3.787
 6849SOL    HW221447   3.429   5.553   3.906
 6850SOL     OW21448   5.630   1.586   3.810
 6850SOL    HW121449   5.625   1.520   3.735
 6850SOL    HW221450   5.623   1.679   3.773
 6851SOL     OW21451   0.864   5.078   5.859
 6851SOL    HW121452   0.938   5.124   5.809
 6851SOL    HW221453   0.903   5.019   5.929
 6852SOL     OW21454   0.764   4.070   1.324
 6852SOL    HW121455   0.801   4.108   1.409
 6852SOL    HW221456   0.746   4.145   1.259
 6853SOL     OW21457   0.763   5.802   5.869
 6853SOL    HW121458   0.757   5.861   5.950
 6853SOL    HW221459   0.850   5.819   5.823
 6854SOL     OW21460   6.632   1.785   6.026
 6854SOL    HW121461   6.695   1.710   6.047
 6854SOL    HW221462   6.660   1.866   6.078
 6855SOL     OW21463   4.309   6.989   3.095
 6855SOL    HW121464   4.217   6.951   3.092
 6855SOL    HW221465   4.305   0.064   3.083
 6856SOL     OW21466   6.686   3.897   4.458
 6856SOL    HW121467   6.743   3.919   4.537
 6856SOL    HW221468   6.724   3.816   4.412
 6857SOL     OW21469   3.237   1.583   6.460
 6857SOL    HW121470   3.201   1.588   6.367
 6857SOL    HW221471   3.286   1.668   6.481
 6858SOL     OW21472   4.086   3.648   4.609
 6858SOL    HW121473   4.141   3.667   4.690
 6858SOL    HW221474   4.082   3.549   4.594
 6859SOL     OW21475   2.369   6.671   0.765
 6859SOL    HW121476   2.417   6.648   0.680
 6859SOL    HW221477   2.316   6.592   0.796
 6860SOL     OW21478   5.568   4.735   1.341
 6860SOL    HW121479   5.523   4.659   1.388
 6860SOL    HW221480   5.628   4.699   1.269
 6861SOL     OW21481   5.781   5.603   0.342
 6861SOL    HW121482   5.710   5.542   0.379
 6861SOL    HW221483   5.871   5.563   0.359
 6862SOL     OW21484   2.999   4.923   4.686
 6862SOL    HW121485   2.997   4.892   4.781
 6862SOL    HW221486   2.920   4.981   4.668
 6863SOL     OW21487   6.460   1.267   4.430
 6863SOL    HW121488   6.388   1.201   4.451
 6863SOL    HW221489   6.502   1.245   4.342
 6864SOL     OW21490   3.171   5.722   3.201
 6864SOL    HW121491   3.101   5.771   3.253
 6864SOL    HW221492   3.251   5.782   3.189
 6865SOL     OW21493   6.368   4.178   4.213
 6865SOL    HW121494   6.381   4.167   4.114
 6865SOL    HW221495   6.405   4.099   4.261
 6866SOL     OW21496   6.931   3.859   1.689
 6866SOL    HW121497   6.896   3.894   1.776
 6866SOL    HW221498   6.896   3.766   1.674
 6867SOL     OW21499   1.612   4.251   1.799
 6867SOL    HW121500   1.687   4.291   1.746
 6867SOL    HW221501   1.556   4.194   1.738
 6868SOL     OW21502   1.768   6.453   4.943
 6868SOL    HW121503   1.695   6.386   4.929
 6868SOL    HW221504   1.789   6.498   4.856
 6869SOL     OW21505   5.925   2.890   4.815
 6869SOL    HW121506   5.992   2.833   4.862
 6869SOL    HW221507   5.889   2.958   4.879
 6870SOL     OW21508   5.517   3.548   3.250
 6870SOL    HW121509   5.552   3.507   3.166
 6870SOL    HW221510   5.419   3.529   3.258
 6871SOL     OW21511   6.025   4.679   1.752
 6871SOL    HW121512   6.117   4.640   1.747
 6871SOL    HW221513   5.974   4.657   1.669
 6872SOL     OW21514   1.489   3.541   1.019
 6872SOL    HW121515   1.440   3.472   1.072
 6872SOL    HW221516   1.478   3.630   1.063
 6873SOL     OW21517   5.711   2.994   5.805
 6873SOL    HW121518   5.648   3.057   5.759
 6873SOL    HW221519   5.682   2.900   5.788
 6874SOL     OW21520   6.929   3.574   3.864
 6874SOL    HW121521   6.934   3.673   3.855
 6874SOL    HW221522   6.942   3.532   3.774
 6875SOL     OW21523   1.497   1.500   2.773
 6875SOL    HW121524   1.584   1.456   2.797
 6875SOL    HW221525   1.488   1.504   2.673
 6876SOL     OW21526   3.402   5.653   6.525
 6876SOL    HW121527   3.444   5.584   6.465
 6876SOL    HW221528   3.347   5.607   6.595
 6877SOL     OW21529   2.159   4.208   6.878
 6877SOL    HW121530   2.083   4.150   6.848
 6877SOL    HW221531   2.124   4.299   6.900
 6878SOL     OW21532   2.334   1.664   6.012
 6878SOL    HW121533   2.414   1.690   5.958
 6878SOL    HW221534   2.347   1.571   6.047
 6879SOL     OW21535   0.060   1.886   0.186
 6879SOL    HW121536   6.996   1.842   0.176
 6879SOL    HW221537   0.054   1.959   0.254
 6880SOL     OW21538   2.131   3.933   4.791
 6880SOL    HW121539   2.201   3.937   4.862
 6880SOL    HW221540   2.145   3.851   4.735
 6881SOL     OW21541   0.053   4.301   1.336
 6881SOL    HW121542   0.021   4.208   1.320
 6881SOL    HW221543   0.083   4.342   1.250
 6882SOL     OW21544   2.161   0.505   5.150
 6882SOL    HW121545   2.098   0.444   5.103
 6882SOL    HW221546   2.113   0.551   5.225
 6883SOL     OW21547   3.813   0.090   0.855
 6883SOL    HW121548   3.764   0.130   0.933
 6883SOL    HW221549   3.827   0.160   0.785
 6884SOL     OW21550   2.297   4.380   4.503
 6884SOL    HW121551   2.337   4.321   4.433
 6884SOL    HW221552   2.370   4.430   4.550
 6885SOL     OW21553   3.028   6.141   3.139
 6885SOL    HW121554   2.943   6.192   3.154
 6885SOL    HW221555   3.084   6.146   3.222
 6886SOL     OW21556   4.973   1.285   2.311
 6886SOL    HW121557   5.015   1.374   2.294
 6886SOL    HW221558   4.887   1.298   2.360
 6887SOL     OW21559   5.292   0.255   4.956
 6887SOL    HW121560   5.260   0.336   4.908
 6887SOL    HW221561   5.388   0.266   4.981
 6888SOL     OW21562   6.095   0.016   5.430
 6888SOL    HW121563   6.137   0.107   5.431
 6888SOL    HW221564   6.029   0.009   5.505
 6889SOL     OW21565   0.789   2.885   5.525
 6889SOL    HW121566   0.753   2.969   5.566
 6889SOL    HW221567   0.720   2.847   5.463
 6890SOL     OW21568   2.234   0.108   0.658
 6890SOL    HW121569   2.333   0.107   0.668
 6890SOL    HW221570   2.191   0.103   0.748
 6891SOL     OW21571   2.046   3.694   4.623
 6891SOL    HW121572   1.955   3.701   4.662
 6891SOL    HW221573   2.056   3.607   4.574
 6892SOL     OW21574   4.049   0.286   3.891
 6892SOL    HW121575   4.096   0.369   3.864
 6892SOL    HW221576   4.019   0.294   3.986
 6893SOL     OW21577   5.675   5.770   2.785
 6893SOL    HW121578   5.718   5.794   2.698
 6893SOL    HW221579   5.596   5.829   2.800
 6894SOL     OW21580   5.990   5.440   0.377
 6894SOL    HW121581   6.061   5.460   0.444
 6894SOL    HW221582   6.014   5.481   0.289
 6895SOL     OW21583   3.053   4.489   6.978
 6895SOL    HW121584   3.112   4.548   6.923
 6895SOL    HW221585   3.050   4.524   0.047
 6896SOL     OW21586   3.530   0.657   4.207
 6896SOL    HW121587   3.508   0.636   4.112
 6896SOL    HW221588   3.558   0.753   4.214
 6897SOL     OW21589   2.822   3.177   0.202
 6897SOL    HW121590   2.892   3.196   0.133
 6897SOL    HW221591   2.733   3.170   0.158
 6898SOL     OW21592   4.381   1.284   1.729
 6898SOL    HW121593   4.391   1.373   1.773
 6898SOL    HW221594   4.388   1.211   1.798
 6899SOL     OW21595   5.173   6.856   6.380
 6899SOL    HW121596   5.192   6.759   6.394
 6899SOL    HW221597   5.092   6.883   6.432
 6900SOL     OW21598   5.827   0.804   6.154
 6900SOL    HW121599   5.768   0.753   6.091
 6900SOL    HW221600   5.870   0.740   6.218
 6901SOL     OW21601   0.269   0.143   6.488
 6901SOL    HW121602   0.346   0.203   6.470
 6901SOL    HW221603   0.268   0.068   6.421
 6902SOL     OW21604   0.659   6.909   0.018
 6902SOL    HW121605   0.754   6.936   0.032
 6902SOL    HW221606   0.645   6.817   0.053
 6903SOL     OW21607   3.792   3.588   0.348
 6903SOL    HW121608   3.749   3.513   0.298
 6903SOL    HW221609   3.752   3.595   0.439
 6904SOL     OW21610   6.653   1.181   3.490
 6904SOL    HW121611   6.744   1.144   3.469
 6904SOL    HW221612   6.644   1.191   3.589
 6905SOL     OW21613   6.039   6.778   0.757
 6905SOL    HW121614   6.110   6.797   0.825
 6905SOL    HW221615   5.971   6.851   0.758
 6906SOL     OW21616   3.649   0.960   4.633
 6906SOL    HW121617   3.698   1.033   4.683
 6906SOL    HW221618   3.555   0.956   4.665
 6907SOL     OW21619   3.887   1.415   0.766
 6907SOL    HW121620   3.797   1.373   0.784
 6907SOL    HW221621   3.944   1.406   0.847
 6908SOL     OW21622   0.864   0.149   5.544
 6908SOL    HW121623   0.783   0.137   5.486
 6908SOL    HW221624   0.850   0.227   5.605
 6909SOL     OW21625   4.241   4.684   0.859
 6909SOL    HW121626   4.288   4.773   0.862
 6909SOL    HW221627   4.273   4.633   0.778
 6910SOL     OW21628   6.132   1.587   2.658
 6910SOL    HW121629   6.046   1.601   2.707
 6910SOL    HW221630   6.209   1.606   2.719
 6911SOL     OW21631   4.123   0.104   3.694
 6911SOL    HW121632   4.092   0.171   3.761
 6911SOL    HW221633   4.139   0.016   3.740
 6912SOL     OW21634   4.883   4.835   1.328
 6912SOL    HW121635   4.894   4.745   1.371
 6912SOL    HW221636   4.971   4.866   1.292
 6913SOL     OW21637   4.999   4.236   4.858
 6913SOL    HW121638   4.904   4.262   4.877
 6913SOL    HW221639   5.010   4.217   4.761
 6914SOL     OW21640   5.739   5.180   0.162
 6914SOL    HW121641   5.656   5.209   0.114
 6914SOL    HW221642   5.716   5.157   0.257
 6915SOL     OW21643   0.500   4.544   2.332
 6915SOL    HW121644   0.505   4.575   2.427
 6915SOL    HW221645   0.537   4.452   2.325
 6916SOL     OW21646   6.729   4.355   6.820
 6916SOL    HW121647   6.680   4.442   6.819
 6916SOL    HW221648   6.684   4.290   6.759
 6917SOL     OW21649   4.754   5.756   6.098
 6917SOL    HW121650   4.660   5.727   6.082
 6917SOL    HW221651   4.812   5.675   6.108
 6918SOL     OW21652   0.421   3.936   4.135
 6918SOL    HW121653   0.382   4.019   4.174
 6918SOL    HW221654   0.440   3.950   4.038
 6919SOL     OW21655   1.930   5.324   2.486
 6919SOL    HW121656   1.879   5.399   2.444
 6919SOL    HW221657   1.883   5.237   2.469
 6920SOL     OW21658   5.191   5.355   5.390
 6920SOL    HW121659   5.205   5.327   5.295
 6920SOL    HW221660   5.156   5.448   5.393
 6921SOL     OW21661   5.977   5.795   3.636
 6921SOL    HW121662   6.021   5.707   3.616
 6921SOL    HW221663   5.987   5.815   3.734
 6922SOL     OW21664   1.763   6.339   0.290
 6922SOL    HW121665   1.737   6.355   0.194
 6922SOL    HW221666   1.845   6.393   0.311
 6923SOL     OW21667   4.174   6.439   4.252
 6923SOL    HW121668   4.177   6.520   4.194
 6923SOL    HW221669   4.267   6.407   4.269
 6924SOL     OW21670   0.704   3.807   0.024
 6924SOL    HW121671   0.764   3.736   0.060
 6924SOL    HW221672   0.614   3.769   0.006
 6925SOL     OW21673   4.115   6.217   4.032
 6925SOL    HW121674   4.209   6.248   4.014
 6925SOL    HW221675   4.096   6.136   3.976
 6926SOL     OW21676   3.720   4.055   3.142
 6926SOL    HW121677   3.621   4.055   3.155
 6926SOL    HW221678   3.755   4.147   3.161
 6927SOL     OW21679   5.131   4.138   5.885
 6927SOL    HW121680   5.223   4.149   5.847
 6927SOL    HW221681   5.136   4.083   5.969
 6928SOL     OW21682   4.538   0.267   6.596
 6928SOL    HW121683   4.625   0.304   6.628
 6928SOL    HW221684   4.550   0.171   6.569
 6929SOL     OW21685   4.219   6.290   6.774
 6929SOL    HW121686   4.295   6.351   6.751
 6929SOL    HW221687   4.187   6.243   6.692
 6930SOL     OW21688   0.337   6.938   2.232
 6930SOL    HW121689   0.280   6.874   2.181
 6930SOL    HW221690   0.351   7.021   2.178
 6931SOL     OW21691   0.806   0.193   1.586
 6931SOL    HW121692   0.726   0.133   1.591
 6931SOL    HW221693   0.787   0.269   1.523
 6932SOL     OW21694   3.052   1.096   0.117
 6932SOL    HW121695   3.135   1.118   0.066
 6932SOL    HW221696   2.976   1.153   0.086
 6933SOL     OW21697   3.591   5.316   4.954
 6933SOL    HW121698   3.507   5.266   4.935
 6933SOL    HW221699   3.600   5.392   4.890
 6934SOL     OW21700   5.599   3.467   6.606
 6934SOL    HW121701   5.605   3.564   6.579
 6934SOL    HW221702   5.529   3.456   6.676
 6935SOL     OW21703   4.376   6.177   3.115
 6935SOL    HW121704   4.375   6.140   3.208
 6935SOL    HW221705   4.468   6.168   3.077
 6936SOL     OW21706   7.023   1.957   2.311
 6936SOL    HW121707   0.083   1.972   2.360
 6936SOL    HW221708   6.998   1.860   2.316
 6937SOL     OW21709   4.764   6.413   6.621
 6937SOL    HW121710   4.777   6.503   6.580
 6937SOL    HW221711   4.733   6.348   6.552
 6938SOL     OW21712   4.988   3.951   5.447
 6938SOL    HW121713   4.889   3.941   5.436
 6938SOL    HW221714   5.035   3.880   5.395
 6939SOL     OW21715   0.267   4.758   2.649
 6939SOL    HW121716   0.187   4.707   2.681
 6939SOL    HW221717   0.238   4.830   2.586
 6940SOL     OW21718   4.750   0.734   0.674
 6940SOL    HW121719   4.833   0.690   0.640
 6940SOL    HW221720   4.743   0.826   0.637
 6941SOL     OW21721   4.209   3.570   1.894
 6941SOL    HW121722   4.234   3.666   1.888
 6941SOL    HW221723   4.236   3.523   1.810
 6942SOL     OW21724   0.053   2.714   1.172
 6942SOL    HW121725   0.105   2.724   1.087
 6942SOL    HW221726   0.080   2.629   1.217
 6943SOL     OW21727   4.933   6.788   6.026
 6943SOL    HW121728   5.006   6.725   6.054
 6943SOL    HW221729   4.955   6.880   6.059
 6944SOL     OW21730   1.300   5.775   5.232
 6944SOL    HW121731   1.353   5.814   5.157
 6944SOL    HW221732   1.202   5.787   5.213
 6945SOL     OW21733   6.274   3.371   6.875
 6945SOL    HW121734   6.372   3.372   6.893
 6945SOL    HW221735   6.258   3.333   6.784
 6946SOL     OW21736   5.874   4.966   2.336
 6946SOL    HW121737   5.864   5.052   2.285
 6946SOL    HW221738   5.898   4.893   2.272
 6947SOL     OW21739   3.900   6.768   3.837
 6947SOL    HW121740   3.811   6.803   3.867
 6947SOL    HW221741   3.886   6.690   3.776
 6948SOL     OW21742   5.110   0.494   0.351
 6948SOL    HW121743   5.035   0.429   0.363
 6948SOL    HW221744   5.161   0.502   0.436
 6949SOL     OW21745   5.025   6.106   3.139
 6949SOL    HW121746   5.111   6.151   3.161
 6949SOL    HW221747   5.044   6.016   3.098
 6950SOL     OW21748   2.686   0.121   2.889
 6950SOL    HW121749   2.606   0.122   2.829
 6950SOL    HW221750   2.766   0.153   2.838
 6951SOL     OW21751   6.226   6.510   5.844
 6951SOL    HW121752   6.270   6.490   5.932
 6951SOL    HW221753   6.274   6.461   5.771
 6952SOL     OW21754   6.792   5.208   3.284
 6952SOL    HW121755   6.883   5.193   3.322
 6952SOL    HW221756   6.800   5.238   3.189
 6953SOL     OW21757   5.506   0.688   5.672
 6953SOL    HW121758   5.485   0.754   5.745
 6953SOL    HW221759   5.421   0.655   5.631
 6954SOL     OW21760   0.767   3.689   3.647
 6954SOL    HW121761   0.810   3.607   3.685
 6954SOL    HW221762   0.680   3.705   3.692
 6955SOL     OW21763   6.886   0.182   1.872
 6955SOL    HW121764   6.890   0.176   1.772
 6955SOL    HW221765   6.877   0.277   1.899
 6956SOL     OW21766   4.532   5.816   2.479
 6956SOL    HW121767   4.513   5.901   2.430
 6956SOL    HW221768   4.472   5.744   2.443
 6957SOL     OW21769   0.157   4.759   1.311
 6957SOL    HW121770   0.171   4.740   1.408
 6957SOL    HW221771   0.066   4.730   1.283
 6958SOL     OW21772   2.243   2.566   6.276
 6958SOL    HW121773   2.306   2.642   6.264
 6958SOL    HW221774   2.217   2.559   6.373
 6959SOL     OW21775   2.083   1.094   4.816
 6959SOL    HW121776   1.998   1.059   4.855
 6959SOL    HW221777   2.146   1.119   4.890
 6960SOL     OW21778   0.768   5.415   0.518
 6960SOL    HW121779   0.849   5.474   0.521
 6960SOL    HW221780   0.795   5.323   0.491
 6961SOL     OW21781   0.620   2.310   3.558
 6961SOL    HW121782   0.593   2.267   3.644
 6961SOL    HW221783   0.540   2.354   3.517
 6962SOL     OW21784   5.732   4.981   3.393
 6962SOL    HW121785   5.647   4.929   3.384
 6962SOL    HW221786   5.725   5.065   3.338
 6963SOL     OW21787   0.377   5.622   1.215
 6963SOL    HW121788   0.371   5.557   1.291
 6963SOL    HW221789   0.473   5.632   1.187
 6964SOL     OW21790   4.756   5.044   5.184
 6964SOL    HW121791   4.708   5.131   5.197
 6964SOL    HW221792   4.837   5.042   5.243
 6965SOL     OW21793   6.834   3.405   6.221
 6965SOL    HW121794   6.819   3.501   6.244
 6965SOL    HW221795   6.932   3.385   6.224
 6966SOL     OW21796   5.818   2.794   2.717
 6966SOL    HW121797   5.770   2.831   2.638
 6966SOL    HW221798   5.809   2.856   2.794
 6967SOL     OW21799   1.534   1.656   5.391
 6967SOL    HW121800   1.491   1.732   5.438
 6967SOL    HW221801   1.624   1.683   5.357
 6968SOL     OW21802   4.004   6.603   1.055
 6968SOL    HW121803   3.949   6.627   1.136
 6968SOL    HW221804   3.971   6.517   1.017
 6969SOL     OW21805   3.710   1.624   1.880
 6969SOL    HW121806   3.737   1.720   1.890
 6969SOL    HW221807   3.628   1.618   1.823
 6970SOL     OW21808   3.999   3.800   0.674
 6970SOL    HW121809   3.945   3.736   0.730
 6970SOL    HW221810   3.946   3.826   0.594
 6971SOL     OW21811   6.779   3.093   2.075
 6971SOL    HW121812   6.784   3.037   1.992
 6971SOL    HW221813   6.704   3.060   2.133
 6972SOL     OW21814   5.919   4.431   4.608
 6972SOL    HW121815   5.821   4.442   4.588
 6972SOL    HW221816   5.938   4.472   4.698
 6973SOL     OW21817   1.474   4.648   4.771
 6973SOL    HW121818   1.476   4.595   4.687
 6973SOL    HW221819   1.564   4.645   4.815
 6974SOL     OW21820   4.130   3.442   3.644
 6974SOL    HW121821   4.092   3.362   3.598
 6974SOL    HW221822   4.147   3.422   3.740
 6975SOL     OW21823   3.175   6.689   5.495
 6975SOL    HW121824   3.125   6.746   5.430
 6975SOL    HW221825   3.113   6.656   5.566
 6976SOL     OW21826   3.753   4.612   6.602
 6976SOL    HW121827   3.728   4.697   6.555
 6976SOL    HW221828   3.692   4.538   6.572
 6977SOL     OW21829   5.322   2.186   1.935
 6977SOL    HW121830   5.386   2.113   1.961
 6977SOL    HW221831   5.231   2.146   1.921
 6978SOL     OW21832   6.546   0.646   1.678
 6978SOL    HW121833   6.630   0.623   1.727
 6978SOL    HW221834   6.531   0.745   1.682
 6979SOL     OW21835   1.337   5.448   2.187
 6979SOL    HW121836   1.390   5.418   2.107
 6979SOL    HW221837   1.240   5.426   2.172
 6980SOL     OW21838   2.058   0.707   3.708
 6980SOL    HW121839   2.023   0.766   3.781
 6980SOL    HW221840   1.987   0.642   3.681
 6981SOL     OW21841   2.561   4.060   6.663
 6981SOL    HW121842   2.631   4.098   6.602
 6981SOL    HW221843   2.605   4.025   6.746
 6982SOL     OW21844   1.332   1.525   4.002
 6982SOL    HW121845   1.333   1.565   3.911
 6982SOL    HW221846   1.386   1.583   4.064
 6983SOL     OW21847   0.171   1.112   3.960
 6983SOL    HW121848   0.231   1.183   3.923
 6983SOL    HW221849   0.219   1.024   3.959
 6984SOL     OW21850   2.773   1.822   5.344
 6984SOL    HW121851   2.736   1.787   5.259
 6984SOL    HW221852   2.703   1.876   5.391
 6985SOL     OW21853   3.670   5.523   2.758
 6985SOL    HW121854   3.594   5.588   2.766
 6985SOL    HW221855   3.712   5.531   2.668
 6986SOL     OW21856   2.211   6.203   5.895
 6986SOL    HW121857   2.123   6.201   5.849
 6986SOL    HW221858   2.249   6.295   5.893
 6987SOL     OW21859   0.462   1.762   5.823
 6987SOL    HW121860   0.561   1.750   5.821
 6987SOL    HW221861   0.417   1.674   5.808
 6988SOL     OW21862   6.134   1.238   4.887
 6988SOL    HW121863   6.111   1.153   4.935
 6988SOL    HW221864   6.055   1.299   4.889
 6989SOL     OW21865   1.001   1.960   3.519
 6989SOL    HW121866   1.015   1.863   3.538
 6989SOL    HW221867   1.082   1.997   3.473
 6990SOL     OW21868   5.020   1.865   0.443
 6990SOL    HW121869   5.110   1.839   0.477
 6990SOL    HW221870   5.029   1.945   0.384
 6991SOL     OW21871   2.614   4.678   4.837
 6991SOL    HW121872   2.548   4.729   4.892
 6991SOL    HW221873   2.696   4.660   4.891
 6992SOL     OW21874   5.558   5.669   4.988
 6992SOL    HW121875   5.545   5.698   5.083
 6992SOL    HW221876   5.635   5.718   4.948
 6993SOL     OW21877   5.751   6.356   3.020
 6993SOL    HW121878   5.770   6.389   3.112
 6993SOL    HW221879   5.788   6.265   3.007
 6994SOL     OW21880   0.617   3.648   4.990
 6994SOL    HW121881   0.629   3.566   4.934
 6994SOL    HW221882   0.639   3.729   4.936
 6995SOL     OW21883   6.560   5.268   4.663
 6995SOL    HW121884   6.569   5.179   4.706
 6995SOL    HW221885   6.515   5.257   4.574
 6996SOL     OW21886   2.759   0.996   5.297
 6996SOL    HW121887   2.789   1.030   5.207
 6996SOL    HW221888   2.736   1.074   5.355
 6997SOL     OW21889   4.697   6.250   5.523
 6997SOL    HW121890   4.723   6.155   5.506
 6997SOL    HW221891   4.779   6.304   5.539
 6998SOL     OW21892   1.746   3.016   1.341
 6998SOL    HW121893   1.758   2.987   1.246
 6998SOL    HW221894   1.831   3.000   1.391
 6999SOL     OW21895   2.511   1.619   6.883
 6999SOL    HW121896   2.421   1.594   6.919
 6999SOL    HW221897   2.561   1.670   6.953
 7000SOL     OW21898   6.918   6.287   2.694
 7000SOL    HW121899   6.859   6.367   2.706
 7000SOL    HW221900   6.923   6.236   2.780
 7001SOL     OW21901   2.499   2.633   5.849
 7001SOL    HW121902   2.507   2.571   5.771
 7001SOL    HW221903   2.568   2.705   5.842
 7002SOL     OW21904   2.471   4.521   3.655
 7002SOL    HW121905   2.468   4.465   3.572
 7002SOL    HW221906   2.491   4.616   3.632
 7003SOL     OW21907   2.831   6.946   6.836
 7003SOL    HW121908   2.756   6.956   6.770
 7003SOL    HW221909   2.917   6.967   6.790
 7004SOL     OW21910   2.050   4.409   2.005
 7004SOL    HW121911   2.147   4.423   2.026
 7004SOL    HW221912   2.042   4.369   1.914
 7005SOL     OW21913   0.214   5.753   5.528
 7005SOL    HW121914   0.282   5.680   5.519
 7005SOL    HW221915   0.123   5.713   5.537
 7006SOL     OW21916   4.915   4.603   4.723
 7006SOL    HW121917   4.886   4.628   4.816
 7006SOL    HW221918   4.985   4.532   4.728
 7007SOL     OW21919   5.366   6.846   3.364
 7007SOL    HW121920   5.308   6.921   3.394
 7007SOL    HW221921   5.314   6.785   3.303
 7008SOL     OW21922   2.228   5.038   3.981
 7008SOL    HW121923   2.286   5.118   3.996
 7008SOL    HW221924   2.271   4.957   4.022
 7009SOL     OW21925   6.282   4.889   2.188
 7009SOL    HW121926   6.306   4.899   2.092
 7009SOL    HW221927   6.355   4.925   2.245
 7010SOL     OW21928   4.359   4.823   5.743
 7010SOL    HW121929   4.425   4.779   5.682
 7010SOL    HW221930   4.276   4.844   5.693
 7011SOL     OW21931   1.384   0.122   6.232
 7011SOL    HW121932   1.418   0.132   6.139
 7011SOL    HW221933   1.430   0.044   6.276
 7012SOL     OW21934   1.799   0.993   2.077
 7012SOL    HW121935   1.733   0.925   2.044
 7012SOL    HW221936   1.786   1.079   2.028
 7013SOL     OW21937   0.854   6.762   0.843
 7013SOL    HW121938   0.792   6.818   0.788
 7013SOL    HW221939   0.896   6.692   0.784
 7014SOL     OW21940   4.652   4.293   1.141
 7014SOL    HW121941   4.728   4.229   1.144
 7014SOL    HW221942   4.575   4.257   1.194
 7015SOL     OW21943   5.498   3.728   2.168
 7015SOL    HW121944   5.520   3.645   2.218
 7015SOL    HW221945   5.582   3.779   2.148
 7016SOL     OW21946   3.863   4.834   2.706
 7016SOL    HW121947   3.799   4.893   2.755
 7016SOL    HW221948   3.879   4.871   2.614
 7017SOL     OW21949   2.319   0.542   2.275
 7017SOL    HW121950   2.221   0.539   2.257
 7017SOL    HW221951   2.353   0.636   2.261
 7018SOL     OW21952   0.038   4.486   4.881
 7018SOL    HW121953   0.017   4.472   4.977
 7018SOL    HW221954   0.098   4.565   4.870
 7019SOL     OW21955   2.859   4.736   6.605
 7019SOL    HW121956   2.923   4.660   6.599
 7019SOL    HW221957   2.906   4.816   6.642
 7020SOL     OW21958   5.434   6.675   0.276
 7020SOL    HW121959   5.513   6.689   0.216
 7020SOL    HW221960   5.457   6.607   0.345
 7021SOL     OW21961   2.954   0.987   5.712
 7021SOL    HW121962   3.009   0.908   5.739
 7021SOL    HW221963   2.981   1.066   5.767
 7022SOL     OW21964   4.618   4.563   0.181
 7022SOL    HW121965   4.689   4.534   0.245
 7022SOL    HW221966   4.536   4.507   0.195
 7023SOL     OW21967   6.979   2.022   3.134
 7023SOL    HW121968   6.984   1.945   3.070
 7023SOL    HW221969   0.045   2.040   3.171
 7024SOL     OW21970   1.651   5.985   6.455
 7024SOL    HW121971   1.687   5.930   6.380
 7024SOL    HW221972   1.554   6.005   6.439
 7025SOL     OW21973   3.709   1.854   7.017
 7025SOL    HW121974   3.694   1.862   6.918
 7025SOL    HW221975   3.661   1.773   0.026
 7026SOL     OW21976   2.759   1.295   1.887
 7026SOL    HW121977   2.826   1.368   1.876
 7026SOL    HW221978   2.754   1.241   1.804
 7027SOL     OW21979   3.275   5.543   2.835
 7027SOL    HW121980   3.321   5.513   2.919
 7027SOL    HW221981   3.184   5.576   2.857
 7028SOL     OW21982   5.738   6.205   4.578
 7028SOL    HW121983   5.719   6.302   4.569
 7028SOL    HW221984   5.834   6.191   4.601
 7029SOL     OW21985   3.863   6.884   6.760
 7029SOL    HW121986   3.861   6.892   6.660
 7029SOL    HW221987   3.832   6.970   6.801
 7030SOL     OW21988   0.251   2.910   6.099
 7030SOL    HW121989   0.262   2.825   6.047
 7030SOL    HW221990   0.254   2.987   6.036
 7031SOL     OW21991   2.320   5.912   3.713
 7031SOL    HW121992   2.344   5.895   3.618
 7031SOL    HW221993   2.229   5.875   3.732
 7032SOL     OW21994   4.112   6.731   3.559
 7032SOL    HW121995   4.041   6.687   3.505
 7032SOL    HW221996   4.192   6.749   3.501
 7033SOL     OW21997   6.638   1.637   4.126
 7033SOL    HW121998   6.568   1.568   4.108
 7033SOL    HW221999   6.663   1.683   4.041
 7034SOL     OW22000   5.623   0.922   3.243
 7034SOL    HW122001   5.663   1.002   3.200
 7034SOL    HW222002   5.674   0.899   3.326
 7035SOL     OW22003   1.442   6.752   2.335
 7035SOL    HW122004   1.539   6.732   2.325
 7035SOL    HW222005   1.412   6.811   2.259
 7036SOL     OW22006   6.284   6.470   1.405
 7036SOL    HW122007   6.257   6.390   1.459
 7036SOL    HW222008   6.376   6.498   1.432
 7037SOL     OW22009   0.032   6.597   6.605
 7037SOL    HW122010   0.019   6.498   6.600
 7037SOL    HW222011   0.127   6.619   6.583
 7038SOL     OW22012   1.596   3.974   4.521
 7038SOL    HW122013   1.537   4.042   4.564
 7038SOL    HW222014   1.685   3.973   4.567
 7039SOL     OW22015   3.089   6.559   0.242
 7039SOL    HW122016   3.148   6.580   0.320
 7039SOL    HW222017   3.136   6.582   0.157
 7040SOL     OW22018   4.736   2.708   6.028
 7040SOL    HW122019   4.804   2.648   6.070
 7040SOL    HW222020   4.783   2.774   5.968
 7041SOL     OW22021   1.025   1.682   3.594
 7041SOL    HW122022   0.941   1.657   3.641
 7041SOL    HW222023   1.043   1.618   3.519
 7042SOL     OW22024   5.232   5.460   6.728
 7042SOL    HW122025   5.215   5.508   6.642
 7042SOL    HW222026   5.158   5.480   6.792
 7043SOL     OW22027   2.349   2.699   2.791
 7043SOL    HW122028   2.426   2.672   2.849
 7043SOL    HW222029   2.289   2.620   2.775
 7044SOL     OW22030   5.000   4.255   2.823
 7044SOL    HW122031   4.906   4.229   2.802
 7044SOL    HW222032   5.006   4.290   2.916
 7045SOL     OW22033   4.400   6.205   1.255
 7045SOL    HW122034   4.346   6.289   1.248
 7045SOL    HW222035   4.454   6.194   1.171
 7046SOL     OW22036   3.616   1.840   3.831
 7046SOL    HW122037   3.601   1.915   3.766
 7046SOL    HW222038   3.545   1.844   3.903
 7047SOL     OW22039   0.991   2.400   3.331
 7047SOL    HW122040   0.924   2.336   3.369
 7047SOL    HW222041   1.054   2.350   3.270
 7048SOL     OW22042   0.662   5.904   1.430
 7048SOL    HW122043   0.608   5.972   1.381
 7048SOL    HW222044   0.607   5.864   1.504
 7049SOL     OW22045   2.916   0.441   0.625
 7049SOL    HW122046   2.888   0.504   0.697
 7049SOL    HW222047   2.891   0.348   0.651
 7050SOL     OW22048   3.300   3.792   3.779
 7050SOL    HW122049   3.346   3.817   3.864
 7050SOL    HW222050   3.338   3.845   3.703
 7051SOL     OW22051   0.503   0.486   0.863
 7051SOL    HW122052   0.562   0.539   0.924
 7051SOL    HW222053   0.556   0.411   0.823
 7052SOL     OW22054   6.545   2.532   4.303
 7052SOL    HW122055   6.532   2.536   4.203
 7052SOL    HW222056   6.573   2.622   4.337
 7053SOL     OW22057   0.416   3.045   6.271
 7053SOL    HW122058   0.359   3.005   6.199
 7053SOL    HW222059   0.365   3.117   6.318
 7054SOL     OW22060   1.302   6.616   1.171
 7054SOL    HW122061   1.273   6.712   1.170
 7054SOL    HW222062   1.400   6.612   1.192
 7055SOL     OW22063   3.796   6.583   5.252
 7055SOL    HW122064   3.801   6.606   5.155
 7055SOL    HW222065   3.786   6.666   5.306
 7056SOL     OW22066   5.863   5.104   3.904
 7056SOL    HW122067   5.883   5.198   3.878
 7056SOL    HW222068   5.925   5.075   3.977
 7057SOL     OW22069   0.762   4.404   4.586
 7057SOL    HW122070   0.816   4.415   4.502
 7057SOL    HW222071   0.673   4.366   4.563
 7058SOL     OW22072   6.951   5.684   5.810
 7058SOL    HW122073   6.858   5.693   5.846
 7058SOL    HW222074   6.960   5.597   5.761
 7059SOL     OW22075   0.004   0.320   2.630
 7059SOL    HW122076   0.016   0.232   2.586
 7059SOL    HW222077   0.013   0.310   2.729
 7060SOL     OW22078   3.125   0.025   1.558
 7060SOL    HW122079   3.183   0.044   1.479
 7060SOL    HW222080   3.158   0.077   1.637
 7061SOL     OW22081   0.439   1.644   3.369
 7061SOL    HW122082   0.439   1.730   3.419
 7061SOL    HW222083   0.520   1.590   3.395
 7062SOL     OW22084   5.736   1.474   5.837
 7062SOL    HW122085   5.722   1.571   5.859
 7062SOL    HW222086   5.796   1.433   5.906
 7063SOL     OW22087   1.233   6.864   0.483
 7063SOL    HW122088   1.326   6.895   0.500
 7063SOL    HW222089   1.190   6.837   0.569
 7064SOL     OW22090   4.223   2.352   1.842
 7064SOL    HW122091   4.175   2.439   1.830
 7064SOL    HW222092   4.307   2.352   1.789
 7065SOL     OW22093   4.378   4.112   1.203
 7065SOL    HW122094   4.431   4.029   1.191
 7065SOL    HW222095   4.308   4.119   1.131
 7066SOL     OW22096   3.923   0.896   0.541
 7066SOL    HW122097   3.973   0.854   0.617
 7066SOL    HW222098   3.881   0.981   0.571
 7067SOL     OW22099   1.315   2.584   4.994
 7067SOL    HW122100   1.245   2.598   4.924
 7067SOL    HW222101   1.347   2.673   5.027
 7068SOL     OW22102   0.819   3.474   3.338
 7068SOL    HW122103   0.899   3.468   3.278
 7068SOL    HW222104   0.843   3.439   3.429
 7069SOL     OW22105   6.798   3.029   4.742
 7069SOL    HW122106   6.867   2.976   4.792
 7069SOL    HW222107   6.713   2.977   4.736
 7070SOL     OW22108   6.754   5.677   4.695
 7070SOL    HW122109   6.667   5.685   4.645
 7070SOL    HW222110   6.740   5.705   4.790
 7071SOL     OW22111   0.606   6.678   5.511
 7071SOL    HW122112   0.617   6.610   5.584
 7071SOL    HW222113   0.513   6.713   5.512
 7072SOL     OW22114   6.914   0.147   5.859
 7072SOL    HW122115   6.936   0.073   5.796
 7072SOL    HW222116   6.840   0.203   5.821
 7073SOL     OW22117   6.386   0.938   4.616
 7073SOL    HW122118   6.332   0.997   4.557
 7073SOL    HW222119   6.443   0.994   4.676
 7074SOL     OW22120   3.741   3.220   2.078
 7074SOL    HW122121   3.642   3.213   2.089
 7074SOL    HW222122   3.762   3.284   2.004
 7075SOL     OW22123   1.115   6.235   4.635
 7075SOL    HW122124   1.076   6.148   4.603
 7075SOL    HW222125   1.144   6.225   4.730
 7076SOL     OW22126   4.297   2.345   0.446
 7076SOL    HW122127   4.262   2.359   0.354
 7076SOL    HW222128   4.346   2.426   0.476
 7077SOL     OW22129   2.003   5.173   5.619
 7077SOL    HW122130   1.994   5.073   5.615
 7077SOL    HW222131   2.076   5.197   5.682
 7078SOL     OW22132   6.297   0.240   1.770
 7078SOL    HW122133   6.386   0.260   1.729
 7078SOL    HW222134   6.304   0.249   1.870
 7079SOL     OW22135   6.740   6.356   5.473
 7079SOL    HW122136   6.646   6.352   5.507
 7079SOL    HW222137   6.804   6.351   5.551
 7080SOL     OW22138   4.079   2.113   4.069
 7080SOL    HW122139   4.122   2.151   4.151
 7080SOL    HW222140   4.149   2.099   3.999
 7081SOL     OW22141   3.315   0.942   5.583
 7081SOL    HW122142   3.332   0.908   5.491
 7081SOL    HW222143   3.345   1.037   5.589
 7082SOL     OW22144   5.751   6.536   0.276
 7082SOL    HW122145   5.727   6.466   0.209
 7082SOL    HW222146   5.755   6.625   0.232
 7083SOL     OW22147   3.418   1.082   6.447
 7083SOL    HW122148   3.356   1.094   6.369
 7083SOL    HW222149   3.388   1.003   6.501
 7084SOL     OW22150   0.178   6.828   5.397
 7084SOL    HW122151   0.237   6.784   5.465
 7084SOL    HW222152   0.086   6.838   5.434
 7085SOL     OW22153   1.949   1.070   2.981
 7085SOL    HW122154   1.964   1.162   3.017
 7085SOL    HW222155   1.871   1.070   2.919
 7086SOL     OW22156   5.308   1.569   6.188
 7086SOL    HW122157   5.277   1.578   6.094
 7086SOL    HW222158   5.256   1.631   6.247
 7087SOL     OW22159   6.768   4.176   3.629
 7087SOL    HW122160   6.705   4.100   3.612
 7087SOL    HW222161   6.850   4.164   3.574
 7088SOL     OW22162   4.860   3.203   4.291
 7088SOL    HW122163   4.883   3.245   4.379
 7088SOL    HW222164   4.873   3.269   4.218
 7089SOL     OW22165   3.174   2.735   6.404
 7089SOL    HW122166   3.135   2.813   6.354
 7089SOL    HW222167   3.196   2.662   6.339
 7090SOL     OW22168   2.825   1.464   6.431
 7090SOL    HW122169   2.871   1.552   6.413
 7090SOL    HW222170   2.866   1.393   6.373
 7091SOL     OW22171   0.395   2.080   6.625
 7091SOL    HW122172   0.492   2.076   6.648
 7091SOL    HW222173   0.382   2.143   6.548
 7092SOL     OW22174   4.116   2.519   6.404
 7092SOL    HW122175   4.167   2.463   6.338
 7092SOL    HW222176   4.018   2.512   6.385
 7093SOL     OW22177   3.187   3.895   4.355
 7093SOL    HW122178   3.108   3.908   4.414
 7093SOL    HW222179   3.271   3.897   4.410
 7094SOL     OW22180   0.441   6.313   5.598
 7094SOL    HW122181   0.367   6.273   5.653
 7094SOL    HW222182   0.424   6.295   5.501
 7095SOL     OW22183   2.591   2.960   0.278
 7095SOL    HW122184   2.654   2.907   0.221
 7095SOL    HW222185   2.591   2.923   0.371
 7096SOL     OW22186   5.805   0.900   3.857
 7096SOL    HW122187   5.855   0.945   3.931
 7096SOL    HW222188   5.713   0.938   3.852
 7097SOL     OW22189   6.606   0.338   1.959
 7097SOL    HW122190   6.567   0.280   2.030
 7097SOL    HW222191   6.645   0.421   2.002
 7098SOL     OW22192   1.284   6.472   4.895
 7098SOL    HW122193   1.240   6.392   4.936
 7098SOL    HW222194   1.272   6.551   4.955
 7099SOL     OW22195   2.172   0.465   4.348
 7099SOL    HW122196   2.186   0.492   4.444
 7099SOL    HW222197   2.259   0.470   4.299
 7100SOL     OW22198   5.008   3.621   0.871
 7100SOL    HW122199   4.952   3.574   0.940
 7100SOL    HW222200   5.077   3.677   0.917
 7101SOL     OW22201   2.392   0.078   4.492
 7101SOL    HW122202   2.303   0.035   4.507
 7101SOL    HW222203   2.460   0.008   4.474
 7102SOL     OW22204   4.496   0.505   1.006
 7102SOL    HW122205   4.418   0.543   1.056
 7102SOL    HW222206   4.580   0.553   1.033
 7103SOL     OW22207   4.284   5.541   0.038
 7103SOL    HW122208   4.235   5.602   0.100
 7103SOL    HW222209   4.281   5.578   6.970
 7104SOL     OW22210   0.992   3.406   4.536
 7104SOL    HW122211   0.930   3.464   4.483
 7104SOL    HW222212   0.974   3.418   4.634
 7105SOL     OW22213   3.624   2.825   5.505
 7105SOL    HW122214   3.526   2.844   5.507
 7105SOL    HW222215   3.675   2.910   5.519
 7106SOL     OW22216   3.453   2.917   3.291
 7106SOL    HW122217   3.395   2.934   3.211
 7106SOL    HW222218   3.546   2.948   3.271
 7107SOL     OW22219   2.648   0.734   0.678
 7107SOL    HW122220   2.737   0.738   0.723
 7107SOL    HW222221   2.657   0.687   0.590
 7108SOL     OW22222   4.110   6.587   1.424
 7108SOL    HW122223   4.122   6.493   1.455
 7108SOL    HW222224   4.020   6.595   1.380
 7109SOL     OW22225   3.610   7.016   6.844
 7109SOL    HW122226   3.641   0.031   6.757
 7109SOL    HW222227   3.648   0.043   6.920
 7110SOL     OW22228   5.172   5.153   4.021
 7110SOL    HW122229   5.244   5.213   4.054
 7110SOL    HW222230   5.084   5.181   4.060
 7111SOL     OW22231   1.472   2.739   4.488
 7111SOL    HW122232   1.379   2.705   4.506
 7111SOL    HW222233   1.523   2.671   4.435
 7112SOL     OW22234   1.782   5.423   4.057
 7112SOL    HW122235   1.710   5.390   4.119
 7112SOL    HW222236   1.764   5.390   3.964
 7113SOL     OW22237   2.887   3.817   5.189
 7113SOL    HW122238   2.895   3.916   5.200
 7113SOL    HW222239   2.873   3.795   5.092
 7114SOL     OW22240   3.845   6.883   1.986
 7114SOL    HW122241   3.935   6.887   1.942
 7114SOL    HW222242   3.833   6.965   2.044
 7115SOL     OW22243   5.248   2.520   2.066
 7115SOL    HW122244   5.180   2.580   2.109
 7115SOL    HW222245   5.318   2.576   2.021
 7116SOL     OW22246   5.773   2.878   3.391
 7116SOL    HW122247   5.797   2.851   3.297
 7116SOL    HW222248   5.852   2.922   3.434
 7117SOL     OW22249   0.226   0.440   4.244
 7117SOL    HW122250   0.317   0.480   4.258
 7117SOL    HW222251   0.203   0.384   4.324
 7118SOL     OW22252   3.885   3.625   1.191
 7118SOL    HW122253   3.931   3.567   1.124
 7118SOL    HW222254   3.806   3.669   1.148
 7119SOL     OW22255   4.597   1.715   3.395
 7119SOL    HW122256   4.648   1.753   3.318
 7119SOL    HW222257   4.642   1.741   3.480
 7120SOL     OW22258   3.641   1.752   3.363
 7120SOL    HW122259   3.604   1.691   3.293
 7120SOL    HW222260   3.734   1.780   3.337
 7121SOL     OW22261   2.921   0.375   2.404
 7121SOL    HW122262   3.006   0.370   2.457
 7121SOL    HW222263   2.916   0.299   2.340
 7122SOL     OW22264   6.482   1.078   6.585
 7122SOL    HW122265   6.434   0.990   6.579
 7122SOL    HW222266   6.554   1.082   6.516
 7123SOL     OW22267   3.247   5.066   1.425
 7123SOL    HW122268   3.163   5.088   1.476
 7123SOL    HW222269   3.225   5.052   1.329
 7124SOL     OW22270   1.121   3.483   0.461
 7124SOL    HW122271   1.081   3.545   0.529
 7124SOL    HW222272   1.048   3.437   0.410
 7125SOL     OW22273   6.807   6.321   1.331
 7125SOL    HW122274   6.895   6.310   1.283
 7125SOL    HW222275   6.769   6.411   1.309
 7126SOL     OW22276   2.871   4.823   6.973
 7126SOL    HW122277   2.926   4.831   6.891
 7126SOL    HW222278   2.793   4.762   6.955
 7127SOL     OW22279   2.889   5.737   4.389
 7127SOL    HW122280   2.844   5.674   4.452
 7127SOL    HW222281   2.888   5.699   4.297
 7128SOL     OW22282   2.527   5.506   0.270
 7128SOL    HW122283   2.559   5.601   0.261
 7128SOL    HW222284   2.429   5.502   0.250
 7129SOL     OW22285   3.642   0.442   0.756
 7129SOL    HW122286   3.627   0.516   0.690
 7129SOL    HW222287   3.706   0.376   0.718
 7130SOL     OW22288   3.307   4.945   4.650
 7130SOL    HW122289   3.356   4.917   4.568
 7130SOL    HW222290   3.209   4.930   4.638
 7131SOL     OW22291   2.644   1.516   0.428
 7131SOL    HW122292   2.713   1.580   0.395
 7131SOL    HW222293   2.605   1.466   0.351
 7132SOL     OW22294   3.499   3.702   1.526
 7132SOL    HW122295   3.502   3.725   1.429
 7132SOL    HW222296   3.427   3.755   1.571
 7133SOL     OW22297   5.525   4.740   3.945
 7133SOL    HW122298   5.455   4.798   3.986
 7133SOL    HW222299   5.578   4.793   3.880
 7134SOL     OW22300   5.913   5.611   2.897
 7134SOL    HW122301   5.888   5.591   2.992
 7134SOL    HW222302   5.840   5.580   2.836
 7135SOL     OW22303   1.660   1.852   3.159
 7135SOL    HW122304   1.751   1.820   3.184
 7135SOL    HW222305   1.639   1.824   3.066
 7136SOL     OW22306   2.054   2.370   0.697
 7136SOL    HW122307   1.985   2.399   0.763
 7136SOL    HW222308   2.137   2.425   0.709
 7137SOL     OW22309   5.719   0.523   5.688
 7137SOL    HW122310   5.631   0.569   5.702
 7137SOL    HW222311   5.705   0.424   5.694
 7138SOL     OW22312   2.509   2.639   0.859
 7138SOL    HW122313   2.535   2.735   0.875
 7138SOL    HW222314   2.447   2.609   0.932
 7139SOL     OW22315   4.964   3.140   2.130
 7139SOL    HW122316   4.990   3.221   2.077
 7139SOL    HW222317   4.883   3.098   2.088
 7140SOL     OW22318   6.478   3.036   4.984
 7140SOL    HW122319   6.553   3.026   5.050
 7140SOL    HW222320   6.391   3.018   5.029
 7141SOL     OW22321   3.735   6.734   0.695
 7141SOL    HW122322   3.776   6.647   0.721
 7141SOL    HW222323   3.705   6.730   0.600
 7142SOL     OW22324   4.287   6.832   2.848
 7142SOL    HW122325   4.239   6.746   2.863
 7142SOL    HW222326   4.317   6.869   2.936
 7143SOL     OW22327   1.084   2.388   6.201
 7143SOL    HW122328   1.063   2.392   6.103
 7143SOL    HW222329   1.125   2.299   6.222
 7144SOL     OW22330   1.084   1.541   3.361
 7144SOL    HW122331   1.001   1.585   3.328
 7144SOL    HW222332   1.162   1.570   3.305
 7145SOL     OW22333   4.302   6.112   5.733
 7145SOL    HW122334   4.396   6.141   5.748
 7145SOL    HW222335   4.253   6.181   5.680
 7146SOL     OW22336   1.863   0.364   6.968
 7146SOL    HW122337   1.963   0.353   6.967
 7146SOL    HW222338   1.840   0.446   7.020
 7147SOL     OW22339   6.218   6.626   3.316
 7147SOL    HW122340   6.209   6.582   3.405
 7147SOL    HW222341   6.155   6.704   3.311
 7148SOL     OW22342   6.982   6.084   1.710
 7148SOL    HW122343   6.953   5.989   1.722
 7148SOL    HW222344   0.039   6.087   1.652
 7149SOL     OW22345   6.600   6.827   3.464
 7149SOL    HW122346   6.564   6.904   3.410
 7149SOL    HW222347   6.695   6.845   3.489
 7150SOL     OW22348   4.848   2.505   1.688
 7150SOL    HW122349   4.850   2.416   1.644
 7150SOL    HW222350   4.933   2.554   1.670
 7151SOL     OW22351   0.635   5.617   1.151
 7151SOL    HW122352   0.636   5.567   1.065
 7151SOL    HW222353   0.642   5.552   1.227
 7152SOL     OW22354   0.463   2.391   5.657
 7152SOL    HW122355   0.389   2.362   5.717
 7152SOL    HW222356   0.448   2.485   5.628
 7153SOL     OW22357   3.507   6.117   3.569
 7153SOL    HW122358   3.570   6.057   3.619
 7153SOL    HW222359   3.542   6.133   3.477
 7154SOL     OW22360   3.919   6.787   4.646
 7154SOL    HW122361   3.982   6.833   4.708
 7154SOL    HW222362   3.961   6.703   4.611
 7155SOL     OW22363   1.650   6.112   1.580
 7155SOL    HW122364   1.733   6.089   1.529
 7155SOL    HW222365   1.650   6.209   1.601
 7156SOL     OW22366   0.835   4.788   4.414
 7156SOL    HW122367   0.897   4.742   4.477
 7156SOL    HW222368   0.889   4.844   4.350
 7157SOL     OW22369   6.088   4.688   1.014
 7157SOL    HW122370   6.161   4.705   1.080
 7157SOL    HW222371   6.016   4.757   1.025
 7158SOL     OW22372   0.418   6.783   3.206
 7158SOL    HW122373   0.361   6.792   3.124
 7158SOL    HW222374   0.413   6.690   3.241
 7159SOL     OW22375   0.454   4.573   2.599
 7159SOL    HW122376   0.390   4.647   2.621
 7159SOL    HW222377   0.500   4.542   2.682
 7160SOL     OW22378   6.406   0.231   3.112
 7160SOL    HW122379   6.326   0.283   3.141
 7160SOL    HW222380   6.398   0.136   3.145
 7161SOL     OW22381   3.211   4.098   5.121
 7161SOL    HW122382   3.115   4.123   5.108
 7161SOL    HW222383   3.217   4.014   5.174
 7162SOL     OW22384   2.978   6.168   5.769
 7162SOL    HW122385   3.036   6.087   5.767
 7162SOL    HW222386   3.029   6.247   5.735
 7163SOL     OW22387   3.262   6.683   3.782
 7163SOL    HW122388   3.177   6.735   3.776
 7163SOL    HW222389   3.261   6.608   3.716
 7164SOL     OW22390   2.224   2.045   2.663
 7164SOL    HW122391   2.154   2.096   2.612
 7164SOL    HW222392   2.227   1.951   2.630
 7165SOL     OW22393   6.677   0.990   1.219
 7165SOL    HW122394   6.748   0.929   1.255
 7165SOL    HW222395   6.663   0.970   1.122
 7166SOL     OW22396   4.881   3.821   0.394
 7166SOL    HW122397   4.952   3.880   0.434
 7166SOL    HW222398   4.882   3.733   0.440
 7167SOL     OW22399   5.189   4.051   5.174
 7167SOL    HW122400   5.175   4.137   5.222
 7167SOL    HW222401   5.276   4.054   5.124
 7168SOL     OW22402   1.018   2.285   3.787
 7168SOL    HW122403   1.077   2.323   3.716
 7168SOL    HW222404   1.015   2.347   3.866
 7169SOL     OW22405   0.641   3.207   5.097
 7169SOL    HW122406   0.583   3.237   5.173
 7169SOL    HW222407   0.641   3.277   5.025
 7170SOL     OW22408   4.194   5.438   4.089
 7170SOL    HW122409   4.274   5.378   4.098
 7170SOL    HW222410   4.224   5.529   4.061
 7171SOL     OW22411   5.912   4.061   5.991
 7171SOL    HW122412   5.817   4.077   5.963
 7171SOL    HW222413   5.913   4.001   6.071
 7172SOL     OW22414   1.303   0.178   5.491
 7172SOL    HW122415   1.279   0.108   5.423
 7172SOL    HW222416   1.267   0.266   5.462
 7173SOL     OW22417   0.129   4.732   5.840
 7173SOL    HW122418   0.098   4.672   5.914
 7173SOL    HW222419   0.049   4.775   5.797
 7174SOL     OW22420   1.247   5.454   6.543
 7174SOL    HW122421   1.173   5.392   6.517
 7174SOL    HW222422   1.221   5.503   6.627
 7175SOL     OW22423   5.573   3.279   0.616
 7175SOL    HW122424   5.595   3.374   0.635
 7175SOL    HW222425   5.581   3.225   0.701
 7176SOL     OW22426   0.590   5.146   2.867
 7176SOL    HW122427   0.635   5.177   2.784
 7176SOL    HW222428   0.546   5.057   2.850
 7177SOL     OW22429   2.528   6.965   3.978
 7177SOL    HW122430   2.611   6.999   4.023
 7177SOL    HW222431   2.554   6.895   3.911
 7178SOL     OW22432   2.475   3.071   5.698
 7178SOL    HW122433   2.493   2.996   5.634
 7178SOL    HW222434   2.422   3.142   5.652
 7179SOL     OW22435   1.215   3.201   4.855
 7179SOL    HW122436   1.299   3.217   4.905
 7179SOL    HW222437   1.236   3.172   4.761
 7180SOL     OW22438   1.279   5.638   6.172
 7180SOL    HW122439   1.265   5.687   6.258
 7180SOL    HW222440   1.357   5.677   6.123
 7181SOL     OW22441   2.823   6.734   0.786
 7181SOL    HW122442   2.882   6.675   0.842
 7181SOL    HW222443   2.807   6.691   0.697
 7182SOL     OW22444   1.412   3.386   5.744
 7182SOL    HW122445   1.372   3.438   5.820
 7182SOL    HW222446   1.508   3.410   5.734
 7183SOL     OW22447   1.521   4.824   1.661
 7183SOL    HW122448   1.509   4.783   1.752
 7183SOL    HW222449   1.601   4.783   1.617
 7184SOL     OW22450   0.891   6.863   3.473
 7184SOL    HW122451   0.969   6.888   3.530
 7184SOL    HW222452   0.902   6.769   3.440
 7185SOL     OW22453   4.975   1.568   5.522
 7185SOL    HW122454   5.041   1.495   5.534
 7185SOL    HW222455   4.885   1.529   5.501
 7186SOL     OW22456   0.170   0.094   5.419
 7186SOL    HW122457   0.086   0.101   5.473
 7186SOL    HW222458   0.190   7.023   5.402
 7187SOL     OW22459   1.735   4.762   0.844
 7187SOL    HW122460   1.800   4.802   0.909
 7187SOL    HW222461   1.783   4.738   0.760
 7188SOL     OW22462   5.592   0.026   0.308
 7188SOL    HW122463   5.647   0.099   0.348
 7188SOL    HW222464   5.640   6.964   0.317
 7189SOL     OW22465   6.104   1.125   6.916
 7189SOL    HW122466   6.073   1.187   6.843
 7189SOL    HW222467   6.144   1.043   6.875
 7190SOL     OW22468   5.235   3.264   2.983
 7190SOL    HW122469   5.260   3.348   3.031
 7190SOL    HW222470   5.225   3.283   2.886
 7191SOL     OW22471   0.543   4.288   2.314
 7191SOL    HW122472   0.590   4.219   2.369
 7191SOL    HW222473   0.562   4.273   2.217
 7192SOL     OW22474   2.042   6.042   4.726
 7192SOL    HW122475   2.059   6.045   4.825
 7192SOL    HW222476   1.944   6.047   4.709
 7193SOL     OW22477   2.766   1.984   3.060
 7193SOL    HW122478   2.830   2.050   3.022
 7193SOL    HW222479   2.760   1.905   2.999
 7194SOL     OW22480   2.404   2.536   1.109
 7194SOL    HW122481   2.381   2.625   1.148
 7194SOL    HW222482   2.368   2.464   1.167
 7195SOL     OW22483   0.805   5.400   6.791
 7195SOL    HW122484   0.780   5.416   6.695
 7195SOL    HW222485   0.843   5.484   6.830
 7196SOL     OW22486   2.913   3.792   2.686
 7196SOL    HW122487   2.930   3.863   2.754
 7196SOL    HW222488   2.872   3.834   2.604
 7197SOL     OW22489   6.978   2.594   5.892
 7197SOL    HW122490   6.924   2.553   5.819
 7197SOL    HW222491   6.962   2.693   5.893
 7198SOL     OW22492   1.029   0.775   5.324
 7198SOL    HW122493   0.945   0.730   5.353
 7198SOL    HW222494   1.007   0.857   5.271
 7199SOL     OW22495   2.153   0.850   2.078
 7199SOL    HW122496   2.104   0.821   2.160
 7199SOL    HW222497   2.092   0.844   1.999
 7200SOL     OW22498   2.329   0.786   7.024
 7200SOL    HW122499   2.379   0.833   6.952
 7200SOL    HW222500   2.393   0.741   0.061
 7201SOL     OW22501   1.512   5.600   3.532
 7201SOL    HW122502   1.477   5.613   3.439
 7201SOL    HW222503   1.556   5.511   3.539
 7202SOL     OW22504   3.628   0.117   6.331
 7202SOL    HW122505   3.612   0.117   6.232
 7202SOL    HW222506   3.684   0.196   6.356
 7203SOL     OW22507   6.381   1.486   0.896
 7203SOL    HW122508   6.377   1.391   0.864
 7203SOL    HW222509   6.476   1.511   0.914
 7204SOL     OW22510   5.931   6.983   4.706
 7204SOL    HW122511   5.982   6.953   4.787
 7204SOL    HW222512   5.985   6.964   4.624
 7205SOL     OW22513   2.063   5.986   3.098
 7205SOL    HW122514   2.079   6.084   3.086
 7205SOL    HW222515   2.115   5.935   3.030
 7206SOL     OW22516   1.507   0.456   1.449
 7206SOL    HW122517   1.576   0.438   1.378
 7206SOL    HW222518   1.548   0.440   1.539
 7207SOL     OW22519   3.191   6.747   1.525
 7207SOL    HW122520   3.201   6.846   1.517
 7207SOL    HW222521   3.238   6.702   1.450
 7208SOL     OW22522   4.255   6.501   4.616
 7208SOL    HW122523   4.263   6.600   4.620
 7208SOL    HW222524   4.346   6.460   4.628
 7209SOL     OW22525   3.022   3.129   3.154
 7209SOL    HW122526   3.070   3.216   3.154
 7209SOL    HW222527   2.926   3.143   3.133
 7210SOL     OW22528   4.859   6.912   3.598
 7210SOL    HW122529   4.795   6.865   3.659
 7210SOL    HW222530   4.884   6.851   3.522
 7211SOL     OW22531   1.989   5.530   3.890
 7211SOL    HW122532   1.906   5.548   3.942
 7211SOL    HW222533   1.972   5.458   3.823
 7212SOL     OW22534   1.058   6.238   3.521
 7212SOL    HW122535   1.110   6.301   3.463
 7212SOL    HW222536   1.023   6.163   3.464
 7213SOL     OW22537   5.875   0.189   6.139
 7213SOL    HW122538   5.906   0.138   6.059
 7213SOL    HW222539   5.890   0.287   6.125
 7214SOL     OW22540   2.526   5.576   4.121
 7214SOL    HW122541   2.468   5.600   4.044
 7214SOL    HW222542   2.492   5.621   4.204
 7215SOL     OW22543   0.032   3.489   4.128
 7215SOL    HW122544   7.022   3.513   4.037
 7215SOL    HW222545   0.002   3.557   4.194
 7216SOL     OW22546   2.386   6.162   6.887
 7216SOL    HW122547   2.399   6.116   6.974
 7216SOL    HW222548   2.288   6.167   6.866
 7217SOL     OW22549   1.955   4.581   1.705
 7217SOL    HW122550   2.021   4.597   1.779
 7217SOL    HW222551   1.952   4.484   1.683
 7218SOL     OW22552   4.515   2.925   5.281
 7218SOL    HW122553   4.438   2.988   5.296
 7218SOL    HW222554   4.553   2.898   5.369
 7219SOL     OW22555   5.166   5.299   3.486
 7219SOL    HW122556   5.169   5.276   3.584
 7219SOL    HW222557   5.073   5.291   3.453
 7220SOL     OW22558   6.747   5.765   3.554
 7220SOL    HW122559   6.688   5.836   3.515
 7220SOL    HW222560   6.696   5.679   3.562
 7221SOL     OW22561   5.146   5.062   4.963
 7221SOL    HW122562   5.129   4.965   4.984
 7221SOL    HW222563   5.170   5.071   4.866
 7222SOL     OW22564   6.309   6.992   0.521
 7222SOL    HW122565   6.283   6.898   0.500
 7222SOL    HW222566   6.318   7.003   0.620
 7223SOL     OW22567   2.912   1.933   1.616
 7223SOL    HW122568   2.993   1.886   1.584
 7223SOL    HW222569   2.939   2.009   1.676
 7224SOL     OW22570   5.723   1.973   4.736
 7224SOL    HW122571   5.661   2.048   4.761
 7224SOL    HW222572   5.703   1.943   4.643
 7225SOL     OW22573   1.585   5.594   6.360
 7225SOL    HW122574   1.636   5.558   6.438
 7225SOL    HW222575   1.552   5.518   6.304
 7226SOL     OW22576   0.788   0.895   0.289
 7226SOL    HW122577   0.773   0.937   0.378
 7226SOL    HW222578   0.785   0.795   0.298
 7227SOL     OW22579   0.814   2.118   0.471
 7227SOL    HW122580   0.717   2.093   0.471
 7227SOL    HW222581   0.834   2.177   0.393
 7228SOL     OW22582   6.788   0.866   2.061
 7228SOL    HW122583   6.860   0.888   1.996
 7228SOL    HW222584   6.707   0.922   2.041
 7229SOL     OW22585   0.898   0.894   3.964
 7229SOL    HW122586   0.960   0.916   4.039
 7229SOL    HW222587   0.841   0.974   3.943
 7230SOL     OW22588   4.263   5.550   4.863
 7230SOL    HW122589   4.314   5.538   4.778
 7230SOL    HW222590   4.189   5.482   4.867
 7231SOL     OW22591   4.548   0.258   0.274
 7231SOL    HW122592   4.538   0.284   0.370
 7231SOL    HW222593   4.617   0.316   0.231
 7232SOL     OW22594   3.762   5.008   3.426
 7232SOL    HW122595   3.675   4.968   3.397
 7232SOL    HW222596   3.782   4.980   3.519
 7233SOL     OW22597   0.262   2.898   5.071
 7233SOL    HW122598   0.339   2.941   5.024
 7233SOL    HW222599   0.237   2.952   5.151
 7234SOL     OW22600   6.386   2.699   2.382
 7234SOL    HW122601   6.338   2.709   2.294
 7234SOL    HW222602   6.457   2.769   2.389
 7235SOL     OW22603   6.354   4.073   3.317
 7235SOL    HW122604   6.330   4.048   3.410
 7235SOL    HW222605   6.282   4.044   3.254
 7236SOL     OW22606   3.248   1.711   2.764
 7236SOL    HW122607   3.282   1.703   2.858
 7236SOL    HW222608   3.206   1.801   2.752
 7237SOL     OW22609   6.459   6.394   4.927
 7237SOL    HW122610   6.450   6.384   4.828
 7237SOL    HW222611   6.432   6.309   4.972
 7238SOL     OW22612   2.105   2.288   1.174
 7238SOL    HW122613   2.184   2.306   1.232
 7238SOL    HW222614   2.131   2.227   1.099
 7239SOL     OW22615   2.146   1.784   3.435
 7239SOL    HW122616   2.150   1.846   3.513
 7239SOL    HW222617   2.232   1.734   3.427
 7240SOL     OW22618   2.827   4.104   0.011
 7240SOL    HW122619   2.858   4.080   0.103
 7240SOL    HW222620   2.765   4.182   0.016
 7241SOL     OW22621   3.174   0.573   6.488
 7241SOL    HW122622   3.170   0.544   6.392
 7241SOL    HW222623   3.086   0.611   6.515
 7242SOL     OW22624   6.229   4.320   6.510
 7242SOL    HW122625   6.297   4.299   6.580
 7242SOL    HW222626   6.147   4.265   6.526
 7243SOL     OW22627   0.843   4.519   6.649
 7243SOL    HW122628   0.854   4.531   6.551
 7243SOL    HW222629   0.902   4.584   6.698
 7244SOL     OW22630   4.744   0.367   1.292
 7244SOL    HW122631   4.696   0.451   1.266
 7244SOL    HW222632   4.680   0.306   1.338
 7245SOL     OW22633   0.516   2.616   5.033
 7245SOL    HW122634   0.573   2.541   5.065
 7245SOL    HW222635   0.425   2.607   5.072
 7246SOL     OW22636   6.656   6.647   4.550
 7246SOL    HW122637   6.663   6.718   4.480
 7246SOL    HW222638   6.567   6.603   4.544
 7247SOL     OW22639   2.586   6.726   2.598
 7247SOL    HW122640   2.567   6.770   2.686
 7247SOL    HW222641   2.516   6.658   2.579
 7248SOL     OW22642   3.123   1.180   4.006
 7248SOL    HW122643   3.026   1.172   3.982
 7248SOL    HW222644   3.180   1.157   3.927
 7249SOL     OW22645   5.859   4.615   1.525
 7249SOL    HW122646   5.876   4.555   1.447
 7249SOL    HW222647   5.778   4.583   1.574
 7250SOL     OW22648   2.367   4.766   6.580
 7250SOL    HW122649   2.461   4.741   6.557
 7250SOL    HW222650   2.361   4.865   6.589
 7251SOL     OW22651   6.921   6.915   5.430
 7251SOL    HW122652   6.861   6.843   5.394
 7251SOL    HW222653   6.876   7.003   5.419
 7252SOL     OW22654   3.414   3.250   4.603
 7252SOL    HW122655   3.355   3.185   4.555
 7252SOL    HW222656   3.468   3.202   4.672
 7253SOL     OW22657   1.739   6.437   0.883
 7253SOL    HW122658   1.740   6.402   0.977
 7253SOL    HW222659   1.670   6.509   0.875
 7254SOL     OW22660   3.531   5.544   4.744
 7254SOL    HW122661   3.517   5.528   4.646
 7254SOL    HW222662   3.555   5.640   4.759
 7255SOL     OW22663   3.209   3.636   2.271
 7255SOL    HW122664   3.264   3.669   2.194
 7255SOL    HW222665   3.130   3.586   2.237
 7256SOL     OW22666   4.897   4.937   4.617
 7256SOL    HW122667   4.867   5.019   4.667
 7256SOL    HW222668   4.824   4.907   4.556
 7257SOL     OW22669   6.202   2.936   3.164
 7257SOL    HW122670   6.160   2.877   3.096
 7257SOL    HW222671   6.295   2.960   3.134
 7258SOL     OW22672   4.262   0.428   4.585
 7258SOL    HW122673   4.226   0.520   4.569
 7258SOL    HW222674   4.212   0.385   4.659
 7259SOL     OW22675   3.016   4.331   0.375
 7259SOL    HW122676   2.946   4.260   0.368
 7259SOL    HW222677   2.978   4.411   0.423
 7260SOL     OW22678   3.552   1.598   3.157
 7260SOL    HW122679   3.647   1.571   3.142
 7260SOL    HW222680   3.501   1.589   3.071
 7261SOL     OW22681   2.805   3.091   1.786
 7261SOL    HW122682   2.856   3.100   1.700
 7261SOL    HW222683   2.734   3.161   1.790
 7262SOL     OW22684   6.076   2.315   4.209
 7262SOL    HW122685   5.980   2.298   4.189
 7262SOL    HW222686   6.113   2.380   4.142
 7263SOL     OW22687   1.102   5.571   1.980
 7263SOL    HW122688   1.174   5.548   1.915
 7263SOL    HW222689   1.013   5.552   1.939
 7264SOL     OW22690   6.717   1.601   6.891
 7264SOL    HW122691   6.730   1.623   6.987
 7264SOL    HW222692   6.747   1.678   6.834
 7265SOL     OW22693   5.854   5.198   6.121
 7265SOL    HW122694   5.799   5.216   6.039
 7265SOL    HW222695   5.951   5.207   6.099
 7266SOL     OW22696   4.301   0.556   1.174
 7266SOL    HW122697   4.357   0.498   1.234
 7266SOL    HW222698   4.219   0.506   1.147
 7267SOL     OW22699   6.362   4.574   5.165
 7267SOL    HW122700   6.339   4.577   5.263
 7267SOL    HW222701   6.355   4.666   5.126
 7268SOL     OW22702   4.458   5.298   2.693
 7268SOL    HW122703   4.496   5.212   2.725
 7268SOL    HW222704   4.531   5.366   2.685
 7269SOL     OW22705   0.580   5.308   1.644
 7269SOL    HW122706   0.661   5.366   1.656
 7269SOL    HW222707   0.608   5.216   1.619
 7270SOL     OW22708   2.504   2.268   3.050
 7270SOL    HW122709   2.517   2.175   3.083
 7270SOL    HW222710   2.498   2.267   2.950
 7271SOL     OW22711   0.594   4.103   2.739
 7271SOL    HW122712   0.527   4.097   2.814
 7271SOL    HW222713   0.682   4.068   2.771
 7272SOL     OW22714   5.400   2.792   2.684
 7272SOL    HW122715   5.310   2.815   2.722
 7272SOL    HW222716   5.390   2.720   2.615
 7273SOL     OW22717   5.654   4.030   1.725
 7273SOL    HW122718   5.706   3.961   1.674
 7273SOL    HW222719   5.561   4.035   1.688
 7274SOL     OW22720   6.928   5.464   6.343
 7274SOL    HW122721   6.831   5.458   6.366
 7274SOL    HW222722   6.963   5.372   6.326
 7275SOL     OW22723   6.274   0.740   0.487
 7275SOL    HW122724   6.297   0.833   0.457
 7275SOL    HW222725   6.296   0.730   0.584
 7276SOL     OW22726   2.705   1.723   3.506
 7276SOL    HW122727   2.672   1.792   3.442
 7276SOL    HW222728   2.805   1.721   3.505
 7277SOL     OW22729   5.067   1.068   5.541
 7277SOL    HW122730   5.044   1.154   5.587
 7277SOL    HW222731   5.066   1.083   5.442
 7278SOL     OW22732   3.693   1.597   3.710
 7278SOL    HW122733   3.643   1.675   3.747
 7278SOL    HW222734   3.788   1.623   3.693
 7279SOL     OW22735   4.138   4.169   1.056
 7279SOL    HW122736   4.100   4.232   1.124
 7279SOL    HW222737   4.110   4.075   1.077
 7280SOL     OW22738   5.401   2.480   5.275
 7280SOL    HW122739   5.486   2.465   5.326
 7280SOL    HW222740   5.376   2.577   5.281
 7281SOL     OW22741   3.575   0.018   0.651
 7281SOL    HW122742   3.537   0.005   0.560
 7281SOL    HW222743   3.675   0.011   0.647
 7282SOL     OW22744   6.625   5.554   1.976
 7282SOL    HW122745   6.705   5.523   1.924
 7282SOL    HW222746   6.552   5.579   1.913
 7283SOL     OW22747   2.713   6.248   2.158
 7283SOL    HW122748   2.728   6.333   2.107
 7283SOL    HW222749   2.802   6.208   2.180
 7284SOL     OW22750   6.708   2.875   3.770
 7284SOL    HW122751   6.779   2.873   3.699
 7284SOL    HW222752   6.619   2.857   3.728
 7285SOL     OW22753   4.736   3.052   1.472
 7285SOL    HW122754   4.646   3.057   1.515
 7285SOL    HW222755   4.770   3.145   1.455
 7286SOL     OW22756   0.367   1.020   0.738
 7286SOL    HW122757   0.278   1.050   0.705
 7286SOL    HW222758   0.417   0.975   0.665
 7287SOL     OW22759   0.420   2.758   4.019
 7287SOL    HW122760   0.414   2.852   3.985
 7287SOL    HW222761   0.475   2.704   3.956
 7288SOL     OW22762   2.829   2.246   3.028
 7288SOL    HW122763   2.783   2.285   2.949
 7288SOL    HW222764   2.805   2.298   3.110
 7289SOL     OW22765   5.479   2.392   1.795
 7289SOL    HW122766   5.455   2.451   1.717
 7289SOL    HW222767   5.399   2.340   1.824
 7290SOL     OW22768   4.340   0.761   6.241
 7290SOL    HW122769   4.292   0.835   6.289
 7290SOL    HW222770   4.378   0.796   6.155
 7291SOL     OW22771   3.088   0.108   6.971
 7291SOL    HW122772   3.186   0.115   6.989
 7291SOL    HW222773   3.046   0.199   6.979
 7292SOL     OW22774   1.616   7.023   2.924
 7292SOL    HW122775   1.640   0.023   2.831
 7292SOL    HW222776   1.660   6.937   2.948
 7293SOL     OW22777   1.308   1.182   5.333
 7293SOL    HW122778   1.366   1.145   5.405
 7293SOL    HW222779   1.353   1.169   5.244
 7294SOL     OW22780   2.949   4.606   1.608
 7294SOL    HW122781   2.931   4.541   1.682
 7294SOL    HW222782   3.036   4.652   1.625
 7295SOL     OW22783   6.269   4.985   1.424
 7295SOL    HW122784   6.180   5.030   1.423
 7295SOL    HW222785   6.307   4.984   1.332
 7296SOL     OW22786   3.391   4.953   2.949
 7296SOL    HW122787   3.414   5.044   2.983
 7296SOL    HW222788   3.397   4.951   2.849
 7297SOL     OW22789   3.030   6.543   1.577
 7297SOL    HW122790   2.969   6.554   1.656
 7297SOL    HW222791   3.078   6.629   1.560
 7298SOL     OW22792   4.453   6.120   6.377
 7298SOL    HW122793   4.429   6.097   6.471
 7298SOL    HW222794   4.374   6.158   6.330
 7299SOL     OW22795   1.313   2.817   6.801
 7299SOL    HW122796   1.228   2.866   6.824
 7299SOL    HW222797   1.320   2.810   6.701
 7300SOL     OW22798   0.809   5.010   2.274
 7300SOL    HW122799   0.838   4.996   2.180
 7300SOL    HW222800   0.735   4.947   2.297
 7301SOL     OW22801   6.238   0.445   6.098
 7301SOL    HW122802   6.260   0.515   6.164
 7301SOL    HW222803   6.188   0.486   6.021
 7302SOL     OW22804   5.657   3.053   6.069
 7302SOL    HW122805   5.663   3.028   5.973
 7302SOL    HW222806   5.631   3.149   6.077
 7303SOL     OW22807   3.339   1.124   0.463
 7303SOL    HW122808   3.416   1.063   0.479
 7303SOL    HW222809   3.339   1.196   0.532
 7304SOL     OW22810   2.554   4.976   1.510
 7304SOL    HW122811   2.571   5.004   1.604
 7304SOL    HW222812   2.557   4.876   1.503
 7305SOL     OW22813   5.810   2.266   6.945
 7305SOL    HW122814   5.856   2.258   0.008
 7305SOL    HW222815   5.723   2.314   6.957
 7306SOL     OW22816   3.615   1.734   0.998
 7306SOL    HW122817   3.633   1.794   1.076
 7306SOL    HW222818   3.627   1.786   0.913
 7307SOL     OW22819   3.278   6.489   2.287
 7307SOL    HW122820   3.195   6.478   2.234
 7307SOL    HW222821   3.356   6.501   2.226
 7308SOL     OW22822   5.870   0.912   1.873
 7308SOL    HW122823   5.942   0.882   1.812
 7308SOL    HW222824   5.859   1.011   1.866
 7309SOL     OW22825   2.695   6.379   3.431
 7309SOL    HW122826   2.777   6.324   3.445
 7309SOL    HW222827   2.615   6.320   3.421
 7310SOL     OW22828   1.598   3.135   0.435
 7310SOL    HW122829   1.544   3.182   0.365
 7310SOL    HW222830   1.582   3.178   0.524
 7311SOL     OW22831   0.748   0.638   0.479
 7311SOL    HW122832   0.709   0.682   0.560
 7311SOL    HW222833   0.678   0.581   0.435
 7312SOL     OW22834   6.737   1.886   5.510
 7312SOL    HW122835   6.737   1.976   5.467
 7312SOL    HW222836   6.790   1.822   5.454
 7313SOL     OW22837   2.452   0.671   1.071
 7313SOL    HW122838   2.447   0.704   0.977
 7313SOL    HW222839   2.436   0.572   1.073
 7314SOL     OW22840   6.965   4.282   0.018
 7314SOL    HW122841   0.021   4.226   0.031
 7314SOL    HW222842   6.941   4.283   6.946
 7315SOL     OW22843   6.889   5.464   2.294
 7315SOL    HW122844   6.855   5.527   2.223
 7315SOL    HW222845   6.979   5.494   2.325
 7316SOL     OW22846   3.204   2.340   6.370
 7316SOL    HW122847   3.181   2.407   6.300
 7316SOL    HW222848   3.246   2.385   6.448
 7317SOL     OW22849   3.219   1.667   1.730
 7317SOL    HW122850   3.210   1.601   1.805
 7317SOL    HW222851   3.194   1.758   1.763
 7318SOL     OW22852   3.821   6.733   2.362
 7318SOL    HW122853   3.859   6.681   2.286
 7318SOL    HW222854   3.874   6.816   2.375
 7319SOL     OW22855   6.773   4.070   0.047
 7319SOL    HW122856   6.772   4.075   6.972
 7319SOL    HW222857   6.811   4.155   0.084
 7320SOL     OW22858   6.834   4.052   1.120
 7320SOL    HW122859   6.901   4.078   1.189
 7320SOL    HW222860   6.868   4.077   1.029
 7321SOL     OW22861   1.939   6.006   5.989
 7321SOL    HW122862   1.989   5.949   6.054
 7321SOL    HW222863   1.966   5.981   5.895
 7322SOL     OW22864   1.061   1.334   2.938
 7322SOL    HW122865   1.019   1.304   2.853
 7322SOL    HW222866   1.043   1.265   3.009
 7323SOL     OW22867   2.006   1.082   1.356
 7323SOL    HW122868   2.023   1.133   1.441
 7323SOL    HW222869   2.022   1.142   1.277
 7324SOL     OW22870   5.771   4.571   2.662
 7324SOL    HW122871   5.679   4.555   2.626
 7324SOL    HW222872   5.835   4.582   2.587
 7325SOL     OW22873   3.603   0.707   5.599
 7325SOL    HW122874   3.655   0.711   5.685
 7325SOL    HW222875   3.588   0.800   5.565
 7326SOL     OW22876   3.349   0.723   6.210
 7326SOL    HW122877   3.399   0.696   6.127
 7326SOL    HW222878   3.295   0.645   6.242
 7327SOL     OW22879   5.894   3.303   3.285
 7327SOL    HW122880   5.871   3.313   3.188
 7327SOL    HW222881   5.972   3.241   3.294
 7328SOL     OW22882   3.849   5.119   5.794
 7328SOL    HW122883   3.787   5.106   5.871
 7328SOL    HW222884   3.816   5.068   5.715
 7329SOL     OW22885   1.922   2.816   0.181
 7329SOL    HW122886   1.826   2.788   0.187
 7329SOL    HW222887   1.933   2.881   0.106
 7330SOL     OW22888   3.249   3.327   1.656
 7330SOL    HW122889   3.228   3.305   1.561
 7330SOL    HW222890   3.166   3.315   1.711
 7331SOL     OW22891   5.214   0.462   1.836
 7331SOL    HW122892   5.141   0.420   1.890
 7331SOL    HW222893   5.262   0.529   1.891
 7332SOL     OW22894   4.138   4.019   7.008
 7332SOL    HW122895   4.165   4.113   6.987
 7332SOL    HW222896   4.152   3.961   6.927
 7333SOL     OW22897   6.550   3.472   2.761
 7333SOL    HW122898   6.451   3.480   2.777
 7333SOL    HW222899   6.567   3.398   2.697
 7334SOL     OW22900   3.037   6.621   5.718
 7334SOL    HW122901   3.111   6.606   5.783
 7334SOL    HW222902   2.989   6.705   5.741
 7335SOL     OW22903   6.856   3.843   2.942
 7335SOL    HW122904   6.760   3.843   2.913
 7335SOL    HW222905   6.915   3.816   2.866
 7336SOL     OW22906   1.814   6.210   0.689
 7336SOL    HW122907   1.909   6.235   0.669
 7336SOL    HW222908   1.777   6.271   0.759
 7337SOL     OW22909   3.612   2.768   1.938
 7337SOL    HW122910   3.667   2.799   2.015
 7337SOL    HW222911   3.566   2.682   1.962
 7338SOL     OW22912   5.075   2.726   0.973
 7338SOL    HW122913   5.116   2.657   0.913
 7338SOL    HW222914   4.983   2.697   0.999
 7339SOL     OW22915   6.707   6.298   5.058
 7339SOL    HW122916   6.776   6.260   4.996
 7339SOL    HW222917   6.627   6.325   5.004
 7340SOL     OW22918   3.568   1.394   0.174
 7340SOL    HW122919   3.480   1.409   0.220
 7340SOL    HW222920   3.561   1.425   0.079
 7341SOL     OW22921   0.277   4.845   3.709
 7341SOL    HW122922   0.193   4.898   3.697
 7341SOL    HW222923   0.326   4.878   3.789
 7342SOL     OW22924   6.751   0.853   0.436
 7342SOL    HW122925   6.697   0.848   0.352
 7342SOL    HW222926   6.836   0.802   0.424
 7343SOL     OW22927   5.924   4.280   2.063
 7343SOL    HW122928   5.953   4.319   2.151
 7343SOL    HW222929   5.843   4.223   2.076
 7344SOL     OW22930   1.639   6.502   6.488
 7344SOL    HW122931   1.650   6.405   6.465
 7344SOL    HW222932   1.681   6.558   6.416
 7345SOL     OW22933   4.088   4.941   5.648
 7345SOL    HW122934   4.104   5.035   5.679
 7345SOL    HW222935   4.072   4.882   5.728
 7346SOL     OW22936   3.498   4.180   1.433
 7346SOL    HW122937   3.536   4.193   1.524
 7346SOL    HW222938   3.425   4.246   1.417
 7347SOL     OW22939   6.103   2.505   2.051
 7347SOL    HW122940   6.085   2.527   1.955
 7347SOL    HW222941   6.169   2.430   2.056
 7348SOL     OW22942   1.421   3.297   3.733
 7348SOL    HW122943   1.336   3.283   3.681
 7348SOL    HW222944   1.409   3.262   3.826
 7349SOL     OW22945   3.251   2.172   1.627
 7349SOL    HW122946   3.304   2.088   1.641
 7349SOL    HW222947   3.189   2.159   1.549
 7350SOL     OW22948   0.388   2.425   3.401
 7350SOL    HW122949   0.400   2.376   3.315
 7350SOL    HW222950   0.355   2.517   3.383
 7351SOL     OW22951   4.090   4.743   6.688
 7351SOL    HW122952   4.039   4.657   6.687
 7351SOL    HW222953   4.062   4.800   6.611
 7352SOL     OW22954   1.825   1.411   2.452
 7352SOL    HW122955   1.885   1.485   2.422
 7352SOL    HW222956   1.880   1.338   2.493
 7353SOL     OW22957   6.505   2.118   5.177
 7353SOL    HW122958   6.490   2.203   5.127
 7353SOL    HW222959   6.574   2.063   5.129
 7354SOL     OW22960   6.806   0.900   5.870
 7354SOL    HW122961   6.902   0.896   5.898
 7354SOL    HW222962   6.754   0.952   5.938
 7355SOL     OW22963   1.405   6.180   1.038
 7355SOL    HW122964   1.341   6.127   1.094
 7355SOL    HW222965   1.377   6.174   0.942
 7356SOL     OW22966   5.898   2.536   6.167
 7356SOL    HW122967   5.864   2.470   6.233
 7356SOL    HW222968   5.903   2.627   6.208
 7357SOL     OW22969   4.839   0.800   0.952
 7357SOL    HW122970   4.833   0.888   1.000
 7357SOL    HW222971   4.787   0.805   0.867
 7358SOL     OW22972   3.595   2.105   3.694
 7358SOL    HW122973   3.524   2.062   3.639
 7358SOL    HW222974   3.560   2.120   3.787
 7359SOL     OW22975   3.440   2.995   1.875
 7359SOL    HW122976   3.451   3.047   1.959
 7359SOL    HW222977   3.477   2.903   1.887
 7360SOL     OW22978   1.362   2.861   5.050
 7360SOL    HW122979   1.372   2.809   5.134
 7360SOL    HW222980   1.446   2.914   5.034
 7361SOL     OW22981   5.137   7.000   1.083
 7361SOL    HW122982   5.093   0.049   1.031
 7361SOL    HW222983   5.225   6.977   1.041
 7362SOL     OW22984   1.069   7.022   4.911
 7362SOL    HW122985   1.163   0.002   4.945
 7362SOL    HW222986   1.029   6.934   4.936
 7363SOL     OW22987   5.852   2.495   0.411
 7363SOL    HW122988   5.796   2.427   0.457
 7363SOL    HW222989   5.904   2.547   0.479
 7364SOL     OW22990   4.256   6.729   1.080
 7364SOL    HW122991   4.216   6.816   1.107
 7364SOL    HW222992   4.183   6.665   1.055
 7365SOL     OW22993   3.096   6.691   2.450
 7365SOL    HW122994   3.116   6.738   2.364
 7365SOL    HW222995   3.177   6.640   2.480
 7366SOL     OW22996   1.072   5.312   6.854
 7366SOL    HW122997   1.122   5.390   6.893
 7366SOL    HW222998   0.980   5.341   6.829
 7367SOL     OW22999   4.259   4.052   1.448
 7367SOL    HW123000   4.252   3.955   1.424
 7367SOL    HW223001   4.300   4.102   1.372
 7368SOL     OW23002   2.994   3.855   4.571
 7368SOL    HW123003   2.930   3.807   4.630
 7368SOL    HW223004   3.060   3.906   4.627
 7369SOL     OW23005   4.783   3.679   1.405
 7369SOL    HW123006   4.721   3.620   1.354
 7369SOL    HW223007   4.731   3.728   1.476
 7370SOL     OW23008   1.757   0.254   6.703
 7370SOL    HW123009   1.800   0.174   6.745
 7370SOL    HW223010   1.757   0.330   6.767
 7371SOL     OW23011   2.844   5.266   3.801
 7371SOL    HW123012   2.752   5.295   3.826
 7371SOL    HW223013   2.905   5.345   3.801
 7372SOL     OW23014   3.326   0.184   5.472
 7372SOL    HW123015   3.275   0.192   5.557
 7372SOL    HW223016   3.322   0.270   5.421
 7373SOL     OW23017   4.606   1.050   3.229
 7373SOL    HW123018   4.532   1.041   3.163
 7373SOL    HW223019   4.639   0.959   3.254
 7374SOL     OW23020   2.092   2.753   5.249
 7374SOL    HW123021   2.166   2.694   5.216
 7374SOL    HW223022   2.129   2.844   5.267
 7375SOL     OW23023   1.211   1.835   4.122
 7375SOL    HW123024   1.232   1.833   4.024
 7375SOL    HW223025   1.253   1.915   4.164
 7376SOL     OW23026   3.008   2.879   6.957
 7376SOL    HW123027   2.966   2.939   6.889
 7376SOL    HW223028   3.059   2.934   7.023
 7377SOL     OW23029   4.509   5.342   2.374
 7377SOL    HW123030   4.521   5.432   2.415
 7377SOL    HW223031   4.586   5.284   2.397
 7378SOL     OW23032   6.705   2.333   4.376
 7378SOL    HW123033   6.629   2.394   4.356
 7378SOL    HW223034   6.682   2.240   4.347
 7379SOL     OW23035   4.273   1.080   2.723
 7379SOL    HW123036   4.370   1.057   2.728
 7379SOL    HW223037   4.221   1.017   2.780
 7380SOL     OW23038   6.803   3.739   5.945
 7380SOL    HW123039   6.867   3.711   5.873
 7380SOL    HW223040   6.743   3.811   5.910
 7381SOL     OW23041   5.013   2.732   2.483
 7381SOL    HW123042   5.077   2.764   2.413
 7381SOL    HW223043   4.927   2.782   2.474
 7382SOL     OW23044   0.371   4.917   5.215
 7382SOL    HW123045   0.390   4.994   5.276
 7382SOL    HW223046   0.280   4.929   5.175
 7383SOL     OW23047   0.151   6.821   2.578
 7383SOL    HW123048   0.070   6.764   2.565
 7383SOL    HW223049   0.220   6.798   2.509
 7384SOL     OW23050   5.203   0.734   2.367
 7384SOL    HW123051   5.219   0.818   2.314
 7384SOL    HW223052   5.271   0.727   2.440
 7385SOL     OW23053   4.249   5.226   2.383
 7385SOL    HW123054   4.329   5.286   2.385
 7385SOL    HW223055   4.264   5.148   2.443
 7386SOL     OW23056   0.446   2.801   5.417
 7386SOL    HW123057   0.451   2.897   5.391
 7386SOL    HW223058   0.519   2.750   5.372
 7387SOL     OW23059   3.720   5.930   4.483
 7387SOL    HW123060   3.743   5.959   4.390
 7387SOL    HW223061   3.768   5.988   4.549
 7388SOL     OW23062   6.905   5.674   4.124
 7388SOL    HW123063   6.811   5.667   4.156
 7388SOL    HW223064   6.911   5.746   4.055
 7389SOL     OW23065   1.625   4.580   0.005
 7389SOL    HW123066   1.649   4.589   6.933
 7389SOL    HW223067   1.537   4.534   0.014
 7390SOL     OW23068   1.068   1.921   6.486
 7390SOL    HW123069   1.161   1.910   6.522
 7390SOL    HW223070   1.045   2.018   6.482
 7391SOL     OW23071   4.938   4.412   6.052
 7391SOL    HW123072   4.938   4.440   5.956
 7391SOL    HW223073   5.020   4.448   6.096
 7392SOL     OW23074   1.683   5.845   5.502
 7392SOL    HW123075   1.675   5.821   5.405
 7392SOL    HW223076   1.595   5.877   5.536
 7393SOL     OW23077   5.901   5.164   1.784
 7393SOL    HW123078   5.953   5.192   1.704
 7393SOL    HW223079   5.868   5.070   1.771
 7394SOL     OW23080   4.258   3.165   5.951
 7394SOL    HW123081   4.305   3.254   5.945
 7394SOL    HW223082   4.271   3.127   6.042
 7395SOL     OW23083   0.572   0.470   6.095
 7395SOL    HW123084   0.561   0.533   6.171
 7395SOL    HW223085   0.489   0.472   6.038
 7396SOL     OW23086   1.841   0.927   6.461
 7396SOL    HW123087   1.775   0.860   6.425
 7396SOL    HW223088   1.816   1.018   6.429
 7397SOL     OW23089   6.342   4.712   4.457
 7397SOL    HW123090   6.352   4.750   4.549
 7397SOL    HW223091   6.265   4.649   4.456
 7398SOL     OW23092   3.516   5.103   3.650
 7398SOL    HW123093   3.417   5.111   3.637
 7398SOL    HW223094   3.560   5.189   3.623
 7399SOL     OW23095   0.540   4.005   5.528
 7399SOL    HW123096   0.551   3.917   5.574
 7399SOL    HW223097   0.628   4.035   5.492
 7400SOL     OW23098   3.431   4.213   6.944
 7400SOL    HW123099   3.442   4.113   6.939
 7400SOL    HW223100   3.334   4.236   6.944
 7401SOL     OW23101   0.270   0.820   3.408
 7401SOL    HW123102   0.283   0.867   3.495
 7401SOL    HW223103   0.183   0.771   3.409
 7402SOL     OW23104   2.201   0.246   3.730
 7402SOL    HW123105   2.259   0.178   3.686
 7402SOL    HW223106   2.193   0.326   3.671
 7403SOL     OW23107   2.325   2.760   3.796
 7403SOL    HW123108   2.385   2.782   3.872
 7403SOL    HW223109   2.285   2.844   3.759
 7404SOL     OW23110   2.347   0.288   1.406
 7404SOL    HW123111   2.423   0.348   1.432
 7404SOL    HW223112   2.383   0.208   1.358
 7405SOL     OW23113   1.362   4.796   4.496
 7405SOL    HW123114   1.417   4.715   4.475
 7405SOL    HW223115   1.364   4.812   4.595
 7406SOL     OW23116   1.828   3.675   2.607
 7406SOL    HW123117   1.909   3.633   2.647
 7406SOL    HW223118   1.856   3.738   2.535
 7407SOL     OW23119   6.967   6.171   4.491
 7407SOL    HW123120   7.009   6.090   4.449
 7407SOL    HW223121   6.996   6.177   4.586
 7408SOL     OW23122   1.343   4.318   5.810
 7408SOL    HW123123   1.392   4.316   5.897
 7408SOL    HW223124   1.373   4.398   5.758
 7409SOL     OW23125   0.698   0.982   4.632
 7409SOL    HW123126   0.629   0.939   4.690
 7409SOL    HW223127   0.698   0.936   4.543
 7410SOL     OW23128   0.033   4.389   0.917
 7410SOL    HW123129   0.094   4.406   0.994
 7410SOL    HW223130   0.073   4.429   0.834
 7411SOL     OW23131   2.585   6.934   4.404
 7411SOL    HW123132   2.542   6.853   4.446
 7411SOL    HW223133   2.676   6.911   4.372
 7412SOL     OW23134   2.830   0.607   1.168
 7412SOL    HW123135   2.755   0.642   1.224
 7412SOL    HW223136   2.915   0.653   1.194
 7413SOL     OW23137   0.159   3.905   3.554
 7413SOL    HW123138   0.240   3.859   3.518
 7413SOL    HW223139   0.183   3.955   3.637
 7414SOL     OW23140   6.762   0.406   2.552
 7414SOL    HW123141   6.802   0.496   2.533
 7414SOL    HW223142   6.827   0.351   2.604
 7415SOL     OW23143   0.829   3.118   3.359
 7415SOL    HW123144   0.736   3.138   3.327
 7415SOL    HW223145   0.869   3.201   3.398
 7416SOL     OW23146   3.210   0.992   4.324
 7416SOL    HW123147   3.150   1.071   4.315
 7416SOL    HW223148   3.194   0.928   4.248
 7417SOL     OW23149   1.122   6.296   5.747
 7417SOL    HW123150   1.040   6.351   5.732
 7417SOL    HW223151   1.153   6.256   5.661
 7418SOL     OW23152   3.372   4.390   1.334
 7418SOL    HW123153   3.275   4.399   1.314
 7418SOL    HW223154   3.406   4.474   1.376
 7419SOL     OW23155   5.800   1.742   4.935
 7419SOL    HW123156   5.734   1.815   4.915
 7419SOL    HW223157   5.861   1.771   5.008
 7420SOL     OW23158   6.937   6.950   2.136
 7420SOL    HW123159   6.858   6.905   2.178
 7420SOL    HW223160   7.014   6.886   2.136
 7421SOL     OW23161   2.839   3.101   1.041
 7421SOL    HW123162   2.895   3.094   0.959
 7421SOL    HW223163   2.877   3.170   1.102
 7422SOL     OW23164   6.765   3.299   1.879
 7422SOL    HW123165   6.692   3.365   1.896
 7422SOL    HW223166   6.756   3.222   1.942
 7423SOL     OW23167   0.868   4.682   6.156
 7423SOL    HW123168   0.797   4.729   6.209
 7423SOL    HW223169   0.914   4.748   6.097
 7424SOL     OW23170   6.148   1.439   4.045
 7424SOL    HW123171   6.108   1.383   3.973
 7424SOL    HW223172   6.219   1.498   4.006
 7425SOL     OW23173   4.033   4.881   0.182
 7425SOL    HW123174   4.097   4.955   0.200
 7425SOL    HW223175   4.015   4.877   0.083
 7426SOL     OW23176   0.550   2.255   6.894
 7426SOL    HW123177   0.464   2.227   6.935
 7426SOL    HW223178   0.538   2.343   6.847
 7427SOL     OW23179   3.028   5.884   4.581
 7427SOL    HW123180   3.035   5.968   4.529
 7427SOL    HW223181   2.973   5.817   4.530
 7428SOL     OW23182   3.850   2.070   5.560
 7428SOL    HW123183   3.906   2.142   5.600
 7428SOL    HW223184   3.906   1.989   5.541
 7429SOL     OW23185   6.579   6.896   2.796
 7429SOL    HW123186   6.499   6.850   2.758
 7429SOL    HW223187   6.550   6.982   2.839
 7430SOL     OW23188   6.974   4.860   5.704
 7430SOL    HW123189   6.899   4.805   5.742
 7430SOL    HW223190   6.962   4.869   5.606
 7431SOL     OW23191   0.943   3.714   1.713
 7431SOL    HW123192   1.013   3.707   1.642
 7431SOL    HW223193   0.868   3.651   1.692
 7432SOL     OW23194   0.362   6.428   4.089
 7432SOL    HW123195   0.422   6.373   4.147
 7432SOL    HW223196   0.391   6.418   3.993
 7433SOL     OW23197   6.206   5.166   0.727
 7433SOL    HW123198   6.224   5.224   0.648
 7433SOL    HW223199   6.257   5.200   0.806
 7434SOL     OW23200   3.066   1.367   6.853
 7434SOL    HW123201   2.989   1.363   6.917
 7434SOL    HW223202   3.043   1.427   6.777
 7435SOL     OW23203   3.243   6.659   5.909
 7435SOL    HW123204   3.329   6.711   5.911
 7435SOL    HW223205   3.205   6.655   6.002
 7436SOL     OW23206   6.426   2.787   6.546
 7436SOL    HW123207   6.364   2.781   6.468
 7436SOL    HW223208   6.521   2.792   6.514
 7437SOL     OW23209   6.775   5.220   6.794
 7437SOL    HW123210   6.823   5.222   6.882
 7437SOL    HW223211   6.738   5.129   6.779
 7438SOL     OW23212   1.203   4.319   1.508
 7438SOL    HW123213   1.210   4.376   1.426
 7438SOL    HW223214   1.271   4.246   1.505
 7439SOL     OW23215   3.005   6.772   3.847
 7439SOL    HW123216   2.943   6.708   3.803
 7439SOL    HW223217   2.983   6.865   3.818
 7440SOL     OW23218   0.691   3.379   4.889
 7440SOL    HW123219   0.787   3.354   4.878
 7440SOL    HW223220   0.646   3.377   4.800
 7441SOL     OW23221   5.879   6.727   4.269
 7441SOL    HW123222   5.934   6.726   4.352
 7441SOL    HW223223   5.937   6.751   4.191
 7442SOL     OW23224   0.907   0.647   6.332
 7442SOL    HW123225   0.829   0.644   6.395
 7442SOL    HW223226   0.938   0.742   6.322
 7443SOL     OW23227   6.568   2.065   0.429
 7443SOL    HW123228   6.661   2.054   0.392
 7443SOL    HW223229   6.559   2.156   0.470
 7444SOL     OW23230   6.837   3.114   6.298
 7444SOL    HW123231   6.864   3.206   6.267
 7444SOL    HW223232   6.913   3.051   6.284
 7445SOL     OW23233   4.665   1.279   1.370
 7445SOL    HW123234   4.728   1.238   1.305
 7445SOL    HW223235   4.598   1.211   1.400
 7446SOL     OW23236   6.375   4.284   6.770
 7446SOL    HW123237   6.444   4.356   6.763
 7446SOL    HW223238   6.311   4.306   6.843
 7447SOL     OW23239   2.751   4.687   6.282
 7447SOL    HW123240   2.695   4.711   6.203
 7447SOL    HW223241   2.692   4.652   6.355
 7448SOL     OW23242   5.719   6.615   5.782
 7448SOL    HW123243   5.689   6.616   5.877
 7448SOL    HW223244   5.769   6.530   5.763
 7449SOL     OW23245   4.850   2.446   2.302
 7449SOL    HW123246   4.781   2.508   2.263
 7449SOL    HW223247   4.937   2.494   2.310
 7450SOL     OW23248   5.113   2.794   4.009
 7450SOL    HW123249   5.068   2.868   4.060
 7450SOL    HW223250   5.083   2.797   3.914
 7451SOL     OW23251   1.744   0.373   3.247
 7451SOL    HW123252   1.836   0.414   3.249
 7451SOL    HW223253   1.735   0.315   3.166
 7452SOL     OW23254   1.607   0.317   4.736
 7452SOL    HW123255   1.641   0.410   4.749
 7452SOL    HW223256   1.514   0.311   4.772
 7453SOL     OW23257   5.512   5.993   4.993
 7453SOL    HW123258   5.505   6.069   5.058
 7453SOL    HW223259   5.591   5.936   5.016
 7454SOL     OW23260   1.047   2.930   1.628
 7454SOL    HW123261   1.017   2.963   1.538
 7454SOL    HW223262   1.000   2.983   1.699
 7455SOL     OW23263   6.174   1.058   1.689
 7455SOL    HW123264   6.132   1.137   1.644
 7455SOL    HW223265   6.105   0.986   1.701
 7456SOL     OW23266   1.569   2.311   4.578
 7456SOL    HW123267   1.653   2.307   4.631
 7456SOL    HW223268   1.491   2.323   4.640
 7457SOL     OW23269   5.340   0.412   5.997
 7457SOL    HW123270   5.299   0.420   5.906
 7457SOL    HW223271   5.412   0.343   5.995
 7458SOL     OW23272   1.939   6.579   6.723
 7458SOL    HW123273   1.961   6.629   6.639
 7458SOL    HW223274   1.896   6.642   6.788
 7459SOL     OW23275   4.477   0.265   6.876
 7459SOL    HW123276   4.575   0.261   6.897
 7459SOL    HW223277   4.464   0.256   6.777
 7460SOL     OW23278   1.831   5.303   0.270
 7460SOL    HW123279   1.890   5.231   0.306
 7460SOL    HW223280   1.887   5.377   0.233
 7461SOL     OW23281   5.436   1.380   5.572
 7461SOL    HW123282   5.507   1.316   5.602
 7461SOL    HW223283   5.383   1.410   5.651
 7462SOL     OW23284   1.677   2.527   1.459
 7462SOL    HW123285   1.768   2.554   1.491
 7462SOL    HW223286   1.643   2.596   1.394
 7463SOL     OW23287   3.695   3.106   1.754
 7463SOL    HW123288   3.692   3.079   1.658
 7463SOL    HW223289   3.605   3.095   1.795
 7464SOL     OW23290   3.869   6.007   6.271
 7464SOL    HW123291   3.941   5.987   6.204
 7464SOL    HW223292   3.857   5.928   6.331
 7465SOL     OW23293   1.629   0.494   1.197
 7465SOL    HW123294   1.576   0.489   1.112
 7465SOL    HW223295   1.719   0.533   1.178
 7466SOL     OW23296   0.508   0.260   6.366
 7466SOL    HW123297   0.515   0.283   6.269
 7466SOL    HW223298   0.575   0.190   6.389
 7467SOL     OW23299   6.074   2.570   1.225
 7467SOL    HW123300   6.174   2.577   1.230
 7467SOL    HW223301   6.033   2.658   1.251
 7468SOL     OW23302   4.787   2.319   2.589
 7468SOL    HW123303   4.818   2.342   2.497
 7468SOL    HW223304   4.715   2.383   2.616
 7469SOL     OW23305   1.218   7.003   6.814
 7469SOL    HW123306   1.152   6.930   6.799
 7469SOL    HW223307   1.222   7.024   6.912
 7470SOL     OW23308   0.634   2.902   3.018
 7470SOL    HW123309   0.595   2.910   2.926
 7470SOL    HW223310   0.564   2.922   3.086
 7471SOL     OW23311   5.710   6.716   4.860
 7471SOL    HW123312   5.636   6.680   4.918
 7471SOL    HW223313   5.798   6.681   4.892
 7472SOL     OW23314   4.913   6.424   4.148
 7472SOL    HW123315   4.887   6.519   4.131
 7472SOL    HW223316   4.952   6.416   4.240
 7473SOL     OW23317   0.168   4.213   3.242
 7473SOL    HW123318   0.099   4.283   3.256
 7473SOL    HW223319   0.124   4.128   3.212
 7474SOL     OW23320   2.813   1.109   4.593
 7474SOL    HW123321   2.870   1.052   4.534
 7474SOL    HW223322   2.833   1.206   4.577
 7475SOL     OW23323   4.584   1.113   2.455
 7475SOL    HW123324   4.511   1.162   2.409
 7475SOL    HW223325   4.549   1.073   2.541
 7476SOL     OW23326   3.943   6.367   4.358
 7476SOL    HW123327   3.981   6.277   4.380
 7476SOL    HW223328   4.014   6.423   4.316
 7477SOL     OW23329   4.659   0.893   4.210
 7477SOL    HW123330   4.717   0.811   4.219
 7477SOL    HW223331   4.713   0.974   4.233
 7478SOL     OW23332   3.976   3.861   6.266
 7478SOL    HW123333   4.038   3.784   6.255
 7478SOL    HW223334   3.954   3.900   6.177
 7479SOL     OW23335   3.482   1.847   0.534
 7479SOL    HW123336   3.504   1.922   0.471
 7479SOL    HW223337   3.527   1.863   0.622
 7480SOL     OW23338   6.144   5.294   0.997
 7480SOL    HW123339   6.194   5.379   1.014
 7480SOL    HW223340   6.064   5.312   0.939
 7481SOL     OW23341   5.589   5.081   1.211
 7481SOL    HW123342   5.658   5.044   1.273
 7481SOL    HW223343   5.630   5.152   1.153
 7482SOL     OW23344   4.055   1.485   2.059
 7482SOL    HW123345   4.071   1.390   2.030
 7482SOL    HW223346   3.966   1.490   2.105
 7483SOL     OW23347   4.090   1.811   4.964
 7483SOL    HW123348   4.027   1.818   4.886
 7483SOL    HW223349   4.171   1.866   4.945
 7484SOL     OW23350   0.139   0.362   2.053
 7484SOL    HW123351   0.191   0.409   2.124
 7484SOL    HW223352   0.091   0.284   2.094
 7485SOL     OW23353   3.102   6.314   5.235
 7485SOL    HW123354   3.164   6.241   5.207
 7485SOL    HW223355   3.007   6.286   5.217
 7486SOL     OW23356   2.188   6.547   5.584
 7486SOL    HW123357   2.157   6.521   5.493
 7486SOL    HW223358   2.288   6.541   5.588
 7487SOL     OW23359   1.939   6.735   2.312
 7487SOL    HW123360   2.020   6.729   2.371
 7487SOL    HW223361   1.955   6.681   2.229
 7488SOL     OW23362   1.969   6.908   5.285
 7488SOL    HW123363   2.023   6.824   5.274
 7488SOL    HW223364   2.027   6.987   5.266
 7489SOL     OW23365   4.647   2.003   5.099
 7489SOL    HW123366   4.598   1.925   5.059
 7489SOL    HW223367   4.742   1.977   5.116
 7490SOL     OW23368   0.559   0.978   0.918
 7490SOL    HW123369   0.482   0.993   0.856
 7490SOL    HW223370   0.643   0.967   0.866
 7491SOL     OW23371   0.684   5.024   6.982
 7491SOL    HW123372   0.674   4.946   6.920
 7491SOL    HW223373   0.779   5.055   6.981
 7492SOL     OW23374   2.675   1.698   5.105
 7492SOL    HW123375   2.588   1.748   5.100
 7492SOL    HW223376   2.665   1.622   5.169
 7493SOL     OW23377   6.355   4.266   6.185
 7493SOL    HW123378   6.326   4.295   6.276
 7493SOL    HW223379   6.304   4.318   6.116
 7494SOL     OW23380   5.850   0.715   2.410
 7494SOL    HW123381   5.822   0.711   2.506
 7494SOL    HW223382   5.924   0.649   2.394
 7495SOL     OW23383   2.465   1.238   1.440
 7495SOL    HW123384   2.515   1.320   1.470
 7495SOL    HW223385   2.389   1.221   1.503
 7496SOL     OW23386   1.003   4.482   5.966
 7496SOL    HW123387   0.933   4.507   5.899
 7496SOL    HW223388   0.991   4.537   6.049
 7497SOL     OW23389   2.919   4.824   1.386
 7497SOL    HW123390   2.905   4.728   1.412
 7497SOL    HW223391   2.988   4.829   1.314
 7498SOL     OW23392   2.568   1.342   4.211
 7498SOL    HW123393   2.566   1.280   4.289
 7498SOL    HW223394   2.513   1.304   4.137
 7499SOL     OW23395   6.240   0.329   3.315
 7499SOL    HW123396   6.195   0.375   3.392
 7499SOL    HW223397   6.248   0.392   3.238
 7500SOL     OW23398   4.173   6.071   2.599
 7500SOL    HW123399   4.239   6.055   2.672
 7500SOL    HW223400   4.132   6.162   2.610
 7501SOL     OW23401   6.621   4.218   4.507
 7501SOL    HW123402   6.655   4.235   4.414
 7501SOL    HW223403   6.532   4.262   4.518
 7502SOL     OW23404   1.151   1.939   5.372
 7502SOL    HW123405   1.126   1.868   5.437
 7502SOL    HW223406   1.242   1.974   5.394
 7503SOL     OW23407   2.682   1.005   6.620
 7503SOL    HW123408   2.597   1.057   6.610
 7503SOL    HW223409   2.759   1.063   6.593
 7504SOL     OW23410   3.995   0.044   3.388
 7504SOL    HW123411   4.067   0.101   3.426
 7504SOL    HW223412   3.967   7.000   3.455
 7505SOL     OW23413   3.043   0.879   5.319
 7505SOL    HW123414   3.009   0.954   5.263
 7505SOL    HW223415   2.997   0.794   5.294
 7506SOL     OW23416   4.289   0.716   2.736
 7506SOL    HW123417   4.273   0.633   2.789
 7506SOL    HW223418   4.229   0.717   2.656
 7507SOL     OW23419   7.006   6.596   0.314
 7507SOL    HW123420   0.049   6.649   0.263
 7507SOL    HW223421   6.919   6.645   0.314
 7508SOL     OW23422   5.678   6.664   2.675
 7508SOL    HW123423   5.769   6.679   2.636
 7508SOL    HW223424   5.618   6.741   2.650
 7509SOL     OW23425   4.832   4.852   0.455
 7509SOL    HW123426   4.819   4.765   0.502
 7509SOL    HW223427   4.847   4.836   0.357
 7510SOL     OW23428   2.689   3.736   5.368
 7510SOL    HW123429   2.726   3.692   5.450
 7510SOL    HW223430   2.764   3.755   5.305
 7511SOL     OW23431   1.677   0.578   2.156
 7511SOL    HW123432   1.580   0.596   2.172
 7511SOL    HW223433   1.731   0.615   2.231
 7512SOL     OW23434   3.009   4.104   1.409
 7512SOL    HW123435   2.996   4.175   1.478
 7512SOL    HW223436   3.074   4.136   1.340
 7513SOL     OW23437   1.680   2.251   0.586
 7513SOL    HW123438   1.682   2.331   0.647
 7513SOL    HW223439   1.769   2.241   0.542
 7514SOL     OW23440   2.447   6.101   2.120
 7514SOL    HW123441   2.427   6.170   2.189
 7514SOL    HW223442   2.491   6.145   2.041
 7515SOL     OW23443   0.922   0.027   2.686
 7515SOL    HW123444   0.881   0.048   2.597
 7515SOL    HW223445   0.850   0.017   2.754
 7516SOL     OW23446   0.038   5.730   4.329
 7516SOL    HW123447   7.010   5.720   4.245
 7516SOL    HW223448   0.131   5.695   4.314
 7517SOL     OW23449   6.647   3.505   1.117
 7517SOL    HW123450   6.721   3.546   1.065
 7517SOL    HW223451   6.579   3.575   1.140
 7518SOL     OW23452   3.982   5.982   3.925
 7518SOL    HW123453   3.948   5.974   4.019
 7518SOL    HW223454   3.906   6.002   3.863
 7519SOL     OW23455   0.199   6.669   4.058
 7519SOL    HW123456   0.260   6.590   4.055
 7519SOL    HW223457   0.202   6.710   4.150
 7520SOL     OW23458   2.568   0.513   2.048
 7520SOL    HW123459   2.552   0.442   2.116
 7520SOL    HW223460   2.487   0.524   1.991
 7521SOL     OW23461   4.362   4.554   5.466
 7521SOL    HW123462   4.301   4.628   5.493
 7521SOL    HW223463   4.454   4.572   5.501
 7522SOL     OW23464   2.668   0.921   6.248
 7522SOL    HW123465   2.594   0.987   6.260
 7522SOL    HW223466   2.686   0.908   6.151
 7523SOL     OW23467   6.039   1.425   5.555
 7523SOL    HW123468   5.959   1.443   5.498
 7523SOL    HW223469   6.041   1.328   5.580
 7524SOL     OW23470   0.550   2.582   5.876
 7524SOL    HW123471   0.502   2.618   5.796
 7524SOL    HW223472   0.484   2.543   5.940
 7525SOL     OW23473   2.415   0.289   6.038
 7525SOL    HW123474   2.367   0.256   6.120
 7525SOL    HW223475   2.452   0.211   5.988
 7526SOL     OW23476   3.933   3.013   3.248
 7526SOL    HW123477   3.903   2.938   3.190
 7526SOL    HW223478   3.914   3.100   3.204
 7527SOL     OW23479   4.837   4.589   2.799
 7527SOL    HW123480   4.787   4.661   2.847
 7527SOL    HW223481   4.773   4.530   2.750
 7528SOL     OW23482   4.762   2.511   0.334
 7528SOL    HW123483   4.783   2.545   0.425
 7528SOL    HW223484   4.707   2.428   0.341
 7529SOL     OW23485   5.373   1.277   4.225
 7529SOL    HW123486   5.444   1.308   4.288
 7529SOL    HW223487   5.396   1.305   4.132
 7530SOL     OW23488   6.552   3.254   2.368
 7530SOL    HW123489   6.486   3.215   2.304
 7530SOL    HW223490   6.631   3.289   2.318
 7531SOL     OW23491   4.408   2.344   4.344
 7531SOL    HW123492   4.507   2.357   4.347
 7531SOL    HW223493   4.385   2.276   4.274
 7532SOL     OW23494   5.521   5.659   1.753
 7532SOL    HW123495   5.547   5.563   1.767
 7532SOL    HW223496   5.436   5.663   1.702
 7533SOL     OW23497   1.777   1.424   3.089
 7533SOL    HW123498   1.798   1.410   2.992
 7533SOL    HW223499   1.862   1.434   3.140
 7534SOL     OW23500   3.821   6.438   4.847
 7534SOL    HW123501   3.916   6.468   4.855
 7534SOL    HW223502   3.763   6.516   4.825
 7535SOL     OW23503   3.015   1.206   5.869
 7535SOL    HW123504   3.059   1.293   5.845
 7535SOL    HW223505   2.923   1.224   5.905
 7536SOL     OW23506   5.441   4.993   4.942
 7536SOL    HW123507   5.352   5.027   4.972
 7536SOL    HW223508   5.452   4.898   4.973
 7537SOL     OW23509   2.001   4.424   5.391
 7537SOL    HW123510   2.075   4.361   5.368
 7537SOL    HW223511   1.918   4.372   5.410
 7538SOL     OW23512   3.212   3.336   2.447
 7538SOL    HW123513   3.124   3.307   2.483
 7538SOL    HW223514   3.262   3.385   2.519
 7539SOL     OW23515   2.700   2.425   5.182
 7539SOL    HW123516   2.630   2.494   5.198
 7539SOL    HW223517   2.784   2.451   5.231
 7540SOL     OW23518   3.716   1.027   6.025
 7540SOL    HW123519   3.687   0.978   6.107
 7540SOL    HW223520   3.650   1.012   5.952
 7541SOL     OW23521   0.048   3.955   5.047
 7541SOL    HW123522   0.065   3.985   5.140
 7541SOL    HW223523   6.975   3.958   5.027
 7542SOL     OW23524   0.645   6.628   6.334
 7542SOL    HW123525   0.559   6.649   6.381
 7542SOL    HW223526   0.625   6.581   6.248
 7543SOL     OW23527   4.201   1.909   0.468
 7543SOL    HW123528   4.126   1.946   0.413
 7543SOL    HW223529   4.232   1.979   0.532
 7544SOL     OW23530   0.259   1.658   3.163
 7544SOL    HW123531   0.299   1.595   3.096
 7544SOL    HW223532   0.316   1.661   3.244
 7545SOL     OW23533   5.024   6.713   3.080
 7545SOL    HW123534   4.995   6.619   3.065
 7545SOL    HW223535   4.954   6.775   3.045
 7546SOL     OW23536   4.688   0.611   1.177
 7546SOL    HW123537   4.785   0.616   1.151
 7546SOL    HW223538   4.662   0.695   1.225
 7547SOL     OW23539   3.913   6.579   0.527
 7547SOL    HW123540   3.981   6.614   0.463
 7547SOL    HW223541   3.822   6.587   0.486
 7548SOL     OW23542   2.778   1.795   0.462
 7548SOL    HW123543   2.853   1.814   0.526
 7548SOL    HW223544   2.691   1.816   0.506
 7549SOL     OW23545   5.220   1.953   1.706
 7549SOL    HW123546   5.223   1.876   1.769
 7549SOL    HW223547   5.164   2.026   1.745
 7550SOL     OW23548   2.635   5.228   2.842
 7550SOL    HW123549   2.730   5.250   2.863
 7550SOL    HW223550   2.617   5.247   2.746
 7551SOL     OW23551   4.867   4.065   6.495
 7551SOL    HW123552   4.941   4.101   6.553
 7551SOL    HW223553   4.779   4.084   6.540
 7552SOL     OW23554   2.369   5.660   3.898
 7552SOL    HW123555   2.339   5.741   3.847
 7552SOL    HW223556   2.326   5.579   3.860
 7553SOL     OW23557   3.681   4.870   6.189
 7553SOL    HW123558   3.740   4.800   6.150
 7553SOL    HW223559   3.707   4.888   6.284
 7554SOL     OW23560   5.230   1.275   0.800
 7554SOL    HW123561   5.144   1.322   0.784
 7554SOL    HW223562   5.238   1.250   0.897
 7555SOL     OW23563   1.626   5.340   4.825
 7555SOL    HW123564   1.670   5.400   4.892
 7555SOL    HW223565   1.639   5.244   4.853
 7556SOL     OW23566   0.072   2.202   5.475
 7556SOL    HW123567   0.063   2.282   5.416
 7556SOL    HW223568   0.159   2.157   5.458
 7557SOL     OW23569   5.305   3.853   5.739
 7557SOL    HW123570   5.379   3.825   5.678
 7557SOL    HW223571   5.299   3.953   5.742
 7558SOL     OW23572   2.323   2.788   4.067
 7558SOL    HW123573   2.317   2.779   4.166
 7558SOL    HW223574   2.281   2.874   4.038
 7559SOL     OW23575   6.671   5.343   1.440
 7559SOL    HW123576   6.651   5.303   1.530
 7559SOL    HW223577   6.748   5.406   1.449
 7560SOL     OW23578   4.994   6.515   6.879
 7560SOL    HW123579   5.033   6.461   6.954
 7560SOL    HW223580   4.970   6.453   6.804
 7561SOL     OW23581   0.672   3.116   6.947
 7561SOL    HW123582   0.761   3.096   6.906
 7561SOL    HW223583   0.684   3.129   0.021
 7562SOL     OW23584   4.317   5.935   4.764
 7562SOL    HW123585   4.272   6.019   4.736
 7562SOL    HW223586   4.252   5.875   4.810
 7563SOL     OW23587   2.825   6.981   0.529
 7563SOL    HW123588   2.890   6.957   0.456
 7563SOL    HW223589   2.732   6.964   0.497
 7564SOL     OW23590   5.199   1.236   3.508
 7564SOL    HW123591   5.103   1.226   3.481
 7564SOL    HW223592   5.253   1.262   3.428
 7565SOL     OW23593   5.179   4.247   6.164
 7565SOL    HW123594   5.171   4.211   6.257
 7565SOL    HW223595   5.088   4.255   6.124
 7566SOL     OW23596   1.152   4.724   3.657
 7566SOL    HW123597   1.095   4.659   3.607
 7566SOL    HW223598   1.245   4.689   3.663
 7567SOL     OW23599   1.520   2.929   5.469
 7567SOL    HW123600   1.425   2.962   5.472
 7567SOL    HW223601   1.582   3.007   5.466
 7568SOL     OW23602   6.397   5.810   4.266
 7568SOL    HW123603   6.339   5.818   4.184
 7568SOL    HW223604   6.350   5.755   4.334
 7569SOL     OW23605   4.360   5.606   6.279
 7569SOL    HW123606   4.375   5.531   6.343
 7569SOL    HW223607   4.438   5.669   6.281
 7570SOL     OW23608   5.707   5.004   5.557
 7570SOL    HW123609   5.613   5.026   5.585
 7570SOL    HW223610   5.710   4.911   5.522
 7571SOL     OW23611   5.236   4.830   1.860
 7571SOL    HW123612   5.141   4.851   1.835
 7571SOL    HW223613   5.237   4.768   1.938
 7572SOL     OW23614   5.001   0.482   3.741
 7572SOL    HW123615   4.926   0.421   3.764
 7572SOL    HW223616   5.075   0.471   3.807
 7573SOL     OW23617   5.665   5.398   4.336
 7573SOL    HW123618   5.709   5.313   4.365
 7573SOL    HW223619   5.673   5.408   4.237
 7574SOL     OW23620   6.619   1.426   4.562
 7574SOL    HW123621   6.565   1.354   4.518
 7574SOL    HW223622   6.605   1.512   4.513
 7575SOL     OW23623   4.758   0.713   5.842
 7575SOL    HW123624   4.665   0.695   5.873
 7575SOL    HW223625   4.797   0.788   5.896
 7576SOL     OW23626   5.987   5.290   0.062
 7576SOL    HW123627   6.043   5.274   0.143
 7576SOL    HW223628   5.903   5.238   0.068
 7577SOL     OW23629   6.911   0.044   5.018
 7577SOL    HW123630   6.999   0.034   4.973
 7577SOL    HW223631   6.875   6.980   5.044
 7578SOL     OW23632   1.714   6.507   3.645
 7578SOL    HW123633   1.762   6.544   3.566
 7578SOL    HW223634   1.761   6.535   3.729
 7579SOL     OW23635   4.031   1.962   2.437
 7579SOL    HW123636   4.120   1.918   2.421
 7579SOL    HW223637   3.963   1.922   2.375
 7580SOL     OW23638   1.402   3.712   4.100
 7580SOL    HW123639   1.456   3.780   4.050
 7580SOL    HW223640   1.463   3.651   4.151
 7581SOL     OW23641   4.721   0.805   1.363
 7581SOL    HW123642   4.719   0.895   1.320
 7581SOL    HW223643   4.815   0.771   1.363
 7582SOL     OW23644   3.610   1.483   0.444
 7582SOL    HW123645   3.705   1.497   0.472
 7582SOL    HW223646   3.585   1.549   0.373
 7583SOL     OW23647   6.224   3.879   1.733
 7583SOL    HW123648   6.304   3.837   1.777
 7583SOL    HW223649   6.142   3.858   1.786
 7584SOL     OW23650   2.829   6.658   1.332
 7584SOL    HW123651   2.875   6.655   1.421
 7584SOL    HW223652   2.782   6.572   1.315
 7585SOL     OW23653   1.333   2.941   6.008
 7585SOL    HW123654   1.416   2.885   6.005
 7585SOL    HW223655   1.358   3.038   6.015
 7586SOL     OW23656   3.296   0.986   3.148
 7586SOL    HW123657   3.201   1.013   3.135
 7586SOL    HW223658   3.319   0.990   3.245
 7587SOL     OW23659   3.285   1.564   6.908
 7587SOL    HW123660   3.235   1.478   6.914
 7587SOL    HW223661   3.220   1.640   6.904
 7588SOL     OW23662   0.143   3.669   1.893
 7588SOL    HW123663   0.121   3.685   1.989
 7588SOL    HW223664   0.059   3.650   1.842
 7589SOL     OW23665   5.984   6.695   0.500
 7589SOL    HW123666   5.925   6.614   0.497
 7589SOL    HW223667   5.997   6.723   0.595
 7590SOL     OW23668   2.923   1.729   6.497
 7590SOL    HW123669   2.835   1.751   6.539
 7590SOL    HW223670   2.973   1.814   6.478
 7591SOL     OW23671   0.271   5.480   0.674
 7591SOL    HW123672   0.191   5.540   0.671
 7591SOL    HW223673   0.349   5.527   0.633
 7592SOL     OW23674   0.385   4.714   0.028
 7592SOL    HW123675   0.385   4.793   0.090
 7592SOL    HW223676   0.462   4.722   6.989
 7593SOL     OW23677   6.159   2.589   6.499
 7593SOL    HW123678   6.077   2.602   6.554
 7593SOL    HW223679   6.154   2.501   6.452
 7594SOL     OW23680   0.293   4.645   2.162
 7594SOL    HW123681   0.217   4.623   2.223
 7594SOL    HW223682   0.363   4.574   2.169
 7595SOL     OW23683   0.486   2.602   6.324
 7595SOL    HW123684   0.558   2.651   6.276
 7595SOL    HW223685   0.403   2.657   6.325
 7596SOL     OW23686   4.712   5.447   2.733
 7596SOL    HW123687   4.774   5.369   2.739
 7596SOL    HW223688   4.676   5.468   2.824
 7597SOL     OW23689   2.750   5.684   1.546
 7597SOL    HW123690   2.826   5.671   1.483
 7597SOL    HW223691   2.777   5.656   1.638
 7598SOL     OW23692   6.259   0.992   2.819
 7598SOL    HW123693   6.294   0.954   2.905
 7598SOL    HW223694   6.195   0.928   2.777
 7599SOL     OW23695   5.086   1.061   3.708
 7599SOL    HW123696   5.113   1.097   3.618
 7599SOL    HW223697   5.145   0.984   3.731
 7600SOL     OW23698   1.958   0.708   2.317
 7600SOL    HW123699   2.009   0.672   2.396
 7600SOL    HW223700   1.860   0.706   2.336
 7601SOL     OW23701   1.685   5.272   2.923
 7601SOL    HW123702   1.590   5.292   2.948
 7601SOL    HW223703   1.700   5.173   2.929
 7602SOL     OW23704   1.603   3.677   5.587
 7602SOL    HW123705   1.690   3.711   5.622
 7602SOL    HW223706   1.533   3.747   5.598
 7603SOL     OW23707   1.393   6.053   6.438
 7603SOL    HW123708   1.304   6.011   6.451
 7603SOL    HW223709   1.388   6.122   6.366
 7604SOL     OW23710   2.715   5.544   3.931
 7604SOL    HW123711   2.665   5.576   4.011
 7604SOL    HW223712   2.667   5.467   3.890
 7605SOL     OW23713   1.431   6.257   0.357
 7605SOL    HW123714   1.424   6.165   0.320
 7605SOL    HW223715   1.450   6.252   0.455
 7606SOL     OW23716   0.239   2.255   2.420
 7606SOL    HW123717   0.289   2.275   2.505
 7606SOL    HW223718   0.142   2.239   2.442
 7607SOL     OW23719   4.246   6.443   0.423
 7607SOL    HW123720   4.282   6.474   0.335
 7607SOL    HW223721   4.150   6.469   0.431
 7608SOL     OW23722   3.325   3.483   3.454
 7608SOL    HW123723   3.311   3.464   3.551
 7608SOL    HW223724   3.391   3.418   3.416
 7609SOL     OW23725   6.815   3.771   3.405
 7609SOL    HW123726   6.855   3.679   3.406
 7609SOL    HW223727   6.772   3.787   3.316
 7610SOL     OW23728   5.744   0.752   0.079
 7610SOL    HW123729   5.668   0.755   0.015
 7610SOL    HW223730   5.810   0.824   0.056
 7611SOL     OW23731   0.440   1.958   0.236
 7611SOL    HW123732   0.386   1.884   0.197
 7611SOL    HW223733   0.537   1.934   0.235
 7612SOL     OW23734   4.199   2.060   4.583
 7612SOL    HW123735   4.101   2.074   4.572
 7612SOL    HW223736   4.230   1.988   4.520
 7613SOL     OW23737   4.706   1.815   2.150
 7613SOL    HW123738   4.768   1.846   2.078
 7613SOL    HW223739   4.728   1.861   2.236
 7614SOL     OW23740   4.632   2.739   1.460
 7614SOL    HW123741   4.650   2.758   1.556
 7614SOL    HW223742   4.718   2.726   1.411
 7615SOL     OW23743   5.134   4.665   6.137
 7615SOL    HW123744   5.187   4.750   6.138
 7615SOL    HW223745   5.071   4.664   6.215
 7616SOL     OW23746   0.497   4.672   4.154
 7616SOL    HW123747   0.575   4.630   4.108
 7616SOL    HW223748   0.421   4.682   4.089
 7617SOL     OW23749   2.943   5.777   2.662
 7617SOL    HW123750   2.893   5.749   2.580
 7617SOL    HW223751   2.960   5.697   2.720
 7618SOL     OW23752   0.990   2.225   0.061
 7618SOL    HW123753   1.065   2.182   0.010
 7618SOL    HW223754   0.908   2.227   0.004
 7619SOL     OW23755   5.807   3.124   4.365
 7619SOL    HW123756   5.830   3.130   4.462
 7619SOL    HW223757   5.823   3.213   4.321
 7620SOL     OW23758   4.207   5.593   6.795
 7620SOL    HW123759   4.151   5.660   6.843
 7620SOL    HW223760   4.247   5.636   6.713
 7621SOL     OW23761   0.568   1.588   0.738
 7621SOL    HW123762   0.515   1.526   0.680
 7621SOL    HW223763   0.543   1.574   0.834
 7622SOL     OW23764   5.081   4.268   1.655
 7622SOL    HW123765   5.037   4.289   1.743
 7622SOL    HW223766   5.039   4.186   1.617
 7623SOL     OW23767   4.275   4.799   6.319
 7623SOL    HW123768   4.373   4.805   6.339
 7623SOL    HW223769   4.260   4.729   6.249
 7624SOL     OW23770   0.496   2.762   4.507
 7624SOL    HW123771   0.567   2.693   4.494
 7624SOL    HW223772   0.534   2.853   4.490
 7625SOL     OW23773   4.536   0.771   1.567
 7625SOL    HW123774   4.456   0.819   1.530
 7625SOL    HW223775   4.610   0.772   1.500
 7626SOL     OW23776   6.831   6.436   5.238
 7626SOL    HW123777   6.801   6.390   5.322
 7626SOL    HW223778   6.785   6.395   5.159
 7627SOL     OW23779   6.011   3.467   6.715
 7627SOL    HW123780   6.002   3.472   6.814
 7627SOL    HW223781   6.039   3.556   6.680
 7628SOL     OW23782   3.224   0.398   1.145
 7628SOL    HW123783   3.153   0.335   1.112
 7628SOL    HW223784   3.302   0.397   1.082
 7629SOL     OW23785   6.389   6.730   2.668
 7629SOL    HW123786   6.290   6.730   2.685
 7629SOL    HW223787   6.415   6.646   2.621
 7630SOL     OW23788   5.879   6.281   1.820
 7630SOL    HW123789   5.922   6.198   1.855
 7630SOL    HW223790   5.828   6.326   1.893
 7631SOL     OW23791   0.587   1.805   5.354
 7631SOL    HW123792   0.633   1.868   5.417
 7631SOL    HW223793   0.536   1.858   5.286
 7632SOL     OW23794   3.619   2.111   1.673
 7632SOL    HW123795   3.634   2.172   1.594
 7632SOL    HW223796   3.642   2.160   1.757
 7633SOL     OW23797   5.031   2.931   0.054
 7633SOL    HW123798   5.084   2.851   0.083
 7633SOL    HW223799   5.093   3.004   0.025
 7634SOL     OW23800   1.048   1.254   2.046
 7634SOL    HW123801   1.137   1.280   2.085
 7634SOL    HW223802   1.061   1.219   1.954
 7635SOL     OW23803   2.522   5.120   5.513
 7635SOL    HW123804   2.616   5.114   5.481
 7635SOL    HW223805   2.494   5.032   5.553
 7636SOL     OW23806   0.879   1.109   3.092
 7636SOL    HW123807   0.780   1.116   3.078
 7636SOL    HW223808   0.906   1.168   3.169
 7637SOL     OW23809   1.906   6.531   2.555
 7637SOL    HW123810   1.935   6.436   2.555
 7637SOL    HW223811   1.964   6.583   2.618
 7638SOL     OW23812   4.801   6.057   2.210
 7638SOL    HW123813   4.793   5.962   2.179
 7638SOL    HW223814   4.710   6.094   2.229
 7639SOL     OW23815   1.483   2.160   0.394
 7639SOL    HW123816   1.540   2.208   0.461
 7639SOL    HW223817   1.524   2.071   0.373
 7640SOL     OW23818   3.073   2.453   0.380
 7640SOL    HW123819   3.047   2.478   0.287
 7640SOL    HW223820   3.144   2.382   0.377
 7641SOL     OW23821   0.520   4.500   1.252
 7641SOL    HW123822   0.481   4.576   1.200
 7641SOL    HW223823   0.548   4.532   1.342
 7642SOL     OW23824   2.450   1.540   3.117
 7642SOL    HW123825   2.473   1.506   3.208
 7642SOL    HW223826   2.533   1.565   3.069
 7643SOL     OW23827   4.472   1.692   3.860
 7643SOL    HW123828   4.555   1.674   3.807
 7643SOL    HW223829   4.411   1.751   3.807
 7644SOL     OW23830   6.221   1.989   2.539
 7644SOL    HW123831   6.279   2.011   2.617
 7644SOL    HW223832   6.130   1.963   2.571
 7645SOL     OW23833   4.407   4.336   5.989
 7645SOL    HW123834   4.469   4.350   6.066
 7645SOL    HW223835   4.339   4.409   5.987
 7646SOL     OW23836   2.021   2.536   2.206
 7646SOL    HW123837   2.081   2.531   2.126
 7646SOL    HW223838   2.045   2.616   2.261
 7647SOL     OW23839   1.101   2.884   1.197
 7647SOL    HW123840   1.088   2.787   1.217
 7647SOL    HW223841   1.198   2.907   1.207
 7648SOL     OW23842   3.854   2.178   3.752
 7648SOL    HW123843   3.767   2.154   3.709
 7648SOL    HW223844   3.850   2.157   3.849
 7649SOL     OW23845   1.943   0.778   2.690
 7649SOL    HW123846   1.971   0.702   2.632
 7649SOL    HW223847   1.932   0.746   2.785
 7650SOL     OW23848   5.612   3.494   1.276
 7650SOL    HW123849   5.700   3.472   1.234
 7650SOL    HW223850   5.616   3.472   1.374
 7651SOL     OW23851   2.497   0.080   4.748
 7651SOL    HW123852   2.467   0.072   4.653
 7651SOL    HW223853   2.594   0.060   4.755
 7652SOL     OW23854   0.267   4.124   4.290
 7652SOL    HW123855   0.283   4.214   4.248
 7652SOL    HW223856   0.314   4.120   4.378
 7653SOL     OW23857   2.585   1.647   0.938
 7653SOL    HW123858   2.515   1.691   0.995
 7653SOL    HW223859   2.655   1.608   0.997
 7654SOL     OW23860   5.066   3.056   3.506
 7654SOL    HW123861   5.136   3.067   3.435
 7654SOL    HW223862   5.092   3.108   3.587
 7655SOL     OW23863   3.847   0.378   3.674
 7655SOL    HW123864   3.841   0.350   3.578
 7655SOL    HW223865   3.921   0.327   3.719
 7656SOL     OW23866   1.439   5.550   5.727
 7656SOL    HW123867   1.503   5.603   5.783
 7656SOL    HW223868   1.427   5.595   5.638
 7657SOL     OW23869   2.514   2.582   2.982
 7657SOL    HW123870   2.427   2.541   3.007
 7657SOL    HW223871   2.567   2.601   3.064
 7658SOL     OW23872   4.092   6.478   5.261
 7658SOL    HW123873   4.006   6.477   5.209
 7658SOL    HW223874   4.126   6.385   5.269
 7659SOL     OW23875   5.494   5.707   6.839
 7659SOL    HW123876   5.447   5.632   6.886
 7659SOL    HW223877   5.549   5.757   6.905
 7660SOL     OW23878   6.082   5.391   4.107
 7660SOL    HW123879   6.168   5.421   4.065
 7660SOL    HW223880   6.065   5.445   4.189
 7661SOL     OW23881   6.199   2.129   4.761
 7661SOL    HW123882   6.123   2.194   4.757
 7661SOL    HW223883   6.178   2.050   4.704
 7662SOL     OW23884   1.003   2.028   2.420
 7662SOL    HW123885   0.941   1.985   2.354
 7662SOL    HW223886   0.967   2.014   2.512
 7663SOL     OW23887   5.987   6.740   6.290
 7663SOL    HW123888   6.015   6.766   6.382
 7663SOL    HW223889   5.896   6.775   6.271
 7664SOL     OW23890   3.765   0.974   2.555
 7664SOL    HW123891   3.733   0.978   2.460
 7664SOL    HW223892   3.800   1.063   2.583
 7665SOL     OW23893   4.168   0.523   3.836
 7665SOL    HW123894   4.242   0.475   3.790
 7665SOL    HW223895   4.196   0.617   3.857
 7666SOL     OW23896   0.334   0.151   1.297
 7666SOL    HW123897   0.313   0.238   1.253
 7666SOL    HW223898   0.258   0.125   1.358
 7667SOL     OW23899   4.648   5.979   1.515
 7667SOL    HW123900   4.606   6.063   1.548
 7667SOL    HW223901   4.595   5.900   1.546
 7668SOL     OW23902   2.941   4.356   0.900
 7668SOL    HW123903   2.866   4.416   0.928
 7668SOL    HW223904   3.025   4.385   0.945
 7669SOL     OW23905   5.411   1.707   5.281
 7669SOL    HW123906   5.409   1.609   5.300
 7669SOL    HW223907   5.504   1.742   5.290
 7670SOL     OW23908   1.382   5.996   5.925
 7670SOL    HW123909   1.339   5.959   5.843
 7670SOL    HW223910   1.482   5.987   5.917
 7671SOL     OW23911   4.579   0.779   5.021
 7671SOL    HW123912   4.643   0.771   5.097
 7671SOL    HW223913   4.625   0.754   4.936
 7672SOL     OW23914   5.818   6.228   3.636
 7672SOL    HW123915   5.913   6.199   3.648
 7672SOL    HW223916   5.791   6.216   3.541
 7673SOL     OW23917   2.251   5.345   0.409
 7673SOL    HW123918   2.167   5.326   0.460
 7673SOL    HW223919   2.230   5.405   0.332
 7674SOL     OW23920   6.691   2.299   3.974
 7674SOL    HW123921   6.647   2.288   3.884
 7674SOL    HW223922   6.627   2.272   4.046
 7675SOL     OW23923   5.109   0.788   2.815
 7675SOL    HW123924   5.194   0.760   2.858
 7675SOL    HW223925   5.031   0.747   2.862
 7676SOL     OW23926   1.263   2.028   0.262
 7676SOL    HW123927   1.323   2.079   0.324
 7676SOL    HW223928   1.184   1.993   0.313
 7677SOL     OW23929   0.465   4.012   1.830
 7677SOL    HW123930   0.557   4.048   1.845
 7677SOL    HW223931   0.462   3.916   1.857
 7678SOL     OW23932   1.805   1.578   5.711
 7678SOL    HW123933   1.851   1.600   5.797
 7678SOL    HW223934   1.720   1.528   5.730
 7679SOL     OW23935   1.565   6.520   5.163
 7679SOL    HW123936   1.632   6.535   5.236
 7679SOL    HW223937   1.612   6.520   5.075
 7680SOL     OW23938   1.801   2.384   6.852
 7680SOL    HW123939   1.874   2.416   6.911
 7680SOL    HW223940   1.833   2.306   6.797
 7681SOL     OW23941   3.036   6.876   0.363
 7681SOL    HW123942   3.095   6.809   0.407
 7681SOL    HW223943   3.054   6.877   0.265
 7682SOL     OW23944   2.849   0.264   2.152
 7682SOL    HW123945   2.755   0.238   2.173
 7682SOL    HW223946   2.850   0.349   2.099
 7683SOL     OW23947   6.633   2.008   4.323
 7683SOL    HW123948   6.723   1.965   4.332
 7683SOL    HW223949   6.569   1.963   4.385
 7684SOL     OW23950   5.485   2.002   0.696
 7684SOL    HW123951   5.545   2.081   0.688
 7684SOL    HW223952   5.420   2.017   0.771
 7685SOL     OW23953   3.200   3.507   0.052
 7685SOL    HW123954   3.248   3.445   7.015
 7685SOL    HW223955   3.207   3.601   0.016
 7686SOL     OW23956   4.859   0.317   3.480
 7686SOL    HW123957   4.867   0.219   3.461
 7686SOL    HW223958   4.847   0.331   3.578
 7687SOL     OW23959   5.792   5.549   5.641
 7687SOL    HW123960   5.772   5.459   5.601
 7687SOL    HW223961   5.814   5.614   5.568
 7688SOL     OW23962   0.247   0.571   6.172
 7688SOL    HW123963   0.222   0.583   6.076
 7688SOL    HW223964   0.345   0.583   6.183
 7689SOL     OW23965   5.243   5.544   3.366
 7689SOL    HW123966   5.311   5.565   3.437
 7689SOL    HW223967   5.205   5.453   3.383
 7690SOL     OW23968   5.989   5.088   1.104
 7690SOL    HW123969   5.913   5.149   1.126
 7690SOL    HW223970   6.072   5.143   1.090
 7691SOL     OW23971   5.139   2.696   4.567
 7691SOL    HW123972   5.120   2.776   4.510
 7691SOL    HW223973   5.183   2.726   4.652
 7692SOL     OW23974   0.788   6.800   1.479
 7692SOL    HW123975   0.791   6.790   1.579
 7692SOL    HW223976   0.874   6.838   1.447
 7693SOL     OW23977   4.534   6.850   0.887
 7693SOL    HW123978   4.496   6.772   0.937
 7693SOL    HW223979   4.634   6.845   0.890
 7694SOL     OW23980   0.251   4.396   4.175
 7694SOL    HW123981   0.202   4.474   4.213
 7694SOL    HW223982   0.322   4.429   4.112
 7695SOL     OW23983   3.945   6.921   0.709
 7695SOL    HW123984   3.909   6.981   0.781
 7695SOL    HW223985   3.877   6.851   0.687
 7696SOL     OW23986   6.740   2.007   5.000
 7696SOL    HW123987   6.832   2.043   5.010
 7696SOL    HW223988   6.688   2.067   4.939
 7697SOL     OW23989   3.170   0.555   2.588
 7697SOL    HW123990   3.191   0.650   2.564
 7697SOL    HW223991   3.232   0.494   2.539
 7698SOL     OW23992   0.208   3.017   4.698
 7698SOL    HW123993   0.225   2.920   4.715
 7698SOL    HW223994   0.127   3.027   4.641
 7699SOL     OW23995   3.933   5.901   6.749
 7699SOL    HW123996   3.852   5.852   6.717
 7699SOL    HW223997   3.963   5.862   6.836
 7700SOL     OW23998   4.475   6.259   5.281
 7700SOL    HW123999   4.432   6.340   5.243
 7700SOL    HW224000   4.540   6.285   5.352
 7701SOL     OW24001   6.373   1.684   6.748
 7701SOL    HW124002   6.288   1.633   6.734
 7701SOL    HW224003   6.371   1.728   6.837
 7702SOL     OW24004   3.216   6.367   5.836
 7702SOL    HW124005   3.256   6.409   5.754
 7702SOL    HW224006   3.223   6.431   5.913
 7703SOL     OW24007   6.817   1.694   4.808
 7703SOL    HW124008   6.874   1.645   4.743
 7703SOL    HW224009   6.864   1.777   4.839
 7704SOL     OW24010   4.812   4.821   5.382
 7704SOL    HW124011   4.862   4.798   5.299
 7704SOL    HW224012   4.804   4.740   5.440
 7705SOL     OW24013   3.612   5.115   6.543
 7705SOL    HW124014   3.536   5.134   6.481
 7705SOL    HW224015   3.586   5.043   6.607
 7706SOL     OW24016   4.996   1.332   5.679
 7706SOL    HW124017   5.011   1.322   5.777
 7706SOL    HW224018   4.900   1.350   5.660
 7707SOL     OW24019   1.137   5.956   6.681
 7707SOL    HW124020   1.236   5.962   6.691
 7707SOL    HW224021   1.102   6.043   6.644
 7708SOL     OW24022   4.867   6.024   5.239
 7708SOL    HW124023   4.880   5.926   5.222
 7708SOL    HW224024   4.794   6.059   5.181
 7709SOL     OW24025   5.338   3.607   1.956
 7709SOL    HW124026   5.337   3.657   1.870
 7709SOL    HW224027   5.400   3.651   2.020
 7710SOL     OW24028   2.860   0.660   0.832
 7710SOL    HW124029   2.832   0.625   0.921
 7710SOL    HW224030   2.890   0.755   0.842
 7711SOL     OW24031   6.347   6.162   5.071
 7711SOL    HW124032   6.388   6.096   5.009
 7711SOL    HW224033   6.325   6.117   5.158
 7712SOL     OW24034   6.442   4.028   1.266
 7712SOL    HW124035   6.486   4.064   1.183
 7712SOL    HW224036   6.407   4.104   1.321
 7713SOL     OW24037   1.871   4.386   0.448
 7713SOL    HW124038   1.886   4.451   0.373
 7713SOL    HW224039   1.959   4.365   0.492
 7714SOL     OW24040   6.587   5.635   5.170
 7714SOL    HW124041   6.622   5.544   5.192
 7714SOL    HW224042   6.550   5.678   5.252
 7715SOL     OW24043   4.784   1.434   1.078
 7715SOL    HW124044   4.739   1.522   1.064
 7715SOL    HW224045   4.817   1.399   0.991
 7716SOL     OW24046   6.133   3.635   3.473
 7716SOL    HW124047   6.207   3.662   3.411
 7716SOL    HW224048   6.070   3.712   3.485
 7717SOL     OW24049   2.574   1.273   4.771
 7717SOL    HW124050   2.584   1.173   4.772
 7717SOL    HW224051   2.635   1.313   4.840
 7718SOL     OW24052   2.030   2.152   2.488
 7718SOL    HW124053   1.969   2.228   2.509
 7718SOL    HW224054   2.071   2.167   2.397
 7719SOL     OW24055   6.902   3.848   3.718
 7719SOL    HW124056   6.820   3.894   3.683
 7719SOL    HW224057   6.948   3.802   3.642
 7720SOL     OW24058   7.006   0.125   0.320
 7720SOL    HW124059   6.956   0.084   0.396
 7720SOL    HW224060   0.066   0.165   0.354
 7721SOL     OW24061   1.277   4.342   2.851
 7721SOL    HW124062   1.305   4.247   2.841
 7721SOL    HW224063   1.306   4.376   2.940
 7722SOL     OW24064   0.541   5.450   2.276
 7722SOL    HW124065   0.507   5.467   2.369
 7722SOL    HW224066   0.627   5.399   2.281
 7723SOL     OW24067   6.625   4.331   0.310
 7723SOL    HW124068   6.574   4.391   0.372
 7723SOL    HW224069   6.622   4.368   0.217
 7724SOL     OW24070   2.240   4.089   2.023
 7724SOL    HW124071   2.280   4.175   2.056
 7724SOL    HW224072   2.302   4.047   1.957
 7725SOL     OW24073   5.630   2.698   3.010
 7725SOL    HW124074   5.598   2.605   3.030
 7725SOL    HW224075   5.553   2.762   3.021
 7726SOL     OW24076   0.343   5.782   4.043
 7726SOL    HW124077   0.274   5.717   4.012
 7726SOL    HW224078   0.371   5.760   4.136
 7727SOL     OW24079   6.619   1.516   3.103
 7727SOL    HW124080   6.557   1.574   3.050
 7727SOL    HW224081   6.569   1.471   3.176
 7728SOL     OW24082   1.180   3.895   3.600
 7728SOL    HW124083   1.081   3.899   3.588
 7728SOL    HW224084   1.222   3.979   3.565
 7729SOL     OW24085   6.057   2.772   1.583
 7729SOL    HW124086   5.997   2.832   1.635
 7729SOL    HW224087   6.021   2.759   1.491
 7730SOL     OW24088   6.052   5.392   1.970
 7730SOL    HW124089   6.053   5.491   1.986
 7730SOL    HW224090   6.141   5.363   1.936
 7731SOL     OW24091   5.955   1.177   0.759
 7731SOL    HW124092   5.996   1.243   0.822
 7731SOL    HW224093   5.855   1.178   0.771
 7732SOL     OW24094   4.416   6.046   0.858
 7732SOL    HW124095   4.456   6.130   0.895
 7732SOL    HW224096   4.343   6.070   0.793
 7733SOL     OW24097   4.426   6.393   1.934
 7733SOL    HW124098   4.360   6.465   1.911
 7733SOL    HW224099   4.518   6.422   1.907
 7734SOL     OW24100   1.830   4.357   3.751
 7734SOL    HW124101   1.857   4.412   3.671
 7734SOL    HW224102   1.832   4.260   3.727
 7735SOL     OW24103   3.647   5.786   6.106
 7735SOL    HW124104   3.671   5.750   6.196
 7735SOL    HW224105   3.629   5.884   6.114
 7736SOL     OW24106   5.342   4.571   6.593
 7736SOL    HW124107   5.269   4.511   6.624
 7736SOL    HW224108   5.346   4.571   6.493
 7737SOL     OW24109   4.226   0.833   1.219
 7737SOL    HW124110   4.275   0.864   1.301
 7737SOL    HW224111   4.243   0.736   1.204
 7738SOL     OW24112   1.857   5.722   6.758
 7738SOL    HW124113   1.855   5.813   6.715
 7738SOL    HW224114   1.784   5.716   6.826
 7739SOL     OW24115   0.454   1.082   1.743
 7739SOL    HW124116   0.373   1.034   1.712
 7739SOL    HW224117   0.500   1.028   1.813
 7740SOL     OW24118   1.003   0.500   2.964
 7740SOL    HW124119   0.977   0.433   2.895
 7740SOL    HW224120   0.985   0.463   3.055
 7741SOL     OW24121   1.354   6.108   4.467
 7741SOL    HW124122   1.259   6.081   4.450
 7741SOL    HW224123   1.408   6.094   4.384
 7742SOL     OW24124   6.582   2.265   3.416
 7742SOL    HW124125   6.604   2.358   3.387
 7742SOL    HW224126   6.485   2.247   3.401
 7743SOL     OW24127   4.563   2.365   6.227
 7743SOL    HW124128   4.573   2.438   6.159
 7743SOL    HW224129   4.643   2.305   6.224
 7744SOL     OW24130   0.447   6.179   4.205
 7744SOL    HW124131   0.513   6.115   4.244
 7744SOL    HW224132   0.365   6.182   4.264
 7745SOL     OW24133   3.395   1.989   5.516
 7745SOL    HW124134   3.395   1.954   5.610
 7745SOL    HW224135   3.302   2.012   5.489
 7746SOL     OW24136   2.463   6.753   0.058
 7746SOL    HW124137   2.523   6.831   0.076
 7746SOL    HW224138   2.391   6.749   0.127
 7747SOL     OW24139   4.066   5.896   1.260
 7747SOL    HW124140   4.118   5.977   1.287
 7747SOL    HW224141   4.129   5.830   1.218
 7748SOL     OW24142   3.192   3.918   5.890
 7748SOL    HW124143   3.180   4.015   5.912
 7748SOL    HW224144   3.248   3.875   5.961
 7749SOL     OW24145   3.911   3.516   6.066
 7749SOL    HW124146   3.888   3.604   6.025
 7749SOL    HW224147   3.876   3.442   6.007
 7750SOL     OW24148   0.181   6.059   1.519
 7750SOL    HW124149   0.274   6.071   1.553
 7750SOL    HW224150   0.179   6.078   1.421
 7751SOL     OW24151   1.184   1.366   2.426
 7751SOL    HW124152   1.271   1.351   2.474
 7751SOL    HW224153   1.108   1.333   2.482
 7752SOL     OW24154   5.098   7.000   5.529
 7752SOL    HW124155   5.053   0.064   5.523
 7752SOL    HW224156   5.129   6.972   5.438
 7753SOL     OW24157   2.277   1.484   4.930
 7753SOL    HW124158   2.266   1.575   4.888
 7753SOL    HW224159   2.295   1.417   4.858
 7754SOL     OW24160   3.854   6.024   1.618
 7754SOL    HW124161   3.866   6.084   1.539
 7754SOL    HW224162   3.896   5.935   1.599
 7755SOL     OW24163   1.304   3.168   6.367
 7755SOL    HW124164   1.310   3.165   6.467
 7755SOL    HW224165   1.246   3.093   6.335
 7756SOL     OW24166   2.863   6.360   1.922
 7756SOL    HW124167   2.915   6.444   1.906
 7756SOL    HW224168   2.808   6.340   1.841
 7757SOL     OW24169   6.680   4.454   1.271
 7757SOL    HW124170   6.745   4.460   1.347
 7757SOL    HW224171   6.728   4.471   1.185
 7758SOL     OW24172   1.818   6.666   6.304
 7758SOL    HW124173   1.873   6.603   6.250
 7758SOL    HW224174   1.763   6.724   6.243
 7759SOL     OW24175   3.267   2.228   5.915
 7759SOL    HW124176   3.360   2.195   5.931
 7759SOL    HW224177   3.203   2.182   5.976
 7760SOL     OW24178   4.959   1.951   2.071
 7760SOL    HW124179   5.054   1.919   2.081
 7760SOL    HW224180   4.947   2.035   2.123
 7761SOL     OW24181   5.705   6.228   4.900
 7761SOL    HW124182   5.756   6.265   4.822
 7761SOL    HW224183   5.607   6.237   4.884
 7762SOL     OW24184   1.828   0.564   3.653
 7762SOL    HW124185   1.767   0.486   3.637
 7762SOL    HW224186   1.778   0.649   3.635
 7763SOL     OW24187   2.208   0.011   5.514
 7763SOL    HW124188   2.168   6.950   5.545
 7763SOL    HW224189   2.231   0.068   5.593
 7764SOL     OW24190   3.162   4.033   5.493
 7764SOL    HW124191   3.108   3.967   5.546
 7764SOL    HW224192   3.128   4.034   5.399
 7765SOL     OW24193   6.499   3.538   4.333
 7765SOL    HW124194   6.594   3.567   4.336
 7765SOL    HW224195   6.487   3.471   4.260
 7766SOL     OW24196   0.814   4.012   0.227
 7766SOL    HW124197   0.790   3.948   0.154
 7766SOL    HW224198   0.889   3.975   0.281
 7767SOL     OW24199   4.554   6.915   2.508
 7767SOL    HW124200   4.563   6.899   2.606
 7767SOL    HW224201   4.533   7.012   2.493
 7768SOL     OW24202   4.855   4.355   3.739
 7768SOL    HW124203   4.797   4.338   3.659
 7768SOL    HW224204   4.849   4.278   3.802
 7769SOL     OW24205   3.754   1.670   5.237
 7769SOL    HW124206   3.697   1.676   5.155
 7769SOL    HW224207   3.825   1.740   5.234
 7770SOL     OW24208   0.213   3.739   4.644
 7770SOL    HW124209   0.251   3.772   4.731
 7770SOL    HW224210   0.234   3.642   4.633
 7771SOL     OW24211   2.795   2.092   6.457
 7771SOL    HW124212   2.834   2.104   6.366
 7771SOL    HW224213   2.697   2.112   6.455
 7772SOL     OW24214   4.860   1.125   0.802
 7772SOL    HW124215   4.767   1.145   0.770
 7772SOL    HW224216   4.856   1.091   0.896
 7773SOL     OW24217   2.184   5.806   6.649
 7773SOL    HW124218   2.250   5.776   6.581
 7773SOL    HW224219   2.153   5.727   6.703
 7774SOL     OW24220   4.602   2.439   4.157
 7774SOL    HW124221   4.605   2.495   4.074
 7774SOL    HW224222   4.589   2.343   4.131
 7775SOL     OW24223   4.089   0.309   6.864
 7775SOL    HW124224   4.066   0.357   6.949
 7775SOL    HW224225   4.168   0.353   6.822
 7776SOL     OW24226   6.926   6.559   6.235
 7776SOL    HW124227   7.001   6.495   6.254
 7776SOL    HW224228   6.922   6.629   6.306
 7777SOL     OW24229   6.287   5.560   4.436
 7777SOL    HW124230   6.334   5.497   4.375
 7777SOL    HW224231   6.188   5.545   4.430
 7778SOL     OW24232   5.901   4.131   2.494
 7778SOL    HW124233   5.893   4.109   2.591
 7778SOL    HW224234   5.904   4.047   2.441
 7779SOL     OW24235   3.674   0.494   2.763
 7779SOL    HW124236   3.645   0.478   2.669
 7779SOL    HW224237   3.625   0.431   2.824
 7780SOL     OW24238   0.103   6.361   6.268
 7780SOL    HW124239   0.201   6.379   6.260
 7780SOL    HW224240   0.089   6.269   6.306
 7781SOL     OW24241   1.689   3.893   0.179
 7781SOL    HW124242   1.769   3.894   0.120
 7781SOL    HW224243   1.628   3.968   0.153
 7782SOL     OW24244   5.888   4.510   3.238
 7782SOL    HW124245   5.812   4.502   3.174
 7782SOL    HW224246   5.923   4.603   3.237
 7783SOL     OW24247   0.462   0.050   5.583
 7783SOL    HW124248   0.385   0.041   5.646
 7783SOL    HW224249   0.546   0.021   5.629
 7784SOL     OW24250   2.846   2.265   1.672
 7784SOL    HW124251   2.759   2.218   1.685
 7784SOL    HW224252   2.878   2.300   1.760
 7785SOL     OW24253   1.414   6.246   3.455
 7785SOL    HW124254   1.450   6.238   3.362
 7785SOL    HW224255   1.394   6.154   3.491
 7786SOL     OW24256   4.570   1.208   6.849
 7786SOL    HW124257   4.522   1.195   6.935
 7786SOL    HW224258   4.546   1.134   6.786
 7787SOL     OW24259   2.319   3.080   1.219
 7787SOL    HW124260   2.235   3.121   1.183
 7787SOL    HW224261   2.386   3.152   1.237
 7788SOL     OW24262   1.490   6.123   1.870
 7788SOL    HW124263   1.430   6.183   1.922
 7788SOL    HW224264   1.472   6.134   1.772
 7789SOL     OW24265   3.383   6.903   6.188
 7789SOL    HW124266   3.422   6.905   6.280
 7789SOL    HW224267   3.318   6.978   6.178
 7790SOL     OW24268   6.576   5.131   2.564
 7790SOL    HW124269   6.649   5.197   2.549
 7790SOL    HW224270   6.611   5.056   2.621
 7791SOL     OW24271   1.825   5.388   1.727
 7791SOL    HW124272   1.905   5.332   1.748
 7791SOL    HW224273   1.769   5.343   1.659
 7792SOL     OW24274   0.262   1.041   2.724
 7792SOL    HW124275   0.340   1.053   2.663
 7792SOL    HW224276   0.232   0.945   2.720
 7793SOL     OW24277   5.089   1.402   6.575
 7793SOL    HW124278   5.056   1.381   6.483
 7793SOL    HW224279   5.076   1.500   6.593
 7794SOL     OW24280   0.352   5.423   2.055
 7794SOL    HW124281   0.388   5.438   2.147
 7794SOL    HW224282   0.376   5.501   1.997
 7795SOL     OW24283   3.256   4.954   5.709
 7795SOL    HW124284   3.257   4.857   5.732
 7795SOL    HW224285   3.243   4.965   5.611
 7796SOL     OW24286   3.842   3.509   5.665
 7796SOL    HW124287   3.793   3.596   5.667
 7796SOL    HW224288   3.835   3.466   5.755
 7797SOL     OW24289   1.244   5.190   1.945
 7797SOL    HW124290   1.239   5.096   1.913
 7797SOL    HW224291   1.175   5.206   2.015
 7798SOL     OW24292   1.056   1.121   1.824
 7798SOL    HW124293   0.965   1.163   1.816
 7798SOL    HW224294   1.089   1.098   1.732
 7799SOL     OW24295   2.721   6.106   2.982
 7799SOL    HW124296   2.736   6.167   3.060
 7799SOL    HW224297   2.809   6.075   2.947
 7800SOL     OW24298   0.636   5.868   1.732
 7800SOL    HW124299   0.641   5.911   1.822
 7800SOL    HW224300   0.701   5.793   1.727
 7801SOL     OW24301   1.678   2.014   2.506
 7801SOL    HW124302   1.711   2.082   2.571
 7801SOL    HW224303   1.608   1.957   2.550
 7802SOL     OW24304   6.817   4.510   6.527
 7802SOL    HW124305   6.888   4.577   6.550
 7802SOL    HW224306   6.860   4.423   6.502
 7803SOL     OW24307   5.468   2.208   7.008
 7803SOL    HW124308   5.492   2.300   6.979
 7803SOL    HW224309   5.434   2.210   0.077
 7804SOL     OW24310   3.096   1.788   3.923
 7804SOL    HW124311   3.025   1.848   3.887
 7804SOL    HW224312   3.079   1.694   3.892
 7805SOL     OW24313   5.141   2.780   1.862
 7805SOL    HW124314   5.207   2.780   1.937
 7805SOL    HW224315   5.049   2.796   1.898
 7806SOL     OW24316   6.747   2.387   6.360
 7806SOL    HW124317   6.672   2.338   6.403
 7806SOL    HW224318   6.808   2.322   6.314
 7807SOL     OW24319   1.444   4.429   6.427
 7807SOL    HW124320   1.362   4.372   6.432
 7807SOL    HW224321   1.524   4.371   6.415
 7808SOL     OW24322   4.612   4.279   2.482
 7808SOL    HW124323   4.645   4.193   2.443
 7808SOL    HW224324   4.576   4.337   2.410
 7809SOL     OW24325   5.125   5.104   4.645
 7809SOL    HW124326   5.137   5.017   4.691
 7809SOL    HW224327   5.031   5.136   4.657
 7810SOL     OW24328   3.595   6.932   4.369
 7810SOL    HW124329   3.673   6.957   4.428
 7810SOL    HW224330   3.544   6.857   4.412
 7811SOL     OW24331   1.106   5.770   2.812
 7811SOL    HW124332   1.158   5.784   2.728
 7811SOL    HW224333   1.151   5.818   2.887
 7812SOL     OW24334   2.311   3.258   5.294
 7812SOL    HW124335   2.245   3.313   5.243
 7812SOL    HW224336   2.354   3.192   5.232
 7813SOL     OW24337   4.422   2.630   1.315
 7813SOL    HW124338   4.487   2.652   1.387
 7813SOL    HW224339   4.456   2.665   1.228
 7814SOL     OW24340   6.676   3.270   2.594
 7814SOL    HW124341   6.753   3.208   2.577
 7814SOL    HW224342   6.618   3.274   2.513
 7815SOL     OW24343   5.435   2.206   5.209
 7815SOL    HW124344   5.400   2.299   5.223
 7815SOL    HW224345   5.456   2.165   5.298
 7816SOL     OW24346   0.337   1.519   5.838
 7816SOL    HW124347   0.395   1.441   5.812
 7816SOL    HW224348   0.299   1.503   5.929
 7817SOL     OW24349   3.741   3.966   5.769
 7817SOL    HW124350   3.646   3.986   5.791
 7817SOL    HW224351   3.783   4.047   5.728
 7818SOL     OW24352   4.414   1.220   2.264
 7818SOL    HW124353   4.323   1.201   2.300
 7818SOL    HW224354   4.414   1.307   2.214
 7819SOL     OW24355   0.302   3.648   4.129
 7819SOL    HW124356   0.326   3.737   4.168
 7819SOL    HW224357   0.218   3.614   4.171
 7820SOL     OW24358   2.191   0.977   5.567
 7820SOL    HW124359   2.289   0.957   5.562
 7820SOL    HW224360   2.175   1.071   5.536
 7821SOL     OW24361   6.076   5.630   0.178
 7821SOL    HW124362   6.011   5.700   0.208
 7821SOL    HW224363   6.063   5.612   0.081
 7822SOL     OW24364   1.023   1.746   5.511
 7822SOL    HW124365   1.014   1.672   5.445
 7822SOL    HW224366   0.994   1.714   5.601
 7823SOL     OW24367   1.383   4.174   6.337
 7823SOL    HW124368   1.449   4.100   6.323
 7823SOL    HW224369   1.290   4.139   6.324
 7824SOL     OW24370   5.758   0.909   4.253
 7824SOL    HW124371   5.814   0.928   4.172
 7824SOL    HW224372   5.816   0.907   4.334
 7825SOL     OW24373   2.587   2.777   1.763
 7825SOL    HW124374   2.553   2.780   1.857
 7825SOL    HW224375   2.649   2.700   1.752
 7826SOL     OW24376   5.387   1.651   0.017
 7826SOL    HW124377   5.413   1.737   0.059
 7826SOL    HW224378   5.304   1.664   6.988
 7827SOL     OW24379   3.552   4.610   1.428
 7827SOL    HW124380   3.651   4.605   1.415
 7827SOL    HW224381   3.520   4.703   1.407
 7828SOL     OW24382   0.731   5.854   1.013
 7828SOL    HW124383   0.723   5.800   1.097
 7828SOL    HW224384   0.755   5.948   1.037
 7829SOL     OW24385   2.570   3.542   1.446
 7829SOL    HW124386   2.490   3.528   1.505
 7829SOL    HW224387   2.539   3.555   1.352
 7830SOL     OW24388   5.704   3.880   6.009
 7830SOL    HW124389   5.739   3.817   5.940
 7830SOL    HW224390   5.675   3.829   6.089
 7831SOL     OW24391   1.454   4.358   0.222
 7831SOL    HW124392   1.435   4.448   0.261
 7831SOL    HW224393   1.451   4.363   0.122
 7832SOL     OW24394   3.223   1.609   5.083
 7832SOL    HW124395   3.143   1.667   5.066
 7832SOL    HW224396   3.204   1.547   5.158
 7833SOL     OW24397   1.244   0.660   0.768
 7833SOL    HW124398   1.274   0.707   0.685
 7833SOL    HW224399   1.158   0.701   0.801
 7834SOL     OW24400   0.191   1.541   2.153
 7834SOL    HW124401   0.231   1.449   2.146
 7834SOL    HW224402   0.136   1.546   2.237
 7835SOL     OW24403   2.268   2.992   4.748
 7835SOL    HW124404   2.324   2.998   4.830
 7835SOL    HW224405   2.199   2.920   4.759
 7836SOL     OW24406   3.073   0.235   6.553
 7836SOL    HW124407   3.089   0.262   6.458
 7836SOL    HW224408   3.007   0.298   6.595
 7837SOL     OW24409   5.962   6.632   2.009
 7837SOL    HW124410   5.919   6.558   1.958
 7837SOL    HW224411   6.042   6.596   2.059
 7838SOL     OW24412   4.522   6.288   5.749
 7838SOL    HW124413   4.507   6.382   5.782
 7838SOL    HW224414   4.564   6.291   5.659
 7839SOL     OW24415   6.161   4.086   4.439
 7839SOL    HW124416   6.254   4.113   4.467
 7839SOL    HW224417   6.149   4.102   4.341
 7840SOL     OW24418   4.861   2.063   4.162
 7840SOL    HW124419   4.859   2.123   4.242
 7840SOL    HW224420   4.953   2.024   4.153
 7841SOL     OW24421   5.400   2.326   6.620
 7841SOL    HW124422   5.403   2.312   6.521
 7841SOL    HW224423   5.442   2.414   6.643
 7842SOL     OW24424   1.301   1.211   3.234
 7842SOL    HW124425   1.336   1.273   3.303
 7842SOL    HW224426   1.358   1.216   3.152
 7843SOL     OW24427   5.606   3.961   1.227
 7843SOL    HW124428   5.697   3.944   1.187
 7843SOL    HW224429   5.600   4.056   1.257
 7844SOL     OW24430   4.406   0.431   3.719
 7844SOL    HW124431   4.370   0.428   3.626
 7844SOL    HW224432   4.467   0.510   3.728
 7845SOL     OW24433   1.118   0.715   3.780
 7845SOL    HW124434   1.069   0.751   3.701
 7845SOL    HW224435   1.062   0.725   3.862
 7846SOL     OW24436   2.566   1.003   1.327
 7846SOL    HW124437   2.547   1.099   1.350
 7846SOL    HW224438   2.656   0.996   1.283
 7847SOL     OW24439   0.236   1.027   0.993
 7847SOL    HW124440   0.279   1.015   0.904
 7847SOL    HW224441   0.282   0.970   1.061
 7848SOL     OW24442   3.567   4.720   1.085
 7848SOL    HW124443   3.508   4.642   1.066
 7848SOL    HW224444   3.545   4.758   1.174
 7849SOL     OW24445   5.251   3.720   3.705
 7849SOL    HW124446   5.280   3.625   3.723
 7849SOL    HW224447   5.318   3.764   3.646
 7850SOL     OW24448   6.879   0.785   3.947
 7850SOL    HW124449   6.877   0.859   3.881
 7850SOL    HW224450   6.856   0.699   3.901
 7851SOL     OW24451   6.055   6.576   0.195
 7851SOL    HW124452   6.137   6.551   0.245
 7851SOL    HW224453   5.974   6.547   0.247
 7852SOL     OW24454   3.095   6.370   6.912
 7852SOL    HW124455   3.132   6.454   6.873
 7852SOL    HW224456   3.101   6.296   6.844
 7853SOL     OW24457   3.298   1.447   0.279
 7853SOL    HW124458   3.199   1.446   0.291
 7853SOL    HW224459   3.329   1.542   0.267
 7854SOL     OW24460   3.672   3.722   1.057
 7854SOL    HW124461   3.587   3.733   1.004
 7854SOL    HW224462   3.671   3.786   1.134
 7855SOL     OW24463   4.074   6.000   6.082
 7855SOL    HW124464   4.107   6.086   6.043
 7855SOL    HW224465   4.014   5.954   6.017
 7856SOL     OW24466   6.436   4.418   4.674
 7856SOL    HW124467   6.400   4.405   4.582
 7856SOL    HW224468   6.378   4.371   4.740
 7857SOL     OW24469   6.646   2.585   5.726
 7857SOL    HW124470   6.640   2.634   5.813
 7857SOL    HW224471   6.628   2.488   5.741
 7858SOL     OW24472   5.033   4.320   3.087
 7858SOL    HW124473   4.952   4.322   3.146
 7858SOL    HW224474   5.102   4.260   3.127
 7859SOL     OW24475   0.366   3.942   6.335
 7859SOL    HW124476   0.298   3.903   6.397
 7859SOL    HW224477   0.361   4.042   6.339
 7860SOL     OW24478   3.997   6.281   2.640
 7860SOL    HW124479   4.020   6.341   2.716
 7860SOL    HW224480   3.906   6.241   2.654
 7861SOL     OW24481   4.307   5.378   1.841
 7861SOL    HW124482   4.389   5.416   1.797
 7861SOL    HW224483   4.334   5.332   1.926
 7862SOL     OW24484   2.909   4.268   1.638
 7862SOL    HW124485   2.898   4.332   1.713
 7862SOL    HW224486   2.822   4.225   1.617
 7863SOL     OW24487   6.441   5.963   3.270
 7863SOL    HW124488   6.398   6.046   3.233
 7863SOL    HW224489   6.413   5.884   3.217
 7864SOL     OW24490   6.934   6.133   5.649
 7864SOL    HW124491   7.010   6.082   5.609
 7864SOL    HW224492   6.849   6.084   5.632
 7865SOL     OW24493   4.395   6.538   3.927
 7865SOL    HW124494   4.325   6.609   3.917
 7865SOL    HW224495   4.474   6.577   3.975
 7866SOL     OW24496   2.534   1.476   2.228
 7866SOL    HW124497   2.519   1.391   2.178
 7866SOL    HW224498   2.616   1.522   2.192
 7867SOL     OW24499   5.404   5.519   2.309
 7867SOL    HW124500   5.340   5.506   2.233
 7867SOL    HW224501   5.369   5.474   2.391
 7868SOL     OW24502   5.323   6.647   1.596
 7868SOL    HW124503   5.304   6.559   1.552
 7868SOL    HW224504   5.411   6.643   1.643
 7869SOL     OW24505   6.356   3.939   0.752
 7869SOL    HW124506   6.319   3.905   0.666
 7869SOL    HW224507   6.398   3.864   0.803
 7870SOL     OW24508   6.146   4.944   3.338
 7870SOL    HW124509   6.081   5.011   3.374
 7870SOL    HW224510   6.205   4.988   3.271
 7871SOL     OW24511   5.782   3.713   3.287
 7871SOL    HW124512   5.787   3.685   3.191
 7871SOL    HW224513   5.692   3.752   3.306
 7872SOL     OW24514   1.180   4.411   2.267
 7872SOL    HW124515   1.162   4.501   2.307
 7872SOL    HW224516   1.166   4.415   2.168
 7873SOL     OW24517   6.739   0.584   5.354
 7873SOL    HW124518   6.757   0.537   5.440
 7873SOL    HW224519   6.671   0.657   5.369
 7874SOL     OW24520   6.463   1.327   6.708
 7874SOL    HW124521   6.429   1.241   6.670
 7874SOL    HW224522   6.537   1.309   6.773
 7875SOL     OW24523   4.423   4.137   6.636
 7875SOL    HW124524   4.425   4.151   6.735
 7875SOL    HW224525   4.490   4.067   6.611
 7876SOL     OW24526   6.588   0.426   4.934
 7876SOL    HW124527   6.647   0.445   5.012
 7876SOL    HW224528   6.576   0.509   4.880
 7877SOL     OW24529   0.205   2.744   2.385
 7877SOL    HW124530   0.242   2.664   2.338
 7877SOL    HW224531   0.272   2.777   2.452
 7878SOL     OW24532   5.106   4.585   2.902
 7878SOL    HW124533   5.120   4.507   2.963
 7878SOL    HW224534   5.009   4.593   2.879
 7879SOL     OW24535   4.380   6.014   3.362
 7879SOL    HW124536   4.391   6.111   3.387
 7879SOL    HW224537   4.454   5.961   3.403
 7880SOL     OW24538   0.198   6.192   0.550
 7880SOL    HW124539   0.242   6.131   0.616
 7880SOL    HW224540   0.217   6.287   0.575
 7881SOL     OW24541   0.373   4.082   4.534
 7881SOL    HW124542   0.339   4.125   4.618
 7881SOL    HW224543   0.426   4.001   4.558
 7882SOL     OW24544   1.661   2.560   2.518
 7882SOL    HW124545   1.658   2.596   2.424
 7882SOL    HW224546   1.579   2.588   2.567
 7883SOL     OW24547   1.881   0.507   1.469
 7883SOL    HW124548   1.976   0.481   1.452
 7883SOL    HW224549   1.858   0.587   1.413
 7884SOL     OW24550   1.483   4.437   3.499
 7884SOL    HW124551   1.448   4.485   3.579
 7884SOL    HW224552   1.420   4.449   3.422
 7885SOL     OW24553   5.828   5.537   3.192
 7885SOL    HW124554   5.836   5.635   3.209
 7885SOL    HW224555   5.733   5.514   3.173
 7886SOL     OW24556   5.784   3.892   1.528
 7886SOL    HW124557   5.827   3.804   1.550
 7886SOL    HW224558   5.783   3.905   1.429
 7887SOL     OW24559   3.188   2.796   5.303
 7887SOL    HW124560   3.094   2.779   5.333
 7887SOL    HW224561   3.240   2.711   5.307
 7888SOL     OW24562   6.882   1.715   4.253
 7888SOL    HW124563   6.948   1.748   4.186
 7888SOL    HW224564   6.799   1.685   4.206
 7889SOL     OW24565   0.571   5.534   0.154
 7889SOL    HW124566   0.567   5.546   0.055
 7889SOL    HW224567   0.578   5.624   0.198
 7890SOL     OW24568   1.494   2.611   3.854
 7890SOL    HW124569   1.572   2.674   3.849
 7890SOL    HW224570   1.416   2.659   3.893
 7891SOL     OW24571   0.685   3.268   4.295
 7891SOL    HW124572   0.600   3.313   4.267
 7891SOL    HW224573   0.755   3.338   4.311
 7892SOL     OW24574   1.342   2.045   4.307
 7892SOL    HW124575   1.299   2.052   4.397
 7892SOL    HW224576   1.439   2.024   4.318
 7893SOL     OW24577   6.215   6.261   1.587
 7893SOL    HW124578   6.133   6.227   1.541
 7893SOL    HW224579   6.280   6.186   1.598
 7894SOL     OW24580   2.288   1.481   0.357
 7894SOL    HW124581   2.304   1.382   0.366
 7894SOL    HW224582   2.288   1.523   0.448
 7895SOL     OW24583   3.460   6.158   4.170
 7895SOL    HW124584   3.528   6.199   4.231
 7895SOL    HW224585   3.445   6.063   4.196
 7896SOL     OW24586   4.844   3.305   1.453
 7896SOL    HW124587   4.781   3.361   1.506
 7896SOL    HW224588   4.914   3.363   1.411
 7897SOL     OW24589   3.787   3.927   6.883
 7897SOL    HW124590   3.724   4.004   6.891
 7897SOL    HW224591   3.857   3.934   6.953
 7898SOL     OW24592   4.839   0.107   4.302
 7898SOL    HW124593   4.847   0.046   4.224
 7898SOL    HW224594   4.779   0.066   4.371
 7899SOL     OW24595   5.340   6.111   1.496
 7899SOL    HW124596   5.434   6.112   1.532
 7899SOL    HW224597   5.295   6.027   1.524
 7900SOL     OW24598   0.526   3.956   0.636
 7900SOL    HW124599   0.572   3.993   0.555
 7900SOL    HW224600   0.445   3.905   0.608
 7901SOL     OW24601   5.300   1.423   5.806
 7901SOL    HW124602   5.276   1.326   5.806
 7901SOL    HW224603   5.228   1.474   5.853
 7902SOL     OW24604   0.020   6.291   3.414
 7902SOL    HW124605   0.035   6.366   3.478
 7902SOL    HW224606   0.036   6.323   3.321
 7903SOL     OW24607   4.304   1.586   4.074
 7903SOL    HW124608   4.241   1.663   4.083
 7903SOL    HW224609   4.373   1.608   4.004
 7904SOL     OW24610   5.955   0.214   3.437
 7904SOL    HW124611   5.952   0.173   3.346
 7904SOL    HW224612   6.010   0.157   3.497
 7905SOL     OW24613   5.321   0.910   0.614
 7905SOL    HW124614   5.251   0.842   0.634
 7905SOL    HW224615   5.296   0.997   0.656
 7906SOL     OW24616   1.308   5.110   1.058
 7906SOL    HW124617   1.381   5.104   0.990
 7906SOL    HW224618   1.344   5.081   1.147
 7907SOL     OW24619   6.068   0.691   3.119
 7907SOL    HW124620   6.144   0.627   3.132
 7907SOL    HW224621   5.985   0.640   3.097
 7908SOL     OW24622   1.008   2.186   6.530
 7908SOL    HW124623   1.090   2.194   6.587
 7908SOL    HW224624   0.974   2.277   6.506
 7909SOL     OW24625   5.221   4.128   3.128
 7909SOL    HW124626   5.264   4.107   3.040
 7909SOL    HW224627   5.153   4.058   3.149
 7910SOL     OW24628   1.484   3.321   1.192
 7910SOL    HW124629   1.532   3.320   1.279
 7910SOL    HW224630   1.409   3.255   1.194
 7911SOL     OW24631   0.632   3.841   1.302
 7911SOL    HW124632   0.681   3.925   1.321
 7911SOL    HW224633   0.697   3.766   1.287
 7912SOL     OW24634   5.456   4.945   0.536
 7912SOL    HW124635   5.385   4.875   0.522
 7912SOL    HW224636   5.428   5.006   0.610
 7913SOL     OW24637   2.160   4.040   0.912
 7913SOL    HW124638   2.217   4.020   0.832
 7913SOL    HW224639   2.075   4.084   0.882
 7914SOL     OW24640   0.069   5.450   6.779
 7914SOL    HW124641   0.092   5.485   6.870
 7914SOL    HW224642   0.112   5.508   6.710
 7915SOL     OW24643   4.010   0.923   2.902
 7915SOL    HW124644   3.913   0.932   2.927
 7915SOL    HW224645   4.017   0.881   2.812
 7916SOL     OW24646   0.471   0.608   4.761
 7916SOL    HW124647   0.495   0.540   4.691
 7916SOL    HW224648   0.545   0.616   4.827
 7917SOL     OW24649   4.106   2.507   5.898
 7917SOL    HW124650   4.197   2.540   5.873
 7917SOL    HW224651   4.047   2.585   5.920
 7918SOL     OW24652   1.065   1.250   5.207
 7918SOL    HW124653   1.097   1.333   5.162
 7918SOL    HW224654   1.140   1.209   5.259
 7919SOL     OW24655   1.145   5.029   2.806
 7919SOL    HW124656   1.174   5.120   2.778
 7919SOL    HW224657   1.106   5.034   2.899
 7920SOL     OW24658   5.046   1.103   2.125
 7920SOL    HW124659   5.054   1.184   2.183
 7920SOL    HW224660   4.958   1.057   2.142
 7921SOL     OW24661   5.731   1.556   1.566
 7921SOL    HW124662   5.745   1.536   1.663
 7921SOL    HW224663   5.820   1.562   1.521
 7922SOL     OW24664   0.564   6.486   6.832
 7922SOL    HW124665   0.526   6.499   6.924
 7922SOL    HW224666   0.506   6.535   6.766
 7923SOL     OW24667   2.996   2.450   6.655
 7923SOL    HW124668   3.084   2.460   6.608
 7923SOL    HW224669   2.994   2.508   6.736
 7924SOL     OW24670   5.263   6.654   1.108
 7924SOL    HW124671   5.307   6.580   1.057
 7924SOL    HW224672   5.322   6.682   1.183
 7925SOL     OW24673   1.960   6.516   1.085
 7925SOL    HW124674   1.947   6.430   1.036
 7925SOL    HW224675   1.912   6.590   1.036
 7926SOL     OW24676   5.379   1.134   6.599
 7926SOL    HW124677   5.305   1.087   6.648
 7926SOL    HW224678   5.424   1.198   6.662
 7927SOL     OW24679   5.426   0.305   1.804
 7927SOL    HW124680   5.398   0.216   1.769
 7927SOL    HW224681   5.351   0.370   1.791
 7928SOL     OW24682   6.716   1.098   3.160
 7928SOL    HW124683   6.775   1.176   3.140
 7928SOL    HW224684   6.758   1.041   3.231
 7929SOL     OW24685   4.593   3.787   6.366
 7929SOL    HW124686   4.532   3.845   6.312
 7929SOL    HW224687   4.539   3.720   6.418
 7930SOL     OW24688   3.054   5.441   5.805
 7930SOL    HW124689   3.150   5.468   5.812
 7930SOL    HW224690   3.008   5.499   5.738
 7931SOL     OW24691   3.544   2.916   0.758
 7931SOL    HW124692   3.482   2.845   0.724
 7931SOL    HW224693   3.620   2.927   0.694
 7932SOL     OW24694   0.035   5.015   1.323
 7932SOL    HW124695   6.971   4.988   1.286
 7932SOL    HW224696   0.094   4.934   1.330
 7933SOL     OW24697   6.600   0.726   5.969
 7933SOL    HW124698   6.629   0.717   6.065
 7933SOL    HW224699   6.680   0.749   5.913
 7934SOL     OW24700   1.476   4.739   0.675
 7934SOL    HW124701   1.443   4.812   0.615
 7934SOL    HW224702   1.565   4.764   0.712
 7935SOL     OW24703   4.946   4.217   2.516
 7935SOL    HW124704   4.877   4.177   2.456
 7935SOL    HW224705   4.913   4.215   2.610
 7936SOL     OW24706   2.995   5.907   3.267
 7936SOL    HW124707   3.007   5.982   3.203
 7936SOL    HW224708   2.901   5.874   3.262
 7937SOL     OW24709   2.054   5.412   4.326
 7937SOL    HW124710   2.114   5.437   4.250
 7937SOL    HW224711   2.027   5.316   4.317
 7938SOL     OW24712   5.276   6.705   5.295
 7938SOL    HW124713   5.296   6.798   5.326
 7938SOL    HW224714   5.203   6.708   5.226
 7939SOL     OW24715   0.262   1.968   5.730
 7939SOL    HW124716   0.298   2.046   5.780
 7939SOL    HW224717   0.329   1.894   5.731
 7940SOL     OW24718   3.525   1.770   2.286
 7940SOL    HW124719   3.436   1.735   2.314
 7940SOL    HW224720   3.521   1.870   2.275
 7941SOL     OW24721   4.937   6.433   3.156
 7941SOL    HW124722   4.883   6.348   3.150
 7941SOL    HW224723   4.958   6.452   3.252
 7942SOL     OW24724   0.620   2.301   2.548
 7942SOL    HW124725   0.674   2.277   2.468
 7942SOL    HW224726   0.653   2.250   2.627
 7943SOL     OW24727   1.101   4.771   5.802
 7943SOL    HW124728   1.128   4.836   5.731
 7943SOL    HW224729   1.021   4.719   5.771
 7944SOL     OW24730   0.834   2.283   1.772
 7944SOL    HW124731   0.882   2.333   1.844
 7944SOL    HW224732   0.760   2.229   1.812
 7945SOL     OW24733   6.463   5.120   2.939
 7945SOL    HW124734   6.474   5.125   2.840
 7945SOL    HW224735   6.517   5.045   2.976
 7946SOL     OW24736   3.999   0.130   5.995
 7946SOL    HW124737   3.980   0.032   5.986
 7946SOL    HW224738   3.925   0.174   6.046
 7947SOL     OW24739   2.242   2.205   5.179
 7947SOL    HW124740   2.202   2.276   5.122
 7947SOL    HW224741   2.340   2.222   5.189
 7948SOL     OW24742   1.145   4.655   1.186
 7948SOL    HW124743   1.067   4.717   1.181
 7948SOL    HW224744   1.147   4.597   1.105
 7949SOL     OW24745   4.155   4.045   5.587
 7949SOL    HW124746   4.081   4.046   5.520
 7949SOL    HW224747   4.117   4.029   5.678
 7950SOL     OW24748   5.226   6.263   5.080
 7950SOL    HW124749   5.270   6.186   5.034
 7950SOL    HW224750   5.220   6.245   5.178
 7951SOL     OW24751   1.832   4.814   3.059
 7951SOL    HW124752   1.742   4.789   3.023
 7951SOL    HW224753   1.901   4.751   3.023
 7952SOL     OW24754   6.595   3.403   6.908
 7952SOL    HW124755   6.628   3.326   6.853
 7952SOL    HW224756   6.658   3.480   6.898
 7953SOL     OW24757   4.673   2.103   1.636
 7953SOL    HW124758   4.602   2.060   1.580
 7953SOL    HW224759   4.676   2.060   1.726
 7954SOL     OW24760   4.109   3.667   6.142
 7954SOL    HW124761   4.047   3.601   6.100
 7954SOL    HW224762   4.199   3.662   6.097
 7955SOL     OW24763   2.351   1.798   6.479
 7955SOL    HW124764   2.310   1.713   6.513
 7955SOL    HW224765   2.290   1.840   6.411
 7956SOL     OW24766   5.770   1.581   1.835
 7956SOL    HW124767   5.705   1.618   1.902
 7956SOL    HW224768   5.821   1.506   1.876
 7957SOL     OW24769   3.585   0.898   6.262
 7957SOL    HW124770   3.502   0.845   6.246
 7957SOL    HW224771   3.564   0.976   6.322
 7958SOL     OW24772   5.635   4.284   6.234
 7958SOL    HW124773   5.642   4.380   6.209
 7958SOL    HW224774   5.561   4.241   6.182
 7959SOL     OW24775   4.932   0.788   6.614
 7959SOL    HW124776   4.986   0.871   6.607
 7959SOL    HW224777   4.937   0.754   6.708
 7960SOL     OW24778   0.710   1.668   6.319
 7960SOL    HW124779   0.635   1.703   6.375
 7960SOL    HW224780   0.706   1.569   6.315
 7961SOL     OW24781   6.678   6.798   1.007
 7961SOL    HW124782   6.587   6.823   0.972
 7961SOL    HW224783   6.731   6.754   0.935
 7962SOL     OW24784   0.088   1.691   5.863
 7962SOL    HW124785   0.064   1.775   5.813
 7962SOL    HW224786   0.149   1.635   5.807
 7963SOL     OW24787   6.427   5.029   3.935
 7963SOL    HW124788   6.395   5.066   3.847
 7963SOL    HW224789   6.525   5.009   3.928
 7964SOL     OW24790   6.449   2.440   1.981
 7964SOL    HW124791   6.373   2.376   1.981
 7964SOL    HW224792   6.507   2.423   1.901
 7965SOL     OW24793   3.990   2.647   6.839
 7965SOL    HW124794   3.896   2.611   6.846
 7965SOL    HW224795   4.052   2.572   6.817
 7966SOL     OW24796   3.814   3.777   5.971
 7966SOL    HW124797   3.748   3.810   6.038
 7966SOL    HW224798   3.825   3.845   5.898
 7967SOL     OW24799   2.159   5.241   2.401
 7967SOL    HW124800   2.227   5.314   2.408
 7967SOL    HW224801   2.068   5.279   2.415
 7968SOL     OW24802   6.184   2.193   5.483
 7968SOL    HW124803   6.136   2.180   5.570
 7968SOL    HW224804   6.161   2.117   5.422
 7969SOL     OW24805   5.081   6.211   0.317
 7969SOL    HW124806   5.053   6.282   0.381
 7969SOL    HW224807   5.180   6.213   0.305
 7970SOL     OW24808   6.050   2.688   2.739
 7970SOL    HW124809   6.063   2.596   2.703
 7970SOL    HW224810   5.958   2.719   2.718
 7971SOL     OW24811   2.903   1.032   1.511
 7971SOL    HW124812   2.864   0.987   1.430
 7971SOL    HW224813   3.001   1.047   1.497
 7972SOL     OW24814   3.305   3.675   1.950
 7972SOL    HW124815   3.353   3.763   1.950
 7972SOL    HW224816   3.354   3.610   1.892
 7973SOL     OW24817   5.530   4.311   4.333
 7973SOL    HW124818   5.455   4.251   4.357
 7973SOL    HW224819   5.495   4.387   4.278
 7974SOL     OW24820   6.070   1.029   5.325
 7974SOL    HW124821   6.136   0.977   5.271
 7974SOL    HW224822   6.033   1.104   5.269
 7975SOL     OW24823   4.482   0.629   0.712
 7975SOL    HW124824   4.466   0.599   0.805
 7975SOL    HW224825   4.566   0.684   0.709
 7976SOL     OW24826   1.000   6.942   5.645
 7976SOL    HW124827   1.084   6.973   5.689
 7976SOL    HW224828   0.971   7.009   5.576
 7977SOL     OW24829   5.698   6.054   2.187
 7977SOL    HW124830   5.657   6.093   2.104
 7977SOL    HW224831   5.775   5.996   2.161
 7978SOL     OW24832   0.209   3.107   6.685
 7978SOL    HW124833   0.273   3.036   6.712
 7978SOL    HW224834   0.252   3.197   6.695
 7979SOL     OW24835   1.918   4.437   6.029
 7979SOL    HW124836   1.965   4.402   5.948
 7979SOL    HW224837   1.820   4.446   6.009
 7980SOL     OW24838   3.113   5.447   6.352
 7980SOL    HW124839   3.140   5.456   6.447
 7980SOL    HW224840   3.108   5.350   6.328
 7981SOL     OW24841   0.877   4.966   2.005
 7981SOL    HW124842   0.936   4.885   2.013
 7981SOL    HW224843   0.883   5.002   1.912
 7982SOL     OW24844   1.847   1.682   6.004
 7982SOL    HW124845   1.877   1.776   6.015
 7982SOL    HW224846   1.749   1.679   5.985
 7983SOL     OW24847   6.095   1.308   1.543
 7983SOL    HW124848   6.058   1.401   1.542
 7983SOL    HW224849   6.029   1.245   1.502
 7984SOL     OW24850   0.756   1.746   0.610
 7984SOL    HW124851   0.811   1.791   0.680
 7984SOL    HW224852   0.682   1.695   0.654
 7985SOL     OW24853   2.344   2.194   4.453
 7985SOL    HW124854   2.441   2.192   4.430
 7985SOL    HW224855   2.299   2.267   4.401
 7986SOL     OW24856   3.865   1.354   5.543
 7986SOL    HW124857   3.769   1.362   5.518
 7986SOL    HW224858   3.906   1.278   5.494
 7987SOL     OW24859   2.487   3.635   0.831
 7987SOL    HW124860   2.493   3.607   0.927
 7987SOL    HW224861   2.461   3.556   0.775
 7988SOL     OW24862   0.716   0.896   1.751
 7988SOL    HW124863   0.775   0.821   1.720
 7988SOL    HW224864   0.628   0.860   1.780
 7989SOL     OW24865   2.080   4.007   0.189
 7989SOL    HW124866   2.091   4.106   0.199
 7989SOL    HW224867   1.987   3.986   0.159
 7990SOL     OW24868   2.861   6.001   4.295
 7990SOL    HW124869   2.788   6.028   4.233
 7990SOL    HW224870   2.851   5.904   4.319
 7991SOL     OW24871   5.717   1.442   4.640
 7991SOL    HW124872   5.795   1.483   4.591
 7991SOL    HW224873   5.710   1.345   4.616
 7992SOL     OW24874   1.815   0.204   0.280
 7992SOL    HW124875   1.901   0.206   0.331
 7992SOL    HW224876   1.800   0.293   0.237
 7993SOL     OW24877   0.557   0.059   1.592
 7993SOL    HW124878   0.500   0.009   1.527
 7993SOL    HW224879   0.562   0.010   1.678
 7994SOL     OW24880   4.924   0.657   2.946
 7994SOL    HW124881   4.952   0.667   3.041
 7994SOL    HW224882   4.922   0.561   2.921
 7995SOL     OW24883   5.519   4.582   3.200
 7995SOL    HW124884   5.561   4.559   3.112
 7995SOL    HW224885   5.569   4.537   3.274
 7996SOL     OW24886   4.084   6.639   4.079
 7996SOL    HW124887   4.111   6.655   3.984
 7996SOL    HW224888   3.994   6.596   4.082
 7997SOL     OW24889   0.108   1.801   0.628
 7997SOL    HW124890   0.150   1.741   0.560
 7997SOL    HW224891   0.093   1.892   0.588
 7998SOL     OW24892   2.871   6.315   0.081
 7998SOL    HW124893   2.836   6.406   0.101
 7998SOL    HW224894   2.959   6.323   0.034
 7999SOL     OW24895   1.176   1.798   6.123
 7999SOL    HW124896   1.176   1.742   6.205
 7999SOL    HW224897   1.268   1.833   6.106
 8000SOL     OW24898   5.757   0.085   6.356
 8000SOL    HW124899   5.821   0.095   6.433
 8000SOL    HW224900   5.805   0.105   6.270
 8001SOL     OW24901   4.232   6.061   1.622
 8001SOL    HW124902   4.290   6.020   1.692
 8001SOL    HW224903   4.268   6.039   1.531
 8002SOL     OW24904   0.665   1.593   5.748
 8002SOL    HW124905   0.606   1.581   5.668
 8002SOL    HW224906   0.651   1.518   5.812
 8003SOL     OW24907   1.499   5.872   1.968
 8003SOL    HW124908   1.440   5.845   2.044
 8003SOL    HW224909   1.499   5.971   1.958
 8004SOL     OW24910   1.908   3.231   3.443
 8004SOL    HW124911   1.991   3.287   3.443
 8004SOL    HW224912   1.837   3.276   3.497
 8005SOL     OW24913   2.815   0.441   3.507
 8005SOL    HW124914   2.744   0.509   3.490
 8005SOL    HW224915   2.851   0.407   3.420
 8006SOL     OW24916   2.672   5.563   5.650
 8006SOL    HW124917   2.675   5.662   5.658
 8006SOL    HW224918   2.576   5.532   5.650
 8007SOL     OW24919   5.700   2.048   6.255
 8007SOL    HW124920   5.667   2.043   6.350
 8007SOL    HW224921   5.751   2.133   6.242
 8008SOL     OW24922   3.368   5.902   7.000
 8008SOL    HW124923   3.445   5.966   7.007
 8008SOL    HW224924   3.292   5.934   0.032
 8009SOL     OW24925   4.498   1.410   0.891
 8009SOL    HW124926   4.404   1.438   0.868
 8009SOL    HW224927   4.538   1.477   0.954
 8010SOL     OW24928   2.934   2.405   5.320
 8010SOL    HW124929   3.019   2.402   5.267
 8010SOL    HW224930   2.936   2.332   5.388
 8011SOL     OW24931   3.411   1.946   1.680
 8011SOL    HW124932   3.444   1.874   1.740
 8011SOL    HW224933   3.483   2.015   1.668
 8012SOL     OW24934   1.148   2.933   6.300
 8012SOL    HW124935   1.172   2.866   6.230
 8012SOL    HW224936   1.049   2.940   6.307
 8013SOL     OW24937   0.970   3.332   3.533
 8013SOL    HW124938   1.054   3.375   3.501
 8013SOL    HW224939   0.991   3.254   3.591
 8014SOL     OW24940   1.909   0.494   4.422
 8014SOL    HW124941   1.841   0.443   4.368
 8014SOL    HW224942   1.985   0.519   4.363
 8015SOL     OW24943   2.176   7.001   5.841
 8015SOL    HW124944   2.214   6.936   5.907
 8015SOL    HW224945   2.110   6.954   5.783
 8016SOL     OW24946   3.989   1.492   5.267
 8016SOL    HW124947   3.914   1.556   5.250
 8016SOL    HW224948   4.067   1.541   5.304
 8017SOL     OW24949   6.477   0.251   6.763
 8017SOL    HW124950   6.432   0.193   6.695
 8017SOL    HW224951   6.436   0.234   6.853
 8018SOL     OW24952   3.723   2.646   6.845
 8018SOL    HW124953   3.772   2.720   6.892
 8018SOL    HW224954   3.629   2.673   6.828
 8019SOL     OW24955   2.172   3.638   0.899
 8019SOL    HW124956   2.114   3.571   0.854
 8019SOL    HW224957   2.266   3.628   0.866
 8020SOL     OW24958   6.044   0.932   6.045
 8020SOL    HW124959   6.121   0.895   6.098
 8020SOL    HW224960   5.959   0.892   6.078
 8021SOL     OW24961   1.965   2.723   1.032
 8021SOL    HW124962   1.926   2.659   1.098
 8021SOL    HW224963   2.043   2.681   0.986
 8022SOL     OW24964   6.154   0.545   1.806
 8022SOL    HW124965   6.146   0.635   1.849
 8022SOL    HW224966   6.182   0.478   1.875
 8023SOL     OW24967   5.881   5.081   2.605
 8023SOL    HW124968   5.810   5.150   2.591
 8023SOL    HW224969   5.898   5.033   2.519
 8024SOL     OW24970   1.293   5.868   5.682
 8024SOL    HW124971   1.294   5.776   5.642
 8024SOL    HW224972   1.286   5.936   5.609
 8025SOL     OW24973   1.940   4.828   1.046
 8025SOL    HW124974   1.965   4.757   1.112
 8025SOL    HW224975   1.893   4.903   1.092
 8026SOL     OW24976   0.142   4.376   0.660
 8026SOL    HW124977   0.179   4.433   0.586
 8026SOL    HW224978   0.191   4.289   0.663
 8027SOL     OW24979   3.243   6.565   5.204
 8027SOL    HW124980   3.235   6.466   5.209
 8027SOL    HW224981   3.161   6.607   5.243
 8028SOL     OW24982   2.502   6.250   4.517
 8028SOL    HW124983   2.598   6.252   4.492
 8028SOL    HW224984   2.463   6.161   4.494
 8029SOL     OW24985   5.003   2.403   1.878
 8029SOL    HW124986   5.053   2.456   1.948
 8029SOL    HW224987   4.934   2.462   1.836
 8030SOL     OW24988   5.920   5.176   0.420
 8030SOL    HW124989   5.939   5.273   0.406
 8030SOL    HW224990   5.876   5.163   0.509
 8031SOL     OW24991   6.247   6.551   3.054
 8031SOL    HW124992   6.295   6.620   2.999
 8031SOL    HW224993   6.241   6.582   3.149
 8032SOL     OW24994   5.015   3.792   1.489
 8032SOL    HW124995   5.062   3.727   1.550
 8032SOL    HW224996   4.934   3.749   1.451
 8033SOL     OW24997   4.660   3.380   0.054
 8033SOL    HW124998   4.707   3.297   0.023
 8033SOL    HW224999   4.631   3.433   7.000
 8034SOL     OW25000   5.587   0.328   6.012
 8034SOL    HW125001   5.665   0.335   5.949
 8034SOL    HW225002   5.610   0.265   6.087
 8035SOL     OW25003   4.658   1.239   2.111
 8035SOL    HW125004   4.714   1.160   2.136
 8035SOL    HW225005   4.565   1.226   2.146
 8036SOL     OW25006   7.009   3.437   3.637
 8036SOL    HW125007   0.045   3.359   3.628
 8036SOL    HW225008   0.009   3.506   3.569
 8037SOL     OW25009   1.769   3.394   6.944
 8037SOL    HW125010   1.761   3.416   0.016
 8037SOL    HW225011   1.710   3.316   6.923
 8038SOL     OW25012   5.018   6.212   2.088
 8038SOL    HW125013   4.970   6.134   2.128
 8038SOL    HW225014   5.116   6.197   2.094
 8039SOL     OW25015   0.284   2.533   4.833
 8039SOL    HW125016   0.194   2.512   4.796
 8039SOL    HW225017   0.335   2.449   4.850
 8040SOL     OW25018   1.999   6.273   6.971
 8040SOL    HW125019   1.907   6.293   7.004
 8040SOL    HW225020   2.012   6.314   6.881
 8041SOL     OW25021   3.331   1.164   2.599
 8041SOL    HW125022   3.383   1.102   2.657
 8041SOL    HW225023   3.340   1.135   2.504
 8042SOL     OW25024   4.526   4.263   5.198
 8042SOL    HW125025   4.470   4.330   5.149
 8042SOL    HW225026   4.468   4.209   5.260
 8043SOL     OW25027   3.670   4.471   0.218
 8043SOL    HW125028   3.730   4.550   0.205
 8043SOL    HW225029   3.725   4.388   0.228
 8044SOL     OW25030   3.054   2.994   0.848
 8044SOL    HW125031   3.135   3.006   0.791
 8044SOL    HW225032   3.081   2.965   0.939
 8045SOL     OW25033   6.784   1.903   2.662
 8045SOL    HW125034   6.725   1.984   2.663
 8045SOL    HW225035   6.864   1.919   2.718
 8046SOL     OW25036   0.613   4.794   2.248
 8046SOL    HW125037   0.614   4.779   2.149
 8046SOL    HW225038   0.574   4.713   2.293
 8047SOL     OW25039   4.216   6.719   6.934
 8047SOL    HW125040   4.176   6.675   6.854
 8047SOL    HW225041   4.200   6.818   6.929
 8048SOL     OW25042   3.509   3.061   6.764
 8048SOL    HW125043   3.442   3.089   6.695
 8048SOL    HW225044   3.463   3.051   6.853
 8049SOL     OW25045   1.044   6.799   0.120
 8049SOL    HW125046   1.138   6.795   0.152
 8049SOL    HW225047   1.030   6.729   0.049
 8050SOL     OW25048   2.070   3.469   4.460
 8050SOL    HW125049   2.100   3.375   4.477
 8050SOL    HW225050   2.116   3.504   4.379
 8051SOL     OW25051   4.515   5.763   4.416
 8051SOL    HW125052   4.590   5.790   4.477
 8051SOL    HW225053   4.551   5.710   4.340
 8052SOL     OW25054   2.313   2.068   2.042
 8052SOL    HW125055   2.236   2.010   2.015
 8052SOL    HW225056   2.323   2.143   1.977
 8053SOL     OW25057   2.891   2.843   5.338
 8053SOL    HW125058   2.913   2.852   5.241
 8053SOL    HW225059   2.857   2.931   5.373
 8054SOL     OW25060   6.193   3.739   4.718
 8054SOL    HW125061   6.234   3.713   4.631
 8054SOL    HW225062   6.148   3.660   4.758
 8055SOL     OW25063   0.129   0.965   5.641
 8055SOL    HW125064   0.152   0.869   5.657
 8055SOL    HW225065   0.165   0.994   5.552
 8056SOL     OW25066   3.616   0.066   3.385
 8056SOL    HW125067   3.595   0.054   3.288
 8056SOL    HW225068   3.685   7.025   3.414
 8057SOL     OW25069   2.728   2.216   2.464
 8057SOL    HW125070   2.641   2.170   2.486
 8057SOL    HW225071   2.781   2.230   2.547
 8058SOL     OW25072   3.376   6.140   3.102
 8058SOL    HW125073   3.333   6.147   3.192
 8058SOL    HW225074   3.345   6.215   3.044
 8059SOL     OW25075   3.304   0.858   5.855
 8059SOL    HW125076   3.211   0.832   5.883
 8059SOL    HW225077   3.305   0.880   5.757
 8060SOL     OW25078   0.070   1.776   6.130
 8060SOL    HW125079   0.034   1.735   6.046
 8060SOL    HW225080   0.151   1.725   6.160
 8061SOL     OW25081   0.193   0.532   2.996
 8061SOL    HW125082   0.097   0.503   2.993
 8061SOL    HW225083   0.234   0.518   2.906
 8062SOL     OW25084   3.932   5.745   4.862
 8062SOL    HW125085   3.912   5.839   4.891
 8062SOL    HW225086   3.925   5.683   4.940
 8063SOL     OW25087   2.849   1.175   3.198
 8063SOL    HW125088   2.785   1.130   3.136
 8063SOL    HW225089   2.833   1.274   3.198
 8064SOL     OW25090   6.059   3.224   7.002
 8064SOL    HW125091   6.135   3.249   6.942
 8064SOL    HW225092   6.087   3.232   0.073
 8065SOL     OW25093   3.521   6.687   4.197
 8065SOL    HW125094   3.617   6.703   4.219
 8065SOL    HW225095   3.476   6.774   4.178
 8066SOL     OW25096   6.408   0.460   4.409
 8066SOL    HW125097   6.332   0.461   4.473
 8066SOL    HW225098   6.493   0.442   4.459
 8067SOL     OW25099   4.863   2.402   3.782
 8067SOL    HW125100   4.881   2.316   3.830
 8067SOL    HW225101   4.808   2.385   3.701
 8068SOL     OW25102   0.382   4.660   0.678
 8068SOL    HW125103   0.378   4.642   0.776
 8068SOL    HW225104   0.299   4.624   0.634
 8069SOL     OW25105   2.335   4.812   2.042
 8069SOL    HW125106   2.393   4.776   2.115
 8069SOL    HW225107   2.326   4.911   2.053
 8070SOL     OW25108   4.370   2.916   0.624
 8070SOL    HW125109   4.448   2.857   0.603
 8070SOL    HW225110   4.309   2.870   0.688
 8071SOL     OW25111   3.396   6.828   4.988
 8071SOL    HW125112   3.318   6.825   4.925
 8071SOL    HW225113   3.438   6.918   4.985
 8072SOL     OW25114   3.267   2.365   0.819
 8072SOL    HW125115   3.229   2.310   0.893
 8072SOL    HW225116   3.194   2.418   0.775
 8073SOL     OW25117   2.588   5.703   5.145
 8073SOL    HW125118   2.544   5.723   5.057
 8073SOL    HW225119   2.610   5.789   5.191
 8074SOL     OW25120   2.901   0.919   0.795
 8074SOL    HW125121   2.850   1.001   0.820
 8074SOL    HW225122   2.956   0.938   0.713
 8075SOL     OW25123   0.241   0.182   0.366
 8075SOL    HW125124   0.263   0.087   0.385
 8075SOL    HW225125   0.306   0.243   0.412
 8076SOL     OW25126   6.841   0.167   5.410
 8076SOL    HW125127   6.864   0.224   5.489
 8076SOL    HW225128   6.894   0.198   5.331
 8077SOL     OW25129   4.083   6.366   2.402
 8077SOL    HW125130   4.003   6.387   2.344
 8077SOL    HW225131   4.051   6.330   2.490
 8078SOL     OW25132   1.167   1.860   0.888
 8078SOL    HW125133   1.069   1.861   0.870
 8078SOL    HW225134   1.185   1.901   0.977
 8079SOL     OW25135   6.795   1.512   3.624
 8079SOL    HW125136   6.696   1.498   3.626
 8079SOL    HW225137   6.833   1.497   3.715
 8080SOL     OW25138   1.529   2.402   2.193
 8080SOL    HW125139   1.578   2.322   2.227
 8080SOL    HW225140   1.514   2.393   2.095
 8081SOL     OW25141   6.359   5.324   5.862
 8081SOL    HW125142   6.433   5.260   5.842
 8081SOL    HW225143   6.275   5.273   5.882
 8082SOL     OW25144   3.612   0.736   2.148
 8082SOL    HW125145   3.534   0.785   2.185
 8082SOL    HW225146   3.630   0.766   2.054
 8083SOL     OW25147   5.070   2.917   4.392
 8083SOL    HW125148   5.095   3.004   4.435
 8083SOL    HW225149   5.103   2.915   4.298
 8084SOL     OW25150   2.917   0.672   6.552
 8084SOL    HW125151   2.854   0.686   6.475
 8084SOL    HW225152   2.884   0.724   6.631
 8085SOL     OW25153   6.147   5.961   3.086
 8085SOL    HW125154   6.217   5.957   3.014
 8085SOL    HW225155   6.057   5.941   3.046
 8086SOL     OW25156   0.017   1.157   1.123
 8086SOL    HW125157   0.034   1.252   1.149
 8086SOL    HW225158   0.096   1.122   1.072
 8087SOL     OW25159   1.778   0.435   6.116
 8087SOL    HW125160   1.809   0.433   6.211
 8087SOL    HW225161   1.845   0.483   6.060
 8088SOL     OW25162   5.713   0.513   0.192
 8088SOL    HW125163   5.739   0.589   0.132
 8088SOL    HW225164   5.735   0.426   0.148
 8089SOL     OW25165   6.042   2.997   6.441
 8089SOL    HW125166   6.029   3.039   6.531
 8089SOL    HW225167   6.046   3.068   6.371
 8090SOL     OW25168   4.062   1.205   6.465
 8090SOL    HW125169   4.109   1.127   6.421
 8090SOL    HW225170   4.061   1.191   6.564
 8091SOL     OW25171   1.268   4.169   5.421
 8091SOL    HW125172   1.352   4.219   5.399
 8091SOL    HW225173   1.217   4.151   5.337
 8092SOL     OW25174   4.885   1.901   5.205
 8092SOL    HW125175   4.976   1.925   5.238
 8092SOL    HW225176   4.879   1.802   5.193
 8093SOL     OW25177   3.031   5.304   3.412
 8093SOL    HW125178   3.048   5.239   3.338
 8093SOL    HW225179   2.933   5.326   3.415
 8094SOL     OW25180   0.207   3.298   5.839
 8094SOL    HW125181   0.286   3.238   5.840
 8094SOL    HW225182   0.170   3.303   5.746
 8095SOL     OW25183   0.769   4.613   4.759
 8095SOL    HW125184   0.783   4.532   4.703
 8095SOL    HW225185   0.857   4.657   4.776
 8096SOL     OW25186   2.294   0.581   2.571
 8096SOL    HW125187   2.270   0.669   2.529
 8096SOL    HW225188   2.327   0.518   2.500
 8097SOL     OW25189   4.200   0.126   4.516
 8097SOL    HW125190   4.175   0.108   4.421
 8097SOL    HW225191   4.228   0.221   4.526
 8098SOL     OW25192   2.734   6.126   3.858
 8098SOL    HW125193   2.685   6.070   3.925
 8098SOL    HW225194   2.702   6.103   3.766
 8099SOL     OW25195   4.493   6.367   4.651
 8099SOL    HW125196   4.529   6.302   4.717
 8099SOL    HW225197   4.531   6.348   4.560
 8100SOL     OW25198   6.693   1.336   0.102
 8100SOL    HW125199   6.611   1.386   0.075
 8100SOL    HW225200   6.751   1.321   0.022
 8101SOL     OW25201   1.175   5.429   0.777
 8101SOL    HW125202   1.160   5.517   0.731
 8101SOL    HW225203   1.264   5.431   0.823
 8102SOL     OW25204   0.501   4.047   3.206
 8102SOL    HW125205   0.464   3.958   3.181
 8102SOL    HW225206   0.457   4.118   3.152
 8103SOL     OW25207   3.715   0.492   2.144
 8103SOL    HW125208   3.660   0.567   2.182
 8103SOL    HW225209   3.782   0.530   2.080
 8104SOL     OW25210   1.781   0.533   5.733
 8104SOL    HW125211   1.732   0.612   5.695
 8104SOL    HW225212   1.722   0.453   5.732
 8105SOL     OW25213   0.250   2.520   2.210
 8105SOL    HW125214   0.204   2.514   2.122
 8105SOL    HW225215   0.218   2.445   2.269
 8106SOL     OW25216   2.892   6.445   2.814
 8106SOL    HW125217   2.828   6.492   2.876
 8106SOL    HW225218   2.842   6.412   2.734
 8107SOL     OW25219   1.418   5.821   4.078
 8107SOL    HW125220   1.502   5.793   4.030
 8107SOL    HW225221   1.442   5.850   4.171
 8108SOL     OW25222   6.758   2.011   6.623
 8108SOL    HW125223   6.668   1.972   6.607
 8108SOL    HW225224   6.790   2.056   6.539
 8109SOL     OW25225   0.329   3.763   6.690
 8109SOL    HW125226   0.324   3.663   6.699
 8109SOL    HW225227   0.264   3.793   6.621
 8110SOL     OW25228   3.800   5.350   1.999
 8110SOL    HW125229   3.813   5.284   2.072
 8110SOL    HW225230   3.888   5.372   1.957
 8111SOL     OW25231   4.870   1.081   4.523
 8111SOL    HW125232   4.916   1.116   4.442
 8111SOL    HW225233   4.882   1.145   4.599
 8112SOL     OW25234   2.372   2.584   4.573
 8112SOL    HW125235   2.407   2.530   4.496
 8112SOL    HW225236   2.428   2.566   4.654
 8113SOL     OW25237   6.770   3.794   1.197
 8113SOL    HW125238   6.768   3.891   1.173
 8113SOL    HW225239   6.827   3.744   1.133
 8114SOL     OW25240   1.635   3.660   2.333
 8114SOL    HW125241   1.676   3.589   2.276
 8114SOL    HW225242   1.706   3.708   2.384
 8115SOL     OW25243   3.007   6.349   6.057
 8115SOL    HW125244   3.034   6.272   5.999
 8115SOL    HW225245   3.009   6.321   6.153
 8116SOL     OW25246   3.831   4.719   0.276
 8116SOL    HW125247   3.894   4.796   0.264
 8116SOL    HW225248   3.844   4.679   0.367
 8117SOL     OW25249   2.258   0.277   3.051
 8117SOL    HW125250   2.260   0.376   3.064
 8117SOL    HW225251   2.346   0.238   3.077
 8118SOL     OW25252   5.416   4.237   6.022
 8118SOL    HW125253   5.326   4.279   6.041
 8118SOL    HW225254   5.452   4.274   5.936
 8119SOL     OW25255   5.222   6.576   6.385
 8119SOL    HW125256   5.315   6.557   6.416
 8119SOL    HW225257   5.215   6.560   6.287
 8120SOL     OW25258   2.916   5.152   0.989
 8120SOL    HW125259   2.868   5.189   1.069
 8120SOL    HW225260   2.940   5.056   1.005
 8121SOL     OW25261   0.702   4.719   1.152
 8121SOL    HW125262   0.719   4.653   1.079
 8121SOL    HW225263   0.604   4.726   1.169
 8122SOL     OW25264   0.773   4.532   3.114
 8122SOL    HW125265   0.691   4.581   3.144
 8122SOL    HW225266   0.747   4.440   3.084
 8123SOL     OW25267   0.198   1.918   6.980
 8123SOL    HW125268   0.133   1.915   0.031
 8123SOL    HW225269   0.150   1.896   6.895
 8124SOL     OW25270   5.556   6.030   3.072
 8124SOL    HW125271   5.548   6.120   3.114
 8124SOL    HW225272   5.484   5.970   3.107
 8125SOL     OW25273   1.486   0.834   3.001
 8125SOL    HW125274   1.421   0.830   3.077
 8125SOL    HW225275   1.569   0.785   3.026
 8126SOL     OW25276   5.542   4.800   3.349
 8126SOL    HW125277   5.457   4.822   3.396
 8126SOL    HW225278   5.525   4.727   3.282
 8127SOL     OW25279   2.896   3.441   6.337
 8127SOL    HW125280   2.862   3.359   6.290
 8127SOL    HW225281   2.993   3.428   6.360
 8128SOL     OW25282   2.961   2.207   2.291
 8128SOL    HW125283   2.881   2.208   2.350
 8128SOL    HW225284   2.942   2.260   2.208
 8129SOL     OW25285   3.900   1.903   6.343
 8129SOL    HW125286   3.994   1.889   6.312
 8129SOL    HW225287   3.870   1.995   6.317
 8130SOL     OW25288   0.452   5.985   6.667
 8130SOL    HW125289   0.444   5.893   6.705
 8130SOL    HW225290   0.453   6.052   6.741
 8131SOL     OW25291   2.915   1.536   1.837
 8131SOL    HW125292   3.006   1.560   1.870
 8131SOL    HW225293   2.920   1.509   1.741
 8132SOL     OW25294   5.660   7.005   4.959
 8132SOL    HW125295   5.716   6.958   4.892
 8132SOL    HW225296   5.675   6.964   5.049
 8133SOL     OW25297   3.532   5.329   2.350
 8133SOL    HW125298   3.470   5.360   2.422
 8133SOL    HW225299   3.503   5.240   2.317
 8134SOL     OW25300   0.292   1.674   6.265
 8134SOL    HW125301   0.233   1.641   6.338
 8134SOL    HW225302   0.344   1.754   6.297
 8135SOL     OW25303   2.216   0.753   1.574
 8135SOL    HW125304   2.201   0.829   1.637
 8135SOL    HW225305   2.136   0.743   1.515
 8136SOL     OW25306   5.117   5.412   2.359
 8136SOL    HW125307   5.104   5.465   2.275
 8136SOL    HW225308   5.039   5.426   2.420
 8137SOL     OW25309   3.425   1.057   5.216
 8137SOL    HW125310   3.372   1.028   5.296
 8137SOL    HW225311   3.450   1.153   5.224
 8138SOL     OW25312   5.547   1.389   1.485
 8138SOL    HW125313   5.500   1.434   1.410
 8138SOL    HW225314   5.609   1.454   1.529
 8139SOL     OW25315   0.140   1.003   2.107
 8139SOL    HW125316   0.089   1.037   2.028
 8139SOL    HW225317   0.147   0.903   2.101
 8140SOL     OW25318   5.647   0.267   5.652
 8140SOL    HW125319   5.690   0.270   5.562
 8140SOL    HW225320   5.600   0.180   5.663
 8141SOL     OW25321   4.505   5.353   5.876
 8141SOL    HW125322   4.480   5.444   5.910
 8141SOL    HW225323   4.447   5.329   5.798
 8142SOL     OW25324   6.715   5.139   0.609
 8142SOL    HW125325   6.806   5.140   0.651
 8142SOL    HW225326   6.673   5.229   0.621
 8143SOL     OW25327   6.499   4.532   0.444
 8143SOL    HW125328   6.578   4.576   0.487
 8143SOL    HW225329   6.446   4.484   0.514
 8144SOL     OW25330   5.805   6.278   6.858
 8144SOL    HW125331   5.820   6.188   6.898
 8144SOL    HW225332   5.892   6.327   6.854
 8145SOL     OW25333   5.696   5.839   1.650
 8145SOL    HW125334   5.638   5.780   1.706
 8145SOL    HW225335   5.749   5.783   1.586
 8146SOL     OW25336   3.591   1.262   5.390
 8146SOL    HW125337   3.665   1.224   5.336
 8146SOL    HW225338   3.580   1.359   5.369
 8147SOL     OW25339   5.852   2.352   3.230
 8147SOL    HW125340   5.914   2.385   3.301
 8147SOL    HW225341   5.770   2.314   3.273
 8148SOL     OW25342   5.190   4.051   1.919
 8148SOL    HW125343   5.092   4.037   1.907
 8148SOL    HW225344   5.209   4.074   2.014
 8149SOL     OW25345   2.415   5.526   2.036
 8149SOL    HW125346   2.446   5.582   1.959
 8149SOL    HW225347   2.454   5.561   2.121
 8150SOL     OW25348   0.333   5.381   0.216
 8150SOL    HW125349   0.305   5.360   0.310
 8150SOL    HW225350   0.389   5.464   0.215
 8151SOL     OW25351   6.909   2.265   2.844
 8151SOL    HW125352   7.007   2.281   2.833
 8151SOL    HW225353   6.862   2.290   2.759
 8152SOL     OW25354   0.456   2.056   2.587
 8152SOL    HW125355   0.495   2.002   2.662
 8152SOL    HW225356   0.466   2.153   2.608
 8153SOL     OW25357   3.449   0.576   3.220
 8153SOL    HW125358   3.462   0.660   3.273
 8153SOL    HW225359   3.490   0.499   3.268
 8154SOL     OW25360   2.452   6.143   3.469
 8154SOL    HW125361   2.519   6.113   3.536
 8154SOL    HW225362   2.374   6.080   3.468
 8155SOL     OW25363   2.655   3.552   1.747
 8155SOL    HW125364   2.664   3.502   1.661
 8155SOL    HW225365   2.561   3.547   1.779
 8156SOL     OW25366   5.477   6.776   6.102
 8156SOL    HW125367   5.467   6.872   6.126
 8156SOL    HW225368   5.401   6.748   6.042
 8157SOL     OW25369   6.068   5.586   6.400
 8157SOL    HW125370   6.017   5.578   6.315
 8157SOL    HW225371   6.159   5.624   6.381
 8158SOL     OW25372   0.635   5.486   0.928
 8158SOL    HW125373   0.540   5.454   0.924
 8158SOL    HW225374   0.694   5.424   0.877
 8159SOL     OW25375   2.445   5.807   2.366
 8159SOL    HW125376   2.353   5.786   2.334
 8159SOL    HW225377   2.488   5.871   2.302
 8160SOL     OW25378   4.484   1.760   1.738
 8160SOL    HW125379   4.528   1.737   1.651
 8160SOL    HW225380   4.409   1.824   1.721
 8161SOL     OW25381   5.156   0.689   0.681
 8161SOL    HW125382   5.063   0.655   0.667
 8161SOL    HW225383   5.221   0.615   0.665
 8162SOL     OW25384   6.114   6.868   6.070
 8162SOL    HW125385   6.069   6.846   6.156
 8162SOL    HW225386   6.062   6.939   6.023
 8163SOL     OW25387   2.297   3.929   5.947
 8163SOL    HW125388   2.245   3.971   5.873
 8163SOL    HW225389   2.266   3.836   5.961
 8164SOL     OW25390   5.914   3.815   0.282
 8164SOL    HW125391   5.907   3.716   0.296
 8164SOL    HW225392   5.948   3.834   0.190
 8165SOL     OW25393   1.441   4.588   0.354
 8165SOL    HW125394   1.345   4.598   0.378
 8165SOL    HW225395   1.473   4.671   0.308
 8166SOL     OW25396   2.504   1.232   2.116
 8166SOL    HW125397   2.491   1.238   2.018
 8166SOL    HW225398   2.487   1.139   2.147
 8167SOL     OW25399   5.585   1.418   4.369
 8167SOL    HW125400   5.618   1.472   4.292
 8167SOL    HW225401   5.567   1.478   4.447
 8168SOL     OW25402   3.329   1.582   2.534
 8168SOL    HW125403   3.429   1.573   2.525
 8168SOL    HW225404   3.308   1.633   2.618
 8169SOL     OW25405   4.830   3.274   0.915
 8169SOL    HW125406   4.780   3.198   0.957
 8169SOL    HW225407   4.924   3.275   0.949
 8170SOL     OW25408   1.809   5.812   3.483
 8170SOL    HW125409   1.727   5.862   3.511
 8170SOL    HW225410   1.885   5.877   3.472
 8171SOL     OW25411   0.907   2.020   6.725
 8171SOL    HW125412   0.976   1.971   6.778
 8171SOL    HW225413   0.944   2.046   6.636
 8172SOL     OW25414   0.345   0.754   1.131
 8172SOL    HW125415   0.349   0.676   1.069
 8172SOL    HW225416   0.410   0.741   1.206
 8173SOL     OW25417   3.391   2.480   0.602
 8173SOL    HW125418   3.334   2.434   0.534
 8173SOL    HW225419   3.371   2.442   0.693
 8174SOL     OW25420   5.214   1.954   1.196
 8174SOL    HW125421   5.145   2.018   1.230
 8174SOL    HW225422   5.171   1.865   1.181
 8175SOL     OW25423   0.259   2.738   6.418
 8175SOL    HW125424   0.286   2.819   6.470
 8175SOL    HW225425   0.163   2.746   6.391
 8176SOL     OW25426   2.633   5.878   2.074
 8176SOL    HW125427   2.677   5.918   1.994
 8176SOL    HW225428   2.560   5.939   2.105
 8177SOL     OW25429   1.726   6.062   3.972
 8177SOL    HW125430   1.652   6.127   3.957
 8177SOL    HW225431   1.697   5.971   3.942
 8178SOL     OW25432   1.596   0.253   6.056
 8178SOL    HW125433   1.660   0.326   6.078
 8178SOL    HW225434   1.643   0.165   6.057
 8179SOL     OW25435   3.636   3.417   0.233
 8179SOL    HW125436   3.664   3.366   0.152
 8179SOL    HW225437   3.539   3.401   0.250
 8180SOL     OW25438   6.450   6.920   3.947
 8180SOL    HW125439   6.435   6.883   3.855
 8180SOL    HW225440   6.539   6.888   3.981
 8181SOL     OW25441   2.269   1.581   2.914
 8181SOL    HW125442   2.332   1.553   2.986
 8181SOL    HW225443   2.264   1.681   2.910
 8182SOL     OW25444   3.746   1.463   6.727
 8182SOL    HW125445   3.715   1.443   6.820
 8182SOL    HW225446   3.686   1.416   6.662
 8183SOL     OW25447   0.231   3.106   5.253
 8183SOL    HW125448   0.309   3.116   5.314
 8183SOL    HW225449   0.148   3.092   5.308
 8184SOL     OW25450   5.949   1.374   5.972
 8184SOL    HW125451   6.017   1.431   5.925
 8184SOL    HW225452   5.975   1.278   5.964
 8185SOL     OW25453   2.711   0.641   0.416
 8185SOL    HW125454   2.808   0.632   0.437
 8185SOL    HW225455   2.683   0.566   0.356
 8186SOL     OW25456   3.253   6.064   5.924
 8186SOL    HW125457   3.297   6.068   6.014
 8186SOL    HW225458   3.247   6.156   5.885
 8187SOL     OW25459   1.270   1.748   5.172
 8187SOL    HW125460   1.275   1.795   5.084
 8187SOL    HW225461   1.224   1.806   5.238
 8188SOL     OW25462   4.649   1.748   2.451
 8188SOL    HW125463   4.637   1.744   2.551
 8188SOL    HW225464   4.685   1.837   2.425
 8189SOL     OW25465   4.869   4.202   2.140
 8189SOL    HW125466   4.928   4.121   2.129
 8189SOL    HW225467   4.889   4.268   2.067
 8190SOL     OW25468   5.451   4.561   4.250
 8190SOL    HW125469   5.415   4.609   4.331
 8190SOL    HW225470   5.550   4.575   4.245
 8191SOL     OW25471   2.008   5.341   3.681
 8191SOL    HW125472   2.014   5.248   3.717
 8191SOL    HW225473   1.919   5.353   3.636
 8192SOL     OW25474   2.851   5.682   0.326
 8192SOL    HW125475   2.833   5.585   0.311
 8192SOL    HW225476   2.768   5.735   0.312
 8193SOL     OW25477   5.862   6.204   5.102
 8193SOL    HW125478   5.942   6.260   5.080
 8193SOL    HW225479   5.802   6.198   5.023
 8194SOL     OW25480   6.494   2.650   6.771
 8194SOL    HW125481   6.422   2.599   6.818
 8194SOL    HW225482   6.461   2.681   6.682
 8195SOL     OW25483   0.268   0.537   0.981
 8195SOL    HW125484   0.348   0.523   0.923
 8195SOL    HW225485   0.187   0.550   0.924
 8196SOL     OW25486   3.837   6.477   5.547
 8196SOL    HW125487   3.831   6.501   5.451
 8196SOL    HW225488   3.893   6.544   5.596
 8197SOL     OW25489   5.935   1.344   6.336
 8197SOL    HW125490   5.981   1.414   6.391
 8197SOL    HW225491   5.985   1.331   6.250
 8198SOL     OW25492   3.266   6.465   2.561
 8198SOL    HW125493   3.261   6.476   2.462
 8198SOL    HW225494   3.282   6.368   2.583
 8199SOL     OW25495   0.118   4.107   0.144
 8199SOL    HW125496   0.040   4.092   0.204
 8199SOL    HW225497   0.149   4.020   0.107
 8200SOL     OW25498   4.322   5.102   1.218
 8200SOL    HW125499   4.333   5.007   1.188
 8200SOL    HW225500   4.360   5.163   1.149
 8201SOL     OW25501   5.213   0.567   4.449
 8201SOL    HW125502   5.269   0.534   4.526
 8201SOL    HW225503   5.205   0.666   4.455
 8202SOL     OW25504   1.546   4.978   4.347
 8202SOL    HW125505   1.631   4.939   4.381
 8202SOL    HW225506   1.469   4.937   4.395
 8203SOL     OW25507   4.679   3.485   0.865
 8203SOL    HW125508   4.654   3.496   0.769
 8203SOL    HW225509   4.732   3.401   0.876
 8204SOL     OW25510   3.566   6.624   1.335
 8204SOL    HW125511   3.570   6.704   1.395
 8204SOL    HW225512   3.617   6.549   1.378
 8205SOL     OW25513   5.353   5.003   1.425
 8205SOL    HW125514   5.443   5.017   1.384
 8205SOL    HW225515   5.361   4.945   1.506
 8206SOL     OW25516   3.335   2.479   6.001
 8206SOL    HW125517   3.417   2.468   6.057
 8206SOL    HW225518   3.321   2.397   5.945
 8207SOL     OW25519   3.171   4.467   5.418
 8207SOL    HW125520   3.086   4.516   5.400
 8207SOL    HW225521   3.248   4.530   5.414
 8208SOL     OW25522   2.868   6.052   1.568
 8208SOL    HW125523   2.932   5.975   1.565
 8208SOL    HW225524   2.800   6.041   1.495
 8209SOL     OW25525   1.570   0.995   5.789
 8209SOL    HW125526   1.497   1.058   5.817
 8209SOL    HW225527   1.651   1.011   5.846
 8210SOL     OW25528   2.578   0.864   0.288
 8210SOL    HW125529   2.627   0.796   0.342
 8210SOL    HW225530   2.635   0.894   0.211
 8211SOL     OW25531   3.562   4.195   4.681
 8211SOL    HW125532   3.611   4.109   4.668
 8211SOL    HW225533   3.553   4.214   4.779
 8212SOL     OW25534   2.492   0.073   0.807
 8212SOL    HW125535   2.542   7.013   0.823
 8212SOL    HW225536   2.539   0.149   0.853
 8213SOL     OW25537   4.494   5.188   3.327
 8213SOL    HW125538   4.408   5.205   3.376
 8213SOL    HW225539   4.479   5.118   3.257
 8214SOL     OW25540   2.594   5.973   4.049
 8214SOL    HW125541   2.594   5.917   4.132
 8214SOL    HW225542   2.530   6.049   4.061
 8215SOL     OW25543   4.052   6.396   6.962
 8215SOL    HW125544   4.113   6.332   6.915
 8215SOL    HW225545   4.100   6.482   6.978
 8216SOL     OW25546   5.220   6.491   2.803
 8216SOL    HW125547   5.281   6.523   2.875
 8216SOL    HW225548   5.208   6.392   2.811
 8217SOL     OW25549   2.093   4.416   2.865
 8217SOL    HW125550   2.085   4.393   2.768
 8217SOL    HW225551   2.189   4.421   2.891
 8218SOL     OW25552   1.862   0.433   4.866
 8218SOL    HW125553   1.932   0.375   4.909
 8218SOL    HW225554   1.902   0.522   4.843
 8219SOL     OW25555   3.057   4.016   2.093
 8219SOL    HW125556   2.992   4.086   2.061
 8219SOL    HW225557   3.033   3.928   2.053
 8220SOL     OW25558   3.447   4.193   5.223
 8220SOL    HW125559   3.353   4.195   5.191
 8220SOL    HW225560   3.458   4.119   5.289
 8221SOL     OW25561   6.046   4.338   3.063
 8221SOL    HW125562   6.035   4.383   3.152
 8221SOL    HW225563   5.964   4.285   3.042
 8222SOL     OW25564   5.971   3.138   1.086
 8222SOL    HW125565   5.975   3.063   1.020
 8222SOL    HW225566   6.063   3.168   1.109
 8223SOL     OW25567   6.798   5.284   5.054
 8223SOL    HW125568   6.849   5.353   5.003
 8223SOL    HW225569   6.850   5.199   5.058
 8224SOL     OW25570   4.917   1.568   0.660
 8224SOL    HW125571   4.916   1.554   0.561
 8224SOL    HW225572   4.921   1.666   0.679
 8225SOL     OW25573   4.027   0.499   0.377
 8225SOL    HW125574   4.057   0.591   0.353
 8225SOL    HW225575   4.038   0.484   0.475
 8226SOL     OW25576   3.889   0.637   0.130
 8226SOL    HW125577   3.964   0.572   0.139
 8226SOL    HW225578   3.856   0.661   0.222
 8227SOL     OW25579   5.487   1.505   2.850
 8227SOL    HW125580   5.401   1.550   2.826
 8227SOL    HW225581   5.544   1.568   2.901
 8228SOL     OW25582   0.712   1.230   4.943
 8228SOL    HW125583   0.748   1.322   4.961
 8228SOL    HW225584   0.778   1.179   4.888
 8229SOL     OW25585   3.745   4.926   1.005
 8229SOL    HW125586   3.806   4.912   0.927
 8229SOL    HW225587   3.688   4.844   1.017
 8230SOL     OW25588   4.264   0.205   5.550
 8230SOL    HW125589   4.357   0.195   5.586
 8230SOL    HW225590   4.250   0.299   5.518
 8231SOL     OW25591   3.196   1.469   1.927
 8231SOL    HW125592   3.137   1.395   1.958
 8231SOL    HW225593   3.257   1.497   2.001
 8232SOL     OW25594   4.214   1.452   2.315
 8232SOL    HW125595   4.231   1.451   2.217
 8232SOL    HW225596   4.117   1.465   2.333
 8233SOL     OW25597   0.788   1.182   5.828
 8233SOL    HW125598   0.833   1.108   5.878
 8233SOL    HW225599   0.851   1.218   5.759
 8234SOL     OW25600   2.922   3.804   7.024
 8234SOL    HW125601   3.021   3.820   0.002
 8234SOL    HW225602   2.873   3.888   0.021
 8235SOL     OW25603   0.001   4.934   6.656
 8235SOL    HW125604   6.974   4.925   6.741
 8235SOL    HW225605   0.039   5.026   6.650
 8236SOL     OW25606   0.388   5.978   5.852
 8236SOL    HW125607   0.298   5.935   5.858
 8236SOL    HW225608   0.445   5.946   5.927
 8237SOL     OW25609   4.524   5.679   6.619
 8237SOL    HW125610   4.576   5.753   6.578
 8237SOL    HW225611   4.426   5.703   6.618
 8238SOL     OW25612   1.962   5.632   0.451
 8238SOL    HW125613   2.054   5.612   0.486
 8238SOL    HW225614   1.969   5.665   0.357
 8239SOL     OW25615   0.750   1.875   4.664
 8239SOL    HW125616   0.836   1.910   4.628
 8239SOL    HW225617   0.730   1.786   4.623
 8240SOL     OW25618   3.577   3.037   3.653
 8240SOL    HW125619   3.653   3.017   3.592
 8240SOL    HW225620   3.491   3.025   3.603
 8241SOL     OW25621   1.609   3.182   6.642
 8241SOL    HW125622   1.650   3.269   6.616
 8241SOL    HW225623   1.666   3.107   6.609
 8242SOL     OW25624   0.990   3.770   4.516
 8242SOL    HW125625   0.987   3.703   4.442
 8242SOL    HW225626   0.936   3.737   4.593
 8243SOL     OW25627   0.600   5.057   6.184
 8243SOL    HW125628   0.584   5.146   6.141
 8243SOL    HW225629   0.531   4.992   6.154
 8244SOL     OW25630   0.613   0.213   3.298
 8244SOL    HW125631   0.611   0.221   3.198
 8244SOL    HW225632   0.643   0.121   3.323
 8245SOL     OW25633   5.009   1.285   3.819
 8245SOL    HW125634   4.939   1.336   3.770
 8245SOL    HW225635   5.039   1.207   3.763
 8246SOL     OW25636   1.242   4.103   6.669
 8246SOL    HW125637   1.236   4.010   6.704
 8246SOL    HW225638   1.337   4.124   6.644
 8247SOL     OW25639   2.857   4.773   3.589
 8247SOL    HW125640   2.822   4.863   3.562
 8247SOL    HW225641   2.899   4.728   3.511
 8248SOL     OW25642   0.684   5.537   3.151
 8248SOL    HW125643   0.676   5.475   3.074
 8248SOL    HW225644   0.778   5.571   3.158
 8249SOL     OW25645   2.351   2.436   5.419
 8249SOL    HW125646   2.376   2.358   5.361
 8249SOL    HW225647   2.275   2.409   5.478
 8250SOL     OW25648   2.313   1.743   0.400
 8250SOL    HW125649   2.374   1.782   0.469
 8250SOL    HW225650   2.331   1.646   0.389
 8251SOL     OW25651   0.154   2.560   4.435
 8251SOL    HW125652   0.216   2.514   4.371
 8251SOL    HW225653   0.169   2.659   4.431
 8252SOL     OW25654   2.485   2.102   6.873
 8252SOL    HW125655   2.459   2.013   6.836
 8252SOL    HW225656   2.415   2.170   6.851
 8253SOL     OW25657   3.332   5.806   6.319
 8253SOL    HW125658   3.358   5.767   6.407
 8253SOL    HW225659   3.292   5.735   6.262
 8254SOL     OW25660   5.999   4.902   0.180
 8254SOL    HW125661   6.031   4.996   0.186
 8254SOL    HW225662   5.962   4.873   0.269
 8255SOL     OW25663   0.275   7.004   6.073
 8255SOL    HW125664   0.187   0.025   6.077
 8255SOL    HW225665   0.343   0.032   6.123
 8256SOL     OW25666   1.420   6.146   2.537
 8256SOL    HW125667   1.505   6.154   2.590
 8256SOL    HW225668   1.419   6.215   2.465
 8257SOL     OW25669   5.509   3.900   4.233
 8257SOL    HW125670   5.590   3.949   4.200
 8257SOL    HW225671   5.441   3.966   4.265
 8258SOL     OW25672   5.600   2.935   1.636
 8258SOL    HW125673   5.540   2.863   1.670
 8258SOL    HW225674   5.617   2.921   1.538
 8259SOL     OW25675   4.338   2.288   4.639
 8259SOL    HW125676   4.378   2.318   4.552
 8259SOL    HW225677   4.277   2.211   4.622
 8260SOL     OW25678   2.578   6.941   0.399
 8260SOL    HW125679   2.495   6.928   0.455
 8260SOL    HW225680   2.570   6.887   0.315
 8261SOL     OW25681   5.815   6.066   3.060
 8261SOL    HW125682   5.866   6.024   2.985
 8261SOL    HW225683   5.719   6.039   3.055
 8262SOL     OW25684   0.394   4.879   0.440
 8262SOL    HW125685   0.418   4.968   0.481
 8262SOL    HW225686   0.393   4.809   0.512
 8263SOL     OW25687   0.170   2.275   6.554
 8263SOL    HW125688   0.249   2.335   6.559
 8263SOL    HW225689   0.102   2.302   6.623
 8264SOL     OW25690   2.055   0.104   1.783
 8264SOL    HW125691   2.134   0.165   1.775
 8264SOL    HW225692   2.051   0.067   1.876
 8265SOL     OW25693   4.532   0.227   1.400
 8265SOL    HW125694   4.456   0.290   1.383
 8265SOL    HW225695   4.536   0.206   1.498
 8266SOL     OW25696   2.600   0.132   4.228
 8266SOL    HW125697   2.696   0.119   4.206
 8266SOL    HW225698   2.564   0.050   4.273
 8267SOL     OW25699   1.176   4.572   2.712
 8267SOL    HW125700   1.239   4.496   2.732
 8267SOL    HW225701   1.082   4.541   2.726
 8268SOL     OW25702   3.111   3.678   6.441
 8268SOL    HW125703   3.082   3.726   6.523
 8268SOL    HW225704   3.033   3.664   6.381
 8269SOL     OW25705   4.361   2.335   3.448
 8269SOL    HW125706   4.336   2.378   3.535
 8269SOL    HW225707   4.288   2.273   3.420
 8270SOL     OW25708   3.620   7.020   5.864
 8270SOL    HW125709   3.590   0.021   5.772
 8270SOL    HW225710   3.608   0.073   5.926
 8271SOL     OW25711   5.262   6.139   4.318
 8271SOL    HW125712   5.195   6.193   4.268
 8271SOL    HW225713   5.231   6.126   4.412
 8272SOL     OW25714   0.739   0.621   2.359
 8272SOL    HW125715   0.837   0.641   2.369
 8272SOL    HW225716   0.686   0.685   2.414
 8273SOL     OW25717   2.245   6.595   6.878
 8273SOL    HW125718   2.308   6.672   6.888
 8273SOL    HW225719   2.245   6.563   6.783
 8274SOL     OW25720   4.930   5.502   0.131
 8274SOL    HW125721   4.958   5.432   0.197
 8274SOL    HW225722   4.849   5.549   0.165
 8275SOL     OW25723   6.850   0.363   4.304
 8275SOL    HW125724   6.837   0.288   4.239
 8275SOL    HW225725   6.917   0.428   4.268
 8276SOL     OW25726   6.963   2.793   5.678
 8276SOL    HW125727   0.034   2.776   5.701
 8276SOL    HW225728   6.928   2.870   5.731
 8277SOL     OW25729   1.449   6.189   5.421
 8277SOL    HW125730   1.538   6.209   5.462
 8277SOL    HW225731   1.381   6.253   5.456
 8278SOL     OW25732   3.620   2.139   6.606
 8278SOL    HW125733   3.522   2.139   6.630
 8278SOL    HW225734   3.669   2.198   6.671
 8279SOL     OW25735   4.679   5.929   6.561
 8279SOL    HW125736   4.731   5.857   6.516
 8279SOL    HW225737   4.738   6.007   6.580
 8280SOL     OW25738   5.253   2.535   0.329
 8280SOL    HW125739   5.169   2.577   0.364
 8280SOL    HW225740   5.327   2.602   0.332
 8281SOL     OW25741   1.283   5.144   0.693
 8281SOL    HW125742   1.354   5.155   0.762
 8281SOL    HW225743   1.277   5.227   0.637
 8282SOL     OW25744   2.687   2.622   1.351
 8282SOL    HW125745   2.623   2.677   1.404
 8282SOL    HW225746   2.682   2.649   1.255
 8283SOL     OW25747   0.600   4.992   4.136
 8283SOL    HW125748   0.529   4.944   4.083
 8283SOL    HW225749   0.677   5.013   4.076
 8284SOL     OW25750   2.675   2.403   2.839
 8284SOL    HW125751   2.622   2.322   2.815
 8284SOL    HW225752   2.613   2.475   2.869
 8285SOL     OW25753   3.064   4.160   6.004
 8285SOL    HW125754   3.118   4.175   6.087
 8285SOL    HW225755   3.004   4.239   5.989
 8286SOL     OW25756   5.468   0.924   4.704
 8286SOL    HW125757   5.489   0.933   4.802
 8286SOL    HW225758   5.450   0.828   4.683
 8287SOL     OW25759   1.249   0.096   3.596
 8287SOL    HW125760   1.232   0.181   3.547
 8287SOL    HW225761   1.346   0.073   3.591
 8288SOL     OW25762   2.374   1.882   2.274
 8288SOL    HW125763   2.401   1.798   2.323
 8288SOL    HW225764   2.450   1.914   2.218
 8289SOL     OW25765   5.774   2.030   5.226
 8289SOL    HW125766   5.743   2.041   5.131
 8289SOL    HW225767   5.698   2.050   5.288
 8290SOL     OW25768   3.740   2.547   1.710
 8290SOL    HW125769   3.716   2.454   1.737
 8290SOL    HW225770   3.684   2.612   1.762
 8291SOL     OW25771   5.551   6.612   6.746
 8291SOL    HW125772   5.591   6.547   6.681
 8291SOL    HW225773   5.488   6.563   6.807
 8292SOL     OW25774   1.037   5.202   5.508
 8292SOL    HW125775   0.999   5.110   5.501
 8292SOL    HW225776   1.046   5.227   5.604
 8293SOL     OW25777   2.212   4.979   2.352
 8293SOL    HW125778   2.306   4.959   2.380
 8293SOL    HW225779   2.188   5.072   2.380
 8294SOL     OW25780   0.182   3.876   6.101
 8294SOL    HW125781   0.238   3.856   6.020
 8294SOL    HW225782   0.242   3.902   6.177
 8295SOL     OW25783   5.102   4.007   2.874
 8295SOL    HW125784   5.171   3.982   2.806
 8295SOL    HW225785   5.053   4.089   2.843
 8296SOL     OW25786   3.120   5.982   0.517
 8296SOL    HW125787   3.066   5.898   0.523
 8296SOL    HW225788   3.072   6.048   0.459
 8297SOL     OW25789   0.076   4.528   2.707
 8297SOL    HW125790   0.016   4.534   2.627
 8297SOL    HW225791   0.093   4.432   2.729
 8298SOL     OW25792   0.889   1.075   6.895
 8298SOL    HW125793   0.809   1.116   6.852
 8298SOL    HW225794   0.971   1.100   6.844
 8299SOL     OW25795   0.093   3.964   2.217
 8299SOL    HW125796   0.044   3.979   2.303
 8299SOL    HW225797   0.096   3.866   2.198
 8300SOL     OW25798   6.336   5.460   4.056
 8300SOL    HW125799   6.412   5.457   3.992
 8300SOL    HW225800   6.366   5.428   4.146
 8301SOL     OW25801   3.779   0.068   0.390
 8301SOL    HW125802   3.795   0.163   0.413
 8301SOL    HW225803   3.866   0.018   0.391
 8302SOL     OW25804   3.462   6.305   3.928
 8302SOL    HW125805   3.490   6.400   3.942
 8302SOL    HW225806   3.450   6.261   4.017
 8303SOL     OW25807   6.285   0.246   2.040
 8303SOL    HW125808   6.213   0.309   2.070
 8303SOL    HW225809   6.363   0.252   2.102
 8304SOL     OW25810   5.867   3.253   3.706
 8304SOL    HW125811   5.890   3.329   3.645
 8304SOL    HW225812   5.880   3.282   3.801
 8305SOL     OW25813   4.467   5.507   3.925
 8305SOL    HW125814   4.488   5.434   3.990
 8305SOL    HW225815   4.438   5.589   3.974
 8306SOL     OW25816   6.453   0.655   2.032
 8306SOL    HW125817   6.436   0.706   2.116
 8306SOL    HW225818   6.387   0.682   1.962
 8307SOL     OW25819   1.578   4.931   1.992
 8307SOL    HW125820   1.561   5.029   1.999
 8307SOL    HW225821   1.520   4.882   2.057
 8308SOL     OW25822   1.187   4.580   7.007
 8308SOL    HW125823   1.095   4.601   0.013
 8308SOL    HW225824   1.250   4.651   0.012
 8309SOL     OW25825   6.611   4.718   4.906
 8309SOL    HW125826   6.663   4.634   4.920
 8309SOL    HW225827   6.603   4.767   4.994
 8310SOL     OW25828   0.343   6.994   0.501
 8310SOL    HW125829   0.413   6.970   0.434
 8310SOL    HW225830   0.385   0.015   0.579
 8311SOL     OW25831   5.471   6.360   4.107
 8311SOL    HW125832   5.458   6.305   4.189
 8311SOL    HW225833   5.418   6.321   4.032
 8312SOL     OW25834   5.162   0.140   6.780
 8312SOL    HW125835   5.170   0.054   6.832
 8312SOL    HW225836   5.213   0.212   6.827
 8313SOL     OW25837   4.076   0.217   5.202
 8313SOL    HW125838   4.042   0.189   5.292
 8313SOL    HW225839   4.022   0.294   5.169
 8314SOL     OW25840   5.254   6.326   6.024
 8314SOL    HW125841   5.238   6.250   6.088
 8314SOL    HW225842   5.300   6.292   5.943
 8315SOL     OW25843   3.789   3.455   4.549
 8315SOL    HW125844   3.735   3.371   4.557
 8315SOL    HW225845   3.885   3.434   4.569
 8316SOL     OW25846   1.009   3.133   0.184
 8316SOL    HW125847   1.066   3.091   0.254
 8316SOL    HW225848   0.916   3.095   0.189
 8317SOL     OW25849   2.244   1.754   4.834
 8317SOL    HW125850   2.258   1.815   4.911
 8317SOL    HW225851   2.162   1.783   4.783
 8318SOL     OW25852   4.048   0.350   6.588
 8318SOL    HW125853   4.055   0.320   6.683
 8318SOL    HW225854   4.138   0.382   6.556
 8319SOL     OW25855   1.415   0.498   6.142
 8319SOL    HW125856   1.390   0.404   6.116
 8319SOL    HW225857   1.432   0.502   6.240
 8320SOL     OW25858   3.468   4.130   4.164
 8320SOL    HW125859   3.415   4.047   4.145
 8320SOL    HW225860   3.452   4.159   4.258
 8321SOL     OW25861   0.348   0.488   0.084
 8321SOL    HW125862   0.370   0.538   0.000
 8321SOL    HW225863   0.429   0.438   0.115
 8322SOL     OW25864   6.952   1.078   0.455
 8322SOL    HW125865   6.870   1.129   0.479
 8322SOL    HW225866   6.932   0.980   0.451
 8323SOL     OW25867   4.728   4.633   0.953
 8323SOL    HW125868   4.704   4.621   0.856
 8323SOL    HW225869   4.827   4.631   0.963
 8324SOL     OW25870   6.124   0.362   6.446
 8324SOL    HW125871   6.180   0.304   6.387
 8324SOL    HW225872   6.037   0.316   6.465
 8325SOL     OW25873   1.718   5.786   4.513
 8325SOL    HW125874   1.793   5.720   4.500
 8325SOL    HW225875   1.681   5.776   4.605
 8326SOL     OW25876   2.697   3.806   0.220
 8326SOL    HW125877   2.622   3.765   0.272
 8326SOL    HW225878   2.749   3.734   0.174
 8327SOL     OW25879   0.602   0.747   5.286
 8327SOL    HW125880   0.673   0.710   5.344
 8327SOL    HW225881   0.642   0.779   5.200
 8328SOL     OW25882   0.587   6.084   5.670
 8328SOL    HW125883   0.516   6.044   5.728
 8328SOL    HW225884   0.574   6.183   5.666
 8329SOL     OW25885   0.681   2.793   4.929
 8329SOL    HW125886   0.724   2.759   4.845
 8329SOL    HW225887   0.607   2.732   4.956
 8330SOL     OW25888   3.973   0.911   6.780
 8330SOL    HW125889   3.895   0.914   6.717
 8330SOL    HW225890   4.016   1.001   6.784
 8331SOL     OW25891   2.100   1.937   0.363
 8331SOL    HW125892   2.018   1.893   0.325
 8331SOL    HW225893   2.178   1.875   0.353
 8332SOL     OW25894   5.597   5.119   1.697
 8332SOL    HW125895   5.657   5.044   1.727
 8332SOL    HW225896   5.578   5.109   1.599
 8333SOL     OW25897   2.229   4.623   1.136
 8333SOL    HW125898   2.206   4.527   1.148
 8333SOL    HW225899   2.206   4.674   1.219
 8334SOL     OW25900   3.341   2.411   6.796
 8334SOL    HW125901   3.273   2.356   6.845
 8334SOL    HW225902   3.411   2.441   6.861
 8335SOL     OW25903   4.813   3.204   6.699
 8335SOL    HW125904   4.814   3.124   6.639
 8335SOL    HW225905   4.826   3.175   6.794
 8336SOL     OW25906   1.573   3.381   2.933
 8336SOL    HW125907   1.601   3.395   2.838
 8336SOL    HW225908   1.650   3.341   2.984
 8337SOL     OW25909   0.717   1.610   4.543
 8337SOL    HW125910   0.626   1.568   4.550
 8337SOL    HW225911   0.782   1.558   4.600
 8338SOL     OW25912   3.694   4.915   2.262
 8338SOL    HW125913   3.692   5.015   2.257
 8338SOL    HW225914   3.667   4.877   2.174
 8339SOL     OW25915   0.126   0.437   0.274
 8339SOL    HW125916   0.202   0.491   0.309
 8339SOL    HW225917   0.160   0.350   0.237
 8340SOL     OW25918   5.308   2.403   0.588
 8340SOL    HW125919   5.320   2.470   0.515
 8340SOL    HW225920   5.261   2.322   0.552
 8341SOL     OW25921   3.379   0.122   6.973
 8341SOL    HW125922   3.455   0.064   6.944
 8341SOL    HW225923   3.400   0.217   6.950
 8342SOL     OW25924   3.479   6.514   6.804
 8342SOL    HW125925   3.572   6.520   6.768
 8342SOL    HW225926   3.441   6.606   6.813
 8343SOL     OW25927   6.533   4.583   3.668
 8343SOL    HW125928   6.571   4.544   3.585
 8343SOL    HW225929   6.553   4.681   3.671
 8344SOL     OW25930   0.816   5.087   4.361
 8344SOL    HW125931   0.754   5.051   4.292
 8344SOL    HW225932   0.764   5.129   4.435
 8345SOL     OW25933   5.312   0.862   3.165
 8345SOL    HW125934   5.399   0.881   3.211
 8345SOL    HW225935   5.256   0.944   3.165
 8346SOL     OW25936   4.594   3.159   5.974
 8346SOL    HW125937   4.534   3.238   5.960
 8346SOL    HW225938   4.549   3.077   5.940
 8347SOL     OW25939   2.446   6.808   6.101
 8347SOL    HW125940   2.498   6.855   6.029
 8347SOL    HW225941   2.365   6.863   6.125
 8348SOL     OW25942   3.692   6.763   1.059
 8348SOL    HW125943   3.606   6.766   1.009
 8348SOL    HW225944   3.761   6.816   1.010
 8349SOL     OW25945   0.528   6.504   2.316
 8349SOL    HW125946   0.607   6.515   2.376
 8349SOL    HW225947   0.557   6.508   2.221
 8350SOL     OW25948   2.799   6.961   6.262
 8350SOL    HW125949   2.814   7.013   6.346
 8350SOL    HW225950   2.756   6.874   6.284
 8351SOL     OW25951   6.510   4.969   4.442
 8351SOL    HW125952   6.569   4.980   4.362
 8351SOL    HW225953   6.425   4.925   4.415
 8352SOL     OW25954   2.604   6.195   1.895
 8352SOL    HW125955   2.644   6.210   1.804
 8352SOL    HW225956   2.670   6.223   1.965
 8353SOL     OW25957   1.029   4.010   1.725
 8353SOL    HW125958   1.021   3.928   1.782
 8353SOL    HW225959   1.093   4.074   1.768
 8354SOL     OW25960   3.690   6.287   3.768
 8354SOL    HW125961   3.599   6.262   3.802
 8354SOL    HW225962   3.750   6.304   3.846
 8355SOL     OW25963   1.320   6.712   6.335
 8355SOL    HW125964   1.398   6.771   6.354
 8355SOL    HW225965   1.335   6.664   6.248
 8356SOL     OW25966   1.757   5.600   1.532
 8356SOL    HW125967   1.731   5.692   1.562
 8356SOL    HW225968   1.828   5.564   1.593
 8357SOL     OW25969   4.019   5.529   5.817
 8357SOL    HW125970   3.920   5.541   5.806
 8357SOL    HW225971   4.037   5.442   5.862
 8358SOL     OW25972   1.333   2.456   5.709
 8358SOL    HW125973   1.339   2.386   5.638
 8358SOL    HW225974   1.241   2.496   5.709
 8359SOL     OW25975   2.805   0.750   4.858
 8359SOL    HW125976   2.808   0.704   4.947
 8359SOL    HW225977   2.823   0.847   4.871
 8360SOL     OW25978   4.579   6.495   0.832
 8360SOL    HW125979   4.514   6.507   0.757
 8360SOL    HW225980   4.669   6.528   0.804
 8361SOL     OW25981   2.101   0.094   6.585
 8361SOL    HW125982   2.106   0.082   6.685
 8361SOL    HW225983   2.193   0.103   6.548
 8362SOL     OW25984   6.543   2.889   0.305
 8362SOL    HW125985   6.571   2.964   0.244
 8362SOL    HW225986   6.524   2.807   0.250
 8363SOL     OW25987   4.106   2.442   0.709
 8363SOL    HW125988   4.094   2.380   0.787
 8363SOL    HW225989   4.069   2.398   0.627
 8364SOL     OW25990   0.266   2.740   3.616
 8364SOL    HW125991   0.218   2.810   3.669
 8364SOL    HW225992   0.218   2.653   3.625
 8365SOL     OW25993   1.610   2.487   1.740
 8365SOL    HW125994   1.684   2.425   1.766
 8365SOL    HW225995   1.624   2.520   1.647
 8366SOL     OW25996   4.240   5.742   1.093
 8366SOL    HW125997   4.243   5.824   1.035
 8366SOL    HW225998   4.252   5.661   1.036
 8367SOL     OW25999   3.214   5.223   4.724
 8367SOL    HW126000   3.206   5.126   4.746
 8367SOL    HW226001   3.168   5.277   4.794
 8368SOL     OW26002   0.951   6.600   7.018
 8368SOL    HW126003   0.873   6.636   0.044
 8368SOL    HW226004   0.975   6.509   0.026
 8369SOL     OW26005   1.223   1.593   0.895
 8369SOL    HW126006   1.199   1.688   0.916
 8369SOL    HW226007   1.208   1.576   0.798
 8370SOL     OW26008   2.908   1.806   6.829
 8370SOL    HW126009   2.849   1.754   6.767
 8370SOL    HW226010   2.856   1.881   6.869
 8371SOL     OW26011   1.366   3.156   5.599
 8371SOL    HW126012   1.370   3.251   5.629
 8371SOL    HW226013   1.312   3.103   5.664
 8372SOL     OW26014   2.359   6.590   2.113
 8372SOL    HW126015   2.455   6.610   2.135
 8372SOL    HW226016   2.355   6.531   2.033
 8373SOL     OW26017   1.127   1.694   4.353
 8373SOL    HW126018   1.182   1.725   4.430
 8373SOL    HW226019   1.167   1.728   4.268
 8374SOL     OW26020   1.286   0.954   3.775
 8374SOL    HW126021   1.258   1.019   3.846
 8374SOL    HW226022   1.229   0.872   3.781
 8375SOL     OW26023   4.485   0.701   5.868
 8375SOL    HW126024   4.408   0.639   5.851
 8375SOL    HW226025   4.456   0.772   5.932
 8376SOL     OW26026   1.448   1.174   3.478
 8376SOL    HW126027   1.515   1.158   3.405
 8376SOL    HW226028   1.439   1.273   3.493
 8377SOL     OW26029   5.496   5.252   0.017
 8377SOL    HW126030   5.445   5.224   6.960
 8377SOL    HW226031   5.489   5.351   0.027
 8378SOL     OW26032   5.414   5.188   3.356
 8378SOL    HW126033   5.352   5.233   3.420
 8378SOL    HW226034   5.373   5.186   3.265
 8379SOL     OW26035   4.852   1.843   1.740
 8379SOL    HW126036   4.786   1.770   1.756
 8379SOL    HW226037   4.831   1.921   1.798
 8380SOL     OW26038   0.198   6.416   6.899
 8380SOL    HW126039   0.144   6.483   6.951
 8380SOL    HW226040   0.137   6.352   6.852
 8381SOL     OW26041   0.345   2.266   2.771
 8381SOL    HW126042   0.272   2.269   2.839
 8381SOL    HW226043   0.380   2.359   2.756
 8382SOL     OW26044   2.569   0.024   7.010
 8382SOL    HW126045   2.627   0.068   6.941
 8382SOL    HW226046   2.565   0.081   0.066
 8383SOL     OW26047   2.437   0.383   4.754
 8383SOL    HW126048   2.464   0.290   4.779
 8383SOL    HW226049   2.418   0.436   4.837
 8384SOL     OW26050   6.298   1.811   1.097
 8384SOL    HW126051   6.346   1.885   1.143
 8384SOL    HW226052   6.357   1.730   1.093
 8385SOL     OW26053   4.438   3.316   0.925
 8385SOL    HW126054   4.514   3.381   0.922
 8385SOL    HW226055   4.448   3.256   1.005
 8386SOL     OW26056   2.008   6.533   1.529
 8386SOL    HW126057   1.940   6.589   1.577
 8386SOL    HW226058   1.986   6.436   1.542
 8387SOL     OW26059   2.575   1.469   1.520
 8387SOL    HW126060   2.530   1.517   1.445
 8387SOL    HW226061   2.633   1.533   1.570
 8388SOL     OW26062   1.512   6.903   0.587
 8388SOL    HW126063   1.566   6.819   0.597
 8388SOL    HW226064   1.554   6.963   0.519
 8389SOL     OW26065   1.614   3.310   4.427
 8389SOL    HW126066   1.696   3.352   4.389
 8389SOL    HW226067   1.623   3.211   4.426
 8390SOL     OW26068   2.957   0.809   6.074
 8390SOL    HW126069   3.007   0.876   6.128
 8390SOL    HW226070   2.875   0.851   6.035
 8391SOL     OW26071   5.044   5.576   1.612
 8391SOL    HW126072   5.056   5.668   1.573
 8391SOL    HW226073   5.106   5.564   1.690
 8392SOL     OW26074   6.199   5.729   4.943
 8392SOL    HW126075   6.234   5.782   5.021
 8392SOL    HW226076   6.158   5.791   4.876
 8393SOL     OW26077   6.853   6.972   3.799
 8393SOL    HW126078   6.778   0.006   3.770
 8393SOL    HW226079   6.914   6.956   3.721
 8394SOL     OW26080   0.822   1.584   2.630
 8394SOL    HW126081   0.890   1.656   2.642
 8394SOL    HW226082   0.806   1.570   2.532
 8395SOL     OW26083   0.282   6.175   4.423
 8395SOL    HW126084   0.209   6.110   4.400
 8395SOL    HW226085   0.247   6.242   4.489
 8396SOL     OW26086   4.132   4.706   2.688
 8396SOL    HW126087   4.132   4.711   2.588
 8396SOL    HW226088   4.039   4.693   2.721
 8397SOL     OW26089   2.179   6.774   2.484
 8397SOL    HW126090   2.232   6.695   2.514
 8397SOL    HW226091   2.105   6.792   2.549
 8398SOL     OW26092   3.773   1.730   0.343
 8398SOL    HW126093   3.799   1.679   0.425
 8398SOL    HW226094   3.842   1.715   0.272
 8399SOL     OW26095   5.775   5.851   0.847
 8399SOL    HW126096   5.719   5.810   0.775
 8399SOL    HW226097   5.833   5.923   0.809
 8400SOL     OW26098   6.849   0.161   3.036
 8400SOL    HW126099   6.786   0.236   3.056
 8400SOL    HW226100   6.835   0.088   3.102
 8401SOL     OW26101   4.425   2.955   5.859
 8401SOL    HW126102   4.352   3.016   5.891
 8401SOL    HW226103   4.385   2.867   5.831
 8402SOL     OW26104   3.599   2.163   5.510
 8402SOL    HW126105   3.526   2.095   5.500
 8402SOL    HW226106   3.685   2.116   5.527
 8403SOL     OW26107   0.590   1.220   3.075
 8403SOL    HW126108   0.505   1.244   3.029
 8403SOL    HW226109   0.627   1.300   3.121
 8404SOL     OW26110   5.701   6.707   6.474
 8404SOL    HW126111   5.633   6.638   6.448
 8404SOL    HW226112   5.655   6.784   6.517
 8405SOL     OW26113   1.878   2.161   6.698
 8405SOL    HW126114   1.822   2.088   6.658
 8405SOL    HW226115   1.920   2.214   6.624
 8406SOL     OW26116   4.532   1.697   0.766
 8406SOL    HW126117   4.510   1.745   0.681
 8406SOL    HW226118   4.454   1.642   0.794
 8407SOL     OW26119   6.012   4.554   4.842
 8407SOL    HW126120   6.036   4.630   4.781
 8407SOL    HW226121   6.092   4.527   4.895
 8408SOL     OW26122   5.235   0.109   3.842
 8408SOL    HW126123   5.213   0.197   3.885
 8408SOL    HW226124   5.187   0.036   3.891
 8409SOL     OW26125   0.728   1.927   3.686
 8409SOL    HW126126   0.641   1.948   3.729
 8409SOL    HW226127   0.802   1.976   3.733
 8410SOL     OW26128   5.021   1.037   1.549
 8410SOL    HW126129   5.066   0.954   1.581
 8410SOL    HW226130   4.999   1.096   1.627
 8411SOL     OW26131   1.519   5.330   3.595
 8411SOL    HW126132   1.501   5.296   3.503
 8411SOL    HW226133   1.460   5.282   3.660
 8412SOL     OW26134   4.342   1.845   1.000
 8412SOL    HW126135   4.338   1.912   0.925
 8412SOL    HW226136   4.306   1.757   0.968
 8413SOL     OW26137   4.030   5.460   0.502
 8413SOL    HW126138   4.005   5.519   0.579
 8413SOL    HW226139   4.115   5.412   0.523
 8414SOL     OW26140   3.742   0.300   2.348
 8414SOL    HW126141   3.744   0.369   2.276
 8414SOL    HW226142   3.772   0.212   2.311
 8415SOL     OW26143   6.695   4.964   3.913
 8415SOL    HW126144   6.689   4.877   3.961
 8415SOL    HW226145   6.787   5.002   3.924
 8416SOL     OW26146   5.323   3.941   2.698
 8416SOL    HW126147   5.289   4.024   2.654
 8416SOL    HW226148   5.380   3.889   2.634
 8417SOL     OW26149   2.586   6.349   5.462
 8417SOL    HW126150   2.628   6.258   5.462
 8417SOL    HW226151   2.549   6.368   5.371
 8418SOL     OW26152   5.225   5.507   1.799
 8418SOL    HW126153   5.203   5.411   1.814
 8418SOL    HW226154   5.287   5.539   1.871
 8419SOL     OW26155   4.813   1.017   2.271
 8419SOL    HW126156   4.865   0.935   2.291
 8419SOL    HW226157   4.773   1.052   2.356
 8420SOL     OW26158   4.141   6.983   0.539
 8420SOL    HW126159   4.064   6.956   0.596
 8420SOL    HW226160   4.191   0.033   0.583
 8421SOL     OW26161   2.477   6.642   1.031
 8421SOL    HW126162   2.544   6.709   1.064
 8421SOL    HW226163   2.386   6.685   1.027
 8422SOL     OW26164   5.619   6.207   0.916
 8422SOL    HW126165   5.559   6.128   0.926
 8422SOL    HW226166   5.696   6.199   0.979
 8423SOL     OW26167   4.053   4.869   6.922
 8423SOL    HW126168   4.041   4.964   6.894
 8423SOL    HW226169   4.067   4.811   6.842
 8424SOL     OW26170   3.326   1.951   2.533
 8424SOL    HW126171   3.267   1.970   2.611
 8424SOL    HW226172   3.419   1.933   2.565
 8425SOL     OW26173   6.832   5.284   0.998
 8425SOL    HW126174   6.874   5.285   1.089
 8425SOL    HW226175   6.847   5.372   0.954
 8426SOL     OW26176   3.947   3.114   3.732
 8426SOL    HW126177   3.940   3.191   3.796
 8426SOL    HW226178   3.878   3.045   3.755
 8427SOL     OW26179   1.648   4.031   5.714
 8427SOL    HW126180   1.670   4.119   5.672
 8427SOL    HW226181   1.603   3.972   5.646
 8428SOL     OW26182   6.686   4.722   1.950
 8428SOL    HW126183   6.649   4.793   2.010
 8428SOL    HW226184   6.611   4.675   1.904
 8429SOL     OW26185   2.501   4.853   4.528
 8429SOL    HW126186   2.457   4.769   4.494
 8429SOL    HW226187   2.591   4.831   4.565
 8430SOL     OW26188   4.557   5.462   2.985
 8430SOL    HW126189   4.465   5.424   2.996
 8430SOL    HW226190   4.617   5.426   3.056
 8431SOL     OW26191   2.339   5.165   1.271
 8431SOL    HW126192   2.322   5.258   1.240
 8431SOL    HW226193   2.416   5.126   1.220
 8432SOL     OW26194   4.028   5.286   5.914
 8432SOL    HW126195   4.081   5.230   5.978
 8432SOL    HW226196   3.942   5.240   5.893
 8433SOL     OW26197   0.784   2.906   6.685
 8433SOL    HW126198   0.769   2.977   6.617
 8433SOL    HW226199   0.696   2.876   6.722
 8434SOL     OW26200   3.329   0.125   5.191
 8434SOL    HW126201   3.372   0.208   5.153
 8434SOL    HW226202   3.365   0.108   5.282
 8435SOL     OW26203   4.986   1.573   1.697
 8435SOL    HW126204   4.908   1.532   1.649
 8435SOL    HW226205   4.975   1.672   1.697
 8436SOL     OW26206   3.857   5.974   3.433
 8436SOL    HW126207   3.853   6.071   3.406
 8436SOL    HW226208   3.914   5.924   3.368
 8437SOL     OW26209   0.925   0.338   1.798
 8437SOL    HW126210   0.896   0.307   1.707
 8437SOL    HW226211   0.848   0.332   1.861
 8438SOL     OW26212   2.813   4.706   2.710
 8438SOL    HW126213   2.855   4.742   2.793
 8438SOL    HW226214   2.865   4.737   2.630
 8439SOL     OW26215   6.387   5.668   1.892
 8439SOL    HW126216   6.343   5.668   1.982
 8439SOL    HW226217   6.411   5.761   1.867
 8440SOL     OW26218   6.830   1.063   2.729
 8440SOL    HW126219   6.814   1.138   2.665
 8440SOL    HW226220   6.926   1.063   2.757
 8441SOL     OW26221   5.932   6.060   0.773
 8441SOL    HW126222   5.924   6.110   0.687
 8441SOL    HW226223   5.963   6.122   0.845
 8442SOL     OW26224   3.912   3.246   6.626
 8442SOL    HW126225   3.855   3.282   6.552
 8442SOL    HW226226   3.893   3.149   6.639
 8443SOL     OW26227   1.307   0.048   2.640
 8443SOL    HW126228   1.234   7.024   2.594
 8443SOL    HW226229   1.367   0.091   2.572
 8444SOL     OW26230   3.249   6.172   3.351
 8444SOL    HW126231   3.310   6.251   3.354
 8444SOL    HW226232   3.207   6.159   3.440
 8445SOL     OW26233   2.858   4.917   2.514
 8445SOL    HW126234   2.957   4.907   2.506
 8445SOL    HW226235   2.836   5.013   2.535
 8446SOL     OW26236   5.085   5.902   2.073
 8446SOL    HW126237   4.999   5.863   2.106
 8446SOL    HW226238   5.110   5.981   2.129
 8447SOL     OW26239   5.659   2.335   2.540
 8447SOL    HW126240   5.624   2.383   2.459
 8447SOL    HW226241   5.682   2.402   2.611
 8448SOL     OW26242   0.563   4.345   5.525
 8448SOL    HW126243   0.474   4.301   5.532
 8448SOL    HW226244   0.625   4.307   5.593
 8449SOL     OW26245   0.198   3.291   4.477
 8449SOL    HW126246   0.233   3.271   4.386
 8449SOL    HW226247   0.098   3.282   4.477
 8450SOL     OW26248   1.976   5.626   2.462
 8450SOL    HW126249   1.985   5.687   2.541
 8450SOL    HW226250   1.881   5.597   2.453
 8451SOL     OW26251   3.562   2.662   1.241
 8451SOL    HW126252   3.604   2.690   1.155
 8451SOL    HW226253   3.474   2.617   1.222
 8452SOL     OW26254   6.976   0.054   1.273
 8452SOL    HW126255   0.011   0.042   1.352
 8452SOL    HW226256   7.006   7.020   1.198
 8453SOL     OW26257   6.839   4.881   5.978
 8453SOL    HW126258   6.790   4.802   5.940
 8453SOL    HW226259   6.791   4.913   6.059
 8454SOL     OW26260   1.555   5.955   2.268
 8454SOL    HW126261   1.460   5.977   2.247
 8454SOL    HW226262   1.611   6.037   2.260
 8455SOL     OW26263   4.957   1.519   1.361
 8455SOL    HW126264   4.886   1.568   1.310
 8455SOL    HW226265   4.915   1.470   1.438
 8456SOL     OW26266   5.724   5.531   3.450
 8456SOL    HW126267   5.691   5.622   3.473
 8456SOL    HW226268   5.745   5.527   3.352
 8457SOL     OW26269   6.785   6.635   5.661
 8457SOL    HW126270   6.790   6.663   5.565
 8457SOL    HW226271   6.820   6.542   5.670
 8458SOL     OW26272   1.836   0.923   6.737
 8458SOL    HW126273   1.749   0.884   6.767
 8458SOL    HW226274   1.839   0.923   6.637
 8459SOL     OW26275   3.669   6.800   1.777
 8459SOL    HW126276   3.606   6.739   1.825
 8459SOL    HW226277   3.720   6.855   1.843
 8460SOL     OW26278   3.919   2.925   6.610
 8460SOL    HW126279   4.002   2.870   6.606
 8460SOL    HW226280   3.839   2.867   6.593
 8461SOL     OW26281   0.631   3.418   1.353
 8461SOL    HW126282   0.629   3.358   1.433
 8461SOL    HW226283   0.543   3.465   1.345
 8462SOL     OW26284   3.677   3.205   0.022
 8462SOL    HW126285   3.706   3.151   6.968
 8462SOL    HW226286   3.605   3.157   0.071
 8463SOL     OW26287   0.230   2.164   0.158
 8463SOL    HW126288   0.292   2.086   0.161
 8463SOL    HW226289   0.191   2.172   0.066
 8464SOL     OW26290   0.263   4.300   5.252
 8464SOL    HW126291   0.323   4.322   5.174
 8464SOL    HW226292   0.285   4.209   5.286
 8465SOL     OW26293   2.623   2.345   1.084
 8465SOL    HW126294   2.572   2.429   1.067
 8465SOL    HW226295   2.612   2.283   1.007
 8466SOL     OW26296   6.584   0.065   5.455
 8466SOL    HW126297   6.575   0.045   5.553
 8466SOL    HW226298   6.680   0.081   5.433
 8467SOL     OW26299   4.020   1.094   0.799
 8467SOL    HW126300   4.110   1.132   0.818
 8467SOL    HW226301   3.977   1.145   0.725
 8468SOL     OW26302   6.191   3.447   6.157
 8468SOL    HW126303   6.278   3.403   6.132
 8468SOL    HW226304   6.204   3.505   6.237
 8469SOL     OW26305   2.999   2.738   5.819
 8469SOL    HW126306   3.008   2.682   5.737
 8469SOL    HW226307   3.003   2.679   5.900
 8470SOL     OW26308   1.186   4.904   0.484
 8470SOL    HW126309   1.269   4.950   0.453
 8470SOL    HW226310   1.148   4.952   0.563
 8471SOL     OW26311   3.497   0.580   5.364
 8471SOL    HW126312   3.569   0.516   5.340
 8471SOL    HW226313   3.525   0.636   5.442
 8472SOL     OW26314   5.585   1.618   5.507
 8472SOL    HW126315   5.525   1.547   5.544
 8472SOL    HW226316   5.549   1.708   5.532
 8473SOL     OW26317   4.448   4.607   0.534
 8473SOL    HW126318   4.414   4.521   0.574
 8473SOL    HW226319   4.457   4.596   0.435
 8474SOL     OW26320   2.999   3.558   2.784
 8474SOL    HW126321   3.092   3.559   2.748
 8474SOL    HW226322   2.952   3.642   2.756
 8475SOL     OW26323   6.806   2.866   1.901
 8475SOL    HW126324   6.889   2.812   1.911
 8475SOL    HW226325   6.755   2.834   1.820
 8476SOL     OW26326   0.231   0.966   1.633
 8476SOL    HW126327   0.216   0.977   1.535
 8476SOL    HW226328   0.217   0.870   1.658
 8477SOL     OW26329   5.332   6.229   1.842
 8477SOL    HW126330   5.259   6.294   1.821
 8477SOL    HW226331   5.319   6.146   1.788
 8478SOL     OW26332   0.994   1.386   5.842
 8478SOL    HW126333   0.966   1.469   5.793
 8478SOL    HW226334   0.945   1.381   5.929
 8479SOL     OW26335   1.118   2.703   1.761
 8479SOL    HW126336   1.080   2.618   1.724
 8479SOL    HW226337   1.095   2.780   1.701
 8480SOL     OW26338   4.745   2.849   6.767
 8480SOL    HW126339   4.810   2.788   6.813
 8480SOL    HW226340   4.652   2.824   6.794
 8481SOL     OW26341   4.097   2.215   5.103
 8481SOL    HW126342   4.150   2.142   5.060
 8481SOL    HW226343   4.073   2.284   5.035
 8482SOL     OW26344   4.601   7.020   1.295
 8482SOL    HW126345   4.570   0.079   1.341
 8482SOL    HW226346   4.699   0.004   1.274
 8483SOL     OW26347   2.545   5.706   3.142
 8483SOL    HW126348   2.453   5.704   3.103
 8483SOL    HW226349   2.539   5.705   3.242
 8484SOL     OW26350   0.186   5.968   4.722
 8484SOL    HW126351   0.109   5.929   4.772
 8484SOL    HW226352   0.176   6.067   4.717
 8485SOL     OW26353   3.889   2.513   0.548
 8485SOL    HW126354   3.918   2.605   0.523
 8485SOL    HW226355   3.838   2.516   0.634
 8486SOL     OW26356   1.749   1.093   2.789
 8486SOL    HW126357   1.652   1.073   2.795
 8486SOL    HW226358   1.780   1.085   2.694
 8487SOL     OW26359   5.497   1.868   6.179
 8487SOL    HW126360   5.562   1.942   6.196
 8487SOL    HW226361   5.547   1.783   6.164
 8488SOL     OW26362   5.520   5.577   3.154
 8488SOL    HW126363   5.472   5.581   3.066
 8488SOL    HW226364   5.454   5.560   3.227
 8489SOL     OW26365   6.904   0.226   1.588
 8489SOL    HW126366   6.959   0.302   1.553
 8489SOL    HW226367   6.831   0.204   1.523
 8490SOL     OW26368   3.408   6.755   5.597
 8490SOL    HW126369   3.320   6.725   5.561
 8490SOL    HW226370   3.443   6.686   5.660
 8491SOL     OW26371   2.017   5.998   2.591
 8491SOL    HW126372   2.114   5.987   2.613
 8491SOL    HW226373   1.965   5.923   2.631
 8492SOL     OW26374   6.050   4.749   3.801
 8492SOL    HW126375   6.017   4.788   3.887
 8492SOL    HW226376   6.000   4.664   3.782
 8493SOL     OW26377   2.426   1.207   0.296
 8493SOL    HW126378   2.351   1.151   0.260
 8493SOL    HW226379   2.425   1.204   0.396
 8494SOL     OW26380   4.730   5.031   2.145
 8494SOL    HW126381   4.799   5.100   2.166
 8494SOL    HW226382   4.667   5.067   2.076
 8495SOL     OW26383   0.086   5.652   0.691
 8495SOL    HW126384   7.019   5.628   0.659
 8495SOL    HW226385   0.078   5.708   0.774
 8496SOL     OW26386   5.234   1.473   2.262
 8496SOL    HW126387   5.191   1.490   2.173
 8496SOL    HW226388   5.307   1.406   2.251
 8497SOL     OW26389   0.662   6.988   3.613
 8497SOL    HW126390   0.745   6.979   3.669
 8497SOL    HW226391   0.680   6.950   3.522
 8498SOL     OW26392   5.952   6.437   3.202
 8498SOL    HW126393   6.049   6.456   3.215
 8498SOL    HW226394   5.923   6.364   3.265
 8499SOL     OW26395   0.937   4.696   6.834
 8499SOL    HW126396   0.841   4.716   6.816
 8499SOL    HW226397   0.980   4.774   6.880
 8500SOL     OW26398   1.927   6.459   6.193
 8500SOL    HW126399   1.992   6.414   6.254
 8500SOL    HW226400   1.856   6.393   6.165
 8501SOL     OW26401   0.789   2.754   6.983
 8501SOL    HW126402   0.715   2.794   6.930
 8501SOL    HW226403   0.788   2.655   6.973
 8502SOL     OW26404   0.782   2.754   0.728
 8502SOL    HW126405   0.784   2.759   0.828
 8502SOL    HW226406   0.689   2.768   0.695
 8503SOL     OW26407   6.295   5.877   5.167
 8503SOL    HW126408   6.376   5.895   5.224
 8503SOL    HW226409   6.223   5.837   5.224
 8504SOL     OW26410   1.690   5.219   2.199
 8504SOL    HW126411   1.627   5.218   2.122
 8504SOL    HW226412   1.783   5.201   2.167
 8505SOL     OW26413   5.367   3.555   2.950
 8505SOL    HW126414   5.432   3.485   2.979
 8505SOL    HW226415   5.392   3.589   2.860
 8506SOL     OW26416   0.979   1.069   0.125
 8506SOL    HW126417   0.948   0.984   0.167
 8506SOL    HW226418   0.957   1.067   0.027
 8507SOL     OW26419   3.811   0.011   4.524
 8507SOL    HW126420   3.849   6.945   4.541
 8507SOL    HW226421   3.818   0.067   4.607
 8508SOL     OW26422   3.933   1.695   5.706
 8508SOL    HW126423   3.988   1.621   5.667
 8508SOL    HW226424   3.970   1.721   5.795
 8509SOL     OW26425   5.899   6.471   3.983
 8509SOL    HW126426   5.872   6.567   3.993
 8509SOL    HW226427   5.989   6.467   3.941
 8510SOL     OW26428   5.519   3.417   3.522
 8510SOL    HW126429   5.451   3.345   3.508
 8510SOL    HW226430   5.581   3.420   3.444
 8511SOL     OW26431   6.909   3.095   2.581
 8511SOL    HW126432   6.887   2.999   2.599
 8511SOL    HW226433   6.987   3.101   2.519
 8512SOL     OW26434   2.776   0.111   2.626
 8512SOL    HW126435   2.677   0.118   2.621
 8512SOL    HW226436   2.807   0.033   2.572
 8513SOL     OW26437   6.770   5.849   0.931
 8513SOL    HW126438   6.723   5.832   1.018
 8513SOL    HW226439   6.725   5.799   0.858
 8514SOL     OW26440   3.602   0.069   3.100
 8514SOL    HW126441   3.532   0.015   3.053
 8514SOL    HW226442   3.607   0.160   3.060
 8515SOL     OW26443   4.509   2.170   0.869
 8515SOL    HW126444   4.457   2.255   0.857
 8515SOL    HW226445   4.512   2.147   0.966
 8516SOL     OW26446   6.521   1.684   2.449
 8516SOL    HW126447   6.427   1.652   2.436
 8516SOL    HW226448   6.576   1.611   2.490
 8517SOL     OW26449   1.142   2.643   6.216
 8517SOL    HW126450   1.111   2.677   6.128
 8517SOL    HW226451   1.126   2.544   6.221
 8518SOL     OW26452   4.292   4.714   0.161
 8518SOL    HW126453   4.233   4.792   0.182
 8518SOL    HW226454   4.319   4.717   0.065
 8519SOL     OW26455   2.039   5.692   2.118
 8519SOL    HW126456   1.960   5.697   2.179
 8519SOL    HW226457   2.047   5.599   2.083
 8520SOL     OW26458   4.048   1.180   0.408
 8520SOL    HW126459   4.054   1.162   0.309
 8520SOL    HW226460   3.955   1.164   0.439
 8521SOL     OW26461   1.397   6.295   5.838
 8521SOL    HW126462   1.383   6.196   5.843
 8521SOL    HW226463   1.318   6.337   5.791
 8522SOL     OW26464   1.710   5.488   2.372
 8522SOL    HW126465   1.733   5.491   2.275
 8522SOL    HW226466   1.633   5.549   2.391
 8523SOL     OW26467   2.280   0.428   5.694
 8523SOL    HW126468   2.288   0.343   5.746
 8523SOL    HW226469   2.232   0.411   5.608
 8524SOL     OW26470   1.200   3.242   4.449
 8524SOL    HW126471   1.124   3.300   4.479
 8524SOL    HW226472   1.278   3.254   4.510
 8525SOL     OW26473   6.000   3.623   2.899
 8525SOL    HW126474   6.062   3.609   2.823
 8525SOL    HW226475   6.052   3.657   2.978
 8526SOL     OW26476   2.896   3.543   1.969
 8526SOL    HW126477   2.832   3.542   1.892
 8526SOL    HW226478   2.953   3.461   1.966
 8527SOL     OW26479   4.344   0.667   4.277
 8527SOL    HW126480   4.415   0.727   4.313
 8527SOL    HW226481   4.265   0.668   4.338
 8528SOL     OW26482   4.888   4.108   6.207
 8528SOL    HW126483   4.920   4.028   6.155
 8528SOL    HW226484   4.911   4.095   6.304
 8529SOL     OW26485   1.131   6.112   0.160
 8529SOL    HW126486   1.214   6.081   0.205
 8529SOL    HW226487   1.095   6.038   0.103
 8530SOL     OW26488   1.411   5.111   5.265
 8530SOL    HW126489   1.312   5.118   5.263
 8530SOL    HW226490   1.448   5.173   5.335
 8531SOL     OW26491   5.703   4.464   3.017
 8531SOL    HW126492   5.752   4.503   2.939
 8531SOL    HW226493   5.661   4.378   2.989
 8532SOL     OW26494   4.504   4.848   4.796
 8532SOL    HW126495   4.597   4.862   4.830
 8532SOL    HW226496   4.438   4.865   4.869
 8533SOL     OW26497   2.299   1.267   5.426
 8533SOL    HW126498   2.306   1.318   5.512
 8533SOL    HW226499   2.331   1.323   5.350
 8534SOL     OW26500   0.672   4.825   2.619
 8534SOL    HW126501   0.763   4.857   2.642
 8534SOL    HW226502   0.677   4.731   2.583
 8535SOL     OW26503   0.891   2.200   4.749
 8535SOL    HW126504   0.937   2.116   4.719
 8535SOL    HW226505   0.865   2.190   4.845
 8536SOL     OW26506   6.615   2.726   5.028
 8536SOL    HW126507   6.586   2.634   5.057
 8536SOL    HW226508   6.680   2.717   4.953
 8537SOL     OW26509   6.097   1.395   0.856
 8537SOL    HW126510   6.083   1.454   0.777
 8537SOL    HW226511   6.174   1.429   0.910
 8538SOL     OW26512   0.248   0.960   5.022
 8538SOL    HW126513   0.251   1.023   4.944
 8538SOL    HW226514   0.338   0.959   5.066
 8539SOL     OW26515   6.574   2.367   2.589
 8539SOL    HW126516   6.488   2.361   2.538
 8539SOL    HW226517   6.607   2.275   2.610
 8540SOL     OW26518   3.176   1.050   0.887
 8540SOL    HW126519   3.127   1.063   0.802
 8540SOL    HW226520   3.164   0.956   0.919
 8541SOL     OW26521   3.101   1.472   5.277
 8541SOL    HW126522   3.144   1.412   5.345
 8541SOL    HW226523   3.020   1.427   5.240
 8542SOL     OW26524   3.013   4.521   6.574
 8542SOL    HW126525   2.999   4.521   6.475
 8542SOL    HW226526   3.064   4.439   6.600
 8543SOL     OW26527   2.201   1.952   5.779
 8543SOL    HW126528   2.110   1.921   5.753
 8543SOL    HW226529   2.193   2.027   5.845
 8544SOL     OW26530   5.125   3.745   5.316
 8544SOL    HW126531   5.216   3.733   5.357
 8544SOL    HW226532   5.069   3.664   5.335
 8545SOL     OW26533   3.409   6.778   4.695
 8545SOL    HW126534   3.496   6.773   4.744
 8545SOL    HW226535   3.388   6.688   4.656
 8546SOL     OW26536   5.495   0.565   0.712
 8546SOL    HW126537   5.481   0.586   0.808
 8546SOL    HW226538   5.516   0.649   0.662
 8547SOL     OW26539   0.010   0.279   5.236
 8547SOL    HW126540   0.068   0.200   5.254
 8547SOL    HW226541   0.037   0.321   5.149
 8548SOL     OW26542   0.080   3.232   5.598
 8548SOL    HW126543   0.104   3.277   5.512
 8548SOL    HW226544   7.006   3.229   5.608
 8549SOL     OW26545   1.362   2.044   3.678
 8549SOL    HW126546   1.382   2.002   3.590
 8549SOL    HW226547   1.432   2.113   3.699
 8550SOL     OW26548   0.791   4.292   6.328
 8550SOL    HW126549   0.837   4.379   6.337
 8550SOL    HW226550   0.790   4.244   6.416
 8551SOL     OW26551   2.011   2.283   6.210
 8551SOL    HW126552   1.950   2.339   6.154
 8551SOL    HW226553   2.101   2.279   6.166
 8552SOL     OW26554   3.257   0.369   1.868
 8552SOL    HW126555   3.183   0.436   1.855
 8552SOL    HW226556   3.338   0.398   1.818
 8553SOL     OW26557   3.889   3.343   0.922
 8553SOL    HW126558   3.822   3.364   0.994
 8553SOL    HW226559   3.925   3.251   0.937
 8554SOL     OW26560   1.046   6.767   1.079
 8554SOL    HW126561   1.025   6.813   0.993
 8554SOL    HW226562   0.989   6.685   1.088
 8555SOL     OW26563   4.118   1.209   3.847
 8555SOL    HW126564   4.184   1.184   3.776
 8555SOL    HW226565   4.027   1.219   3.808
 8556SOL     OW26566   1.785   6.234   6.053
 8556SOL    HW126567   1.782   6.288   5.969
 8556SOL    HW226568   1.850   6.158   6.041
 8557SOL     OW26569   6.647   0.853   0.688
 8557SOL    HW126570   6.683   0.856   0.595
 8557SOL    HW226571   6.549   0.870   0.687
 8558SOL     OW26572   2.384   4.440   3.395
 8558SOL    HW126573   2.332   4.365   3.354
 8558SOL    HW226574   2.322   4.517   3.413
 8559SOL     OW26575   0.271   6.414   2.643
 8559SOL    HW126576   0.266   6.324   2.600
 8559SOL    HW226577   0.269   6.485   2.572
 8560SOL     OW26578   1.774   5.327   1.151
 8560SOL    HW126579   1.726   5.363   1.232
 8560SOL    HW226580   1.765   5.392   1.076
 8561SOL     OW26581   3.927   0.420   2.929
 8561SOL    HW126582   3.917   0.403   3.027
 8561SOL    HW226583   3.837   0.442   2.890
 8562SOL     OW26584   3.887   1.384   0.195
 8562SOL    HW126585   3.858   1.289   0.204
 8562SOL    HW226586   3.809   1.445   0.208
 8563SOL     OW26587   1.279   5.795   2.616
 8563SOL    HW126588   1.285   5.704   2.575
 8563SOL    HW226589   1.364   5.814   2.665
 8564SOL     OW26590   3.929   6.255   6.558
 8564SOL    HW126591   3.838   6.223   6.533
 8564SOL    HW226592   3.986   6.177   6.586
 8565SOL     OW26593   3.492   5.311   1.603
 8565SOL    HW126594   3.564   5.341   1.665
 8565SOL    HW226595   3.406   5.300   1.654
 8566SOL     OW26596   2.863   0.718   2.506
 8566SOL    HW126597   2.891   0.626   2.534
 8566SOL    HW226598   2.816   0.713   2.418
 8567SOL     OW26599   1.536   1.661   1.586
 8567SOL    HW126600   1.488   1.643   1.672
 8567SOL    HW226601   1.472   1.698   1.519
 8568SOL     OW26602   6.813   1.396   0.625
 8568SOL    HW126603   6.787   1.304   0.597
 8568SOL    HW226604   6.737   1.459   0.606
 8569SOL     OW26605   5.121   2.177   5.906
 8569SOL    HW126606   5.153   2.107   5.970
 8569SOL    HW226607   5.129   2.143   5.812
 8570SOL     OW26608   1.690   1.629   4.638
 8570SOL    HW126609   1.686   1.729   4.636
 8570SOL    HW226610   1.728   1.595   4.552
 8571SOL     OW26611   1.615   1.344   4.694
 8571SOL    HW126612   1.602   1.439   4.667
 8571SOL    HW226613   1.585   1.284   4.620
 8572SOL     OW26614   2.782   4.285   5.538
 8572SOL    HW126615   2.839   4.316   5.462
 8572SOL    HW226616   2.818   4.198   5.572
 8573SOL     OW26617   2.947   5.878   6.930
 8573SOL    HW126618   2.854   5.849   6.952
 8573SOL    HW226619   2.985   5.818   6.860
 8574SOL     OW26620   6.692   6.797   6.128
 8574SOL    HW126621   6.769   6.852   6.095
 8574SOL    HW226622   6.695   6.791   6.228
 8575SOL     OW26623   3.721   0.998   2.297
 8575SOL    HW126624   3.756   0.905   2.289
 8575SOL    HW226625   3.716   1.040   2.207
 8576SOL     OW26626   1.010   4.187   4.089
 8576SOL    HW126627   0.996   4.272   4.141
 8576SOL    HW226628   0.923   4.138   4.081
 8577SOL     OW26629   1.800   1.042   6.154
 8577SOL    HW126630   1.832   1.124   6.203
 8577SOL    HW226631   1.705   1.054   6.127
 8578SOL     OW26632   6.512   6.294   5.653
 8578SOL    HW126633   6.448   6.218   5.670
 8578SOL    HW226634   6.461   6.372   5.616
 8579SOL     OW26635   2.080   6.294   2.535
 8579SOL    HW126636   2.130   6.310   2.451
 8579SOL    HW226637   2.047   6.200   2.537
 8580SOL     OW26638   0.946   6.528   1.135
 8580SOL    HW126639   0.937   6.527   1.234
 8580SOL    HW226640   1.012   6.457   1.107
 8581SOL     OW26641   3.912   5.148   1.645
 8581SOL    HW126642   4.007   5.144   1.676
 8581SOL    HW226643   3.876   5.055   1.636
 8582SOL     OW26644   3.876   4.711   5.740
 8582SOL    HW126645   3.812   4.773   5.695
 8582SOL    HW226646   3.936   4.763   5.801
 8583SOL     OW26647   4.328   0.242   3.096
 8583SOL    HW126648   4.301   0.297   3.175
 8583SOL    HW226649   4.394   0.294   3.041
 8584SOL     OW26650   0.012   1.012   4.727
 8584SOL    HW126651   6.979   0.957   4.668
 8584SOL    HW226652   6.986   1.093   4.757
 8585SOL     OW26653   5.833   2.041   1.046
 8585SOL    HW126654   5.824   1.941   1.049
 8585SOL    HW226655   5.830   2.078   1.139
 8586SOL     OW26656   5.629   6.584   1.297
 8586SOL    HW126657   5.566   6.517   1.336
 8586SOL    HW226658   5.664   6.549   1.209
 8587SOL     OW26659   1.002   1.972   4.676
 8587SOL    HW126660   1.047   1.910   4.612
 8587SOL    HW226661   1.029   1.949   4.770
 8588SOL     OW26662   4.076   1.288   0.007
 8588SOL    HW126663   4.019   1.353   0.057
 8588SOL    HW226664   4.068   1.198   0.049
 8589SOL     OW26665   6.889   2.967   5.119
 8589SOL    HW126666   6.930   2.947   5.030
 8589SOL    HW226667   6.914   2.896   5.184
 8590SOL     OW26668   6.876   6.993   3.268
 8590SOL    HW126669   6.943   6.920   3.256
 8590SOL    HW226670   6.861   7.009   3.365
 8591SOL     OW26671   6.361   4.570   0.207
 8591SOL    HW126672   6.405   4.501   0.264
 8591SOL    HW226673   6.304   4.629   0.264
 8592SOL     OW26674   0.568   2.452   0.289
 8592SOL    HW126675   0.518   2.452   0.376
 8592SOL    HW226676   0.523   2.515   0.225
 8593SOL     OW26677   2.807   0.782   6.761
 8593SOL    HW126678   2.845   0.838   6.835
 8593SOL    HW226679   2.749   0.839   6.703
 8594SOL     OW26680   6.073   2.518   5.671
 8594SOL    HW126681   6.171   2.537   5.666
 8594SOL    HW226682   6.040   2.538   5.764
 8595SOL     OW26683   5.312   0.226   3.431
 8595SOL    HW126684   5.264   0.313   3.439
 8595SOL    HW226685   5.375   0.229   3.353
 8596SOL     OW26686   1.538   3.790   3.294
 8596SOL    HW126687   1.615   3.731   3.318
 8596SOL    HW226688   1.480   3.744   3.227
 8597SOL     OW26689   6.092   2.892   0.372
 8597SOL    HW126690   6.104   2.831   0.293
 8597SOL    HW226691   6.165   2.961   0.372
 8598SOL     OW26692   5.585   0.615   5.061
 8598SOL    HW126693   5.678   0.632   5.029
 8598SOL    HW226694   5.582   0.619   5.161
 8599SOL     OW26695   1.660   2.922   3.706
 8599SOL    HW126696   1.659   2.874   3.794
 8599SOL    HW226697   1.697   2.862   3.635
 8600SOL     OW26698   4.943   3.809   1.168
 8600SOL    HW126699   4.900   3.720   1.187
 8600SOL    HW226700   5.033   3.812   1.211
 8601SOL     OW26701   0.294   0.863   3.673
 8601SOL    HW126702   0.244   0.885   3.757
 8601SOL    HW226703   0.391   0.847   3.696
 8602SOL     OW26704   2.492   6.738   3.286
 8602SOL    HW126705   2.585   6.721   3.317
 8602SOL    HW226706   2.488   6.734   3.186
 8603SOL     OW26707   5.834   1.223   6.557
 8603SOL    HW126708   5.809   1.302   6.501
 8603SOL    HW226709   5.768   1.150   6.543
 8604SOL     OW26710   0.891   2.850   6.335
 8604SOL    HW126711   0.865   2.831   6.240
 8604SOL    HW226712   0.944   2.773   6.370
 8605SOL     OW26713   0.868   4.458   4.252
 8605SOL    HW126714   0.946   4.462   4.313
 8605SOL    HW226715   0.837   4.550   4.230
 8606SOL     OW26716   3.122   2.300   6.880
 8606SOL    HW126717   3.056   2.285   6.806
 8606SOL    HW226718   3.079   2.281   6.968
 8607SOL     OW26719   2.041   4.872   0.109
 8607SOL    HW126720   2.128   4.855   0.063
 8607SOL    HW226721   1.970   4.890   0.041
 8608SOL     OW26722   1.943   4.648   2.900
 8608SOL    HW126723   1.909   4.686   2.814
 8608SOL    HW226724   2.009   4.576   2.880
 8609SOL     OW26725   5.075   0.748   3.759
 8609SOL    HW126726   5.064   0.649   3.748
 8609SOL    HW226727   4.986   0.788   3.782
 8610SOL     OW26728   7.020   6.740   3.173
 8610SOL    HW126729   0.057   6.690   3.233
 8610SOL    HW226730   6.943   6.682   3.148
 8611SOL     OW26731   2.894   0.826   4.202
 8611SOL    HW126732   2.850   0.759   4.262
 8611SOL    HW226733   2.873   0.919   4.235
 8612SOL     OW26734   3.021   3.248   2.574
 8612SOL    HW126735   2.982   3.251   2.665
 8612SOL    HW226736   2.999   3.161   2.530
 8613SOL     OW26737   2.344   2.650   1.715
 8613SOL    HW126738   2.409   2.669   1.642
 8613SOL    HW226739   2.334   2.731   1.774
 8614SOL     OW26740   0.923   2.732   2.749
 8614SOL    HW126741   0.943   2.671   2.672
 8614SOL    HW226742   0.932   2.827   2.719
 8615SOL     OW26743   4.730   1.828   4.833
 8615SOL    HW126744   4.820   1.786   4.847
 8615SOL    HW226745   4.711   1.833   4.735
 8616SOL     OW26746   2.727   4.733   2.387
 8616SOL    HW126747   2.770   4.799   2.448
 8616SOL    HW226748   2.782   4.722   2.305
 8617SOL     OW26749   5.482   0.065   3.741
 8617SOL    HW126750   5.461   0.024   3.653
 8617SOL    HW226751   5.398   0.095   3.786
 8618SOL     OW26752   6.663   3.715   0.758
 8618SOL    HW126753   6.664   3.752   0.665
 8618SOL    HW226754   6.617   3.779   0.819
 8619SOL     OW26755   4.377   5.030   3.100
 8619SOL    HW126756   4.343   4.936   3.103
 8619SOL    HW226757   4.375   5.062   3.005
 8620SOL     OW26758   1.740   0.329   4.244
 8620SOL    HW126759   1.726   0.310   4.147
 8620SOL    HW226760   1.786   0.250   4.287
 8621SOL     OW26761   4.789   2.857   2.265
 8621SOL    HW126762   4.791   2.911   2.349
 8621SOL    HW226763   4.791   2.918   2.186
 8622SOL     OW26764   6.170   5.144   1.984
 8622SOL    HW126765   6.173   5.049   1.950
 8622SOL    HW226766   6.260   5.186   1.972
 8623SOL     OW26767   0.130   3.254   4.848
 8623SOL    HW126768   0.035   3.246   4.878
 8623SOL    HW226769   0.159   3.168   4.805
 8624SOL     OW26770   3.441   3.572   6.292
 8624SOL    HW126771   3.421   3.482   6.254
 8624SOL    HW226772   3.538   3.577   6.316
 8625SOL     OW26773   4.493   1.304   6.079
 8625SOL    HW126774   4.425   1.252   6.129
 8625SOL    HW226775   4.568   1.329   6.140
 8626SOL     OW26776   3.749   3.062   0.635
 8626SOL    HW126777   3.827   3.039   0.693
 8626SOL    HW226778   3.748   3.160   0.617
 8627SOL     OW26779   2.253   1.465   2.192
 8627SOL    HW126780   2.348   1.467   2.160
 8627SOL    HW226781   2.235   1.545   2.249
 8628SOL     OW26782   6.720   6.824   0.305
 8628SOL    HW126783   6.771   6.821   0.219
 8628SOL    HW226784   6.643   6.886   0.296
 8629SOL     OW26785   0.887   6.640   4.765
 8629SOL    HW126786   0.846   6.664   4.677
 8629SOL    HW226787   0.820   6.588   4.819
 8630SOL     OW26788   4.919   3.441   3.617
 8630SOL    HW126789   4.940   3.371   3.685
 8630SOL    HW226790   4.949   3.530   3.651
 8631SOL     OW26791   2.192   6.368   6.318
 8631SOL    HW126792   2.245   6.319   6.248
 8631SOL    HW226793   2.115   6.312   6.347
 8632SOL     OW26794   4.135   4.397   5.482
 8632SOL    HW126795   4.075   4.417   5.560
 8632SOL    HW226796   4.217   4.454   5.488
 8633SOL     OW26797   5.806   3.719   5.802
 8633SOL    HW126798   5.780   3.672   5.717
 8633SOL    HW226799   5.890   3.771   5.787
 8634SOL     OW26800   5.144   4.591   0.001
 8634SOL    HW126801   5.046   4.601   7.008
 8634SOL    HW226802   5.179   4.677   0.040
 8635SOL     OW26803   6.225   2.558   6.767
 8635SOL    HW126804   6.133   2.545   6.806
 8635SOL    HW226805   6.220   2.553   6.667
 8636SOL     OW26806   3.932   5.668   0.344
 8636SOL    HW126807   3.929   5.581   0.393
 8636SOL    HW226808   3.898   5.741   0.404
 8637SOL     OW26809   2.336   1.440   6.136
 8637SOL    HW126810   2.416   1.448   6.197
 8637SOL    HW226811   2.253   1.444   6.191
 8638SOL     OW26812   3.867   2.539   5.331
 8638SOL    HW126813   3.958   2.566   5.298
 8638SOL    HW226814   3.797   2.583   5.275
 8639SOL     OW26815   4.919   3.610   6.844
 8639SOL    HW126816   4.939   3.681   6.776
 8639SOL    HW226817   5.003   3.586   6.893
 8640SOL     OW26818   3.975   3.295   1.422
 8640SOL    HW126819   4.064   3.250   1.413
 8640SOL    HW226820   3.904   3.235   1.385
 8641SOL     OW26821   4.522   4.806   3.593
 8641SOL    HW126822   4.452   4.873   3.571
 8641SOL    HW226823   4.524   4.791   3.692
 8642SOL     OW26824   7.025   6.857   3.597
 8642SOL    HW126825   6.976   6.796   3.533
 8642SOL    HW226826   0.094   6.826   3.606
 8643SOL     OW26827   1.680   0.101   0.494
 8643SOL    HW126828   1.752   0.046   0.536
 8643SOL    HW226829   1.718   0.152   0.416
 8644SOL     OW26830   6.575   2.214   6.469
 8644SOL    HW126831   6.521   2.203   6.553
 8644SOL    HW226832   6.534   2.161   6.395
 8645SOL     OW26833   4.979   5.035   1.562
 8645SOL    HW126834   4.962   4.952   1.509
 8645SOL    HW226835   4.949   5.114   1.509
 8646SOL     OW26836   0.640   1.953   6.703
 8646SOL    HW126837   0.739   1.951   6.717
 8646SOL    HW226838   0.594   1.915   6.784
 8647SOL     OW26839   2.884   5.766   1.237
 8647SOL    HW126840   2.786   5.767   1.217
 8647SOL    HW226841   2.915   5.859   1.256
 8648SOL     OW26842   5.804   6.771   1.064
 8648SOL    HW126843   5.799   6.675   1.091
 8648SOL    HW226844   5.806   6.828   1.146
 8649SOL     OW26845   4.495   6.402   6.770
 8649SOL    HW126846   4.579   6.386   6.718
 8649SOL    HW226847   4.497   6.494   6.810
 8650SOL     OW26848   1.677   6.551   4.069
 8650SOL    HW126849   1.750   6.608   4.104
 8650SOL    HW226850   1.608   6.536   4.141
 8651SOL     OW26851   2.964   1.672   0.984
 8651SOL    HW126852   3.037   1.640   0.924
 8651SOL    HW226853   3.000   1.743   1.045
 8652SOL     OW26854   0.957   4.750   4.079
 8652SOL    HW126855   1.015   4.785   4.153
 8652SOL    HW226856   0.986   4.790   3.992
 8653SOL     OW26857   6.221   1.394   5.345
 8653SOL    HW126858   6.152   1.413   5.416
 8653SOL    HW226859   6.311   1.389   5.387
 8654SOL     OW26860   0.916   4.754   1.324
 8654SOL    HW126861   0.909   4.836   1.381
 8654SOL    HW226862   0.841   4.754   1.257
 8655SOL     OW26863   6.465   1.136   5.189
 8655SOL    HW126864   6.481   1.233   5.174
 8655SOL    HW226865   6.419   1.123   5.277
 8656SOL     OW26866   5.329   0.242   2.093
 8656SOL    HW126867   5.350   0.240   1.995
 8656SOL    HW226868   5.395   0.185   2.142
 8657SOL     OW26869   6.066   6.262   0.411
 8657SOL    HW126870   6.013   6.299   0.488
 8657SOL    HW226871   6.163   6.273   0.429
 8658SOL     OW26872   5.517   5.500   0.424
 8658SOL    HW126873   5.438   5.442   0.406
 8658SOL    HW226874   5.487   5.595   0.432
 8659SOL     OW26875   4.498   2.388   3.209
 8659SOL    HW126876   4.570   2.457   3.205
 8659SOL    HW226877   4.466   2.377   3.303
 8660SOL     OW26878   0.739   2.340   2.109
 8660SOL    HW126879   0.814   2.380   2.056
 8660SOL    HW226880   0.775   2.300   2.194
 8661SOL     OW26881   6.078   3.367   2.584
 8661SOL    HW126882   6.118   3.458   2.592
 8661SOL    HW226883   5.981   3.376   2.558
 8662SOL     OW26884   3.239   6.186   2.164
 8662SOL    HW126885   3.310   6.163   2.231
 8662SOL    HW226886   3.282   6.225   2.082
 8663SOL     OW26887   2.496   5.442   2.937
 8663SOL    HW126888   2.472   5.427   3.033
 8663SOL    HW226889   2.539   5.360   2.901
 8664SOL     OW26890   2.624   5.846   2.926
 8664SOL    HW126891   2.611   5.795   3.011
 8664SOL    HW226892   2.652   5.940   2.947
 8665SOL     OW26893   6.681   5.415   5.504
 8665SOL    HW126894   6.676   5.418   5.404
 8665SOL    HW226895   6.628   5.337   5.538
 8666SOL     OW26896   5.667   6.853   4.347
 8666SOL    HW126897   5.745   6.814   4.297
 8666SOL    HW226898   5.651   6.801   4.430
 8667SOL     OW26899   5.102   1.010   4.726
 8667SOL    HW126900   5.051   0.995   4.810
 8667SOL    HW226901   5.040   1.005   4.648
 8668SOL     OW26902   5.276   3.073   4.768
 8668SOL    HW126903   5.273   3.072   4.668
 8668SOL    HW226904   5.245   2.985   4.803
 8669SOL     OW26905   6.665   6.645   6.758
 8669SOL    HW126906   6.602   6.702   6.811
 8669SOL    HW226907   6.666   6.675   6.663
 8670SOL     OW26908   5.506   5.156   6.008
 8670SOL    HW126909   5.417   5.181   6.046
 8670SOL    HW226910   5.554   5.238   5.977
 8671SOL     OW26911   0.622   1.500   2.289
 8671SOL    HW126912   0.621   1.417   2.345
 8671SOL    HW226913   0.543   1.556   2.312
 8672SOL     OW26914   0.418   0.047   3.601
 8672SOL    HW126915   0.385   0.092   3.518
 8672SOL    HW226916   0.514   0.021   3.589
 8673SOL     OW26917   6.933   1.640   0.331
 8673SOL    HW126918   6.906   1.689   0.413
 8673SOL    HW226919   6.887   1.551   0.329
 8674SOL     OW26920   6.868   4.263   2.855
 8674SOL    HW126921   6.775   4.227   2.854
 8674SOL    HW226922   6.874   4.336   2.923
 8675SOL     OW26923   4.386   0.932   5.992
 8675SOL    HW126924   4.374   1.000   6.065
 8675SOL    HW226925   4.358   0.973   5.905
 8676SOL     OW26926   5.617   1.172   1.320
 8676SOL    HW126927   5.616   1.252   1.379
 8676SOL    HW226928   5.534   1.118   1.335
 8677SOL     OW26929   1.673   6.058   5.759
 8677SOL    HW126930   1.711   6.012   5.679
 8677SOL    HW226931   1.673   5.995   5.837
 8678SOL     OW26932   0.752   6.882   0.502
 8678SOL    HW126933   0.739   6.783   0.501
 8678SOL    HW226934   0.679   6.926   0.449
 8679SOL     OW26935   1.777   1.575   4.305
 8679SOL    HW126936   1.709   1.504   4.322
 8679SOL    HW226937   1.788   1.587   4.206
 8680SOL     OW26938   6.623   2.590   6.236
 8680SOL    HW126939   6.668   2.510   6.276
 8680SOL    HW226940   6.663   2.673   6.274
 8681SOL     OW26941   4.710   5.330   1.373
 8681SOL    HW126942   4.645   5.352   1.300
 8681SOL    HW226943   4.774   5.261   1.341
 8682SOL     OW26944   0.042   0.219   1.041
 8682SOL    HW126945   6.991   0.284   1.039
 8682SOL    HW226946   0.036   0.163   1.124
 8683SOL     OW26947   1.410   3.298   4.617
 8683SOL    HW126948   1.429   3.328   4.710
 8683SOL    HW226949   1.496   3.275   4.572
 8684SOL     OW26950   0.214   3.816   4.370
 8684SOL    HW126951   0.186   3.799   4.464
 8684SOL    HW226952   0.284   3.887   4.368
 8685SOL     OW26953   5.523   2.679   6.526
 8685SOL    HW126954   5.565   2.743   6.461
 8685SOL    HW226955   5.425   2.671   6.507
 8686SOL     OW26956   6.010   6.769   2.939
 8686SOL    HW126957   5.911   6.761   2.934
 8686SOL    HW226958   6.052   6.717   2.865
 8687SOL     OW26959   6.213   4.265   2.849
 8687SOL    HW126960   6.141   4.269   2.919
 8687SOL    HW226961   6.174   4.291   2.761
 8688SOL     OW26962   2.091   4.390   6.491
 8688SOL    HW126963   2.183   4.365   6.520
 8688SOL    HW226964   2.064   4.336   6.412
 8689SOL     OW26965   4.595   3.156   0.681
 8689SOL    HW126966   4.616   3.102   0.762
 8689SOL    HW226967   4.675   3.161   0.622
 8690SOL     OW26968   1.036   2.365   2.884
 8690SOL    HW126969   0.967   2.295   2.901
 8690SOL    HW226970   1.011   2.449   2.933
 8691SOL     OW26971   3.549   1.529   5.356
 8691SOL    HW126972   3.473   1.592   5.364
 8691SOL    HW226973   3.622   1.571   5.302
 8692SOL     OW26974   3.640   1.597   5.614
 8692SOL    HW126975   3.723   1.650   5.634
 8692SOL    HW226976   3.636   1.576   5.516
 8693SOL     OW26977   6.717   1.109   6.435
 8693SOL    HW126978   6.805   1.064   6.452
 8693SOL    HW226979   6.731   1.207   6.421
 8694SOL     OW26980   5.858   2.112   4.944
 8694SOL    HW126981   5.815   2.071   4.863
 8694SOL    HW226982   5.930   2.052   4.977
 8695SOL     OW26983   4.494   3.291   6.330
 8695SOL    HW126984   4.583   3.257   6.302
 8695SOL    HW226985   4.480   3.274   6.428
 8696SOL     OW26986   2.446   6.357   4.902
 8696SOL    HW126987   2.526   6.323   4.853
 8696SOL    HW226988   2.458   6.454   4.923
 8697SOL     OW26989   1.288   4.573   5.981
 8697SOL    HW126990   1.196   4.535   5.974
 8697SOL    HW226991   1.324   4.556   6.073
 8698SOL     OW26992   5.087   5.729   6.107
 8698SOL    HW126993   5.060   5.823   6.128
 8698SOL    HW226994   5.055   5.704   6.016
 8699SOL     OW26995   2.279   3.417   6.116
 8699SOL    HW126996   2.323   3.386   6.031
 8699SOL    HW226997   2.299   3.353   6.190
 8700SOL     OW26998   1.471   1.097   5.529
 8700SOL    HW126999   1.487   1.009   5.485
 8700SOL    HW227000   1.509   1.095   5.622
 8701SOL     OW27001   1.629   1.404   6.613
 8701SOL    HW127002   1.619   1.498   6.646
 8701SOL    HW227003   1.686   1.403   6.531
 8702SOL     OW27004   4.925   5.254   2.178
 8702SOL    HW127005   4.982   5.335   2.169
 8702SOL    HW227006   4.971   5.175   2.137
 8703SOL     OW27007   3.174   4.673   6.834
 8703SOL    HW127008   3.219   4.761   6.823
 8703SOL    HW227009   3.119   4.653   6.753
 8704SOL     OW27010   0.093   2.914   3.740
 8704SOL    HW127011   0.023   2.980   3.766
 8704SOL    HW227012   0.099   2.842   3.809
 8705SOL     OW27013   4.687   2.203   6.503
 8705SOL    HW127014   4.756   2.266   6.466
 8705SOL    HW227015   4.614   2.256   6.547
 8706SOL     OW27016   5.787   2.737   0.161
 8706SOL    HW127017   5.760   2.770   0.251
 8706SOL    HW227018   5.886   2.733   0.154
 8707SOL     OW27019   0.959   2.033   3.808
 8707SOL    HW127020   1.018   2.012   3.730
 8707SOL    HW227021   0.963   2.131   3.827
 8708SOL     OW27022   4.557   1.753   4.277
 8708SOL    HW127023   4.650   1.776   4.305
 8708SOL    HW227024   4.551   1.655   4.259
 8709SOL     OW27025   6.977   0.152   6.860
 8709SOL    HW127026   7.000   0.195   6.947
 8709SOL    HW227027   6.882   0.174   6.837
 8710SOL     OW27028   2.160   2.006   3.594
 8710SOL    HW127029   2.241   2.059   3.618
 8710SOL    HW227030   2.089   2.020   3.663
 8711SOL     OW27031   1.150   0.833   1.415
 8711SOL    HW127032   1.131   0.736   1.430
 8711SOL    HW227033   1.112   0.861   1.327
 8712SOL     OW27034   2.873   1.669   4.942
 8712SOL    HW127035   2.800   1.682   5.010
 8712SOL    HW227036   2.948   1.733   4.961
 8713SOL     OW27037   0.318   4.124   1.329
 8713SOL    HW127038   0.225   4.098   1.302
 8713SOL    HW227039   0.348   4.066   1.405
 8714SOL     OW27040   0.423   6.712   0.099
 8714SOL    HW127041   0.326   6.719   0.125
 8714SOL    HW227042   0.443   6.619   0.071
 8715SOL     OW27043   3.332   2.004   0.232
 8715SOL    HW127044   3.422   1.970   0.262
 8715SOL    HW227045   3.324   1.991   0.133
 8716SOL     OW27046   0.101   6.633   1.099
 8716SOL    HW127047   0.033   6.572   1.059
 8716SOL    HW227048   0.158   6.582   1.163
 8717SOL     OW27049   2.447   3.175   6.144
 8717SOL    HW127050   2.507   3.115   6.197
 8717SOL    HW227051   2.402   3.123   6.072
 8718SOL     OW27052   1.531   2.936   6.351
 8718SOL    HW127053   1.537   2.871   6.275
 8718SOL    HW227054   1.593   3.012   6.334
 8719SOL     OW27055   4.453   1.322   0.085
 8719SOL    HW127056   4.456   1.377   0.168
 8719SOL    HW227057   4.385   1.249   0.096
 8720SOL     OW27058   6.907   5.292   5.613
 8720SOL    HW127059   6.827   5.348   5.592
 8720SOL    HW227060   6.976   5.348   5.660
 8721SOL     OW27061   6.544   6.823   6.899
 8721SOL    HW127062   6.618   6.875   6.857
 8721SOL    HW227063   6.484   6.886   6.949
 8722SOL     OW27064   3.195   0.682   0.721
 8722SOL    HW127065   3.274   0.666   0.662
 8722SOL    HW227066   3.131   0.605   0.714
 8723SOL     OW27067   5.620   6.580   2.186
 8723SOL    HW127068   5.661   6.663   2.223
 8723SOL    HW227069   5.656   6.501   2.235
 8724SOL     OW27070   5.271   6.944   4.405
 8724SOL    HW127071   5.328   6.882   4.459
 8724SOL    HW227072   5.239   7.019   4.464
 8725SOL     OW27073   0.077   6.219   4.736
 8725SOL    HW127074   0.129   6.294   4.697
 8725SOL    HW227075   0.004   6.255   4.793
 8726SOL     OW27076   6.707   1.173   0.503
 8726SOL    HW127077   6.720   1.089   0.450
 8726SOL    HW227078   6.610   1.189   0.517
 8727SOL     OW27079   5.890   0.056   0.024
 8727SOL    HW127080   5.933   6.991   0.035
 8727SOL    HW227081   5.813   0.048   6.986
 8728SOL     OW27082   5.276   1.374   2.554
 8728SOL    HW127083   5.218   1.381   2.472
 8728SOL    HW227084   5.332   1.292   2.548
 8729SOL     OW27085   3.099   5.486   5.452
 8729SOL    HW127086   3.196   5.505   5.470
 8729SOL    HW227087   3.043   5.540   5.514
 8730SOL     OW27088   5.341   4.139   3.370
 8730SOL    HW127089   5.303   4.131   3.278
 8730SOL    HW227090   5.401   4.219   3.374
 8731SOL     OW27091   0.367   3.076   2.725
 8731SOL    HW127092   0.428   3.109   2.797
 8731SOL    HW227093   0.274   3.108   2.743
 8732SOL     OW27094   4.990   4.656   0.942
 8732SOL    HW127095   4.951   4.749   0.941
 8732SOL    HW227096   5.040   4.642   1.028
 8733SOL     OW27097   0.646   5.413   1.336
 8733SOL    HW127098   0.623   5.326   1.291
 8733SOL    HW227099   0.745   5.420   1.345
 8734SOL     OW27100   6.780   3.352   2.215
 8734SOL    HW127101   6.780   3.422   2.144
 8734SOL    HW227102   6.788   3.262   2.172
 8735SOL     OW27103   1.268   3.716   5.099
 8735SOL    HW127104   1.168   3.716   5.093
 8735SOL    HW227105   1.304   3.643   5.041
 8736SOL     OW27106   0.587   5.602   1.910
 8736SOL    HW127107   0.491   5.605   1.882
 8736SOL    HW227108   0.645   5.601   1.829
 8737SOL     OW27109   2.783   5.743   6.300
 8737SOL    HW127110   2.789   5.647   6.271
 8737SOL    HW227111   2.697   5.782   6.267
 8738SOL     OW27112   1.569   4.186   3.550
 8738SOL    HW127113   1.545   4.193   3.647
 8738SOL    HW227114   1.564   4.277   3.509
 8739SOL     OW27115   5.134   4.456   4.803
 8739SOL    HW127116   5.197   4.402   4.748
 8739SOL    HW227117   5.074   4.395   4.856
 8740SOL     OW27118   3.874   2.166   3.021
 8740SOL    HW127119   3.960   2.215   3.036
 8740SOL    HW227120   3.848   2.172   2.925
 8741SOL     OW27121   2.424   6.909   2.457
 8741SOL    HW127122   2.500   6.850   2.486
 8741SOL    HW227123   2.338   6.862   2.475
 8742SOL     OW27124   3.987   0.821   2.645
 8742SOL    HW127125   3.985   0.721   2.645
 8742SOL    HW227126   3.895   0.856   2.630
 8743SOL     OW27127   2.165   0.945   1.773
 8743SOL    HW127128   2.077   0.907   1.801
 8743SOL    HW227129   2.196   1.012   1.840
 8744SOL     OW27130   4.780   2.877   0.132
 8744SOL    HW127131   4.871   2.868   0.091
 8744SOL    HW227132   4.783   2.947   0.203
 8745SOL     OW27133   6.876   2.056   6.373
 8745SOL    HW127134   6.938   1.978   6.376
 8745SOL    HW227135   6.869   2.089   6.279
 8746SOL     OW27136   5.027   5.371   4.144
 8746SOL    HW127137   5.077   5.348   4.228
 8746SOL    HW227138   5.074   5.446   4.097
 8747SOL     OW27139   6.638   1.168   2.341
 8747SOL    HW127140   6.728   1.191   2.379
 8747SOL    HW227141   6.594   1.251   2.306
 8748SOL     OW27142   1.050   1.426   3.910
 8748SOL    HW127143   1.055   1.374   3.825
 8748SOL    HW227144   1.110   1.506   3.905
 8749SOL     OW27145   2.571   1.316   5.694
 8749SOL    HW127146   2.500   1.334   5.762
 8749SOL    HW227147   2.609   1.225   5.709
 8750SOL     OW27148   4.041   2.840   5.721
 8750SOL    HW127149   3.957   2.785   5.719
 8750SOL    HW227150   4.085   2.830   5.810
 8751SOL     OW27151   6.579   0.284   0.322
 8751SOL    HW127152   6.659   0.300   0.379
 8751SOL    HW227153   6.522   0.365   0.321
 8752SOL     OW27154   5.521   3.169   6.868
 8752SOL    HW127155   5.513   3.111   6.949
 8752SOL    HW227156   5.467   3.129   6.794
 8753SOL     OW27157   2.371   3.382   6.929
 8753SOL    HW127158   2.437   3.413   6.997
 8753SOL    HW227159   2.282   3.365   6.973
 8754SOL     OW27160   2.709   4.946   6.354
 8754SOL    HW127161   2.677   4.958   6.260
 8754SOL    HW227162   2.746   4.853   6.365
 8755SOL     OW27163   0.973   0.977   0.935
 8755SOL    HW127164   1.056   1.030   0.955
 8755SOL    HW227165   0.926   1.018   0.857
 8756SOL     OW27166   1.971   3.137   3.713
 8756SOL    HW127167   1.881   3.148   3.755
 8756SOL    HW227168   1.964   3.146   3.614
 8757SOL     OW27169   5.002   6.175   5.880
 8757SOL    HW127170   5.090   6.149   5.918
 8757SOL    HW227171   4.972   6.261   5.921
 8758SOL     OW27172   4.357   0.026   3.351
 8758SOL    HW127173   4.321   0.118   3.366
 8758SOL    HW227174   4.340   7.024   3.256
 8759SOL     OW27175   6.317   1.805   7.018
 8759SOL    HW127176   6.323   1.887   0.051
 8759SOL    HW227177   6.230   1.759   0.010
 8760SOL     OW27178   2.353   2.054   3.832
 8760SOL    HW127179   2.279   2.000   3.871
 8760SOL    HW227180   2.427   1.994   3.802
 8761SOL     OW27181   5.271   1.791   1.973
 8761SOL    HW127182   5.265   1.843   2.058
 8761SOL    HW227183   5.213   1.710   1.978
 8762SOL     OW27184   1.931   6.040   3.818
 8762SOL    HW127185   1.859   6.043   3.887
 8762SOL    HW227186   1.973   5.949   3.818
 8763SOL     OW27187   6.722   0.759   4.737
 8763SOL    HW127188   6.762   0.827   4.676
 8763SOL    HW227189   6.792   0.727   4.802
 8764SOL     OW27190   4.202   6.216   5.986
 8764SOL    HW127191   4.253   6.301   5.994
 8764SOL    HW227192   4.216   6.177   5.895
 8765SOL     OW27193   5.903   0.797   5.292
 8765SOL    HW127194   5.819   0.847   5.312
 8765SOL    HW227195   5.980   0.861   5.289
 8766SOL     OW27196   4.349   4.285   5.606
 8766SOL    HW127197   4.332   4.209   5.669
 8766SOL    HW227198   4.319   4.259   5.514
 8767SOL     OW27199   3.257   0.107   3.956
 8767SOL    HW127200   3.286   0.033   3.894
 8767SOL    HW227201   3.337   0.146   4.001
 8768SOL     OW27202   0.812   2.225   6.881
 8768SOL    HW127203   0.712   2.232   6.879
 8768SOL    HW227204   0.842   2.154   6.818
 8769SOL     OW27205   6.498   1.350   1.766
 8769SOL    HW127206   6.597   1.339   1.776
 8769SOL    HW227207   6.454   1.260   1.765
 8770SOL     OW27208   5.336   4.205   2.137
 8770SOL    HW127209   5.308   4.277   2.073
 8770SOL    HW227210   5.258   4.180   2.195
 8771SOL     OW27211   0.500   3.403   6.490
 8771SOL    HW127212   0.467   3.497   6.492
 8771SOL    HW227213   0.599   3.402   6.481
 8772SOL     OW27214   5.380   0.672   4.692
 8772SOL    HW127215   5.311   0.729   4.738
 8772SOL    HW227216   5.430   0.619   4.760
 8773SOL     OW27217   6.116   2.312   3.572
 8773SOL    HW127218   6.086   2.380   3.505
 8773SOL    HW227219   6.059   2.320   3.654
 8774SOL     OW27220   0.888   0.172   6.592
 8774SOL    HW127221   0.978   0.202   6.560
 8774SOL    HW227222   0.842   0.120   6.520
 8775SOL     OW27223   5.677   1.752   5.191
 8775SOL    HW127224   5.748   1.813   5.227
 8775SOL    HW227225   5.606   1.807   5.147
 8776SOL     OW27226   4.921   3.526   1.114
 8776SOL    HW127227   4.976   3.459   1.164
 8776SOL    HW227228   4.824   3.502   1.121
 8777SOL     OW27229   0.859   3.435   2.716
 8777SOL    HW127230   0.958   3.424   2.708
 8777SOL    HW227231   0.835   3.456   2.811
 8778SOL     OW27232   4.291   4.113   5.851
 8778SOL    HW127233   4.295   4.195   5.909
 8778SOL    HW227234   4.383   4.073   5.844
 8779SOL     OW27235   2.797   5.211   2.436
 8779SOL    HW127236   2.845   5.267   2.369
 8779SOL    HW227237   2.714   5.174   2.395
 8780SOL     OW27238   0.266   5.842   2.362
 8780SOL    HW127239   0.191   5.906   2.383
 8780SOL    HW227240   0.343   5.862   2.423
 8781SOL     OW27241   4.692   0.257   2.810
 8781SOL    HW127242   4.689   0.285   2.906
 8781SOL    HW227243   4.616   0.299   2.761
 8782SOL     OW27244   5.664   1.354   2.130
 8782SOL    HW127245   5.722   1.435   2.130
 8782SOL    HW227246   5.721   1.272   2.127
 8783SOL     OW27247   5.583   2.765   3.995
 8783SOL    HW127248   5.677   2.790   4.020
 8783SOL    HW227249   5.562   2.801   3.905
 8784SOL     OW27250   6.239   5.957   0.793
 8784SOL    HW127251   6.306   5.933   0.722
 8784SOL    HW227252   6.162   6.006   0.751
 8785SOL     OW27253   0.563   5.315   6.101
 8785SOL    HW127254   0.507   5.341   6.179
 8785SOL    HW227255   0.626   5.389   6.078
 8786SOL     OW27256   3.983   1.926   2.700
 8786SOL    HW127257   3.998   1.935   2.602
 8786SOL    HW227258   3.949   2.012   2.738
 8787SOL     OW27259   3.618   0.508   1.372
 8787SOL    HW127260   3.526   0.539   1.395
 8787SOL    HW227261   3.615   0.453   1.289
 8788SOL     OW27262   6.920   0.849   5.154
 8788SOL    HW127263   6.832   0.862   5.200
 8788SOL    HW227264   6.949   0.936   5.113
 8789SOL     OW27265   0.074   4.032   5.310
 8789SOL    HW127266   0.033   4.039   5.401
 8789SOL    HW227267   0.174   4.023   5.320
 8790SOL     OW27268   6.243   2.072   0.131
 8790SOL    HW127269   6.326   2.127   0.133
 8790SOL    HW227270   6.218   2.046   0.224
 8791SOL     OW27271   4.561   5.901   4.918
 8791SOL    HW127272   4.648   5.892   4.869
 8791SOL    HW227273   4.486   5.903   4.852
 8792SOL     OW27274   3.639   5.588   2.450
 8792SOL    HW127275   3.584   5.643   2.388
 8792SOL    HW227276   3.626   5.491   2.430
 8793SOL     OW27277   0.970   4.963   4.616
 8793SOL    HW127278   0.951   5.020   4.535
 8793SOL    HW227279   0.896   4.973   4.682
 8794SOL     OW27280   6.021   1.180   3.433
 8794SOL    HW127281   6.078   1.118   3.487
 8794SOL    HW227282   5.928   1.180   3.470
 8795SOL     OW27283   1.146   5.186   5.249
 8795SOL    HW127284   1.096   5.191   5.335
 8795SOL    HW227285   1.174   5.278   5.221
 8796SOL     OW27286   6.161   3.722   3.096
 8796SOL    HW127287   6.255   3.708   3.066
 8796SOL    HW227288   6.140   3.820   3.099
 8797SOL     OW27289   0.379   0.187   4.054
 8797SOL    HW127290   0.328   0.187   4.140
 8797SOL    HW227291   0.457   0.249   4.061
 8798SOL     OW27292   4.515   6.625   5.420
 8798SOL    HW127293   4.602   6.625   5.469
 8798SOL    HW227294   4.440   6.622   5.486
 8799SOL     OW27295   1.967   4.871   2.397
 8799SOL    HW127296   2.053   4.907   2.362
 8799SOL    HW227297   1.911   4.838   2.320
 8800SOL     OW27298   6.395   6.140   5.361
 8800SOL    HW127299   6.384   6.110   5.456
 8800SOL    HW227300   6.493   6.152   5.341
 8801SOL     OW27301   5.966   1.975   5.424
 8801SOL    HW127302   6.028   1.905   5.389
 8801SOL    HW227303   5.895   1.994   5.357
 8802SOL     OW27304   1.268   5.979   5.441
 8802SOL    HW127305   1.230   5.937   5.359
 8802SOL    HW227306   1.347   6.035   5.416
 8803SOL     OW27307   6.578   0.846   0.243
 8803SOL    HW127308   6.581   0.946   0.248
 8803SOL    HW227309   6.508   0.811   0.306
 8804SOL     OW27310   1.845   5.922   1.472
 8804SOL    HW127311   1.858   5.848   1.405
 8804SOL    HW227312   1.932   5.969   1.485
 8805SOL     OW27313   4.184   5.480   3.709
 8805SOL    HW127314   4.114   5.423   3.752
 8805SOL    HW227315   4.249   5.510   3.779
 8806SOL     OW27316   2.343   6.053   0.384
 8806SOL    HW127317   2.261   6.020   0.337
 8806SOL    HW227318   2.325   6.145   0.420
 8807SOL     OW27319   4.744   2.074   0.033
 8807SOL    HW127320   4.677   2.070   6.984
 8807SOL    HW227321   4.765   2.169   0.054
 8808SOL     OW27322   1.368   2.512   0.690
 8808SOL    HW127323   1.451   2.567   0.679
 8808SOL    HW227324   1.391   2.423   0.728
 8809SOL     OW27325   2.142   4.062   3.477
 8809SOL    HW127326   2.186   4.137   3.427
 8809SOL    HW227327   2.156   4.075   3.575
 8810SOL     OW27328   5.994   1.267   5.209
 8810SOL    HW127329   6.087   1.300   5.225
 8810SOL    HW227330   5.952   1.319   5.135
 8811SOL     OW27331   4.772   0.141   2.450
 8811SOL    HW127332   4.716   0.222   2.436
 8811SOL    HW227333   4.841   0.135   2.377
 8812SOL     OW27334   3.242   0.387   6.754
 8812SOL    HW127335   3.219   0.404   6.658
 8812SOL    HW227336   3.175   0.326   6.794
 8813SOL     OW27337   2.055   4.342   2.579
 8813SOL    HW127338   1.984   4.406   2.550
 8813SOL    HW227339   2.142   4.391   2.585
 8814SOL     OW27340   5.765   7.011   0.723
 8814SOL    HW127341   5.701   0.036   0.664
 8814SOL    HW227342   5.731   6.918   0.737
 8815SOL     OW27343   5.778   0.912   0.782
 8815SOL    HW127344   5.814   0.825   0.750
 8815SOL    HW227345   5.820   0.987   0.730
 8816SOL     OW27346   7.021   6.327   6.614
 8816SOL    HW127347   7.023   6.253   6.547
 8816SOL    HW227348   6.956   6.305   6.687
 8817SOL     OW27349   0.804   3.512   4.366
 8817SOL    HW127350   0.830   3.518   4.270
 8817SOL    HW227351   0.713   3.551   4.379
 8818SOL     OW27352   1.703   6.823   3.303
 8818SOL    HW127353   1.731   6.837   3.398
 8818SOL    HW227354   1.615   6.867   3.287
 8819SOL     OW27355   5.637   4.296   5.336
 8819SOL    HW127356   5.610   4.335   5.424
 8819SOL    HW227357   5.648   4.197   5.347
 8820SOL     OW27358   3.392   0.871   4.519
 8820SOL    HW127359   3.375   0.902   4.613
 8820SOL    HW227360   3.347   0.933   4.455
 8821SOL     OW27361   0.885   5.036   0.304
 8821SOL    HW127362   0.923   5.096   0.233
 8821SOL    HW227363   0.831   4.964   0.261
 8822SOL     OW27364   6.838   0.075   3.509
 8822SOL    HW127365   6.775   0.085   3.586
 8822SOL    HW227366   6.869   0.165   3.479
 8823SOL     OW27367   2.746   0.559   2.826
 8823SOL    HW127368   2.714   0.493   2.758
 8823SOL    HW227369   2.846   0.560   2.827
 8824SOL     OW27370   1.526   0.246   1.768
 8824SOL    HW127371   1.625   0.236   1.760
 8824SOL    HW227372   1.484   0.238   1.678
 8825SOL     OW27373   0.493   0.717   1.712
 8825SOL    HW127374   0.430   0.744   1.640
 8825SOL    HW227375   0.461   0.633   1.756
 8826SOL     OW27376   1.040   3.386   0.772
 8826SOL    HW127377   1.132   3.346   0.777
 8826SOL    HW227378   0.991   3.346   0.695
 8827SOL     OW27379   4.000   0.710   2.372
 8827SOL    HW127380   3.966   0.734   2.462
 8827SOL    HW227381   4.074   0.643   2.381
 8828SOL     OW27382   3.935   4.491   6.362
 8828SOL    HW127383   3.924   4.519   6.457
 8828SOL    HW227384   3.917   4.393   6.353
 8829SOL     OW27385   6.181   1.862   1.997
 8829SOL    HW127386   6.152   1.946   2.043
 8829SOL    HW227387   6.164   1.869   1.899
 8830SOL     OW27388   2.288   1.485   1.811
 8830SOL    HW127389   2.297   1.517   1.717
 8830SOL    HW227390   2.378   1.456   1.844
 8831SOL     OW27391   0.000   2.800   2.192
 8831SOL    HW127392   6.951   2.812   2.258
 8831SOL    HW227393   0.077   2.753   2.237
 8832SOL     OW27394   6.891   6.420   4.333
 8832SOL    HW127395   6.956   6.435   4.258
 8832SOL    HW227396   6.914   6.335   4.380
 8833SOL     OW27397   3.717   3.343   1.136
 8833SOL    HW127398   3.651   3.360   1.209
 8833SOL    HW227399   3.762   3.255   1.151
 8834SOL     OW27400   6.066   3.546   4.886
 8834SOL    HW127401   6.103   3.453   4.875
 8834SOL    HW227402   5.967   3.543   4.876
 8835SOL     OW27403   5.961   1.077   5.836
 8835SOL    HW127404   6.043   1.134   5.828
 8835SOL    HW227405   5.983   0.994   5.888
 8836SOL     OW27406   6.055   2.712   0.148
 8836SOL    HW127407   6.028   2.616   0.149
 8836SOL    HW227408   6.124   2.727   0.077
 8837SOL     OW27409   0.266   6.761   1.796
 8837SOL    HW127410   0.187   6.785   1.740
 8837SOL    HW227411   0.276   6.662   1.799
 8838SOL     OW27412   1.042   4.077   2.544
 8838SOL    HW127413   0.955   4.056   2.499
 8838SOL    HW227414   1.050   4.176   2.558
 8839SOL     OW27415   4.927   5.488   2.515
 8839SOL    HW127416   4.966   5.498   2.606
 8839SOL    HW227417   4.848   5.549   2.505
 8840SOL     OW27418   6.116   0.458   2.113
 8840SOL    HW127419   6.020   0.485   2.121
 8840SOL    HW227420   6.172   0.517   2.171
 8841SOL     OW27421   4.270   0.964   2.189
 8841SOL    HW127422   4.186   0.927   2.151
 8841SOL    HW227423   4.278   0.938   2.285
 8842SOL     OW27424   3.091   3.885   4.076
 8842SOL    HW127425   3.108   3.879   4.175
 8842SOL    HW227426   2.995   3.864   4.057
 8843SOL     OW27427   1.980   3.299   4.959
 8843SOL    HW127428   2.041   3.364   4.912
 8843SOL    HW227429   2.025   3.210   4.965
 8844SOL     OW27430   6.607   2.299   5.737
 8844SOL    HW127431   6.648   2.241   5.807
 8844SOL    HW227432   6.601   2.249   5.651
 8845SOL     OW27433   2.150   5.219   1.004
 8845SOL    HW127434   2.202   5.158   0.944
 8845SOL    HW227435   2.214   5.270   1.062
 8846SOL     OW27436   5.762   4.567   4.264
 8846SOL    HW127437   5.753   4.646   4.203
 8846SOL    HW227438   5.761   4.598   4.359
 8847SOL     OW27439   1.619   1.191   2.430
 8847SOL    HW127440   1.625   1.261   2.360
 8847SOL    HW227441   1.702   1.135   2.428
 8848SOL     OW27442   3.069   1.791   1.934
 8848SOL    HW127443   3.147   1.817   1.991
 8848SOL    HW227444   2.985   1.825   1.975
 8849SOL     OW27445   2.598   5.307   3.878
 8849SOL    HW127446   2.597   5.256   3.964
 8849SOL    HW227447   2.521   5.278   3.821
 8850SOL     OW27448   2.719   1.379   0.638
 8850SOL    HW127449   2.679   1.437   0.568
 8850SOL    HW227450   2.819   1.386   0.634
 8851SOL     OW27451   0.888   4.569   2.788
 8851SOL    HW127452   0.804   4.605   2.827
 8851SOL    HW227453   0.875   4.550   2.691
 8852SOL     OW27454   5.165   3.185   6.415
 8852SOL    HW127455   5.114   3.238   6.347
 8852SOL    HW227456   5.133   3.209   6.507
 8853SOL     OW27457   3.254   0.890   5.083
 8853SOL    HW127458   3.285   0.796   5.098
 8853SOL    HW227459   3.312   0.953   5.135
 8854SOL     OW27460   2.161   0.242   5.872
 8854SOL    HW127461   2.163   0.143   5.865
 8854SOL    HW227462   2.189   0.270   5.964
 8855SOL     OW27463   6.087   5.644   6.797
 8855SOL    HW127464   6.071   5.701   6.716
 8855SOL    HW227465   6.171   5.592   6.785
 8856SOL     OW27466   6.781   0.355   4.756
 8856SOL    HW127467   6.710   0.359   4.826
 8856SOL    HW227468   6.804   0.259   4.737
 8857SOL     OW27469   6.176   1.847   3.190
 8857SOL    HW127470   6.224   1.934   3.188
 8857SOL    HW227471   6.126   1.838   3.276
 8858SOL     OW27472   1.446   3.518   6.020
 8858SOL    HW127473   1.383   3.596   6.028
 8858SOL    HW227474   1.539   3.552   6.009
 8859SOL     OW27475   0.917   0.109   5.115
 8859SOL    HW127476   0.952   0.061   5.035
 8859SOL    HW227477   0.921   0.207   5.100
 8860SOL     OW27478   1.354   3.662   2.357
 8860SOL    HW127479   1.317   3.629   2.445
 8860SOL    HW227480   1.454   3.660   2.360
 8861SOL     OW27481   3.447   2.880   6.175
 8861SOL    HW127482   3.404   2.964   6.210
 8861SOL    HW227483   3.413   2.861   6.083
 8862SOL     OW27484   5.997   1.530   4.251
 8862SOL    HW127485   5.913   1.572   4.219
 8862SOL    HW227486   6.048   1.494   4.173
 8863SOL     OW27487   2.157   5.922   4.524
 8863SOL    HW127488   2.252   5.954   4.525
 8863SOL    HW227489   2.105   5.972   4.594
 8864SOL     OW27490   2.251   3.232   6.428
 8864SOL    HW127491   2.340   3.205   6.462
 8864SOL    HW227492   2.200   3.278   6.501
 8865SOL     OW27493   2.884   0.781   4.585
 8865SOL    HW127494   2.849   0.788   4.678
 8865SOL    HW227495   2.807   0.765   4.522
 8866SOL     OW27496   4.441   6.560   3.135
 8866SOL    HW127497   4.459   6.559   3.234
 8866SOL    HW227498   4.513   6.611   3.089
 8867SOL     OW27499   5.676   2.560   2.716
 8867SOL    HW127500   5.772   2.587   2.721
 8867SOL    HW227501   5.619   2.632   2.756
 8868SOL     OW27502   5.153   3.604   0.405
 8868SOL    HW127503   5.098   3.610   0.488
 8868SOL    HW227504   5.239   3.652   0.418
 8869SOL     OW27505   4.499   4.645   3.239
 8869SOL    HW127506   4.599   4.647   3.232
 8869SOL    HW227507   4.472   4.577   3.307
 8870SOL     OW27508   3.407   0.435   0.879
 8870SOL    HW127509   3.374   0.345   0.851
 8870SOL    HW227510   3.499   0.450   0.841
 8871SOL     OW27511   2.957   1.616   3.583
 8871SOL    HW127512   2.952   1.586   3.678
 8871SOL    HW227513   3.000   1.545   3.528
 8872SOL     OW27514   1.592   4.063   4.249
 8872SOL    HW127515   1.566   4.035   4.341
 8872SOL    HW227516   1.517   4.044   4.186
 8873SOL     OW27517   6.369   5.941   2.292
 8873SOL    HW127518   6.458   5.895   2.286
 8873SOL    HW227519   6.383   6.038   2.313
 8874SOL     OW27520   2.139   7.001   1.364
 8874SOL    HW127521   2.154   6.975   1.459
 8874SOL    HW227522   2.058   0.034   1.358
 8875SOL     OW27523   1.207   2.715   4.570
 8875SOL    HW127524   1.182   2.686   4.662
 8875SOL    HW227525   1.197   2.815   4.563
 8876SOL     OW27526   7.011   0.064   4.725
 8876SOL    HW127527   0.052   7.024   4.687
 8876SOL    HW227528   0.034   0.129   4.785
 8877SOL     OW27529   2.720   0.640   4.399
 8877SOL    HW127530   2.742   0.556   4.349
 8877SOL    HW227531   2.696   0.617   4.493
 8878SOL     OW27532   0.328   4.964   1.036
 8878SOL    HW127533   0.246   5.019   1.052
 8878SOL    HW227534   0.395   5.017   0.985
 8879SOL     OW27535   5.176   5.075   1.096
 8879SOL    HW127536   5.225   5.146   1.146
 8879SOL    HW227537   5.179   4.989   1.147
 8880SOL     OW27538   0.594   5.565   4.881
 8880SOL    HW127539   0.529   5.490   4.894
 8880SOL    HW227540   0.576   5.636   4.949
 8881SOL     OW27541   5.747   0.423   3.325
 8881SOL    HW127542   5.796   0.437   3.239
 8881SOL    HW227543   5.809   0.386   3.393
 8882SOL     OW27544   5.180   0.907   0.164
 8882SOL    HW127545   5.167   0.960   0.248
 8882SOL    HW227546   5.249   0.950   0.107
 8883SOL     OW27547   0.561   1.143   6.307
 8883SOL    HW127548   0.644   1.115   6.258
 8883SOL    HW227549   0.501   1.192   6.244
 8884SOL     OW27550   5.506   6.519   6.446
 8884SOL    HW127551   5.532   6.455   6.519
 8884SOL    HW227552   5.500   6.471   6.359
 8885SOL     OW27553   6.276   3.481   1.213
 8885SOL    HW127554   6.341   3.556   1.226
 8885SOL    HW227555   6.191   3.502   1.262
 8886SOL     OW27556   3.024   5.892   5.269
 8886SOL    HW127557   3.080   5.894   5.352
 8886SOL    HW227558   2.944   5.950   5.281
 8887SOL     OW27559   3.126   0.981   0.621
 8887SOL    HW127560   3.191   1.031   0.564
 8887SOL    HW227561   3.165   0.893   0.647
 8888SOL     OW27562   1.393   2.060   0.882
 8888SOL    HW127563   1.326   2.072   0.955
 8888SOL    HW227564   1.354   2.002   0.810
 8889SOL     OW27565   4.940   6.364   5.630
 8889SOL    HW127566   4.966   6.300   5.702
 8889SOL    HW227567   5.007   6.438   5.626
 8890SOL     OW27568   6.553   6.011   4.847
 8890SOL    HW127569   6.535   6.019   4.749
 8890SOL    HW227570   6.648   6.035   4.865
 8891SOL     OW27571   5.989   2.998   5.830
 8891SOL    HW127572   5.891   3.015   5.826
 8891SOL    HW227573   6.035   3.075   5.874
 8892SOL     OW27574   2.897   6.605   3.681
 8892SOL    HW127575   2.966   6.609   3.609
 8892SOL    HW227576   2.806   6.600   3.639
 8893SOL     OW27577   0.437   0.758   2.232
 8893SOL    HW127578   0.477   0.845   2.258
 8893SOL    HW227579   0.504   0.685   2.242
 8894SOL     OW27580   4.353   3.087   6.210
 8894SOL    HW127581   4.404   3.157   6.260
 8894SOL    HW227582   4.417   3.017   6.177
 8895SOL     OW27583   0.239   0.751   2.019
 8895SOL    HW127584   0.276   0.759   2.111
 8895SOL    HW227585   0.268   0.664   1.979
 8896SOL     OW27586   1.004   3.443   4.826
 8896SOL    HW127587   1.031   3.347   4.834
 8896SOL    HW227588   1.082   3.502   4.848
 8897SOL     OW27589   1.711   1.499   2.013
 8897SOL    HW127590   1.684   1.480   2.107
 8897SOL    HW227591   1.756   1.588   2.008
 8898SOL     OW27592   6.525   3.310   4.609
 8898SOL    HW127593   6.446   3.352   4.564
 8898SOL    HW227594   6.499   3.280   4.701
 8899SOL     OW27595   1.826   4.140   6.698
 8899SOL    HW127596   1.836   4.240   6.696
 8899SOL    HW227597   1.754   4.116   6.764
 8900SOL     OW27598   5.597   3.411   3.019
 8900SOL    HW127599   5.683   3.406   2.968
 8900SOL    HW227600   5.556   3.320   3.023
 8901SOL     OW27601   2.277   0.610   3.810
 8901SOL    HW127602   2.301   0.677   3.881
 8901SOL    HW227603   2.217   0.653   3.743
 8902SOL     OW27604   3.023   5.780   6.216
 8902SOL    HW127605   3.059   5.834   6.292
 8902SOL    HW227606   2.923   5.775   6.223
 8903SOL     OW27607   2.375   1.552   4.007
 8903SOL    HW127608   2.336   1.591   4.090
 8903SOL    HW227609   2.468   1.587   3.995
 8904SOL     OW27610   6.602   4.866   3.670
 8904SOL    HW127611   6.623   4.912   3.756
 8904SOL    HW227612   6.513   4.896   3.636
 8905SOL     OW27613   1.651   4.369   4.700
 8905SOL    HW127614   1.575   4.313   4.667
 8905SOL    HW227615   1.675   4.437   4.630
 8906SOL     OW27616   6.755   0.219   6.710
 8906SOL    HW127617   6.763   0.255   6.617
 8906SOL    HW227618   6.660   0.224   6.740
 8907SOL     OW27619   3.379   2.183   5.213
 8907SOL    HW127620   3.325   2.099   5.218
 8907SOL    HW227621   3.320   2.259   5.186
 8908SOL     OW27622   1.597   2.883   0.479
 8908SOL    HW127623   1.592   2.982   0.462
 8908SOL    HW227624   1.508   2.842   0.459
 8909SOL     OW27625   2.059   0.776   5.429
 8909SOL    HW127626   2.089   0.832   5.507
 8909SOL    HW227627   2.018   0.691   5.463
 8910SOL     OW27628   2.037   3.051   5.924
 8910SOL    HW127629   2.047   3.010   6.014
 8910SOL    HW227630   2.114   3.112   5.905
 8911SOL     OW27631   3.533   2.104   4.640
 8911SOL    HW127632   3.478   2.103   4.723
 8911SOL    HW227633   3.630   2.114   4.663
 8912SOL     OW27634   4.064   1.169   6.767
 8912SOL    HW127635   4.155   1.172   6.728
 8912SOL    HW227636   4.060   1.228   6.848
 8913SOL     OW27637   5.092   4.681   1.541
 8913SOL    HW127638   5.180   4.723   1.562
 8913SOL    HW227639   5.105   4.606   1.477
 8914SOL     OW27640   4.729   1.112   5.827
 8914SOL    HW127641   4.652   1.168   5.856
 8914SOL    HW227642   4.717   1.084   5.732
 8915SOL     OW27643   1.494   2.347   3.988
 8915SOL    HW127644   1.413   2.322   4.041
 8915SOL    HW227645   1.483   2.439   3.952
 8916SOL     OW27646   0.247   3.447   1.734
 8916SOL    HW127647   0.210   3.520   1.791
 8916SOL    HW227648   0.246   3.361   1.785
 8917SOL     OW27649   5.848   4.910   6.108
 8917SOL    HW127650   5.931   4.877   6.153
 8917SOL    HW227651   5.849   5.010   6.104
 8918SOL     OW27652   6.588   6.164   0.215
 8918SOL    HW127653   6.607   6.259   0.191
 8918SOL    HW227654   6.665   6.107   0.186
 8919SOL     OW27655   4.286   3.468   0.354
 8919SOL    HW127656   4.228   3.394   0.385
 8919SOL    HW227657   4.235   3.554   0.357
 8920SOL     OW27658   6.745   6.185   6.630
 8920SOL    HW127659   6.658   6.217   6.593
 8920SOL    HW227660   6.810   6.170   6.555
 8921SOL     OW27661   1.643   1.803   2.894
 8921SOL    HW127662   1.735   1.797   2.855
 8921SOL    HW227663   1.577   1.767   2.828
 8922SOL     OW27664   2.339   5.161   0.805
 8922SOL    HW127665   2.323   5.122   0.715
 8922SOL    HW227666   2.400   5.101   0.857
 8923SOL     OW27667   2.319   3.759   6.306
 8923SOL    HW127668   2.271   3.835   6.352
 8923SOL    HW227669   2.284   3.749   6.213
 8924SOL     OW27670   2.962   5.659   5.638
 8924SOL    HW127671   2.865   5.648   5.619
 8924SOL    HW227672   2.975   5.720   5.716
 8925SOL     OW27673   1.002   0.930   2.215
 8925SOL    HW127674   0.952   0.888   2.139
 8925SOL    HW227675   0.974   1.026   2.223
 8926SOL     OW27676   5.668   2.613   0.779
 8926SOL    HW127677   5.680   2.710   0.798
 8926SOL    HW227678   5.695   2.559   0.859
 8927SOL     OW27679   2.532   2.098   4.869
 8927SOL    HW127680   2.561   2.189   4.898
 8927SOL    HW227681   2.450   2.105   4.812
 8928SOL     OW27682   7.023   1.079   5.076
 8928SOL    HW127683   0.071   1.011   5.063
 8928SOL    HW227684   0.026   1.166   5.034
 8929SOL     OW27685   0.280   3.528   3.880
 8929SOL    HW127686   0.287   3.560   3.975
 8929SOL    HW227687   0.188   3.548   3.846
 8930SOL     OW27688   1.896   4.925   4.816
 8930SOL    HW127689   1.965   4.908   4.747
 8930SOL    HW227690   1.937   4.975   4.893
 8931SOL     OW27691   4.108   2.724   0.757
 8931SOL    HW127692   4.129   2.627   0.773
 8931SOL    HW227693   4.089   2.738   0.659
 8932SOL     OW27694   5.392   0.001   6.462
 8932SOL    HW127695   5.440   6.972   6.531
 8932SOL    HW227696   5.336   6.966   6.405
 8933SOL     OW27697   0.769   1.952   5.493
 8933SOL    HW127698   0.770   1.925   5.590
 8933SOL    HW227699   0.862   1.973   5.464
 8934SOL     OW27700   2.764   5.390   3.356
 8934SOL    HW127701   2.677   5.408   3.403
 8934SOL    HW227702   2.778   5.460   3.286
 8935SOL     OW27703   4.937   3.456   2.260
 8935SOL    HW127704   4.875   3.388   2.299
 8935SOL    HW227705   4.963   3.429   2.168
 8936SOL     OW27706   0.404   3.492   0.776
 8936SOL    HW127707   0.465   3.441   0.716
 8936SOL    HW227708   0.457   3.555   0.832
 8937SOL     OW27709   0.543   0.906   3.953
 8937SOL    HW127710   0.547   0.882   3.857
 8937SOL    HW227711   0.601   0.986   3.970
 8938SOL     OW27712   6.248   1.268   0.507
 8938SOL    HW127713   6.235   1.283   0.409
 8938SOL    HW227714   6.161   1.284   0.555
 8939SOL     OW27715   6.551   2.907   4.763
 8939SOL    HW127716   6.515   2.955   4.683
 8939SOL    HW227717   6.512   2.946   4.846
 8940SOL     OW27718   6.235   2.747   6.957
 8940SOL    HW127719   6.233   2.681   6.882
 8940SOL    HW227720   6.184   2.829   6.932
 8941SOL     OW27721   5.067   2.118   1.844
 8941SOL    HW127722   5.012   2.051   1.893
 8941SOL    HW227723   5.026   2.209   1.853
 8942SOL     OW27724   0.307   4.925   3.964
 8942SOL    HW127725   0.248   4.844   3.972
 8942SOL    HW227726   0.251   5.007   3.963
 8943SOL     OW27727   4.378   4.453   0.216
 8943SOL    HW127728   4.318   4.533   0.210
 8943SOL    HW227729   4.324   4.373   0.244
 8944SOL     OW27730   4.971   4.849   4.112
 8944SOL    HW127731   4.895   4.908   4.083
 8944SOL    HW227732   5.021   4.893   4.187
 8945SOL     OW27733   6.768   3.213   5.063
 8945SOL    HW127734   6.781   3.117   5.087
 8945SOL    HW227735   6.816   3.232   4.978
 8946SOL     OW27736   4.167   0.294   4.829
 8946SOL    HW127737   4.237   0.258   4.889
 8946SOL    HW227738   4.080   0.301   4.878
 8947SOL     OW27739   1.480   4.404   6.716
 8947SOL    HW127740   1.420   4.437   6.644
 8947SOL    HW227741   1.505   4.309   6.698
 8948SOL     OW27742   6.678   6.302   3.932
 8948SOL    HW127743   6.772   6.288   3.903
 8948SOL    HW227744   6.677   6.330   4.028
 8949SOL     OW27745   3.899   5.971   0.140
 8949SOL    HW127746   3.973   6.033   0.165
 8949SOL    HW227747   3.834   5.965   0.216
 8950SOL     OW27748   4.710   3.755   0.976
 8950SOL    HW127749   4.804   3.765   1.008
 8950SOL    HW227750   4.692   3.659   0.954
 8951SOL     OW27751   2.093   0.976   3.922
 8951SOL    HW127752   2.004   0.970   3.968
 8951SOL    HW227753   2.154   0.907   3.960
 8952SOL     OW27754   2.151   4.474   3.803
 8952SOL    HW127755   2.073   4.516   3.849
 8952SOL    HW227756   2.129   4.461   3.706
 8953SOL     OW27757   2.369   5.193   1.647
 8953SOL    HW127758   2.419   5.136   1.713
 8953SOL    HW227759   2.411   5.183   1.557
 8954SOL     OW27760   0.956   5.885   4.104
 8954SOL    HW127761   1.023   5.831   4.052
 8954SOL    HW227762   0.881   5.911   4.043
 8955SOL     OW27763   6.720   2.869   2.646
 8955SOL    HW127764   6.713   2.857   2.547
 8955SOL    HW227765   6.646   2.929   2.677
 8956SOL     OW27766   0.627   0.002   6.712
 8956SOL    HW127767   0.705   6.977   6.749
 8956SOL    HW227768   0.601   0.075   6.776
 8957SOL     OW27769   1.546   5.459   1.801
 8957SOL    HW127770   1.472   5.479   1.737
 8957SOL    HW227771   1.633   5.454   1.751
 8958SOL     OW27772   1.432   3.258   5.007
 8958SOL    HW127773   1.529   3.255   4.982
 8958SOL    HW227774   1.424   3.282   5.104
 8959SOL     OW27775   0.824   3.450   2.069
 8959SOL    HW127776   0.735   3.488   2.092
 8959SOL    HW227777   0.835   3.361   2.113
 8960SOL     OW27778   6.602   4.413   4.049
 8960SOL    HW127779   6.649   4.421   3.962
 8960SOL    HW227780   6.545   4.331   4.049
 8961SOL     OW27781   2.847   0.054   4.056
 8961SOL    HW127782   2.909   0.127   4.028
 8961SOL    HW227783   2.897   6.993   4.062
 8962SOL     OW27784   0.912   5.994   1.533
 8962SOL    HW127785   0.986   5.927   1.520
 8962SOL    HW227786   0.825   5.953   1.507
 8963SOL     OW27787   3.470   5.742   4.461
 8963SOL    HW127788   3.458   5.645   4.481
 8963SOL    HW227789   3.548   5.777   4.512
 8964SOL     OW27790   5.672   3.989   2.921
 8964SOL    HW127791   5.708   3.897   2.907
 8964SOL    HW227792   5.573   3.988   2.905
 8965SOL     OW27793   3.416   4.743   0.356
 8965SOL    HW127794   3.351   4.711   0.287
 8965SOL    HW227795   3.465   4.664   0.395
 8966SOL     OW27796   6.419   5.513   6.087
 8966SOL    HW127797   6.443   5.436   6.147
 8966SOL    HW227798   6.369   5.478   6.007
 8967SOL     OW27799   3.839   0.759   3.949
 8967SOL    HW127800   3.742   0.754   3.970
 8967SOL    HW227801   3.872   0.668   3.923
 8968SOL     OW27802   2.389   4.744   1.765
 8968SOL    HW127803   2.354   4.776   1.854
 8968SOL    HW227804   2.316   4.750   1.697
 8969SOL     OW27805   0.127   6.975   3.388
 8969SOL    HW127806   0.066   6.970   3.467
 8969SOL    HW227807   0.191   0.026   3.400
 8970SOL     OW27808   1.559   2.321   6.144
 8970SOL    HW127809   1.559   2.359   6.052
 8970SOL    HW227810   1.614   2.379   6.204
 8971SOL     OW27811   4.533   6.760   1.225
 8971SOL    HW127812   4.557   6.855   1.244
 8971SOL    HW227813   4.433   6.749   1.230
 8972SOL     OW27814   5.451   4.744   0.274
 8972SOL    HW127815   5.550   4.756   0.267
 8972SOL    HW227816   5.405   4.810   0.214
 8973SOL     OW27817   0.508   2.629   2.273
 8973SOL    HW127818   0.423   2.580   2.252
 8973SOL    HW227819   0.541   2.676   2.191
 8974SOL     OW27820   2.176   3.645   4.235
 8974SOL    HW127821   2.241   3.704   4.284
 8974SOL    HW227822   2.144   3.692   4.153
 8975SOL     OW27823   0.400   6.700   6.468
 8975SOL    HW127824   0.369   6.686   6.562
 8975SOL    HW227825   0.356   6.782   6.431
 8976SOL     OW27826   6.162   6.414   1.168
 8976SOL    HW127827   6.168   6.444   1.263
 8976SOL    HW227828   6.166   6.494   1.108
 8977SOL     OW27829   0.174   5.373   6.138
 8977SOL    HW127830   0.177   5.471   6.122
 8977SOL    HW227831   0.084   5.347   6.173
 8978SOL     OW27832   5.512   6.220   5.203
 8978SOL    HW127833   5.537   6.309   5.165
 8978SOL    HW227834   5.545   6.213   5.297
 8979SOL     OW27835   0.979   5.663   6.124
 8979SOL    HW127836   1.078   5.661   6.113
 8979SOL    HW227837   0.945   5.757   6.114
 8980SOL     OW27838   4.549   2.007   5.796
 8980SOL    HW127839   4.480   2.076   5.818
 8980SOL    HW227840   4.525   1.921   5.841
 8981SOL     OW27841   4.800   2.025   5.704
 8981SOL    HW127842   4.796   2.062   5.611
 8981SOL    HW227843   4.707   2.019   5.741
 8982SOL     OW27844   6.194   1.609   1.675
 8982SOL    HW127845   6.268   1.575   1.617
 8982SOL    HW227846   6.220   1.603   1.771
 8983SOL     OW27847   1.056   5.180   2.188
 8983SOL    HW127848   0.983   5.113   2.202
 8983SOL    HW227849   1.100   5.201   2.275
 8984SOL     OW27850   5.659   0.253   4.366
 8984SOL    HW127851   5.594   0.247   4.290
 8984SOL    HW227852   5.676   0.349   4.387
 8985SOL     OW27853   4.825   1.791   0.794
 8985SOL    HW127854   4.762   1.718   0.822
 8985SOL    HW227855   4.895   1.804   0.865
 8986SOL     OW27856   5.287   4.424   1.709
 8986SOL    HW127857   5.208   4.368   1.681
 8986SOL    HW227858   5.309   4.405   1.804
 8987SOL     OW27859   2.859   0.382   0.996
 8987SOL    HW127860   2.928   0.311   1.007
 8987SOL    HW227861   2.864   0.447   1.072
 8988SOL     OW27862   1.844   5.541   0.979
 8988SOL    HW127863   1.934   5.583   0.971
 8988SOL    HW227864   1.779   5.608   1.014
 8989SOL     OW27865   5.120   3.037   3.081
 8989SOL    HW127866   5.152   3.122   3.038
 8989SOL    HW227867   5.109   2.966   3.011
 8990SOL     OW27868   2.831   6.127   0.470
 8990SOL    HW127869   2.785   6.038   0.474
 8990SOL    HW227870   2.768   6.199   0.497
 8991SOL     OW27871   2.228   2.822   0.895
 8991SOL    HW127872   2.295   2.895   0.882
 8991SOL    HW227873   2.206   2.814   0.992
 8992SOL     OW27874   0.371   3.248   0.507
 8992SOL    HW127875   0.456   3.262   0.559
 8992SOL    HW227876   0.346   3.334   0.461
 8993SOL     OW27877   4.815   1.818   3.866
 8993SOL    HW127878   4.894   1.769   3.827
 8993SOL    HW227879   4.823   1.819   3.965
 8994SOL     OW27880   1.579   5.209   4.589
 8994SOL    HW127881   1.510   5.140   4.612
 8994SOL    HW227882   1.596   5.267   4.669
 8995SOL     OW27883   0.910   2.746   5.146
 8995SOL    HW127884   0.903   2.839   5.180
 8995SOL    HW227885   0.855   2.736   5.064
 8996SOL     OW27886   0.534   3.975   1.062
 8996SOL    HW127887   0.491   3.916   0.994
 8996SOL    HW227888   0.536   3.928   1.150
 8997SOL     OW27889   5.212   1.149   5.824
 8997SOL    HW127890   5.299   1.114   5.858
 8997SOL    HW227891   5.182   1.093   5.747
 8998SOL     OW27892   6.938   2.419   4.967
 8998SOL    HW127893   7.009   2.417   4.898
 8998SOL    HW227894   6.979   2.435   5.057
 8999SOL     OW27895   4.927   1.287   6.319
 8999SOL    HW127896   4.844   1.306   6.267
 8999SOL    HW227897   4.997   1.250   6.257
 9000SOL     OW27898   3.183   3.824   7.015
 9000SOL    HW127899   3.163   3.838   0.087
 9000SOL    HW227900   3.282   3.825   7.001
 9001SOL     OW27901   1.489   4.853   3.311
 9001SOL    HW127902   1.455   4.914   3.383
 9001SOL    HW227903   1.422   4.781   3.294
 9002SOL     OW27904   6.529   5.184   5.626
 9002SOL    HW127905   6.567   5.224   5.710
 9002SOL    HW227906   6.597   5.125   5.583
 9003SOL     OW27907   6.558   2.375   0.217
 9003SOL    HW127908   6.496   2.326   0.157
 9003SOL    HW227909   6.653   2.349   0.195
 9004SOL     OW27910   5.205   6.830   1.407
 9004SOL    HW127911   5.235   6.779   1.488
 9004SOL    HW227912   5.135   6.776   1.359
 9005SOL     OW27913   5.124   1.976   4.095
 9005SOL    HW127914   5.173   2.052   4.053
 9005SOL    HW227915   5.136   1.894   4.039
 9006SOL     OW27916   1.311   5.386   1.155
 9006SOL    HW127917   1.328   5.289   1.174
 9006SOL    HW227918   1.350   5.410   1.066
 9007SOL     OW27919   2.689   5.048   3.698
 9007SOL    HW127920   2.643   4.983   3.759
 9007SOL    HW227921   2.742   5.113   3.751
 9008SOL     OW27922   6.899   4.548   2.535
 9008SOL    HW127923   6.855   4.611   2.471
 9008SOL    HW227924   6.832   4.518   2.604
 9009SOL     OW27925   2.759   6.988   1.050
 9009SOL    HW127926   2.702   0.042   1.074
 9009SOL    HW227927   2.702   6.918   1.006
 9010SOL     OW27928   1.191   6.504   4.620
 9010SOL    HW127929   1.230   6.512   4.712
 9010SOL    HW227930   1.187   6.407   4.594
 9011SOL     OW27931   3.982   2.171   1.355
 9011SOL    HW127932   4.071   2.202   1.388
 9011SOL    HW227933   3.921   2.250   1.342
 9012SOL     OW27934   1.517   5.150   0.882
 9012SOL    HW127935   1.574   5.113   0.956
 9012SOL    HW227936   1.563   5.136   0.794
 9013SOL     OW27937   6.583   6.012   4.260
 9013SOL    HW127938   6.656   5.954   4.224
 9013SOL    HW227939   6.512   5.955   4.301
 9014SOL     OW27940   1.628   1.249   6.860
 9014SOL    HW127941   1.651   1.302   6.779
 9014SOL    HW227942   1.642   1.304   6.942
 9015SOL     OW27943   0.142   1.316   6.638
 9015SOL    HW127944   0.151   1.394   6.701
 9015SOL    HW227945   0.230   1.297   6.596
 9016SOL     OW27946   6.645   6.363   5.893
 9016SOL    HW127947   6.630   6.365   5.794
 9016SOL    HW227948   6.589   6.433   5.937
 9017SOL     OW27949   6.152   1.870   4.207
 9017SOL    HW127950   6.193   1.912   4.288
 9017SOL    HW227951   6.052   1.873   4.215
 9018SOL     OW27952   3.769   1.182   4.763
 9018SOL    HW127953   3.845   1.242   4.735
 9018SOL    HW227954   3.753   1.194   4.861
 9019SOL     OW27955   2.553   6.404   6.812
 9019SOL    HW127956   2.482   6.467   6.781
 9019SOL    HW227957   2.511   6.316   6.836
 9020SOL     OW27958   1.587   4.629   2.281
 9020SOL    HW127959   1.635   4.542   2.270
 9020SOL    HW227960   1.525   4.624   2.359
 9021SOL     OW27961   6.837   6.617   3.895
 9021SOL    HW127962   6.739   6.624   3.879
 9021SOL    HW227963   6.875   6.542   3.840
 9022SOL     OW27964   2.291   6.963   0.427
 9022SOL    HW127965   2.306   0.009   0.358
 9022SOL    HW227966   2.266   7.005   0.514
 9023SOL     OW27967   3.374   3.510   3.725
 9023SOL    HW127968   3.409   3.498   3.818
 9023SOL    HW227969   3.328   3.599   3.718
 9024SOL     OW27970   1.667   5.926   6.004
 9024SOL    HW127971   1.628   5.906   6.094
 9024SOL    HW227972   1.761   5.960   6.016
 9025SOL     OW27973   6.457   5.266   1.205
 9025SOL    HW127974   6.541   5.292   1.252
 9025SOL    HW227975   6.378   5.290   1.262
 9026SOL     OW27976   4.124   3.271   4.332
 9026SOL    HW127977   4.032   3.281   4.294
 9026SOL    HW227978   4.157   3.178   4.316
 9027SOL     OW27979   3.029   2.103   3.154
 9027SOL    HW127980   2.966   2.162   3.104
 9027SOL    HW227981   3.123   2.123   3.126
 9028SOL     OW27982   1.950   4.658   6.251
 9028SOL    HW127983   2.029   4.648   6.311
 9028SOL    HW227984   1.963   4.602   6.169
 9029SOL     OW27985   4.191   4.788   4.873
 9029SOL    HW127986   4.113   4.758   4.818
 9029SOL    HW227987   4.232   4.709   4.918
 9030SOL     OW27988   2.252   0.886   2.536
 9030SOL    HW127989   2.269   0.914   2.631
 9030SOL    HW227990   2.229   0.967   2.482
 9031SOL     OW27991   2.804   5.980   5.412
 9031SOL    HW127992   2.753   5.936   5.486
 9031SOL    HW227993   2.825   6.074   5.438
 9032SOL     OW27994   3.048   2.500   1.326
 9032SOL    HW127995   3.028   2.416   1.377
 9032SOL    HW227996   3.003   2.577   1.369
 9033SOL     OW27997   1.882   3.158   4.504
 9033SOL    HW127998   1.956   3.187   4.565
 9033SOL    HW227999   1.838   3.076   4.541
 9034SOL     OW28000   2.780   6.830   5.234
 9034SOL    HW128001   2.692   6.837   5.281
 9034SOL    HW228002   2.766   6.793   5.143
 9035SOL     OW28003   0.297   6.767   5.140
 9035SOL    HW128004   0.262   6.679   5.106
 9035SOL    HW228005   0.283   6.772   5.239
 9036SOL     OW28006   2.069   2.394   5.094
 9036SOL    HW128007   2.068   2.475   5.035
 9036SOL    HW228008   2.029   2.418   5.183
 9037SOL     OW28009   2.218   4.036   6.408
 9037SOL    HW128010   2.121   4.037   6.432
 9037SOL    HW228011   2.273   4.017   6.489
 9038SOL     OW28012   5.228   1.067   6.327
 9038SOL    HW128013   5.297   1.135   6.304
 9038SOL    HW228014   5.270   0.976   6.330
 9039SOL     OW28015   1.499   4.304   5.367
 9039SOL    HW128016   1.516   4.398   5.336
 9039SOL    HW228017   1.575   4.246   5.338
 9040SOL     OW28018   3.060   0.790   3.120
 9040SOL    HW128019   3.043   0.693   3.107
 9040SOL    HW228020   3.029   0.840   3.039
 9041SOL     OW28021   0.723   2.066   1.939
 9041SOL    HW128022   0.700   2.153   1.983
 9041SOL    HW228023   0.742   1.997   2.008
 9042SOL     OW28024   2.734   6.732   3.404
 9042SOL    HW128025   2.725   6.830   3.423
 9042SOL    HW228026   2.715   6.680   3.488
 9043SOL     OW28027   1.863   2.126   5.843
 9043SOL    HW128028   1.804   2.066   5.789
 9043SOL    HW228029   1.831   2.220   5.834
 9044SOL     OW28030   5.878   0.725   0.591
 9044SOL    HW128031   5.924   0.761   0.510
 9044SOL    HW228032   5.820   0.648   0.566
 9045SOL     OW28033   3.901   0.626   3.182
 9045SOL    HW128034   3.880   0.720   3.158
 9045SOL    HW228035   3.821   0.569   3.167
 9046SOL     OW28036   3.430   4.047   5.456
 9046SOL    HW128037   3.335   4.044   5.488
 9046SOL    HW228038   3.476   4.125   5.498
 9047SOL     OW28039   1.906   4.166   5.040
 9047SOL    HW128040   1.946   4.101   5.105
 9047SOL    HW228041   1.888   4.120   4.953
 9048SOL     OW28042   1.729   3.533   6.004
 9048SOL    HW128043   1.790   3.455   5.992
 9048SOL    HW228044   1.769   3.614   5.961
 9049SOL     OW28045   5.181   6.192   6.280
 9049SOL    HW128046   5.207   6.129   6.353
 9049SOL    HW228047   5.112   6.256   6.313
 9050SOL     OW28048   0.985   5.218   0.109
 9050SOL    HW128049   1.068   5.229   0.055
 9050SOL    HW228050   0.916   5.285   0.078
 9051SOL     OW28051   4.127   6.206   0.826
 9051SOL    HW128052   4.179   6.280   0.869
 9051SOL    HW228053   4.047   6.244   0.780
 9052SOL     OW28054   2.747   4.794   4.625
 9052SOL    HW128055   2.840   4.760   4.613
 9052SOL    HW228056   2.707   4.755   4.708
 9053SOL     OW28057   2.512   2.577   3.969
 9053SOL    HW128058   2.603   2.559   4.006
 9053SOL    HW228059   2.465   2.643   4.027
 9054SOL     OW28060   2.067   0.458   1.926
 9054SOL    HW128061   2.120   0.420   1.850
 9054SOL    HW228062   2.000   0.523   1.891
 9055SOL     OW28063   0.733   3.342   3.713
 9055SOL    HW128064   0.771   3.319   3.803
 9055SOL    HW228065   0.807   3.364   3.650
 9056SOL     OW28066   5.436   0.722   1.681
 9056SOL    HW128067   5.485   0.677   1.756
 9056SOL    HW228068   5.488   0.712   1.596
 9057SOL     OW28069   6.068   4.862   6.738
 9057SOL    HW128070   6.020   4.949   6.747
 9057SOL    HW228071   6.044   4.803   6.815
 9058SOL     OW28072   1.707   1.906   4.614
 9058SOL    HW128073   1.691   1.959   4.697
 9058SOL    HW228074   1.679   1.958   4.534
 9059SOL     OW28075   6.089   0.849   3.328
 9059SOL    HW128076   6.092   0.791   3.247
 9059SOL    HW228077   6.100   0.945   3.301
 9060SOL     OW28078   6.550   3.581   1.961
 9060SOL    HW128079   6.633   3.631   1.989
 9060SOL    HW228080   6.470   3.639   1.974
 9061SOL     OW28081   4.696   5.348   3.214
 9061SOL    HW128082   4.742   5.423   3.262
 9061SOL    HW228083   4.621   5.313   3.271
 9062SOL     OW28084   1.124   4.781   2.015
 9062SOL    HW128085   1.204   4.748   2.065
 9062SOL    HW228086   1.153   4.832   1.934
 9063SOL     OW28087   2.852   1.539   2.656
 9063SOL    HW128088   2.800   1.460   2.623
 9063SOL    HW228089   2.913   1.510   2.730
 9064SOL     OW28090   6.709   4.243   4.252
 9064SOL    HW128091   6.801   4.283   4.252
 9064SOL    HW228092   6.671   4.246   4.160
 9065SOL     OW28093   2.563   6.032   5.286
 9065SOL    HW128094   2.503   6.008   5.363
 9065SOL    HW228095   2.657   6.005   5.307
 9066SOL     OW28096   6.358   6.995   6.095
 9066SOL    HW128097   6.281   6.933   6.081
 9066SOL    HW228098   6.444   6.946   6.082
 9067SOL     OW28099   6.622   6.105   4.581
 9067SOL    HW128100   6.704   6.078   4.531
 9067SOL    HW228101   6.640   6.189   4.633
 9068SOL     OW28102   3.920   0.166   4.738
 9068SOL    HW128103   3.885   0.241   4.794
 9068SOL    HW228104   4.011   0.189   4.704
 9069SOL     OW28105   5.151   2.436   2.547
 9069SOL    HW128106   5.137   2.338   2.555
 9069SOL    HW228107   5.090   2.484   2.610
 9070SOL     OW28108   1.593   2.111   6.321
 9070SOL    HW128109   1.589   2.185   6.254
 9070SOL    HW228110   1.688   2.083   6.335
 9071SOL     OW28111   5.097   0.730   6.190
 9071SOL    HW128112   5.090   0.768   6.097
 9071SOL    HW228113   5.166   0.782   6.242
 9072SOL     OW28114   4.912   6.924   1.850
 9072SOL    HW128115   4.999   6.943   1.896
 9072SOL    HW228116   4.912   6.967   1.759
 9073SOL     OW28117   4.351   6.807   0.627
 9073SOL    HW128118   4.313   6.892   0.590
 9073SOL    HW228119   4.413   6.829   0.703
 9074SOL     OW28120   1.709   0.894   1.118
 9074SOL    HW128121   1.630   0.848   1.078
 9074SOL    HW228122   1.680   0.979   1.162
 9075SOL     OW28123   6.854   0.711   2.297
 9075SOL    HW128124   6.828   0.753   2.210
 9075SOL    HW228125   6.899   0.624   2.280
 9076SOL     OW28126   4.788   1.447   3.746
 9076SOL    HW128127   4.752   1.486   3.831
 9076SOL    HW228128   4.722   1.381   3.709
 9077SOL     OW28129   4.671   1.392   6.266
 9077SOL    HW128130   4.671   1.491   6.276
 9077SOL    HW228131   4.663   1.349   6.356
 9078SOL     OW28132   5.424   5.273   6.374
 9078SOL    HW128133   5.412   5.372   6.383
 9078SOL    HW228134   5.341   5.234   6.335
 9079SOL     OW28135   1.398   0.376   5.152
 9079SOL    HW128136   1.375   0.287   5.113
 9079SOL    HW228137   1.494   0.396   5.136
 9080SOL     OW28138   6.323   3.019   6.669
 9080SOL    HW128139   6.335   2.943   6.605
 9080SOL    HW228140   6.359   2.992   6.759
 9081SOL     OW28141   3.535   1.683   1.426
 9081SOL    HW128142   3.593   1.757   1.391
 9081SOL    HW228143   3.448   1.683   1.377
 9082SOL     OW28144   2.695   6.569   4.810
 9082SOL    HW128145   2.622   6.596   4.747
 9082SOL    HW228146   2.661   6.570   4.904
 9083SOL     OW28147   4.423   4.655   6.098
 9083SOL    HW128148   4.500   4.626   6.041
 9083SOL    HW228149   4.406   4.753   6.086
 9084SOL     OW28150   0.730   2.066   6.301
 9084SOL    HW128151   0.712   2.109   6.390
 9084SOL    HW228152   0.767   2.133   6.238
 9085SOL     OW28153   2.632   5.811   1.156
 9085SOL    HW128154   2.595   5.813   1.249
 9085SOL    HW228155   2.623   5.902   1.114
 9086SOL     OW28156   6.183   4.091   0.981
 9086SOL    HW128157   6.248   4.048   0.918
 9086SOL    HW228158   6.142   4.021   1.039
 9087SOL     OW28159   5.604   3.148   2.707
 9087SOL    HW128160   5.509   3.118   2.707
 9087SOL    HW228161   5.640   3.144   2.801
 9088SOL     OW28162   5.840   6.810   1.822
 9088SOL    HW128163   5.866   6.748   1.896
 9088SOL    HW228164   5.806   6.896   1.862
 9089SOL     OW28165   4.140   5.605   4.585
 9089SOL    HW128166   4.127   5.589   4.683
 9089SOL    HW228167   4.225   5.561   4.556
 9090SOL     OW28168   5.011   6.550   4.742
 9090SOL    HW128169   5.068   6.582   4.666
 9090SOL    HW228170   4.964   6.466   4.715
 9091SOL     OW28171   2.916   2.679   0.955
 9091SOL    HW128172   2.932   2.586   0.988
 9091SOL    HW228173   2.921   2.744   1.031
 9092SOL     OW28174   1.542   0.973   6.078
 9092SOL    HW128175   1.515   0.882   6.050
 9092SOL    HW228176   1.475   1.040   6.045
 9093SOL     OW28177   1.740   6.336   0.010
 9093SOL    HW128178   1.725   6.415   6.974
 9093SOL    HW228179   1.655   6.283   0.015
 9094SOL     OW28180   0.718   5.427   2.874
 9094SOL    HW128181   0.639   5.428   2.814
 9094SOL    HW228182   0.790   5.484   2.835
 9095SOL     OW28183   5.380   3.999   6.157
 9095SOL    HW128184   5.413   4.057   6.083
 9095SOL    HW228185   5.318   4.051   6.215
 9096SOL     OW28186   4.907   3.295   2.748
 9096SOL    HW128187   4.881   3.359   2.820
 9096SOL    HW228188   4.921   3.344   2.662
 9097SOL     OW28189   0.214   3.172   0.007
 9097SOL    HW128190   0.126   3.174   0.055
 9097SOL    HW228191   0.220   3.251   6.971
 9098SOL     OW28192   3.601   3.177   0.865
 9098SOL    HW128193   3.661   3.134   0.932
 9098SOL    HW228194   3.564   3.107   0.804
 9099SOL     OW28195   3.255   3.252   0.877
 9099SOL    HW128196   3.255   3.191   0.798
 9099SOL    HW228197   3.346   3.290   0.890
 9100SOL     OW28198   0.646   2.816   2.707
 9100SOL    HW128199   0.710   2.770   2.769
 9100SOL    HW228200   0.643   2.767   2.620
 9101SOL     OW28201   2.273   2.940   2.455
 9101SOL    HW128202   2.323   2.993   2.387
 9101SOL    HW228203   2.210   2.999   2.505
 9102SOL     OW28204   3.578   6.336   1.721
 9102SOL    HW128205   3.560   6.239   1.737
 9102SOL    HW228206   3.602   6.350   1.625
 9103SOL     OW28207   6.764   3.857   0.238
 9103SOL    HW128208   6.851   3.814   0.215
 9103SOL    HW228209   6.743   3.927   0.170
 9104SOL     OW28210   3.911   6.124   2.219
 9104SOL    HW128211   3.902   6.077   2.131
 9104SOL    HW228212   3.922   6.222   2.203
 9105SOL     OW28213   1.377   0.696   0.457
 9105SOL    HW128214   1.400   0.709   0.360
 9105SOL    HW228215   1.308   0.763   0.484
 9106SOL     OW28216   5.625   3.997   6.663
 9106SOL    HW128217   5.538   4.003   6.712
 9106SOL    HW228218   5.699   4.030   6.722
 9107SOL     OW28219   4.291   0.351   6.478
 9107SOL    HW128220   4.263   0.256   6.467
 9107SOL    HW228221   4.384   0.354   6.515
 9108SOL     OW28222   4.536   4.748   5.568
 9108SOL    HW128223   4.525   4.789   5.477
 9108SOL    HW228224   4.631   4.721   5.581
 9109SOL     OW28225   1.262   2.679   2.788
 9109SOL    HW128226   1.335   2.736   2.826
 9109SOL    HW228227   1.222   2.624   2.861
 9110SOL     OW28228   1.970   4.212   4.307
 9110SOL    HW128229   2.029   4.227   4.228
 9110SOL    HW228230   1.959   4.299   4.357
 9111SOL     OW28231   4.570   3.477   0.307
 9111SOL    HW128232   4.616   3.436   0.228
 9111SOL    HW228233   4.471   3.465   0.298
 9112SOL     OW28234   0.481   4.851   4.647
 9112SOL    HW128235   0.416   4.899   4.588
 9112SOL    HW228236   0.519   4.772   4.598
 9113SOL     OW28237   4.258   6.425   0.922
 9113SOL    HW128238   4.293   6.464   1.007
 9113SOL    HW228239   4.291   6.479   0.844
 9114SOL     OW28240   1.843   4.989   1.585
 9114SOL    HW128241   1.941   5.004   1.577
 9114SOL    HW228242   1.822   4.949   1.674
 9115SOL     OW28243   1.011   5.911   5.769
 9115SOL    HW128244   1.002   5.953   5.679
 9115SOL    HW228245   1.106   5.921   5.801
 9116SOL     OW28246   6.368   2.621   0.700
 9116SOL    HW128247   6.307   2.660   0.631
 9116SOL    HW228248   6.347   2.525   0.713
 9117SOL     OW28249   5.843   2.808   6.829
 9117SOL    HW128250   5.898   2.740   6.780
 9117SOL    HW228251   5.899   2.890   6.844
 9118SOL     OW28252   6.608   5.684   0.743
 9118SOL    HW128253   6.584   5.593   0.777
 9118SOL    HW228254   6.533   5.720   0.688
 9119SOL     OW28255   5.063   1.531   2.679
 9119SOL    HW128256   5.127   1.464   2.642
 9119SOL    HW228257   5.032   1.593   2.607
 9120SOL     OW28258   5.770   3.336   5.690
 9120SOL    HW128259   5.830   3.343   5.770
 9120SOL    HW228260   5.693   3.277   5.711
 9121SOL     OW28261   1.871   2.906   6.818
 9121SOL    HW128262   1.827   2.952   6.740
 9121SOL    HW228263   1.841   2.811   6.822
 9122SOL     OW28264   1.536   3.036   1.966
 9122SOL    HW128265   1.602   3.111   1.955
 9122SOL    HW228266   1.517   2.995   1.877
 9123SOL     OW28267   3.665   0.247   4.526
 9123SOL    HW128268   3.684   0.153   4.498
 9123SOL    HW228269   3.582   0.249   4.582
 9124SOL     OW28270   5.536   7.021   5.665
 9124SOL    HW128271   5.532   7.024   5.565
 9124SOL    HW228272   5.446   6.993   5.701
 9125SOL     OW28273   5.144   3.658   2.169
 9125SOL    HW128274   5.055   3.613   2.170
 9125SOL    HW228275   5.208   3.606   2.113
 9126SOL     OW28276   5.561   2.475   2.312
 9126SOL    HW128277   5.633   2.525   2.265
 9126SOL    HW228278   5.503   2.429   2.245
 9127SOL     OW28279   6.528   1.275   5.957
 9127SOL    HW128280   6.497   1.331   5.880
 9127SOL    HW228281   6.496   1.316   6.043
 9128SOL     OW28282   4.152   1.307   5.137
 9128SOL    HW128283   4.090   1.258   5.076
 9128SOL    HW228284   4.100   1.347   5.213
 9129SOL     OW28285   0.373   3.113   1.391
 9129SOL    HW128286   0.277   3.125   1.363
 9129SOL    HW228287   0.423   3.066   1.319
 9130SOL     OW28288   6.873   3.270   0.817
 9130SOL    HW128289   6.891   3.253   0.720
 9130SOL    HW228290   6.956   3.253   0.870
 9131SOL     OW28291   0.008   2.940   6.219
 9131SOL    HW128292   0.028   2.935   6.316
 9131SOL    HW228293   0.094   2.946   6.167
 9132SOL     OW28294   0.150   5.045   4.545
 9132SOL    HW128295   0.142   4.949   4.570
 9132SOL    HW228296   0.243   5.063   4.512
 9133SOL     OW28297   3.694   6.390   1.481
 9133SOL    HW128298   3.747   6.458   1.532
 9133SOL    HW228299   3.756   6.325   1.438
 9134SOL     OW28300   4.178   5.743   0.223
 9134SOL    HW128301   4.080   5.747   0.238
 9134SOL    HW228302   4.207   5.818   0.164
 9135SOL     OW28303   6.448   6.021   1.884
 9135SOL    HW128304   6.494   6.108   1.903
 9135SOL    HW228305   6.396   5.993   1.964
 9136SOL     OW28306   5.489   5.327   5.740
 9136SOL    HW128307   5.424   5.399   5.715
 9136SOL    HW228308   5.559   5.321   5.669
 9137SOL     OW28309   4.916   2.429   1.269
 9137SOL    HW128310   5.001   2.421   1.217
 9137SOL    HW228311   4.926   2.384   1.358
 9138SOL     OW28312   6.329   5.543   5.699
 9138SOL    HW128313   6.329   5.454   5.745
 9138SOL    HW228314   6.334   5.530   5.600
 9139SOL     OW28315   2.316   1.844   4.535
 9139SOL    HW128316   2.321   1.752   4.497
 9139SOL    HW228317   2.331   1.840   4.634
 9140SOL     OW28318   6.220   2.952   2.706
 9140SOL    HW128319   6.196   2.856   2.692
 9140SOL    HW228320   6.236   2.996   2.617
 9141SOL     OW28321   5.875   0.379   6.644
 9141SOL    HW128322   5.823   0.424   6.571
 9141SOL    HW228323   5.820   0.374   6.726
 9142SOL     OW28324   1.036   2.283   0.963
 9142SOL    HW128325   0.965   2.351   0.950
 9142SOL    HW228326   1.013   2.200   0.911
 9143SOL     OW28327   5.198   2.966   1.063
 9143SOL    HW128328   5.220   3.014   0.978
 9143SOL    HW228329   5.147   2.882   1.042
 9144SOL     OW28330   2.409   5.424   5.662
 9144SOL    HW128331   2.360   5.457   5.743
 9144SOL    HW228332   2.412   5.324   5.663
 9145SOL     OW28333   6.706   5.447   0.103
 9145SOL    HW128334   6.710   5.540   0.138
 9145SOL    HW228335   6.702   5.382   0.179
 9146SOL     OW28336   5.120   2.786   2.951
 9146SOL    HW128337   5.128   2.686   2.953
 9146SOL    HW228338   5.079   2.814   2.864
 9147SOL     OW28339   5.818   0.123   4.036
 9147SOL    HW128340   5.816   0.223   4.041
 9147SOL    HW228341   5.845   0.086   4.125
 9148SOL     OW28342   5.159   6.161   0.652
 9148SOL    HW128343   5.077   6.182   0.705
 9148SOL    HW228344   5.232   6.225   0.677
 9149SOL     OW28345   5.381   3.209   3.478
 9149SOL    HW128346   5.428   3.174   3.559
 9149SOL    HW228347   5.307   3.147   3.452
 9150SOL     OW28348   2.878   5.364   2.704
 9150SOL    HW128349   2.908   5.273   2.733
 9150SOL    HW228350   2.846   5.359   2.609
 9151SOL     OW28351   1.928   4.591   3.942
 9151SOL    HW128352   1.919   4.492   3.953
 9151SOL    HW228353   1.842   4.635   3.967
 9152SOL     OW28354   2.420   4.853   4.950
 9152SOL    HW128355   2.339   4.795   4.959
 9152SOL    HW228356   2.440   4.897   5.037
 9153SOL     OW28357   0.708   3.166   1.129
 9153SOL    HW128358   0.707   3.133   1.223
 9153SOL    HW228359   0.787   3.226   1.115
 9154SOL     OW28360   4.548   5.145   6.313
 9154SOL    HW128361   4.481   5.179   6.379
 9154SOL    HW228362   4.579   5.055   6.341
 9155SOL     OW28363   1.395   3.359   1.729
 9155SOL    HW128364   1.296   3.353   1.742
 9155SOL    HW228365   1.415   3.388   1.636
 9156SOL     OW28366   1.504   2.668   1.013
 9156SOL    HW128367   1.413   2.707   1.003
 9156SOL    HW228368   1.541   2.646   0.922
 9157SOL     OW28369   6.779   4.406   6.116
 9157SOL    HW128370   6.789   4.434   6.212
 9157SOL    HW228371   6.840   4.461   6.059
 9158SOL     OW28372   5.761   3.428   4.546
 9158SOL    HW128373   5.685   3.367   4.572
 9158SOL    HW228374   5.724   3.513   4.509
 9159SOL     OW28375   1.934   7.015   2.375
 9159SOL    HW128376   1.945   6.919   2.350
 9159SOL    HW228377   2.024   0.029   2.398
 9160SOL     OW28378   6.342   0.539   5.066
 9160SOL    HW128379   6.412   0.495   5.011
 9160SOL    HW228380   6.377   0.557   5.158
 9161SOL     OW28381   4.540   4.522   4.849
 9161SOL    HW128382   4.540   4.555   4.754
 9161SOL    HW228383   4.458   4.555   4.895
 9162SOL     OW28384   4.702   0.806   4.766
 9162SOL    HW128385   4.759   0.796   4.685
 9162SOL    HW228386   4.740   0.877   4.825
 9163SOL     OW28387   1.618   2.979   4.376
 9163SOL    HW128388   1.541   2.914   4.373
 9163SOL    HW228389   1.702   2.931   4.352
 9164SOL     OW28390   2.618   1.230   6.318
 9164SOL    HW128391   2.717   1.233   6.300
 9164SOL    HW228392   2.587   1.320   6.349
 9165SOL     OW28393   5.915   2.177   5.625
 9165SOL    HW128394   5.962   2.099   5.585
 9165SOL    HW228395   5.826   2.148   5.660
 9166SOL     OW28396   4.105   5.930   0.866
 9166SOL    HW128397   4.088   6.026   0.844
 9166SOL    HW228398   4.146   5.885   0.788
 9167SOL     OW28399   2.175   2.587   6.820
 9167SOL    HW128400   2.132   2.619   6.735
 9167SOL    HW228401   2.121   2.617   6.898
 9168SOL     OW28402   6.996   0.225   6.523
 9168SOL    HW128403   0.053   0.274   6.493
 9168SOL    HW228404   6.991   0.227   6.623
 9169SOL     OW28405   5.958   1.226   4.519
 9169SOL    HW128406   5.963   1.165   4.598
 9169SOL    HW228407   5.870   1.215   4.473
 9170SOL     OW28408   1.458   5.652   6.862
 9170SOL    HW128409   1.462   5.662   6.763
 9170SOL    HW228410   1.549   5.629   6.897
 9171SOL     OW28411   3.995   5.180   0.968
 9171SOL    HW128412   3.939   5.224   0.898
 9171SOL    HW228413   4.061   5.119   0.925
 9172SOL     OW28414   3.527   1.147   3.911
 9172SOL    HW128415   3.465   1.212   3.867
 9172SOL    HW228416   3.490   1.121   4.000
 9173SOL     OW28417   6.516   3.528   4.930
 9173SOL    HW128418   6.483   3.621   4.915
 9173SOL    HW228419   6.615   3.527   4.935
 9174SOL     OW28420   5.387   3.715   1.696
 9174SOL    HW128421   5.373   3.645   1.627
 9174SOL    HW228422   5.322   3.789   1.682
 9175SOL     OW28423   0.723   0.672   4.857
 9175SOL    HW128424   0.777   0.691   4.775
 9175SOL    HW228425   0.741   0.743   4.925
 9176SOL     OW28426   2.946   1.216   5.503
 9176SOL    HW128427   3.042   1.236   5.520
 9176SOL    HW228428   2.926   1.123   5.534
 9177SOL     OW28429   0.651   4.961   5.103
 9177SOL    HW128430   0.664   4.862   5.104
 9177SOL    HW228431   0.557   4.984   5.129
 9178SOL     OW28432   1.566   5.416   0.191
 9178SOL    HW128433   1.531   5.342   0.133
 9178SOL    HW228434   1.644   5.383   0.244
 9179SOL     OW28435   2.803   5.106   4.609
 9179SOL    HW128436   2.752   5.065   4.684
 9179SOL    HW228437   2.749   5.101   4.525
 9180SOL     OW28438   6.325   2.615   3.028
 9180SOL    HW128439   6.390   2.675   2.981
 9180SOL    HW228440   6.308   2.534   2.972
 9181SOL     OW28441   4.392   1.796   5.357
 9181SOL    HW128442   4.392   1.853   5.275
 9181SOL    HW228443   4.471   1.819   5.414
 9182SOL     OW28444   2.597   6.732   2.071
 9182SOL    HW128445   2.619   6.829   2.067
 9182SOL    HW228446   2.665   6.683   2.126
 9183SOL     OW28447   4.772   5.842   0.631
 9183SOL    HW128448   4.851   5.892   0.666
 9183SOL    HW228449   4.803   5.775   0.563
 9184SOL     OW28450   4.971   1.385   0.845
 9184SOL    HW128451   4.937   1.291   0.836
 9184SOL    HW228452   4.955   1.434   0.759
 9185SOL     OW28453   4.078   6.785   4.294
 9185SOL    HW128454   4.075   6.722   4.372
 9185SOL    HW228455   4.070   6.733   4.209
 9186SOL     OW28456   5.689   5.821   4.234
 9186SOL    HW128457   5.626   5.870   4.173
 9186SOL    HW228458   5.773   5.874   4.243
 9187SOL     OW28459   2.630   1.849   0.758
 9187SOL    HW128460   2.729   1.858   0.742
 9187SOL    HW228461   2.614   1.778   0.826
 9188SOL     OW28462   1.240   6.413   1.362
 9188SOL    HW128463   1.288   6.466   1.292
 9188SOL    HW228464   1.141   6.419   1.346
 9189SOL     OW28465   4.414   5.726   1.566
 9189SOL    HW128466   4.401   5.794   1.494
 9189SOL    HW228467   4.325   5.695   1.600
 9190SOL     OW28468   2.993   4.530   6.301
 9190SOL    HW128469   3.037   4.531   6.212
 9190SOL    HW228470   2.926   4.604   6.306
 9191SOL     OW28471   6.539   2.666   5.978
 9191SOL    HW128472   6.446   2.629   5.973
 9191SOL    HW228473   6.579   2.642   6.066
 9192SOL     OW28474   0.893   3.225   6.228
 9192SOL    HW128475   0.870   3.145   6.173
 9192SOL    HW228476   0.945   3.290   6.172
 9193SOL     OW28477   4.682   4.401   6.721
 9193SOL    HW128478   4.638   4.313   6.705
 9193SOL    HW228479   4.659   4.434   6.812
 9194SOL     OW28480   3.171   0.461   3.501
 9194SOL    HW128481   3.174   0.548   3.452
 9194SOL    HW228482   3.081   0.449   3.544
 9195SOL     OW28483   1.615   1.727   3.831
 9195SOL    HW128484   1.548   1.776   3.886
 9195SOL    HW228485   1.581   1.721   3.736
 9196SOL     OW28486   5.248   0.139   2.435
 9196SOL    HW128487   5.158   0.174   2.409
 9196SOL    HW228488   5.245   0.039   2.439
 9197SOL     OW28489   1.751   5.230   1.510
 9197SOL    HW128490   1.726   5.256   1.416
 9197SOL    HW228491   1.810   5.149   1.507
 9198SOL     OW28492   6.482   5.124   6.880
 9198SOL    HW128493   6.391   5.144   6.845
 9198SOL    HW228494   6.543   5.103   6.804
 9199SOL     OW28495   0.747   4.071   6.107
 9199SOL    HW128496   0.778   4.073   6.202
 9199SOL    HW228497   0.818   4.110   6.048
 9200SOL     OW28498   2.668   6.528   0.003
 9200SOL    HW128499   2.640   6.471   6.951
 9200SOL    HW228500   2.592   6.587   0.030
 9201SOL     OW28501   6.912   2.750   0.363
 9201SOL    HW128502   6.954   2.727   0.275
 9201SOL    HW228503   6.893   2.666   0.414
 9202SOL     OW28504   1.411   6.355   2.360
 9202SOL    HW128505   1.498   6.404   2.364
 9202SOL    HW228506   1.337   6.419   2.341
 9203SOL     OW28507   0.580   4.083   6.671
 9203SOL    HW128508   0.638   4.073   6.751
 9203SOL    HW228509   0.498   4.135   6.694
 9204SOL     OW28510   4.981   2.877   6.017
 9204SOL    HW128511   4.970   2.877   5.918
 9204SOL    HW228512   4.961   2.968   6.054
 9205SOL     OW28513   5.920   4.520   3.641
 9205SOL    HW128514   5.917   4.434   3.589
 9205SOL    HW228515   5.924   4.499   3.739
 9206SOL     OW28516   3.970   5.900   2.740
 9206SOL    HW128517   4.042   5.915   2.671
 9206SOL    HW228518   3.881   5.920   2.700
 9207SOL     OW28519   5.216   3.811   6.016
 9207SOL    HW128520   5.263   3.779   5.933
 9207SOL    HW228521   5.279   3.868   6.069
 9208SOL     OW28522   5.727   4.264   3.707
 9208SOL    HW128523   5.669   4.338   3.742
 9208SOL    HW228524   5.673   4.205   3.647
 9209SOL     OW28525   4.160   0.654   6.962
 9209SOL    HW128526   4.096   0.647   6.886
 9209SOL    HW228527   4.147   0.577   7.025
 9210SOL     OW28528   6.911   0.689   2.564
 9210SOL    HW128529   6.833   0.681   2.627
 9210SOL    HW228530   6.880   0.726   2.477
 9211SOL     OW28531   0.816   2.190   6.067
 9211SOL    HW128532   0.755   2.222   5.994
 9211SOL    HW228533   0.887   2.132   6.027
 9212SOL     OW28534   5.198   5.672   4.303
 9212SOL    HW128535   5.186   5.608   4.227
 9212SOL    HW228536   5.244   5.755   4.270
 9213SOL     OW28537   5.573   3.568   5.300
 9213SOL    HW128538   5.530   3.495   5.247
 9213SOL    HW228539   5.647   3.610   5.246
 9214SOL     OW28540   6.696   3.611   6.591
 9214SOL    HW128541   6.624   3.663   6.637
 9214SOL    HW228542   6.655   3.550   6.523
 9215SOL     OW28543   0.802   2.496   1.275
 9215SOL    HW128544   0.744   2.424   1.236
 9215SOL    HW228545   0.798   2.492   1.375
 9216SOL     OW28546   3.289   0.388   2.138
 9216SOL    HW128547   3.299   0.401   2.040
 9216SOL    HW228548   3.344   0.309   2.167
 9217SOL     OW28549   0.186   2.414   0.274
 9217SOL    HW128550   0.195   2.420   0.374
 9217SOL    HW228551   0.217   2.325   0.243
 9218SOL     OW28552   1.741   7.015   0.065
 9218SOL    HW128553   1.808   6.969   0.122
 9218SOL    HW228554   1.752   0.089   0.073
 9219SOL     OW28555   6.425   3.094   0.956
 9219SOL    HW128556   6.506   3.150   0.976
 9219SOL    HW228557   6.396   3.047   1.039
 9220SOL     OW28558   1.335   6.267   1.611
 9220SOL    HW128559   1.308   6.315   1.527
 9220SOL    HW228560   1.259   6.267   1.676
 9221SOL     OW28561   3.318   0.593   2.839
 9221SOL    HW128562   3.273   0.536   2.907
 9221SOL    HW228563   3.249   0.644   2.787
 9222SOL     OW28564   2.612   6.762   6.306
 9222SOL    HW128565   2.566   6.770   6.218
 9222SOL    HW228566   2.558   6.810   6.376
 9223SOL     OW28567   0.941   1.177   4.072
 9223SOL    HW128568   1.021   1.202   4.018
 9223SOL    HW228569   0.928   1.243   4.145
 9224SOL     OW28570   1.287   4.934   5.063
 9224SOL    HW128571   1.346   4.990   5.122
 9224SOL    HW228572   1.191   4.958   5.081
 9225SOL     OW28573   2.974   6.814   6.076
 9225SOL    HW128574   2.930   6.870   6.146
 9225SOL    HW228575   3.052   6.766   6.116
 9226SOL     OW28576   5.965   6.535   0.892
 9226SOL    HW128577   6.062   6.514   0.885
 9226SOL    HW228578   5.945   6.618   0.841
 9227SOL     OW28579   1.001   5.569   0.370
 9227SOL    HW128580   0.972   5.610   0.456
 9227SOL    HW228581   1.052   5.636   0.316
 9228SOL     OW28582   0.996   2.160   5.440
 9228SOL    HW128583   1.040   2.165   5.529
 9228SOL    HW228584   1.042   2.091   5.383
 9229SOL     OW28585   0.731   5.749   5.032
 9229SOL    HW128586   0.765   5.841   5.014
 9229SOL    HW228587   0.804   5.694   5.073
 9230SOL     OW28588   4.369   1.252   3.393
 9230SOL    HW128589   4.279   1.227   3.358
 9230SOL    HW228590   4.416   1.309   3.326
 9231SOL     OW28591   0.375   4.511   4.556
 9231SOL    HW128592   0.432   4.576   4.506
 9231SOL    HW228593   0.430   4.433   4.584
 9232SOL     OW28594   3.912   5.248   0.372
 9232SOL    HW128595   3.943   5.341   0.390
 9232SOL    HW228596   3.870   5.210   0.454
 9233SOL     OW28597   5.547   5.380   2.072
 9233SOL    HW128598   5.567   5.383   1.974
 9233SOL    HW228599   5.472   5.316   2.089
 9234SOL     OW28600   3.422   5.870   5.748
 9234SOL    HW128601   3.365   5.865   5.829
 9234SOL    HW228602   3.401   5.794   5.687
 9235SOL     OW28603   1.578   2.919   3.337
 9235SOL    HW128604   1.554   2.825   3.314
 9235SOL    HW228605   1.533   2.946   3.422
 9236SOL     OW28606   2.775   4.500   5.735
 9236SOL    HW128607   2.753   4.409   5.698
 9236SOL    HW228608   2.789   4.564   5.659
 9237SOL     OW28609   1.899   5.550   4.511
 9237SOL    HW128610   1.950   5.500   4.441
 9237SOL    HW228611   1.919   5.511   4.601
 9238SOL     OW28612   3.546   1.633   6.954
 9238SOL    HW128613   3.584   1.654   6.864
 9238SOL    HW228614   3.458   1.585   6.943
 9239SOL     OW28615   0.174   4.614   0.503
 9239SOL    HW128616   0.123   4.689   0.546
 9239SOL    HW228617   0.172   4.626   0.403
 9240SOL     OW28618   5.314   1.616   1.408
 9240SOL    HW128619   5.356   1.683   1.470
 9240SOL    HW228620   5.252   1.664   1.345
 9241SOL     OW28621   0.698   5.157   5.546
 9241SOL    HW128622   0.784   5.108   5.559
 9241SOL    HW228623   0.658   5.180   5.635
 9242SOL     OW28624   0.478   5.484   0.495
 9242SOL    HW128625   0.573   5.455   0.505
 9242SOL    HW228626   0.463   5.520   0.403
 9243SOL     OW28627   5.668   6.854   1.402
 9243SOL    HW128628   5.645   6.759   1.377
 9243SOL    HW228629   5.748   6.854   1.462
 9244SOL     OW28630   4.169   5.832   6.336
 9244SOL    HW128631   4.173   5.907   6.270
 9244SOL    HW228632   4.211   5.751   6.296
 9245SOL     OW28633   1.180   4.911   3.287
 9245SOL    HW128634   1.105   4.850   3.312
 9245SOL    HW228635   1.237   4.929   3.367
 9246SOL     OW28636   0.388   5.203   2.610
 9246SOL    HW128637   0.334   5.263   2.551
 9246SOL    HW228638   0.410   5.119   2.561
 9247SOL     OW28639   1.336   6.510   2.836
 9247SOL    HW128640   1.315   6.605   2.812
 9247SOL    HW228641   1.300   6.449   2.766
 9248SOL     OW28642   1.712   2.338   4.956
 9248SOL    HW128643   1.709   2.438   4.947
 9248SOL    HW228644   1.660   2.311   5.036
 9249SOL     OW28645   4.603   4.001   0.070
 9249SOL    HW128646   4.669   3.969   0.002
 9249SOL    HW228647   4.567   3.922   0.120
 9250SOL     OW28648   5.602   2.924   4.313
 9250SOL    HW128649   5.673   2.853   4.316
 9250SOL    HW228650   5.643   3.013   4.333
 9251SOL     OW28651   4.148   2.222   3.096
 9251SOL    HW128652   4.187   2.211   3.187
 9251SOL    HW228653   4.158   2.137   3.045
 9252SOL     OW28654   5.833   0.531   4.610
 9252SOL    HW128655   5.744   0.552   4.569
 9252SOL    HW228656   5.876   0.456   4.559
 9253SOL     OW28657   5.722   6.244   5.558
 9253SOL    HW128658   5.627   6.241   5.528
 9253SOL    HW228659   5.762   6.332   5.531
 9254SOL     OW28660   6.477   4.342   2.915
 9254SOL    HW128661   6.525   4.299   2.838
 9254SOL    HW228662   6.379   4.328   2.904
 9255SOL     OW28663   4.950   3.743   0.139
 9255SOL    HW128664   4.889   3.794   0.199
 9255SOL    HW228665   4.985   3.663   0.187
 9256SOL     OW28666   4.267   6.798   2.507
 9256SOL    HW128667   4.354   6.846   2.501
 9256SOL    HW228668   4.274   6.724   2.574
 9257SOL     OW28669   1.016   3.865   2.771
 9257SOL    HW128670   0.960   3.940   2.807
 9257SOL    HW228671   1.047   3.889   2.679
 9258SOL     OW28672   3.410   3.546   3.974
 9258SOL    HW128673   3.464   3.630   3.973
 9258SOL    HW228674   3.352   3.544   4.055
 9259SOL     OW28675   1.520   2.708   6.966
 9259SOL    HW128676   1.447   2.746   6.909
 9259SOL    HW228677   1.516   2.608   6.961
 9260SOL     OW28678   5.224   1.700   4.777
 9260SOL    HW128679   5.283   1.628   4.741
 9260SOL    HW228680   5.280   1.779   4.803
 9261SOL     OW28681   4.712   0.545   6.598
 9261SOL    HW128682   4.749   0.637   6.591
 9261SOL    HW228683   4.627   0.539   6.545
 9262SOL     OW28684   0.105   3.671   5.767
 9262SOL    HW128685   0.157   3.627   5.694
 9262SOL    HW228686   0.007   3.658   5.751
 9263SOL     OW28687   5.606   5.397   1.813
 9263SOL    HW128688   5.586   5.313   1.762
 9263SOL    HW228689   5.704   5.414   1.812
 9264SOL     OW28690   5.776   4.180   0.310
 9264SOL    HW128691   5.724   4.225   0.382
 9264SOL    HW228692   5.726   4.100   0.276
 9265SOL     OW28693   3.942   1.816   0.151
 9265SOL    HW128694   3.867   1.844   0.091
 9265SOL    HW228695   4.028   1.822   0.102
 9266SOL     OW28696   2.559   6.611   1.840
 9266SOL    HW128697   2.582   6.646   1.931
 9266SOL    HW228698   2.507   6.526   1.850
 9267SOL     OW28699   0.616   3.782   5.694
 9267SOL    HW128700   0.707   3.796   5.734
 9267SOL    HW228701   0.557   3.737   5.760
 9268SOL     OW28702   1.526   5.075   1.544
 9268SOL    HW128703   1.562   4.995   1.592
 9268SOL    HW228704   1.596   5.146   1.541
 9269SOL     OW28705   2.913   1.772   5.984
 9269SOL    HW128706   2.876   1.814   5.901
 9269SOL    HW228707   3.010   1.793   5.990
 9270SOL     OW28708   4.478   6.567   5.811
 9270SOL    HW128709   4.540   6.635   5.850
 9270SOL    HW228710   4.428   6.607   5.735
 9271SOL     OW28711   1.448   6.701   6.919
 9271SOL    HW128712   1.471   6.799   6.923
 9271SOL    HW228713   1.425   6.676   6.825
 9272SOL     OW28714   1.900   5.297   5.062
 9272SOL    HW128715   1.943   5.207   5.062
 9272SOL    HW228716   1.945   5.355   5.130
 9273SOL     OW28717   5.484   6.207   3.569
 9273SOL    HW128718   5.388   6.217   3.592
 9273SOL    HW228719   5.534   6.289   3.596
 9274SOL     OW28720   6.538   2.659   0.144
 9274SOL    HW128721   6.442   2.633   0.140
 9274SOL    HW228722   6.593   2.579   0.172
 9275SOL     OW28723   6.719   2.095   7.004
 9275SOL    HW128724   6.769   2.173   6.967
 9275SOL    HW228725   6.783   2.021   7.025
 9276SOL     OW28726   1.830   4.476   2.534
 9276SOL    HW128727   1.750   4.458   2.592
 9276SOL    HW228728   1.800   4.481   2.438
 9277SOL     OW28729   5.335   3.177   0.551
 9277SOL    HW128730   5.318   3.119   0.631
 9277SOL    HW228731   5.431   3.203   0.549
 9278SOL     OW28732   1.210   0.485   5.621
 9278SOL    HW128733   1.162   0.409   5.577
 9278SOL    HW228734   1.167   0.504   5.709
 9279SOL     OW28735   5.247   0.955   2.222
 9279SOL    HW128736   5.184   0.999   2.158
 9279SOL    HW228737   5.341   0.970   2.191
 9280SOL     OW28738   1.493   1.028   2.812
 9280SOL    HW128739   1.488   0.962   2.887
 9280SOL    HW228740   1.434   0.998   2.737
 9281SOL     OW28741   3.188   4.403   1.034
 9281SOL    HW128742   3.257   4.464   0.995
 9281SOL    HW228743   3.151   4.443   1.117
 9282SOL     OW28744   5.147   0.922   4.429
 9282SOL    HW128745   5.100   0.989   4.373
 9282SOL    HW228746   5.219   0.967   4.482
 9283SOL     OW28747   5.756   0.402   4.045
 9283SOL    HW128748   5.696   0.438   3.974
 9283SOL    HW228749   5.800   0.477   4.094
 9284SOL     OW28750   3.432   4.599   6.644
 9284SOL    HW128751   3.372   4.598   6.565
 9284SOL    HW228752   3.487   4.515   6.645
 9285SOL     OW28753   4.790   2.643   0.991
 9285SOL    HW128754   4.696   2.658   1.021
 9285SOL    HW228755   4.803   2.546   0.968
 9286SOL     OW28756   5.075   6.513   6.593
 9286SOL    HW128757   5.129   6.544   6.514
 9286SOL    HW228758   5.000   6.578   6.608
 9287SOL     OW28759   2.902   5.256   6.782
 9287SOL    HW128760   2.812   5.245   6.741
 9287SOL    HW228761   2.913   5.191   6.857
 9288SOL     OW28762   3.722   1.657   4.341
 9288SOL    HW128763   3.650   1.716   4.304
 9288SOL    HW228764   3.767   1.608   4.267
 9289SOL     OW28765   3.719   1.317   2.354
 9289SOL    HW128766   3.702   1.220   2.337
 9289SOL    HW228767   3.727   1.365   2.266
 9290SOL     OW28768   5.045   1.376   3.308
 9290SOL    HW128769   5.088   1.336   3.227
 9290SOL    HW228770   4.946   1.365   3.302
 9291SOL     OW28771   2.033   0.002   3.786
 9291SOL    HW128772   2.028   6.939   3.834
 9291SOL    HW228773   2.124   0.013   3.744
 9292SOL     OW28774   1.232   3.483   6.840
 9292SOL    HW128775   1.273   3.395   6.814
 9292SOL    HW228776   1.148   3.497   6.788
 9293SOL     OW28777   5.397   3.936   6.820
 9293SOL    HW128778   5.373   3.982   6.906
 9293SOL    HW228779   5.324   3.872   6.795
 9294SOL     OW28780   3.194   6.891   4.820
 9294SOL    HW128781   3.247   6.857   4.743
 9294SOL    HW228782   3.110   6.837   4.829
 9295SOL     OW28783   5.466   2.412   4.107
 9295SOL    HW128784   5.436   2.359   4.186
 9295SOL    HW228785   5.407   2.492   4.095
 9296SOL     OW28786   0.900   6.669   6.396
 9296SOL    HW128787   0.801   6.664   6.391
 9296SOL    HW228788   0.927   6.747   6.453
 9297SOL     OW28789   6.557   1.506   0.427
 9297SOL    HW128790   6.514   1.488   0.338
 9297SOL    HW228791   6.486   1.519   0.496
 9298SOL     OW28792   1.496   0.817   4.506
 9298SOL    HW128793   1.557   0.832   4.428
 9298SOL    HW228794   1.525   0.876   4.581
 9299SOL     OW28795   0.941   2.507   3.915
 9299SOL    HW128796   0.857   2.488   3.864
 9299SOL    HW228797   0.918   2.533   4.009
 9300SOL     OW28798   0.932   4.568   5.617
 9300SOL    HW128799   0.849   4.608   5.577
 9300SOL    HW228800   0.981   4.517   5.546
 9301SOL     OW28801   4.628   4.259   3.872
 9301SOL    HW128802   4.636   4.325   3.946
 9301SOL    HW228803   4.567   4.295   3.801
 9302SOL     OW28804   2.232   2.820   4.488
 9302SOL    HW128805   2.273   2.876   4.559
 9302SOL    HW228806   2.269   2.727   4.493
 9303SOL     OW28807   3.292   5.477   0.455
 9303SOL    HW128808   3.279   5.547   0.385
 9303SOL    HW228809   3.245   5.504   0.539
 9304SOL     OW28810   4.577   4.432   2.245
 9304SOL    HW128811   4.540   4.381   2.168
 9304SOL    HW228812   4.677   4.432   2.240
 9305SOL     OW28813   3.845   1.193   1.775
 9305SOL    HW128814   3.779   1.266   1.792
 9305SOL    HW228815   3.900   1.217   1.694
 9306SOL     OW28816   0.290   4.596   4.795
 9306SOL    HW128817   0.288   4.563   4.701
 9306SOL    HW228818   0.365   4.661   4.806
 9307SOL     OW28819   1.009   3.467   1.252
 9307SOL    HW128820   1.054   3.524   1.184
 9307SOL    HW228821   1.070   3.452   1.329
 9308SOL     OW28822   1.973   4.215   0.852
 9308SOL    HW128823   2.034   4.274   0.799
 9308SOL    HW228824   1.888   4.264   0.871
 9309SOL     OW28825   3.300   4.685   5.812
 9309SOL    HW128826   3.208   4.646   5.801
 9309SOL    HW228827   3.319   4.697   5.909
 9310SOL     OW28828   4.385   5.579   5.993
 9310SOL    HW128829   4.329   5.651   5.953
 9310SOL    HW228830   4.364   5.570   6.090
 9311SOL     OW28831   4.069   4.790   2.128
 9311SOL    HW128832   4.131   4.713   2.117
 9311SOL    HW228833   3.974   4.758   2.120
 9312SOL     OW28834   0.926   3.002   1.383
 9312SOL    HW128835   0.981   2.980   1.302
 9312SOL    HW228836   0.850   2.938   1.391
 9313SOL     OW28837   0.229   0.358   1.184
 9313SOL    HW128838   0.283   0.415   1.122
 9313SOL    HW228839   0.152   0.318   1.134
 9314SOL     OW28840   4.673   6.070   5.810
 9314SOL    HW128841   4.624   6.148   5.770
 9314SOL    HW228842   4.728   6.101   5.887
 9315SOL     OW28843   6.658   0.868   5.261
 9315SOL    HW128844   6.630   0.821   5.177
 9315SOL    HW228845   6.603   0.950   5.273
 9316SOL     OW28846   3.934   5.394   5.398
 9316SOL    HW128847   3.849   5.394   5.451
 9316SOL    HW228848   3.977   5.485   5.403
 9317SOL     OW28849   6.612   5.384   3.430
 9317SOL    HW128850   6.674   5.318   3.388
 9317SOL    HW228851   6.643   5.403   3.524
 9318SOL     OW28852   6.518   0.459   6.083
 9318SOL    HW128853   6.424   0.451   6.051
 9318SOL    HW228854   6.573   0.507   6.014
 9319SOL     OW28855   1.357   2.797   0.320
 9319SOL    HW128856   1.309   2.713   0.293
 9319SOL    HW228857   1.310   2.876   0.280
 9320SOL     OW28858   3.789   0.709   5.803
 9320SOL    HW128859   3.830   0.638   5.860
 9320SOL    HW228860   3.856   0.781   5.784
 9321SOL     OW28861   6.148   0.384   3.577
 9321SOL    HW128862   6.153   0.284   3.585
 9321SOL    HW228863   6.074   0.417   3.636
 9322SOL     OW28864   1.244   4.709   6.715
 9322SOL    HW128865   1.175   4.763   6.666
 9322SOL    HW228866   1.202   4.665   6.794
 9323SOL     OW28867   1.264   0.702   5.438
 9323SOL    HW128868   1.172   0.720   5.402
 9323SOL    HW228869   1.259   0.631   5.509
 9324SOL     OW28870   1.167   4.649   0.387
 9324SOL    HW128871   1.092   4.635   0.321
 9324SOL    HW228872   1.155   4.738   0.431
 9325SOL     OW28873   4.809   1.272   6.744
 9325SOL    HW128874   4.724   1.246   6.789
 9325SOL    HW228875   4.882   1.209   6.771
 9326SOL     OW28876   2.124   6.228   0.752
 9326SOL    HW128877   2.156   6.317   0.786
 9326SOL    HW228878   2.134   6.160   0.824
 9327SOL     OW28879   5.286   6.912   2.893
 9327SOL    HW128880   5.245   6.878   2.977
 9327SOL    HW228881   5.352   6.985   2.914
 9328SOL     OW28882   3.034   0.715   5.814
 9328SOL    HW128883   2.985   0.749   5.894
 9328SOL    HW228884   3.012   0.619   5.799
 9329SOL     OW28885   5.953   4.129   1.688
 9329SOL    HW128886   5.988   4.076   1.611
 9329SOL    HW228887   5.866   4.171   1.663
 9330SOL     OW28888   6.197   6.807   6.758
 9330SOL    HW128889   6.292   6.778   6.761
 9330SOL    HW228890   6.147   6.767   6.835
 9331SOL     OW28891   1.558   1.109   6.416
 9331SOL    HW128892   1.551   1.045   6.493
 9331SOL    HW228893   1.467   1.130   6.382
 9332SOL     OW28894   3.938   4.059   1.764
 9332SOL    HW128895   3.991   4.134   1.724
 9332SOL    HW228896   3.907   3.997   1.692
 9333SOL     OW28897   4.084   3.834   1.345
 9333SOL    HW128898   4.065   3.833   1.247
 9333SOL    HW228899   4.013   3.886   1.393
 9334SOL     OW28900   5.343   5.861   3.723
 9334SOL    HW128901   5.343   5.887   3.627
 9334SOL    HW228902   5.383   5.935   3.778
 9335SOL     OW28903   0.784   1.294   6.586
 9335SOL    HW128904   0.868   1.325   6.631
 9335SOL    HW228905   0.742   1.220   6.639
 9336SOL     OW28906   2.760   5.075   5.407
 9336SOL    HW128907   2.746   5.007   5.335
 9336SOL    HW228908   2.857   5.094   5.416
 9337SOL     OW28909   4.913   1.728   4.129
 9337SOL    HW128910   4.897   1.798   4.198
 9337SOL    HW228911   5.011   1.712   4.119
 9338SOL     OW28912   4.398   0.718   2.105
 9338SOL    HW128913   4.418   0.656   2.180
 9338SOL    HW228914   4.370   0.807   2.141
 9339SOL     OW28915   5.731   0.247   1.363
 9339SOL    HW128916   5.775   0.273   1.276
 9339SOL    HW228917   5.725   0.328   1.422
 9340SOL     OW28918   5.767   3.366   4.225
 9340SOL    HW128919   5.783   3.465   4.228
 9340SOL    HW228920   5.688   3.344   4.283
 9341SOL     OW28921   6.810   5.599   0.582
 9341SOL    HW128922   6.818   5.616   0.484
 9341SOL    HW228923   6.727   5.643   0.617
 9342SOL     OW28924   1.808   6.814   3.548
 9342SOL    HW128925   1.879   6.744   3.547
 9342SOL    HW228926   1.811   6.864   3.634
 9343SOL     OW28927   6.190   3.961   2.370
 9343SOL    HW128928   6.267   4.015   2.337
 9343SOL    HW228929   6.192   3.957   2.470
 9344SOL     OW28930   4.460   6.044   2.333
 9344SOL    HW128931   4.490   6.131   2.292
 9344SOL    HW228932   4.369   6.021   2.299
 9345SOL     OW28933   6.085   4.711   2.233
 9345SOL    HW128934   6.152   4.785   2.223
 9345SOL    HW228935   6.059   4.677   2.142
 9346SOL     OW28936   6.600   0.663   0.885
 9346SOL    HW128937   6.520   0.715   0.917
 9346SOL    HW228938   6.623   0.692   0.792
 9347SOL     OW28939   1.480   3.696   0.807
 9347SOL    HW128940   1.485   3.619   0.870
 9347SOL    HW228941   1.546   3.767   0.834
 9348SOL     OW28942   3.667   5.898   2.065
 9348SOL    HW128943   3.724   5.972   2.030
 9348SOL    HW228944   3.606   5.865   1.993
 9349SOL     OW28945   0.540   6.128   3.592
 9349SOL    HW128946   0.638   6.108   3.598
 9349SOL    HW228947   0.490   6.042   3.576
 9350SOL     OW28948   0.636   3.772   5.242
 9350SOL    HW128949   0.720   3.770   5.296
 9350SOL    HW228950   0.653   3.731   5.152
 9351SOL     OW28951   2.560   0.192   6.614
 9351SOL    HW128952   2.547   0.278   6.565
 9351SOL    HW228953   2.603   0.210   6.703
 9352SOL     OW28954   3.330   1.978   6.964
 9352SOL    HW128955   3.418   1.935   6.945
 9352SOL    HW228956   3.303   2.035   6.887
 9353SOL     OW28957   0.590   4.037   0.390
 9353SOL    HW128958   0.676   4.063   0.348
 9353SOL    HW228959   0.535   4.119   0.406
 9354SOL     OW28960   7.018   1.799   6.491
 9354SOL    HW128961   0.075   1.847   6.460
 9354SOL    HW228962   7.023   1.703   6.464
 9355SOL     OW28963   0.478   2.448   4.148
 9355SOL    HW128964   0.577   2.460   4.141
 9355SOL    HW228965   0.438   2.526   4.196
 9356SOL     OW28966   4.894   0.636   1.781
 9356SOL    HW128967   4.899   0.561   1.715
 9356SOL    HW228968   4.817   0.621   1.843
 9357SOL     OW28969   1.143   3.323   6.146
 9357SOL    HW128970   1.180   3.284   6.063
 9357SOL    HW228971   1.194   3.288   6.225
 9358SOL     OW28972   6.671   4.160   2.081
 9358SOL    HW128973   6.578   4.155   2.045
 9358SOL    HW228974   6.712   4.247   2.054
 9359SOL     OW28975   1.455   4.797   6.569
 9359SOL    HW128976   1.388   4.764   6.635
 9359SOL    HW228977   1.530   4.731   6.562
 9360SOL     OW28978   1.229   5.363   6.218
 9360SOL    HW128979   1.272   5.453   6.224
 9360SOL    HW228980   1.293   5.299   6.176
 9361SOL     OW28981   1.586   4.850   3.682
 9361SOL    HW128982   1.627   4.931   3.725
 9361SOL    HW228983   1.635   4.829   3.597
 9362SOL     OW28984   0.985   1.251   2.551
 9362SOL    HW128985   0.923   1.283   2.623
 9362SOL    HW228986   0.944   1.174   2.503
 9363SOL     OW28987   2.876   5.122   2.156
 9363SOL    HW128988   2.953   5.060   2.175
 9363SOL    HW228989   2.898   5.213   2.192
 9364SOL     OW28990   2.453   2.204   0.286
 9364SOL    HW128991   2.367   2.199   0.337
 9364SOL    HW228992   2.492   2.112   0.277
 9365SOL     OW28993   3.257   1.537   3.314
 9365SOL    HW128994   3.330   1.543   3.246
 9365SOL    HW228995   3.290   1.572   3.402
 9366SOL     OW28996   2.942   5.581   0.063
 9366SOL    HW128997   2.950   5.542   6.997
 9366SOL    HW228998   3.028   5.568   0.112
 9367SOL     OW28999   6.360   6.903   2.114
 9367SOL    HW129000   6.409   6.943   2.036
 9367SOL    HW229001   6.263   6.893   2.092
 9368SOL     OW29002   3.265   0.065   2.627
 9368SOL    HW129003   3.350   0.119   2.620
 9368SOL    HW229004   3.288   6.993   2.629
 9369SOL     OW29005   6.563   6.617   3.816
 9369SOL    HW129006   6.515   6.547   3.764
 9369SOL    HW229007   6.545   6.605   3.914
 9370SOL     OW29008   5.396   6.763   4.568
 9370SOL    HW129009   5.397   6.781   4.666
 9370SOL    HW229010   5.424   6.668   4.551
 9371SOL     OW29011   2.582   6.144   0.795
 9371SOL    HW129012   2.648   6.125   0.867
 9371SOL    HW229013   2.628   6.141   0.706
 9372SOL     OW29014   5.286   0.424   1.315
 9372SOL    HW129015   5.340   0.348   1.277
 9372SOL    HW229016   5.267   0.406   1.411
 9373SOL     OW29017   5.177   2.169   0.501
 9373SOL    HW129018   5.267   2.134   0.476
 9373SOL    HW229019   5.118   2.171   0.420
 9374SOL     OW29020   0.522   2.933   6.482
 9374SOL    HW129021   0.475   2.965   6.400
 9374SOL    HW229022   0.601   2.992   6.500
 9375SOL     OW29023   6.865   1.716   0.791
 9375SOL    HW129024   6.826   1.714   0.699
 9375SOL    HW229025   6.964   1.701   0.786
 9376SOL     OW29026   2.317   3.827   1.637
 9376SOL    HW129027   2.336   3.846   1.541
 9376SOL    HW229028   2.316   3.912   1.688
 9377SOL     OW29029   1.467   5.157   3.302
 9377SOL    HW129030   1.559   5.143   3.339
 9377SOL    HW229031   1.457   5.104   3.218
 9378SOL     OW29032   3.864   1.223   3.755
 9378SOL    HW129033   3.826   1.285   3.824
 9378SOL    HW229034   3.839   1.129   3.778
 9379SOL     OW29035   4.964   0.159   4.670
 9379SOL    HW129036   4.959   0.243   4.616
 9379SOL    HW229037   4.958   0.181   4.767
 9380SOL     OW29038   3.578   5.759   5.416
 9380SOL    HW129039   3.498   5.779   5.360
 9380SOL    HW229040   3.592   5.832   5.483
 9381SOL     OW29041   5.161   3.070   5.090
 9381SOL    HW129042   5.098   3.011   5.041
 9381SOL    HW229043   5.177   3.033   5.182
 9382SOL     OW29044   4.095   1.370   4.092
 9382SOL    HW129045   4.171   1.435   4.088
 9382SOL    HW229046   4.107   1.300   4.021
 9383SOL     OW29047   5.671   4.682   4.514
 9383SOL    HW129048   5.718   4.723   4.593
 9383SOL    HW229049   5.574   4.673   4.535
 9384SOL     OW29050   3.430   0.143   2.232
 9384SOL    HW129051   3.485   0.082   2.289
 9384SOL    HW229052   3.488   0.184   2.162
 9385SOL     OW29053   4.379   1.494   4.492
 9385SOL    HW129054   4.313   1.548   4.440
 9385SOL    HW229055   4.460   1.550   4.511
 9386SOL     OW29056   3.316   5.595   4.893
 9386SOL    HW129057   3.368   5.552   4.819
 9386SOL    HW229058   3.252   5.662   4.854
 9387SOL     OW29059   3.153   2.234   1.027
 9387SOL    HW129060   3.192   2.173   1.096
 9387SOL    HW229061   3.062   2.265   1.057
 9388SOL     OW29062   1.817   6.543   3.359
 9388SOL    HW129063   1.738   6.482   3.373
 9388SOL    HW229064   1.785   6.630   3.322
 9389SOL     OW29065   3.152   6.210   2.767
 9389SOL    HW129066   3.080   6.276   2.786
 9389SOL    HW229067   3.126   6.120   2.804
 9390SOL     OW29068   6.094   5.304   6.069
 9390SOL    HW129069   6.097   5.386   6.013
 9390SOL    HW229070   6.115   5.224   6.013
 9391SOL     OW29071   0.334   0.912   5.388
 9391SOL    HW129072   0.301   0.818   5.380
 9391SOL    HW229073   0.265   0.975   5.352
 9392SOL     OW29074   4.930   4.619   4.314
 9392SOL    HW129075   4.983   4.640   4.232
 9392SOL    HW229076   4.938   4.521   4.334
 9393SOL     OW29077   2.829   6.917   5.531
 9393SOL    HW129078   2.857   6.859   5.454
 9393SOL    HW229079   2.876   6.886   5.614
 9394SOL     OW29080   6.398   0.595   1.242
 9394SOL    HW129081   6.385   0.524   1.172
 9394SOL    HW229082   6.358   0.564   1.328
 9395SOL     OW29083   2.419   0.749   0.816
 9395SOL    HW129084   2.392   0.843   0.798
 9395SOL    HW229085   2.506   0.730   0.771
 9396SOL     OW29086   1.838   4.463   4.969
 9396SOL    HW129087   1.851   4.498   5.062
 9396SOL    HW229088   1.869   4.368   4.964
 9397SOL     OW29089   2.827   6.519   5.594
 9397SOL    HW129090   2.894   6.551   5.661
 9397SOL    HW229091   2.740   6.501   5.640
 9398SOL     OW29092   6.238   1.588   5.668
 9398SOL    HW129093   6.181   1.523   5.619
 9398SOL    HW229094   6.185   1.671   5.687
 9399SOL     OW29095   0.875   2.771   4.171
 9399SOL    HW129096   0.962   2.724   4.184
 9399SOL    HW229097   0.880   2.863   4.212
 9400SOL     OW29098   4.628   0.430   0.514
 9400SOL    HW129099   4.598   0.356   0.574
 9400SOL    HW229100   4.561   0.504   0.516
 9401SOL     OW29101   0.360   2.130   2.198
 9401SOL    HW129102   0.353   2.159   2.294
 9401SOL    HW229103   0.398   2.038   2.194
 9402SOL     OW29104   1.355   4.487   3.262
 9402SOL    HW129105   1.392   4.402   3.226
 9402SOL    HW229106   1.324   4.544   3.186
 9403SOL     OW29107   6.670   1.510   2.045
 9403SOL    HW129108   6.674   1.595   1.993
 9403SOL    HW229109   6.759   1.464   2.040
 9404SOL     OW29110   7.015   1.958   1.250
 9404SOL    HW129111   0.060   1.900   1.208
 9404SOL    HW229112   0.034   2.033   1.300
 9405SOL     OW29113   1.338   4.290   4.477
 9405SOL    HW129114   1.392   4.227   4.532
 9405SOL    HW229115   1.301   4.241   4.397
 9406SOL     OW29116   1.285   3.044   0.208
 9406SOL    HW129117   1.358   3.094   0.255
 9406SOL    HW229118   1.240   3.105   0.143
 9407SOL     OW29119   2.666   5.035   4.367
 9407SOL    HW129120   2.576   5.002   4.393
 9407SOL    HW229121   2.730   4.958   4.362
 9408SOL     OW29122   0.473   1.957   6.277
 9408SOL    HW129123   0.551   2.012   6.247
 9408SOL    HW229124   0.418   1.932   6.197
 9409SOL     OW29125   6.558   5.588   2.245
 9409SOL    HW129126   6.597   5.571   2.154
 9409SOL    HW229127   6.609   5.661   2.290
 9410SOL     OW29128   5.082   1.180   1.840
 9410SOL    HW129129   5.063   1.164   1.937
 9410SOL    HW229130   5.127   1.269   1.829
 9411SOL     OW29131   3.321   3.781   2.943
 9411SOL    HW129132   3.373   3.742   3.019
 9411SOL    HW229133   3.317   3.880   2.953
 9412SOL     OW29134   1.386   0.335   2.344
 9412SOL    HW129135   1.453   0.273   2.385
 9412SOL    HW229136   1.401   0.338   2.245
 9413SOL     OW29137   5.112   4.837   4.793
 9413SOL    HW129138   5.081   4.806   4.703
 9413SOL    HW229139   5.150   4.760   4.843
 9414SOL     OW29140   3.006   1.793   4.281
 9414SOL    HW129141   3.017   1.880   4.328
 9414SOL    HW229142   3.092   1.742   4.284
 9415SOL     OW29143   2.570   0.058   1.664
 9415SOL    HW129144   2.566   0.112   1.580
 9415SOL    HW229145   2.643   7.015   1.656
 9416SOL     OW29146   0.601   1.074   5.255
 9416SOL    HW129147   0.596   1.035   5.163
 9416SOL    HW229148   0.551   1.015   5.318
 9417SOL     OW29149   3.811   6.603   1.615
 9417SOL    HW129150   3.886   6.558   1.664
 9417SOL    HW229151   3.773   6.677   1.672
 9418SOL     OW29152   2.342   1.454   2.593
 9418SOL    HW129153   2.286   1.421   2.669
 9418SOL    HW229154   2.391   1.378   2.552
 9419SOL     OW29155   2.694   3.422   6.763
 9419SOL    HW129156   2.793   3.431   6.757
 9419SOL    HW229157   2.670   3.327   6.781
 9420SOL     OW29158   5.361   4.409   0.076
 9420SOL    HW129159   5.409   4.496   0.073
 9420SOL    HW229160   5.269   4.420   0.038
 9421SOL     OW29161   2.702   5.210   4.155
 9421SOL    HW129162   2.793   5.211   4.113
 9421SOL    HW229163   2.699   5.137   4.225
 9422SOL     OW29164   2.902   5.886   3.780
 9422SOL    HW129165   2.914   5.946   3.701
 9422SOL    HW229166   2.811   5.901   3.818
 9423SOL     OW29167   4.264   6.547   2.646
 9423SOL    HW129168   4.304   6.498   2.569
 9423SOL    HW229169   4.299   6.509   2.732
 9424SOL     OW29170   5.365   1.476   4.565
 9424SOL    HW129171   5.272   1.439   4.561
 9424SOL    HW229172   5.404   1.458   4.656
 9425SOL     OW29173   5.385   5.256   1.196
 9425SOL    HW129174   5.414   5.163   1.174
 9425SOL    HW229175   5.429   5.286   1.280
 9426SOL     OW29176   2.064   1.552   6.084
 9426SOL    HW129177   2.144   1.597   6.043
 9426SOL    HW229178   1.981   1.603   6.059
 9427SOL     OW29179   2.249   6.158   2.904
 9427SOL    HW129180   2.203   6.246   2.918
 9427SOL    HW229181   2.348   6.172   2.903
 9428SOL     OW29182   6.419   0.259   0.105
 9428SOL    HW129183   6.435   0.172   0.057
 9428SOL    HW229184   6.488   0.271   0.176
 9429SOL     OW29185   1.550   2.246   3.753
 9429SOL    HW129186   1.508   2.313   3.692
 9429SOL    HW229187   1.546   2.280   3.847
 9430SOL     OW29188   0.738   2.545   4.151
 9430SOL    HW129189   0.807   2.475   4.172
 9430SOL    HW229190   0.781   2.635   4.146
 9431SOL     OW29191   6.328   4.446   1.117
 9431SOL    HW129192   6.326   4.532   1.168
 9431SOL    HW229193   6.385   4.457   1.036
 9432SOL     OW29194   6.277   1.624   4.328
 9432SOL    HW129195   6.240   1.702   4.279
 9432SOL    HW229196   6.228   1.541   4.301
 9433SOL     OW29197   4.005   5.863   3.651
 9433SOL    HW129198   3.945   5.882   3.574
 9433SOL    HW229199   3.958   5.804   3.716
 9434SOL     OW29200   5.946   5.182   3.540
 9434SOL    HW129201   5.862   5.142   3.578
 9434SOL    HW229202   5.956   5.153   3.445
 9435SOL     OW29203   0.070   2.142   2.623
 9435SOL    HW129204   0.162   2.107   2.604
 9435SOL    HW229205   0.015   2.069   2.665
 9436SOL     OW29206   1.400   1.267   2.582
 9436SOL    HW129207   1.483   1.224   2.545
 9436SOL    HW229208   1.383   1.230   2.674
 9437SOL     OW29209   1.101   5.170   3.672
 9437SOL    HW129210   1.045   5.215   3.742
 9437SOL    HW229211   1.075   5.204   3.582
 9438SOL     OW29212   0.748   0.255   2.002
 9438SOL    HW129213   0.743   0.187   2.076
 9438SOL    HW229214   0.659   0.262   1.957
 9439SOL     OW29215   0.210   3.100   0.732
 9439SOL    HW129216   0.241   3.005   0.739
 9439SOL    HW229217   0.259   3.146   0.658
 9440SOL     OW29218   2.846   4.774   3.311
 9440SOL    HW129219   2.832   4.866   3.346
 9440SOL    HW229220   2.771   4.715   3.342
 9441SOL     OW29221   6.358   5.796   5.818
 9441SOL    HW129222   6.314   5.727   5.761
 9441SOL    HW229223   6.310   5.802   5.906
 9442SOL     OW29224   4.653   3.410   1.649
 9442SOL    HW129225   4.583   3.338   1.655
 9442SOL    HW229226   4.608   3.498   1.638
 9443SOL     OW29227   2.550   5.828   1.422
 9443SOL    HW129228   2.608   5.749   1.439
 9443SOL    HW229229   2.459   5.811   1.459
 9444SOL     OW29230   1.866   3.992   0.676
 9444SOL    HW129231   1.923   4.057   0.728
 9444SOL    HW229232   1.921   3.912   0.652
 9445SOL     OW29233   6.855   2.130   3.419
 9445SOL    HW129234   6.929   2.195   3.402
 9445SOL    HW229235   6.768   2.169   3.388
 9446SOL     OW29236   0.093   5.092   4.171
 9446SOL    HW129237   0.062   5.186   4.184
 9446SOL    HW229238   0.017   5.030   4.189
 9447SOL     OW29239   5.127   4.854   2.999
 9447SOL    HW129240   5.212   4.876   3.047
 9447SOL    HW229241   5.121   4.755   2.988
 9448SOL     OW29242   6.253   6.911   5.762
 9448SOL    HW129243   6.282   6.846   5.833
 9448SOL    HW229244   6.175   6.964   5.796
 9449SOL     OW29245   5.243   6.648   0.599
 9449SOL    HW129246   5.309   6.707   0.552
 9449SOL    HW229247   5.160   6.639   0.544
 9450SOL     OW29248   1.671   5.288   3.842
 9450SOL    HW129249   1.610   5.225   3.889
 9450SOL    HW229250   1.681   5.260   3.747
 9451SOL     OW29251   3.874   5.857   5.960
 9451SOL    HW129252   3.839   5.856   5.867
 9451SOL    HW229253   3.801   5.830   6.023
 9452SOL     OW29254   0.448   3.851   0.256
 9452SOL    HW129255   0.489   3.918   0.317
 9452SOL    HW229256   0.496   3.852   0.169
 9453SOL     OW29257   2.456   4.801   2.813
 9453SOL    HW129258   2.441   4.737   2.738
 9453SOL    HW229259   2.423   4.892   2.786
 9454SOL     OW29260   4.221   3.668   0.067
 9454SOL    HW129261   4.139   3.620   0.099
 9454SOL    HW229262   4.215   3.764   0.094
 9455SOL     OW29263   2.462   2.128   2.433
 9455SOL    HW129264   2.472   2.194   2.359
 9455SOL    HW229265   2.366   2.098   2.439
 9456SOL     OW29266   6.138   4.242   1.877
 9456SOL    HW129267   6.079   4.250   1.957
 9456SOL    HW229268   6.089   4.195   1.803
 9457SOL     OW29269   0.569   4.696   4.412
 9457SOL    HW129270   0.664   4.726   4.401
 9457SOL    HW229271   0.525   4.694   4.323
 9458SOL     OW29272   7.020   3.929   0.375
 9458SOL    HW129273   7.005   3.869   0.454
 9458SOL    HW229274   6.975   4.016   0.389
 9459SOL     OW29275   5.272   4.099   3.789
 9459SOL    HW129276   5.354   4.103   3.846
 9459SOL    HW229277   5.193   4.077   3.847
 9460SOL     OW29278   1.901   2.840   4.547
 9460SOL    HW129279   1.881   2.741   4.549
 9460SOL    HW229280   1.977   2.857   4.485
 9461SOL     OW29281   0.818   1.383   0.738
 9461SOL    HW129282   0.777   1.466   0.777
 9461SOL    HW229283   0.805   1.383   0.639
 9462SOL     OW29284   1.775   2.739   3.536
 9462SOL    HW129285   1.728   2.656   3.504
 9462SOL    HW229286   1.873   2.729   3.522
 9463SOL     OW29287   5.115   0.192   1.319
 9463SOL    HW129288   5.167   0.222   1.399
 9463SOL    HW229289   5.171   0.130   1.265
 9464SOL     OW29290   6.053   0.605   1.320
 9464SOL    HW129291   6.007   0.621   1.233
 9464SOL    HW229292   6.084   0.692   1.359
 9465SOL     OW29293   0.112   4.061   1.708
 9465SOL    HW129294   0.117   4.076   1.806
 9465SOL    HW229295   0.064   3.975   1.689
 9466SOL     OW29296   4.013   5.178   6.276
 9466SOL    HW129297   3.914   5.177   6.290
 9466SOL    HW229298   4.046   5.272   6.279
 9467SOL     OW29299   1.611   2.656   0.728
 9467SOL    HW129300   1.695   2.619   0.768
 9467SOL    HW229301   1.629   2.745   0.688
 9468SOL     OW29302   6.560   3.464   6.398
 9468SOL    HW129303   6.507   3.381   6.409
 9468SOL    HW229304   6.630   3.450   6.327
 9469SOL     OW29305   6.845   6.111   0.782
 9469SOL    HW129306   6.787   6.063   0.848
 9469SOL    HW229307   6.806   6.201   0.763
 9470SOL     OW29308   4.599   3.933   6.610
 9470SOL    HW129309   4.651   3.878   6.676
 9470SOL    HW229310   4.610   3.895   6.518
 9471SOL     OW29311   5.589   2.201   5.710
 9471SOL    HW129312   5.562   2.291   5.675
 9471SOL    HW229313   5.528   2.175   5.784
 9472SOL     OW29314   1.017   4.181   6.019
 9472SOL    HW129315   1.014   4.281   6.022
 9472SOL    HW229316   1.013   4.151   5.923
 9473SOL     OW29317   3.013   3.700   6.730
 9473SOL    HW129318   2.925   3.740   6.703
 9473SOL    HW229319   3.038   3.735   6.820
 9474SOL     OW29320   5.845   3.409   1.728
 9474SOL    HW129321   5.941   3.413   1.701
 9474SOL    HW229322   5.812   3.315   1.724
 9475SOL     OW29323   4.785   3.115   6.974
 9475SOL    HW129324   4.839   3.078   0.024
 9475SOL    HW229325   4.707   3.055   6.957
 9476SOL     OW29326   3.426   3.793   5.545
 9476SOL    HW129327   3.436   3.892   5.537
 9476SOL    HW229328   3.340   3.773   5.593
 9477SOL     OW29329   1.800   3.178   1.054
 9477SOL    HW129330   1.721   3.120   1.072
 9477SOL    HW229331   1.826   3.170   0.957
 9478SOL     OW29332   4.380   3.063   1.101
 9478SOL    HW129333   4.387   2.997   1.026
 9478SOL    HW229334   4.422   3.023   1.183
 9479SOL     OW29335   4.149   0.236   1.277
 9479SOL    HW129336   4.189   0.145   1.270
 9479SOL    HW229337   4.108   0.261   1.189
 9480SOL     OW29338   6.148   5.123   0.261
 9480SOL    HW129339   6.079   5.143   0.330
 9480SOL    HW229340   6.239   5.120   0.304
 9481SOL     OW29341   4.877   2.380   2.882
 9481SOL    HW129342   4.889   2.427   2.795
 9481SOL    HW229343   4.851   2.285   2.866
 9482SOL     OW29344   6.508   6.829   2.449
 9482SOL    HW129345   6.446   6.901   2.417
 9482SOL    HW229346   6.492   6.813   2.546
 9483SOL     OW29347   1.555   0.890   6.600
 9483SOL    HW129348   1.590   0.849   6.515
 9483SOL    HW229349   1.581   0.833   6.678
 9484SOL     OW29350   2.432   0.340   4.485
 9484SOL    HW129351   2.409   0.244   4.470
 9484SOL    HW229352   2.427   0.361   4.583
 9485SOL     OW29353   6.066   1.698   1.232
 9485SOL    HW129354   6.138   1.738   1.175
 9485SOL    HW229355   6.014   1.632   1.178
 9486SOL     OW29356   5.134   5.962   0.951
 9486SOL    HW129357   5.103   5.940   0.859
 9486SOL    HW229358   5.059   6.002   1.003
 9487SOL     OW29359   3.422   3.947   4.559
 9487SOL    HW129360   3.409   4.033   4.509
 9487SOL    HW229361   3.508   3.951   4.610
 9488SOL     OW29362   2.069   0.366   1.132
 9488SOL    HW129363   2.056   0.463   1.111
 9488SOL    HW229364   1.981   0.319   1.128
 9489SOL     OW29365   5.286   4.373   1.066
 9489SOL    HW129366   5.251   4.388   0.974
 9489SOL    HW229367   5.276   4.277   1.091
 9490SOL     OW29368   6.787   6.197   3.438
 9490SOL    HW129369   6.753   6.167   3.349
 9490SOL    HW229370   6.885   6.214   3.433
 9491SOL     OW29371   5.990   5.579   4.290
 9491SOL    HW129372   5.964   5.544   4.380
 9491SOL    HW229373   5.931   5.656   4.265
 9492SOL     OW29374   4.425   3.374   5.922
 9492SOL    HW129375   4.472   3.444   5.976
 9492SOL    HW229376   4.434   3.394   5.825
 9493SOL     OW29377   3.411   5.364   3.957
 9493SOL    HW129378   3.321   5.333   3.988
 9493SOL    HW229379   3.421   5.346   3.859
 9494SOL     OW29380   5.907   3.018   2.327
 9494SOL    HW129381   5.878   3.060   2.413
 9494SOL    HW229382   6.003   2.990   2.334
 9495SOL     OW29383   6.827   1.280   2.537
 9495SOL    HW129384   6.773   1.353   2.580
 9495SOL    HW229385   6.911   1.319   2.499
 9496SOL     OW29386   4.793   2.254   1.992
 9496SOL    HW129387   4.859   2.314   1.947
 9496SOL    HW229388   4.700   2.286   1.973
 9497SOL     OW29389   5.448   6.246   5.487
 9497SOL    HW129390   5.427   6.149   5.500
 9497SOL    HW229391   5.364   6.298   5.475
 9498SOL     OW29392   6.866   4.586   5.272
 9498SOL    HW129393   6.906   4.542   5.191
 9498SOL    HW229394   6.779   4.542   5.293
 9499SOL     OW29395   0.258   6.048   5.191
 9499SOL    HW129396   0.280   5.958   5.227
 9499SOL    HW229397   0.259   6.045   5.091
 9500SOL     OW29398   3.841   6.401   0.952
 9500SOL    HW129399   3.743   6.420   0.962
 9500SOL    HW229400   3.860   6.374   0.858
 9501SOL     OW29401   1.586   1.383   4.292
 9501SOL    HW129402   1.575   1.288   4.322
 9501SOL    HW229403   1.498   1.431   4.302
 9502SOL     OW29404   5.976   3.788   4.321
 9502SOL    HW129405   5.926   3.846   4.256
 9502SOL    HW229406   6.074   3.807   4.314
 9503SOL     OW29407   0.127   2.202   0.685
 9503SOL    HW129408   0.101   2.293   0.718
 9503SOL    HW229409   0.132   2.139   0.762
 9504SOL     OW29410   6.661   4.066   1.739
 9504SOL    HW129411   6.732   4.124   1.780
 9504SOL    HW229412   6.609   4.120   1.673
 9505SOL     OW29413   5.184   4.498   5.675
 9505SOL    HW129414   5.205   4.481   5.771
 9505SOL    HW229415   5.237   4.434   5.618
 9506SOL     OW29416   2.216   2.449   0.435
 9506SOL    HW129417   2.214   2.351   0.455
 9506SOL    HW229418   2.308   2.484   0.451
 9507SOL     OW29419   6.688   0.677   1.206
 9507SOL    HW129420   6.731   0.657   1.118
 9507SOL    HW229421   6.600   0.630   1.212
 9508SOL     OW29422   5.746   2.113   2.675
 9508SOL    HW129423   5.716   2.193   2.624
 9508SOL    HW229424   5.841   2.125   2.704
 9509SOL     OW29425   6.659   0.116   3.718
 9509SOL    HW129426   6.670   0.215   3.709
 9509SOL    HW229427   6.564   0.091   3.699
 9510SOL     OW29428   1.201   3.653   2.881
 9510SOL    HW129429   1.297   3.678   2.870
 9510SOL    HW229430   1.143   3.723   2.839
 9511SOL     OW29431   1.208   1.076   1.545
 9511SOL    HW129432   1.183   0.982   1.519
 9511SOL    HW229433   1.293   1.074   1.598
 9512SOL     OW29434   6.433   2.203   1.528
 9512SOL    HW129435   6.394   2.238   1.443
 9512SOL    HW229436   6.404   2.108   1.541
 9513SOL     OW29437   2.886   4.881   5.963
 9513SOL    HW129438   2.790   4.869   5.938
 9513SOL    HW229439   2.935   4.925   5.888
 9514SOL     OW29440   3.127   4.229   6.980
 9514SOL    HW129441   3.073   4.313   6.988
 9514SOL    HW229442   3.081   4.156   0.008
 9515SOL     OW29443   2.286   5.693   3.053
 9515SOL    HW129444   2.248   5.758   2.987
 9515SOL    HW229445   2.243   5.604   3.041
 9516SOL     OW29446   5.389   4.199   0.567
 9516SOL    HW129447   5.370   4.232   0.475
 9516SOL    HW229448   5.471   4.141   0.566
 9517SOL     OW29449   1.261   3.955   0.996
 9517SOL    HW129450   1.202   3.901   0.936
 9517SOL    HW229451   1.338   3.991   0.945
 9518SOL     OW29452   2.406   1.561   0.598
 9518SOL    HW129453   2.397   1.494   0.673
 9518SOL    HW229454   2.503   1.571   0.574
 9519SOL     OW29455   2.499   2.847   5.572
 9519SOL    HW129456   2.570   2.806   5.629
 9519SOL    HW229457   2.512   2.820   5.477
 9520SOL     OW29458   3.068   0.450   2.832
 9520SOL    HW129459   3.061   0.351   2.822
 9520SOL    HW229460   3.102   0.490   2.747
 9521SOL     OW29461   5.724   5.261   3.276
 9521SOL    HW129462   5.673   5.255   3.190
 9521SOL    HW229463   5.664   5.296   3.348
 9522SOL     OW29464   3.457   5.626   0.891
 9522SOL    HW129465   3.370   5.664   0.922
 9522SOL    HW229466   3.532   5.663   0.946
 9523SOL     OW29467   3.315   4.981   4.326
 9523SOL    HW129468   3.409   4.969   4.293
 9523SOL    HW229469   3.305   5.073   4.365
 9524SOL     OW29470   4.182   2.781   1.603
 9524SOL    HW129471   4.091   2.782   1.644
 9524SOL    HW229472   4.239   2.713   1.648
 9525SOL     OW29473   2.273   2.352   6.111
 9525SOL    HW129474   2.285   2.413   6.189
 9525SOL    HW229475   2.263   2.407   6.028
 9526SOL     OW29476   5.701   5.272   2.624
 9526SOL    HW129477   5.613   5.284   2.669
 9526SOL    HW229478   5.748   5.360   2.619
 9527SOL     OW29479   1.261   0.606   1.593
 9527SOL    HW129480   1.293   0.698   1.614
 9527SOL    HW229481   1.284   0.583   1.499
 9528SOL     OW29482   7.023   0.792   0.371
 9528SOL    HW129483   0.025   0.756   0.460
 9528SOL    HW229484   0.069   0.773   0.304
 9529SOL     OW29485   0.467   3.185   5.694
 9529SOL    HW129486   0.557   3.224   5.673
 9529SOL    HW229487   0.464   3.157   5.789
 9530SOL     OW29488   1.905   2.949   3.101
 9530SOL    HW129489   1.992   2.986   3.135
 9530SOL    HW229490   1.830   3.008   3.130
 9531SOL     OW29491   4.280   5.913   3.072
 9531SOL    HW129492   4.378   5.933   3.084
 9531SOL    HW229493   4.227   5.995   3.092
 9532SOL     OW29494   1.216   5.461   1.709
 9532SOL    HW129495   1.253   5.367   1.710
 9532SOL    HW229496   1.283   5.522   1.666
 9533SOL     OW29497   0.152   1.151   5.423
 9533SOL    HW129498   0.063   1.192   5.447
 9533SOL    HW229499   0.213   1.223   5.391
 9534SOL     OW29500   5.418   3.275   5.424
 9534SOL    HW129501   5.391   3.369   5.447
 9534SOL    HW229502   5.425   3.265   5.325
 9535SOL     OW29503   2.308   0.985   6.075
 9535SOL    HW129504   2.321   1.000   6.173
 9535SOL    HW229505   2.318   0.888   6.054
 9536SOL     OW29506   2.132   5.779   5.161
 9536SOL    HW129507   2.220   5.827   5.167
 9536SOL    HW229508   2.126   5.732   5.073
 9537SOL     OW29509   3.158   0.866   2.604
 9537SOL    HW129510   3.187   0.957   2.574
 9537SOL    HW229511   3.102   0.874   2.686
 9538SOL     OW29512   6.872   1.146   4.453
 9538SOL    HW129513   6.824   1.228   4.422
 9538SOL    HW229514   6.961   1.141   4.408
 9539SOL     OW29515   2.194   4.629   6.398
 9539SOL    HW129516   2.240   4.692   6.461
 9539SOL    HW229517   2.147   4.558   6.450
 9540SOL     OW29518   4.577   4.550   5.223
 9540SOL    HW129519   4.674   4.562   5.241
 9540SOL    HW229520   4.562   4.465   5.172
 9541SOL     OW29521   1.779   1.846   5.313
 9541SOL    HW129522   1.781   1.932   5.363
 9541SOL    HW229523   1.868   1.801   5.320
 9542SOL     OW29524   4.915   3.566   5.331
 9542SOL    HW129525   4.837   3.596   5.276
 9542SOL    HW229526   4.915   3.466   5.336
 9543SOL     OW29527   4.546   0.269   4.991
 9543SOL    HW129528   4.566   0.212   4.912
 9543SOL    HW229529   4.448   0.264   5.013
 9544SOL     OW29530   5.618   0.503   1.898
 9544SOL    HW129531   5.560   0.424   1.877
 9544SOL    HW229532   5.697   0.503   1.837
 9545SOL     OW29533   6.478   6.021   2.914
 9545SOL    HW129534   6.482   6.062   3.005
 9545SOL    HW229535   6.571   6.005   2.881
 9546SOL     OW29536   2.858   4.175   6.740
 9546SOL    HW129537   2.949   4.159   6.702
 9546SOL    HW229538   2.838   4.105   6.809
 9547SOL     OW29539   2.328   6.321   3.995
 9547SOL    HW129540   2.307   6.410   3.955
 9547SOL    HW229541   2.244   6.266   3.997
 9548SOL     OW29542   6.442   5.433   4.869
 9548SOL    HW129543   6.513   5.393   4.811
 9548SOL    HW229544   6.473   5.521   4.904
 9549SOL     OW29545   3.124   5.375   1.260
 9549SOL    HW129546   3.187   5.423   1.321
 9549SOL    HW229547   3.169   5.357   1.173
 9550SOL     OW29548   0.135   1.507   6.839
 9550SOL    HW129549   0.076   1.545   6.910
 9550SOL    HW229550   0.222   1.555   6.838
 9551SOL     OW29551   0.222   0.086   4.302
 9551SOL    HW129552   0.308   0.042   4.327
 9551SOL    HW229553   0.150   0.017   4.295
 9552SOL     OW29554   1.806   6.522   3.005
 9552SOL    HW129555   1.777   6.441   3.057
 9552SOL    HW229556   1.745   6.535   2.928
 9553SOL     OW29557   6.185   5.123   6.848
 9553SOL    HW129558   6.153   5.205   6.895
 9553SOL    HW229559   6.146   5.042   6.892
 9554SOL     OW29560   3.169   1.065   1.512
 9554SOL    HW129561   3.215   1.114   1.586
 9554SOL    HW229562   3.230   0.993   1.477
 9555SOL     OW29563   6.290   2.444   1.620
 9555SOL    HW129564   6.258   2.389   1.543
 9555SOL    HW229565   6.382   2.413   1.646
 9556SOL     OW29566   2.852   1.342   1.471
 9556SOL    HW129567   2.753   1.342   1.483
 9556SOL    HW229568   2.889   1.256   1.504
 9557SOL     OW29569   6.102   0.115   2.794
 9557SOL    HW129570   6.124   0.149   2.702
 9557SOL    HW229571   6.176   0.057   2.827
 9558SOL     OW29572   0.063   5.341   2.940
 9558SOL    HW129573   7.007   5.283   2.952
 9558SOL    HW229574   0.137   5.288   2.900
 9559SOL     OW29575   0.506   4.041   2.130
 9559SOL    HW129576   0.482   4.101   2.054
 9559SOL    HW229577   0.582   3.982   2.102
 9560SOL     OW29578   2.482   1.262   2.427
 9560SOL    HW129579   2.534   1.338   2.390
 9560SOL    HW229580   2.539   1.180   2.429
 9561SOL     OW29581   2.677   6.328   0.582
 9561SOL    HW129582   2.591   6.318   0.632
 9561SOL    HW229583   2.684   6.421   0.547
 9562SOL     OW29584   3.646   5.212   4.362
 9562SOL    HW129585   3.607   5.123   4.386
 9562SOL    HW229586   3.622   5.279   4.432
 9563SOL     OW29587   6.311   6.516   0.270
 9563SOL    HW129588   6.359   6.526   0.182
 9563SOL    HW229589   6.325   6.424   0.306
 9564SOL     OW29590   2.723   6.865   6.564
 9564SOL    HW129591   2.756   6.955   6.538
 9564SOL    HW229592   2.776   6.795   6.517
 9565SOL     OW29593   4.056   5.871   4.523
 9565SOL    HW129594   4.097   5.783   4.498
 9565SOL    HW229595   4.114   5.946   4.491
 9566SOL     OW29596   3.973   4.496   6.687
 9566SOL    HW129597   3.881   4.524   6.661
 9566SOL    HW229598   3.968   4.424   6.757
 9567SOL     OW29599   6.381   5.703   6.532
 9567SOL    HW129600   6.373   5.657   6.621
 9567SOL    HW229601   6.426   5.791   6.544
 9568SOL     OW29602   4.951   3.861   6.116
 9568SOL    HW129603   5.023   3.815   6.064
 9568SOL    HW229604   4.878   3.889   6.054
 9569SOL     OW29605   6.569   1.120   0.207
 9569SOL    HW129606   6.473   1.114   0.180
 9569SOL    HW229607   6.612   1.196   0.159
 9570SOL     OW29608   0.478   1.537   0.993
 9570SOL    HW129609   0.382   1.535   0.964
 9570SOL    HW229610   0.492   1.471   1.067
 9571SOL     OW29611   3.149   3.928   0.231
 9571SOL    HW129612   3.051   3.922   0.250
 9571SOL    HW229613   3.179   4.023   0.236
 9572SOL     OW29614   1.157   4.250   1.157
 9572SOL    HW129615   1.139   4.156   1.187
 9572SOL    HW229616   1.082   4.309   1.189
 9573SOL     OW29617   0.629   0.972   6.537
 9573SOL    HW129618   0.645   1.011   6.446
 9573SOL    HW229619   0.647   1.042   6.606
 9574SOL     OW29620   3.326   3.759   6.120
 9574SOL    HW129621   3.406   3.763   6.059
 9574SOL    HW229622   3.347   3.699   6.197
 9575SOL     OW29623   6.145   0.861   1.406
 9575SOL    HW129624   6.101   0.923   1.341
 9575SOL    HW229625   6.244   0.875   1.403
 9576SOL     OW29626   3.871   1.507   4.131
 9576SOL    HW129627   3.958   1.459   4.125
 9576SOL    HW229628   3.869   1.583   4.066
 9577SOL     OW29629   0.780   0.291   2.305
 9577SOL    HW129630   0.872   0.331   2.315
 9577SOL    HW229631   0.719   0.332   2.372
 9578SOL     OW29632   6.245   2.949   2.059
 9578SOL    HW129633   6.305   2.991   1.991
 9578SOL    HW229634   6.266   2.852   2.066
 9579SOL     OW29635   1.168   0.140   1.888
 9579SOL    HW129636   1.234   0.085   1.939
 9579SOL    HW229637   1.136   0.216   1.945
 9580SOL     OW29638   5.130   3.461   7.005
 9580SOL    HW129639   5.176   3.373   7.020
 9580SOL    HW229640   5.192   3.535   0.007
 9581SOL     OW29641   1.527   5.486   6.062
 9581SOL    HW129642   1.564   5.489   5.970
 9581SOL    HW229643   1.591   5.440   6.123
 9582SOL     OW29644   4.443   4.580   4.210
 9582SOL    HW129645   4.386   4.647   4.258
 9582SOL    HW229646   4.521   4.556   4.267
 9583SOL     OW29647   2.037   3.620   1.899
 9583SOL    HW129648   2.124   3.579   1.925
 9583SOL    HW229649   2.045   3.719   1.900
 9584SOL     OW29650   6.686   4.991   6.704
 9584SOL    HW129651   6.761   4.940   6.748
 9584SOL    HW229652   6.653   4.940   6.625
 9585SOL     OW29653   5.739   6.737   2.942
 9585SOL    HW129654   5.727   6.835   2.926
 9585SOL    HW229655   5.721   6.687   2.857
 9586SOL     OW29656   5.289   3.458   3.831
 9586SOL    HW129657   5.361   3.397   3.801
 9586SOL    HW229658   5.279   3.453   3.931
 9587SOL     OW29659   5.855   0.485   1.455
 9587SOL    HW129660   5.789   0.560   1.464
 9587SOL    HW229661   5.939   0.519   1.414
 9588SOL     OW29662   0.089   0.389   1.522
 9588SOL    HW129663   0.143   0.407   1.440
 9588SOL    HW229664   0.017   0.458   1.530
 9589SOL     OW29665   2.165   6.562   5.858
 9589SOL    HW129666   2.188   6.570   5.762
 9589SOL    HW229667   2.249   6.564   5.913
 9590SOL     OW29668   0.647   3.775   2.824
 9590SOL    HW129669   0.732   3.828   2.817
 9590SOL    HW229670   0.660   3.698   2.886
 9591SOL     OW29671   2.196   6.480   0.913
 9591SOL    HW129672   2.183   6.407   0.980
 9591SOL    HW229673   2.207   6.567   0.959
 9592SOL     OW29674   4.404   5.635   2.844
 9592SOL    HW129675   4.325   5.661   2.901
 9592SOL    HW229676   4.464   5.574   2.896
 9593SOL     OW29677   6.013   2.326   4.723
 9593SOL    HW129678   5.926   2.285   4.697
 9593SOL    HW229679   5.999   2.383   4.804
 9594SOL     OW29680   6.530   6.183   2.613
 9594SOL    HW129681   6.510   6.247   2.687
 9594SOL    HW229682   6.484   6.096   2.632
 9595SOL     OW29683   1.491   5.546   4.337
 9595SOL    HW129684   1.393   5.561   4.325
 9595SOL    HW229685   1.540   5.632   4.323
 9596SOL     OW29686   6.894   5.968   5.343
 9596SOL    HW129687   6.840   5.926   5.416
 9596SOL    HW229688   6.907   5.902   5.269
 9597SOL     OW29689   0.522   4.253   1.464
 9597SOL    HW129690   0.575   4.170   1.484
 9597SOL    HW229691   0.452   4.232   1.396
 9598SOL     OW29692   0.351   4.488   5.857
 9598SOL    HW129693   0.433   4.431   5.846
 9598SOL    HW229694   0.376   4.584   5.842
 9599SOL     OW29695   3.279   0.393   5.776
 9599SOL    HW129696   3.221   0.317   5.748
 9599SOL    HW229697   3.367   0.387   5.728
 9600SOL     OW29698   1.426   0.601   5.767
 9600SOL    HW129699   1.340   0.571   5.727
 9600SOL    HW229700   1.483   0.642   5.697
 9601SOL     OW29701   0.533   4.621   6.384
 9601SOL    HW129702   0.507   4.580   6.297
 9601SOL    HW229703   0.617   4.674   6.371
 9602SOL     OW29704   0.296   4.908   6.323
 9602SOL    HW129705   0.353   4.881   6.246
 9602SOL    HW229706   0.279   5.006   6.321
 9603SOL     OW29707   2.533   6.200   4.155
 9603SOL    HW129708   2.458   6.250   4.111
 9603SOL    HW229709   2.618   6.251   4.143
 9604SOL     OW29710   4.933   1.084   6.905
 9604SOL    HW129711   4.869   1.007   6.918
 9604SOL    HW229712   4.950   1.127   6.994
 9605SOL     OW29713   2.149   5.637   5.390
 9605SOL    HW129714   2.139   5.675   5.298
 9605SOL    HW229715   2.244   5.649   5.421
 9606SOL     OW29716   0.520   6.305   3.376
 9606SOL    HW129717   0.534   6.243   3.454
 9606SOL    HW229718   0.589   6.285   3.305
 9607SOL     OW29719   0.643   0.995   2.267
 9607SOL    HW129720   0.726   0.990   2.322
 9607SOL    HW229721   0.645   1.077   2.211
 9608SOL     OW29722   6.683   0.153   2.418
 9608SOL    HW129723   6.737   0.069   2.412
 9608SOL    HW229724   6.745   0.231   2.431
 9609SOL     OW29725   2.086   4.305   4.673
 9609SOL    HW129726   2.157   4.292   4.604
 9609SOL    HW229727   2.121   4.276   4.762
 9610SOL     OW29728   1.755   1.946   5.670
 9610SOL    HW129729   1.849   1.910   5.669
 9610SOL    HW229730   1.739   1.999   5.587
 9611SOL     OW29731   6.913   0.459   1.117
 9611SOL    HW129732   6.848   0.446   1.192
 9611SOL    HW229733   6.987   0.518   1.148
 9612SOL     OW29734   5.987   3.228   0.657
 9612SOL    HW129735   6.061   3.272   0.708
 9612SOL    HW229736   5.907   3.221   0.716
 9613SOL     OW29737   5.956   6.664   4.931
 9613SOL    HW129738   5.975   6.625   5.021
 9613SOL    HW229739   6.013   6.745   4.917
 9614SOL     OW29740   3.523   4.077   2.264
 9614SOL    HW129741   3.562   4.165   2.293
 9614SOL    HW229742   3.424   4.079   2.274
 9615SOL     OW29743   1.521   5.811   2.779
 9615SOL    HW129744   1.589   5.769   2.839
 9615SOL    HW229745   1.563   5.883   2.724
 9616SOL     OW29746   3.668   2.175   1.155
 9616SOL    HW129747   3.675   2.076   1.166
 9616SOL    HW229748   3.591   2.209   1.209
 9617SOL     OW29749   1.245   2.786   3.228
 9617SOL    HW129750   1.158   2.806   3.272
 9617SOL    HW229751   1.289   2.871   3.200
 9618SOL     OW29752   3.578   6.616   6.422
 9618SOL    HW129753   3.526   6.701   6.418
 9618SOL    HW229754   3.612   6.603   6.515
 9619SOL     OW29755   1.744   6.110   0.449
 9619SOL    HW129756   1.764   6.134   0.544
 9619SOL    HW229757   1.757   6.191   0.391
 9620SOL     OW29758   3.158   0.643   6.946
 9620SOL    HW129759   3.173   0.581   6.869
 9620SOL    HW229760   3.200   0.731   6.926
 9621SOL     OW29761   0.140   0.818   2.632
 9621SOL    HW129762   0.169   0.837   2.539
 9621SOL    HW229763   0.051   0.772   2.631
 9622SOL     OW29764   6.113   0.777   0.101
 9622SOL    HW129765   6.212   0.781   0.115
 9622SOL    HW229766   6.093   0.718   0.023
 9623SOL     OW29767   4.994   5.522   6.884
 9623SOL    HW129768   4.971   5.527   6.981
 9623SOL    HW229769   4.913   5.495   6.832
 9624SOL     OW29770   5.185   5.272   5.122
 9624SOL    HW129771   5.173   5.193   5.062
 9624SOL    HW229772   5.186   5.356   5.068
 9625SOL     OW29773   5.359   4.915   6.886
 9625SOL    HW129774   5.410   4.830   6.899
 9625SOL    HW229775   5.370   4.946   6.792
 9626SOL     OW29776   1.752   4.705   5.453
 9626SOL    HW129777   1.659   4.695   5.489
 9626SOL    HW229778   1.818   4.684   5.525
 9627SOL     OW29779   1.924   4.722   5.899
 9627SOL    HW129780   2.021   4.720   5.924
 9627SOL    HW229781   1.875   4.652   5.951
 9628SOL     OW29782   6.008   4.119   6.567
 9628SOL    HW129783   6.047   4.158   6.650
 9628SOL    HW229784   6.066   4.045   6.534
 9629SOL     OW29785   6.738   5.897   2.597
 9629SOL    HW129786   6.752   5.920   2.694
 9629SOL    HW229787   6.782   5.966   2.540
 9630SOL     OW29788   6.311   6.452   5.564
 9630SOL    HW129789   6.272   6.399   5.488
 9630SOL    HW229790   6.286   6.548   5.553
 9631SOL     OW29791   4.586   1.166   1.116
 9631SOL    HW129792   4.494   1.130   1.132
 9631SOL    HW229793   4.582   1.239   1.048
 9632SOL     OW29794   2.138   5.338   1.704
 9632SOL    HW129795   2.213   5.273   1.693
 9632SOL    HW229796   2.147   5.385   1.792
 9633SOL     OW29797   3.877   3.120   2.278
 9633SOL    HW129798   3.834   3.169   2.202
 9633SOL    HW229799   3.960   3.169   2.307
 9634SOL     OW29800   5.245   4.742   2.451
 9634SOL    HW129801   5.247   4.723   2.549
 9634SOL    HW229802   5.150   4.750   2.420
 9635SOL     OW29803   0.963   3.752   4.229
 9635SOL    HW129804   1.033   3.815   4.263
 9635SOL    HW229805   1.005   3.687   4.165
 9636SOL     OW29806   4.310   1.716   5.753
 9636SOL    HW129807   4.253   1.649   5.801
 9636SOL    HW229808   4.340   1.679   5.665
 9637SOL     OW29809   2.447   3.195   1.446
 9637SOL    HW129810   2.520   3.200   1.377
 9637SOL    HW229811   2.482   3.225   1.534
 9638SOL     OW29812   0.313   4.207   6.321
 9638SOL    HW129813   0.393   4.265   6.304
 9638SOL    HW229814   0.294   4.205   6.419
 9639SOL     OW29815   4.474   2.345   1.594
 9639SOL    HW129816   4.544   2.303   1.652
 9639SOL    HW229817   4.509   2.353   1.500
 9640SOL     OW29818   4.084   1.267   2.885
 9640SOL    HW129819   4.124   1.190   2.835
 9640SOL    HW229820   4.073   1.344   2.822
 9641SOL     OW29821   5.640   4.897   2.495
 9641SOL    HW129822   5.671   4.895   2.590
 9641SOL    HW229823   5.714   4.932   2.437
 9642SOL     OW29824   1.504   6.971   3.879
 9642SOL    HW129825   1.428   6.926   3.927
 9642SOL    HW229826   1.486   6.969   3.781
 9643SOL     OW29827   4.805   3.900   4.150
 9643SOL    HW129828   4.787   3.951   4.066
 9643SOL    HW229829   4.816   3.803   4.127
 9644SOL     OW29830   2.217   6.707   4.948
 9644SOL    HW129831   2.138   6.767   4.931
 9644SOL    HW229832   2.300   6.761   4.950
 9645SOL     OW29833   1.479   5.217   5.679
 9645SOL    HW129834   1.439   5.294   5.728
 9645SOL    HW229835   1.506   5.247   5.587
 9646SOL     OW29836   2.915   6.837   4.572
 9646SOL    HW129837   2.904   6.811   4.668
 9646SOL    HW229838   2.990   6.785   4.532
 9647SOL     OW29839   6.207   6.187   3.221
 9647SOL    HW129840   6.154   6.110   3.188
 9647SOL    HW229841   6.197   6.264   3.157
 9648SOL     OW29842   5.459   2.536   1.557
 9648SOL    HW129843   5.532   2.592   1.518
 9648SOL    HW229844   5.396   2.508   1.484
 9649SOL     OW29845   2.312   3.439   6.658
 9649SOL    HW129846   2.325   3.432   6.756
 9649SOL    HW229847   2.353   3.524   6.625
 9650SOL     OW29848   6.393   4.601   4.078
 9650SOL    HW129849   6.447   4.517   4.075
 9650SOL    HW229850   6.368   4.628   3.985
 9651SOL     OW29851   2.656   1.222   0.143
 9651SOL    HW129852   2.599   1.263   0.072
 9651SOL    HW229853   2.599   1.189   0.218
 9652SOL     OW29854   0.455   4.241   0.983
 9652SOL    HW129855   0.443   4.213   0.888
 9652SOL    HW229856   0.493   4.165   1.036
 9653SOL     OW29857   4.566   4.405   5.735
 9653SOL    HW129858   4.495   4.386   5.667
 9653SOL    HW229859   4.552   4.347   5.815
 9654SOL     OW29860   4.005   3.174   3.457
 9654SOL    HW129861   3.982   3.144   3.549
 9654SOL    HW229862   4.011   3.094   3.397
 9655SOL     OW29863   6.465   0.866   1.430
 9655SOL    HW129864   6.447   0.769   1.448
 9655SOL    HW229865   6.526   0.874   1.351
 9656SOL     OW29866   5.083   3.303   0.531
 9656SOL    HW129867   5.175   3.266   0.518
 9656SOL    HW229868   5.073   3.388   0.480
 9657SOL     OW29869   5.137   3.784   4.033
 9657SOL    HW129870   5.202   3.761   3.961
 9657SOL    HW229871   5.095   3.873   4.013
 9658SOL     OW29872   4.619   1.761   2.734
 9658SOL    HW129873   4.573   1.773   2.822
 9658SOL    HW229874   4.716   1.746   2.749
 9659SOL     OW29875   3.172   1.962   0.603
 9659SOL    HW129876   3.268   1.975   0.627
 9659SOL    HW229877   3.117   2.034   0.647
 9660SOL     OW29878   0.499   6.217   0.753
 9660SOL    HW129879   0.454   6.151   0.812
 9660SOL    HW229880   0.477   6.310   0.783
 9661SOL     OW29881   4.623   5.499   1.172
 9661SOL    HW129882   4.718   5.475   1.153
 9661SOL    HW229883   4.569   5.490   1.089
 9662SOL     OW29884   5.704   4.912   0.020
 9662SOL    HW129885   5.725   4.835   0.080
 9662SOL    HW229886   5.660   4.984   0.073
 9663SOL     OW29887   0.945   4.656   3.323
 9663SOL    HW129888   0.871   4.697   3.376
 9663SOL    HW229889   0.909   4.622   3.236
 9664SOL     OW29890   5.458   3.744   3.500
 9664SOL    HW129891   5.549   3.772   3.471
 9664SOL    HW229892   5.433   3.659   3.454
 9665SOL     OW29893   6.527   6.597   6.004
 9665SOL    HW129894   6.436   6.637   6.014
 9665SOL    HW229895   6.594   6.657   6.047
 9666SOL     OW29896   6.209   4.726   1.436
 9666SOL    HW129897   6.234   4.676   1.520
 9666SOL    HW229898   6.236   4.821   1.445
 9667SOL     OW29899   4.444   4.876   0.846
 9667SOL    HW129900   4.521   4.885   0.782
 9667SOL    HW229901   4.480   4.856   0.938
 9668SOL     OW29902   1.378   0.146   5.756
 9668SOL    HW129903   1.450   0.209   5.788
 9668SOL    HW229904   1.348   0.174   5.665
 9669SOL     OW29905   2.588   6.839   0.868
 9669SOL    HW129906   2.672   6.791   0.843
 9669SOL    HW229907   2.509   6.785   0.839
 9670SOL     OW29908   0.664   6.943   5.718
 9670SOL    HW129909   0.764   6.950   5.720
 9670SOL    HW229910   0.637   6.848   5.731
 9671SOL     OW29911   0.954   4.663   0.210
 9671SOL    HW129912   0.871   4.719   0.203
 9671SOL    HW229913   0.947   4.584   0.149
 9672SOL     OW29914   1.045   4.585   3.016
 9672SOL    HW129915   1.025   4.582   2.918
 9672SOL    HW229916   0.960   4.598   3.067
 9673SOL     OW29917   3.220   4.191   1.638
 9673SOL    HW129918   3.199   4.145   1.724
 9673SOL    HW229919   3.203   4.289   1.648
 9674SOL     OW29920   3.952   6.868   2.795
 9674SOL    HW129921   3.976   6.778   2.760
 9674SOL    HW229922   3.876   6.860   2.860
 9675SOL     OW29923   4.827   4.141   0.396
 9675SOL    HW129924   4.794   4.046   0.403
 9675SOL    HW229925   4.911   4.143   0.342
 9676SOL     OW29926   1.601   2.779   6.588
 9676SOL    HW129927   1.561   2.793   6.498
 9676SOL    HW229928   1.528   2.762   6.655
 9677SOL     OW29929   6.333   5.007   0.062
 9677SOL    HW129930   6.283   5.068   0.124
 9677SOL    HW229931   6.354   5.055   7.003
 9678SOL     OW29932   2.989   3.797   4.890
 9678SOL    HW129933   3.043   3.713   4.889
 9678SOL    HW229934   3.045   3.874   4.861
 9679SOL     OW29935   2.689   1.964   4.654
 9679SOL    HW129936   2.636   1.946   4.570
 9679SOL    HW229937   2.627   1.988   4.728
 9680SOL     OW29938   4.915   6.313   4.654
 9680SOL    HW129939   4.823   6.295   4.690
 9680SOL    HW229940   4.972   6.232   4.666
 9681SOL     OW29941   3.037   1.160   1.093
 9681SOL    HW129942   2.984   1.227   1.041
 9681SOL    HW229943   3.105   1.118   1.032
 9682SOL     OW29944   5.599   5.163   3.974
 9682SOL    HW129945   5.550   5.178   3.888
 9682SOL    HW229946   5.692   5.133   3.954
 9683SOL     OW29947   2.000   6.584   0.645
 9683SOL    HW129948   1.985   6.521   0.722
 9683SOL    HW229949   2.047   6.666   0.679
 9684SOL     OW29950   0.919   3.303   5.245
 9684SOL    HW129951   0.881   3.378   5.191
 9684SOL    HW229952   0.997   3.263   5.196
 9685SOL     OW29953   4.619   3.772   0.267
 9685SOL    HW129954   4.591   3.676   0.268
 9685SOL    HW229955   4.704   3.782   0.320
 9686SOL     OW29956   0.244   1.920   6.447
 9686SOL    HW129957   0.271   1.954   6.537
 9686SOL    HW229958   0.282   1.979   6.376
 9687SOL     OW29959   6.411   6.781   1.442
 9687SOL    HW129960   6.360   6.812   1.523
 9687SOL    HW229961   6.476   6.709   1.469
 9688SOL     OW29962   1.103   4.275   0.896
 9688SOL    HW129963   1.186   4.256   0.844
 9688SOL    HW229964   1.120   4.262   0.994
 9689SOL     OW29965   1.072   5.268   6.420
 9689SOL    HW129966   1.002   5.212   6.375
 9689SOL    HW229967   1.133   5.307   6.351
 9690SOL     OW29968   4.798   5.513   5.143
 9690SOL    HW129969   4.808   5.427   5.193
 9690SOL    HW229970   4.875   5.574   5.163
 9691SOL     OW29971   3.405   4.050   2.838
 9691SOL    HW129972   3.346   4.023   2.762
 9691SOL    HW229973   3.492   4.001   2.832
 9692SOL     OW29974   4.996   5.295   0.316
 9692SOL    HW129975   4.902   5.283   0.350
 9692SOL    HW229976   5.060   5.253   0.379
 9693SOL     OW29977   5.832   4.004   4.448
 9693SOL    HW129978   5.904   3.940   4.422
 9693SOL    HW229979   5.844   4.030   4.544
 9694SOL     OW29980   3.003   0.322   1.493
 9694SOL    HW129981   2.995   0.300   1.590
 9694SOL    HW229982   2.987   0.241   1.438
 9695SOL     OW29983   0.190   3.938   2.721
 9695SOL    HW129984   0.108   3.883   2.704
 9695SOL    HW229985   0.234   3.959   2.634
 9696SOL     OW29986   6.024   1.857   2.682
 9696SOL    HW129987   6.028   1.818   2.774
 9696SOL    HW229988   5.943   1.823   2.635
 9697SOL     OW29989   6.628   6.428   0.150
 9697SOL    HW129990   6.550   6.469   0.103
 9697SOL    HW229991   6.709   6.435   0.091
 9698SOL     OW29992   5.887   3.372   6.228
 9698SOL    HW129993   5.856   3.418   6.145
 9698SOL    HW229994   5.807   3.345   6.283
 9699SOL     OW29995   0.788   6.051   7.024
 9699SOL    HW129996   0.847   6.004   0.064
 9699SOL    HW229997   0.693   6.047   0.030
 9700SOL     OW29998   6.921   6.356   3.781
 9700SOL    HW129999   7.013   6.355   3.741
 9700SOL    HW230000   6.857   6.397   3.715
 9701SOL     OW30001   4.937   3.407   6.285
 9701SOL    HW130002   4.867   3.470   6.316
 9701SOL    HW230003   4.972   3.437   6.196
 9702SOL     OW30004   3.595   2.913   0.385
 9702SOL    HW130005   3.662   2.869   0.325
 9702SOL    HW230006   3.644   2.961   0.459
 9703SOL     OW30007   5.985   3.645   3.842
 9703SOL    HW130008   6.041   3.576   3.797
 9703SOL    HW230009   6.037   3.730   3.848
 9704SOL     OW30010   3.114   4.908   2.892
 9704SOL    HW130011   3.202   4.908   2.940
 9704SOL    HW230012   3.040   4.891   2.957
 9705SOL     OW30013   6.314   4.110   5.547
 9705SOL    HW130014   6.328   4.125   5.645
 9705SOL    HW230015   6.223   4.073   5.531
 9706SOL     OW30016   2.079   1.434   1.330
 9706SOL    HW130017   1.983   1.404   1.333
 9706SOL    HW230018   2.137   1.356   1.308
 9707SOL     OW30019   5.598   4.791   1.874
 9707SOL    HW130020   5.596   4.797   1.974
 9707SOL    HW230021   5.504   4.786   1.839
 9708SOL     OW30022   1.299   1.298   2.150
 9708SOL    HW130023   1.306   1.351   2.235
 9708SOL    HW230024   1.355   1.341   2.079
 9709SOL     OW30025   5.361   4.109   1.685
 9709SOL    HW130026   5.302   4.093   1.764
 9709SOL    HW230027   5.346   4.202   1.651
 9710SOL     OW30028   6.267   0.480   6.701
 9710SOL    HW130029   6.236   0.435   6.618
 9710SOL    HW230030   6.244   0.423   6.780
 9711SOL     OW30031   3.892   6.217   5.628
 9711SOL    HW130032   3.857   6.301   5.586
 9711SOL    HW230033   3.839   6.139   5.595
 9712SOL     OW30034   6.039   3.418   0.426
 9712SOL    HW130035   5.973   3.360   0.472
 9712SOL    HW230036   6.085   3.365   0.354
 9713SOL     OW30037   2.438   6.614   3.027
 9713SOL    HW130038   2.395   6.525   3.009
 9713SOL    HW230039   2.440   6.668   2.943
 9714SOL     OW30040   4.208   5.811   4.975
 9714SOL    HW130041   4.255   5.733   4.934
 9714SOL    HW230042   4.138   5.779   5.039
 9715SOL     OW30043   6.432   4.881   0.299
 9715SOL    HW130044   6.398   4.905   0.207
 9715SOL    HW230045   6.438   4.782   0.307
 9716SOL     OW30046   4.284   3.827   6.714
 9716SOL    HW130047   4.307   3.800   6.620
 9716SOL    HW230048   4.269   3.926   6.717
 9717SOL     OW30049   4.939   6.220   6.702
 9717SOL    HW130050   4.898   6.301   6.660
 9717SOL    HW230051   4.958   6.152   6.631
 9718SOL     OW30052   4.640   2.252   0.374
 9718SOL    HW130053   4.633   2.202   0.461
 9718SOL    HW230054   4.565   2.224   0.314
 9719SOL     OW30055   5.295   6.968   5.735
 9719SOL    HW130056   5.238   6.932   5.661
 9719SOL    HW230057   5.270   0.039   5.751
 9720SOL     OW30058   1.648   3.482   2.674
 9720SOL    HW130059   1.659   3.411   2.606
 9720SOL    HW230060   1.703   3.562   2.649
 9721SOL     OW30061   0.461   1.607   0.359
 9721SOL    HW130062   0.560   1.599   0.348
 9721SOL    HW230063   0.418   1.618   0.270
 9722SOL     OW30064   3.551   2.069   5.046
 9722SOL    HW130065   3.515   2.107   5.131
 9722SOL    HW230066   3.644   2.037   5.061
 9723SOL     OW30067   6.155   4.800   4.758
 9723SOL    HW130068   6.225   4.732   4.782
 9723SOL    HW230069   6.183   4.890   4.790
 9724SOL     OW30070   2.114   5.155   6.454
 9724SOL    HW130071   2.193   5.126   6.509
 9724SOL    HW230072   2.069   5.075   6.416
 9725SOL     OW30073   3.974   5.721   5.139
 9725SOL    HW130074   3.945   5.816   5.140
 9725SOL    HW230075   3.899   5.663   5.171
 9726SOL     OW30076   5.344   0.984   4.163
 9726SOL    HW130077   5.357   0.940   4.251
 9726SOL    HW230078   5.368   1.081   4.169
 9727SOL     OW30079   0.548   2.783   0.240
 9727SOL    HW130080   0.459   2.754   0.205
 9727SOL    HW230081   0.592   2.706   0.287
 9728SOL     OW30082   6.545   1.513   6.201
 9728SOL    HW130083   6.487   1.589   6.173
 9728SOL    HW230084   6.553   1.512   6.301
 9729SOL     OW30085   1.496   3.469   4.218
 9729SOL    HW130086   1.564   3.476   4.145
 9729SOL    HW230087   1.530   3.407   4.288
 9730SOL     OW30088   0.763   4.448   3.673
 9730SOL    HW130089   0.743   4.546   3.686
 9730SOL    HW230090   0.694   4.408   3.613
 9731SOL     OW30091   5.036   5.061   2.028
 9731SOL    HW130092   4.990   5.020   1.949
 9731SOL    HW230093   5.100   4.995   2.066
 9732SOL     OW30094   0.222   2.939   2.030
 9732SOL    HW130095   0.128   2.905   2.033
 9732SOL    HW230096   0.221   3.039   2.033
 9733SOL     OW30097   5.859   5.496   1.699
 9733SOL    HW130098   5.911   5.581   1.703
 9733SOL    HW230099   5.918   5.422   1.668
 9734SOL     OW30100   6.417   6.525   0.568
 9734SOL    HW130101   6.335   6.578   0.547
 9734SOL    HW230102   6.485   6.539   0.495
 9735SOL     OW30103   1.568   2.462   3.223
 9735SOL    HW130104   1.601   2.524   3.151
 9735SOL    HW230105   1.474   2.485   3.245
 9736SOL     OW30106   4.760   2.260   5.878
 9736SOL    HW130107   4.787   2.171   5.840
 9736SOL    HW230108   4.834   2.326   5.865
 9737SOL     OW30109   5.780   2.004   3.129
 9737SOL    HW130110   5.744   1.990   3.037
 9737SOL    HW230111   5.833   1.924   3.157
 9738SOL     OW30112   1.967   6.611   0.370
 9738SOL    HW130113   1.973   6.604   0.470
 9738SOL    HW230114   2.043   6.561   0.328
 9739SOL     OW30115   4.919   6.062   6.934
 9739SOL    HW130116   5.003   6.008   6.925
 9739SOL    HW230117   4.906   6.117   6.852
 9740SOL     OW30118   5.401   0.546   2.710
 9740SOL    HW130119   5.374   0.605   2.786
 9740SOL    HW230120   5.333   0.472   2.700
 9741SOL     OW30121   2.406   1.096   3.777
 9741SOL    HW130122   2.363   1.180   3.743
 9741SOL    HW230123   2.405   1.097   3.877
 9742SOL     OW30124   4.732   0.900   0.265
 9742SOL    HW130125   4.762   0.992   0.237
 9742SOL    HW230126   4.782   0.871   0.346
 9743SOL     OW30127   0.311   3.519   3.380
 9743SOL    HW130128   0.329   3.523   3.282
 9743SOL    HW230129   0.398   3.521   3.430
 9744SOL     OW30130   2.205   6.833   3.144
 9744SOL    HW130131   2.175   6.846   3.238
 9744SOL    HW230132   2.234   6.738   3.131
 9745SOL     OW30133   5.359   2.650   6.241
 9745SOL    HW130134   5.340   2.716   6.168
 9745SOL    HW230135   5.454   2.620   6.235
 9746SOL     OW30136   5.236   6.328   6.718
 9746SOL    HW130137   5.241   6.248   6.659
 9746SOL    HW230138   5.177   6.397   6.676
 9747SOL     OW30139   2.576   2.187   1.689
 9747SOL    HW130140   2.480   2.189   1.660
 9747SOL    HW230141   2.602   2.094   1.713
 9748SOL     OW30142   0.181   6.884   3.005
 9748SOL    HW130143   0.206   6.831   2.925
 9748SOL    HW230144   0.133   6.826   3.071
 9749SOL     OW30145   0.617   1.278   2.438
 9749SOL    HW130146   0.661   1.203   2.486
 9749SOL    HW230147   0.526   1.250   2.406
 9750SOL     OW30148   6.363   4.867   4.171
 9750SOL    HW130149   6.378   4.770   4.150
 9750SOL    HW230150   6.400   4.923   4.097
 9751SOL     OW30151   2.074   0.163   0.424
 9751SOL    HW130152   2.141   0.157   0.351
 9751SOL    HW230153   2.120   0.153   0.512
 9752SOL     OW30154   3.836   2.594   6.375
 9752SOL    HW130155   3.798   2.666   6.434
 9752SOL    HW230156   3.820   2.618   6.279
 9753SOL     OW30157   1.239   6.045   6.137
 9753SOL    HW130158   1.309   6.029   6.067
 9753SOL    HW230159   1.166   6.100   6.099
 9754SOL     OW30160   4.157   0.058   0.254
 9754SOL    HW130161   4.116   0.007   0.329
 9754SOL    HW230162   4.206   0.137   0.291
 9755SOL     OW30163   3.249   3.845   5.253
 9755SOL    HW130164   3.174   3.784   5.278
 9755SOL    HW230165   3.323   3.836   5.319
 9756SOL     OW30166   5.994   1.619   6.138
 9756SOL    HW130167   6.083   1.577   6.154
 9756SOL    HW230168   5.925   1.548   6.129
 9757SOL     OW30169   5.525   4.284   4.877
 9757SOL    HW130170   5.565   4.347   4.944
 9757SOL    HW230171   5.535   4.322   4.785
 9758SOL     OW30172   1.323   1.568   6.802
 9758SOL    HW130173   1.341   1.483   6.851
 9758SOL    HW230174   1.295   1.639   6.868
 9759SOL     OW30175   0.905   1.723   6.913
 9759SOL    HW130176   0.853   1.743   6.996
 9759SOL    HW230177   0.932   1.627   6.914
 9760SOL     OW30178   5.184   3.037   6.837
 9760SOL    HW130179   5.116   2.968   6.812
 9760SOL    HW230180   5.262   3.030   6.775
 9761SOL     OW30181   1.250   1.811   2.186
 9761SOL    HW130182   1.198   1.829   2.102
 9761SOL    HW230183   1.204   1.739   2.238
 9762SOL     OW30184   3.398   1.677   4.847
 9762SOL    HW130185   3.339   1.620   4.905
 9762SOL    HW230186   3.390   1.646   4.752
 9763SOL     OW30187   5.927   1.304   2.930
 9763SOL    HW130188   6.016   1.259   2.925
 9763SOL    HW230189   5.860   1.254   2.875
 9764SOL     OW30190   6.416   1.713   3.112
 9764SOL    HW130191   6.482   1.754   3.175
 9764SOL    HW230192   6.325   1.751   3.130
 9765SOL     OW30193   6.379   0.679   2.949
 9765SOL    HW130194   6.478   0.676   2.936
 9765SOL    HW230195   6.353   0.766   2.991
 9766SOL     OW30196   2.385   0.328   2.788
 9766SOL    HW130197   2.328   0.381   2.725
 9766SOL    HW230198   2.355   0.346   2.882
 9767SOL     OW30199   2.129   2.735   4.851
 9767SOL    HW130200   2.166   2.689   4.771
 9767SOL    HW230201   2.190   2.720   4.929
 9768SOL     OW30202   4.894   1.983   1.121
 9768SOL    HW130203   4.935   2.040   1.049
 9768SOL    HW230204   4.859   2.042   1.194
 9769SOL     OW30205   3.599   0.953   5.477
 9769SOL    HW130206   3.649   0.952   5.391
 9769SOL    HW230207   3.623   1.035   5.529
 9770SOL     OW30208   4.175   1.643   5.371
 9770SOL    HW130209   4.166   1.616   5.467
 9770SOL    HW230210   4.247   1.712   5.363
 9771SOL     OW30211   2.609   6.491   1.531
 9771SOL    HW130212   2.619   6.584   1.566
 9771SOL    HW230213   2.535   6.489   1.463
 9772SOL     OW30214   2.089   6.429   1.829
 9772SOL    HW130215   2.062   6.517   1.866
 9772SOL    HW230216   2.159   6.442   1.759
 9773SOL     OW30217   5.691   4.901   3.810
 9773SOL    HW130218   5.768   4.960   3.835
 9773SOL    HW230219   5.718   4.842   3.734
 9774SOL     OW30220   0.613   4.329   3.462
 9774SOL    HW130221   0.621   4.418   3.418
 9774SOL    HW230222   0.538   4.278   3.421
 9775SOL     OW30223   2.856   0.293   3.263
 9775SOL    HW130224   2.805   0.214   3.228
 9775SOL    HW230225   2.837   0.373   3.206
 9776SOL     OW30226   1.346   4.636   6.248
 9776SOL    HW130227   1.432   4.674   6.284
 9776SOL    HW230228   1.325   4.551   6.296
 9777SOL     OW30229   5.429   6.342   0.446
 9777SOL    HW130230   5.378   6.344   0.532
 9777SOL    HW230231   5.518   6.299   0.461
 9778SOL     OW30232   0.252   2.229   4.645
 9778SOL    HW130233   0.282   2.219   4.740
 9778SOL    HW230234   0.211   2.319   4.632
 9779SOL     OW30235   0.298   2.448   3.642
 9779SOL    HW130236   0.330   2.440   3.548
 9779SOL    HW230237   0.213   2.397   3.653
 9780SOL     OW30238   2.408   1.441   0.903
 9780SOL    HW130239   2.482   1.505   0.923
 9780SOL    HW230240   2.444   1.348   0.900
 9781SOL     OW30241   2.113   3.231   4.651
 9781SOL    HW130242   2.179   3.158   4.669
 9781SOL    HW230243   2.127   3.305   4.717
 9782SOL     OW30244   0.935   2.110   0.708
 9782SOL    HW130245   0.876   2.095   0.629
 9782SOL    HW230246   1.014   2.165   0.680
 9783SOL     OW30247   4.294   1.845   3.661
 9783SOL    HW130248   4.305   1.747   3.642
 9783SOL    HW230249   4.281   1.894   3.576
 9784SOL     OW30250   3.924   0.960   5.727
 9784SOL    HW130251   3.970   0.992   5.810
 9784SOL    HW230252   3.850   1.022   5.704
 9785SOL     OW30253   5.573   2.456   5.582
 9785SOL    HW130254   5.672   2.447   5.572
 9785SOL    HW230255   5.550   2.552   5.600
 9786SOL     OW30256   2.404   4.145   0.326
 9786SOL    HW130257   2.456   4.091   0.392
 9786SOL    HW230258   2.414   4.105   0.235
 9787SOL     OW30259   3.411   2.986   4.111
 9787SOL    HW130260   3.351   3.053   4.156
 9787SOL    HW230261   3.438   3.021   4.021
 9788SOL     OW30262   0.878   6.470   2.064
 9788SOL    HW130263   0.798   6.479   2.123
 9788SOL    HW230264   0.913   6.561   2.041
 9789SOL     OW30265   2.514   6.732   6.773
 9789SOL    HW130266   2.535   6.769   6.683
 9789SOL    HW230267   2.584   6.759   6.838
 9790SOL     OW30268   6.090   4.786   6.252
 9790SOL    HW130269   6.149   4.739   6.187
 9790SOL    HW230270   6.085   4.733   6.337
 9791SOL     OW30271   1.044   0.603   0.039
 9791SOL    HW130272   1.029   0.588   0.137
 9791SOL    HW230273   0.968   0.656   0.001
 9792SOL     OW30274   3.468   4.922   1.265
 9792SOL    HW130275   3.537   4.989   1.237
 9792SOL    HW230276   3.418   4.958   1.344
 9793SOL     OW30277   4.187   0.070   2.358
 9793SOL    HW130278   4.141   0.081   2.269
 9793SOL    HW230279   4.152   7.013   2.404
 9794SOL     OW30280   5.778   4.519   5.250
 9794SOL    HW130281   5.723   4.471   5.317
 9794SOL    HW230282   5.861   4.468   5.231
 9795SOL     OW30283   0.928   3.032   4.579
 9795SOL    HW130284   0.903   3.065   4.670
 9795SOL    HW230285   1.015   3.073   4.551
 9796SOL     OW30286   3.522   3.900   3.588
 9796SOL    HW130287   3.619   3.882   3.573
 9796SOL    HW230288   3.511   3.988   3.634
 9797SOL     OW30289   2.136   5.991   0.218
 9797SOL    HW130290   2.125   5.935   0.136
 9797SOL    HW230291   2.159   6.084   0.193
 9798SOL     OW30292   2.272   1.215   1.239
 9798SOL    HW130293   2.341   1.237   1.308
 9798SOL    HW230294   2.317   1.187   1.154
 9799SOL     OW30295   3.456   4.100   6.571
 9799SOL    HW130296   3.500   4.021   6.530
 9799SOL    HW230297   3.361   4.077   6.595
 9800SOL     OW30298   5.699   4.145   4.218
 9800SOL    HW130299   5.734   4.106   4.303
 9800SOL    HW230300   5.612   4.192   4.237
 9801SOL     OW30301   5.163   5.104   0.423
 9801SOL    HW130302   5.221   5.139   0.349
 9801SOL    HW230303   5.170   5.004   0.426
 9802SOL     OW30304   4.507   4.873   0.451
 9802SOL    HW130305   4.477   4.848   0.359
 9802SOL    HW230306   4.494   4.796   0.513
 9803SOL     OW30307   2.244   3.660   6.000
 9803SOL    HW130308   2.234   3.607   5.916
 9803SOL    HW230309   2.269   3.599   6.075
 9804SOL     OW30310   0.059   5.883   2.958
 9804SOL    HW130311   0.055   5.790   2.923
 9804SOL    HW230312   0.020   5.886   3.050
 9805SOL     OW30313   0.438   6.271   3.024
 9805SOL    HW130314   0.444   6.205   2.950
 9805SOL    HW230315   0.529   6.309   3.042
 9806SOL     OW30316   1.964   1.653   6.977
 9806SOL    HW130317   1.999   1.708   6.902
 9806SOL    HW230318   2.038   1.599   7.017
 9807SOL     OW30319   3.438   3.148   2.430
 9807SOL    HW130320   3.426   3.082   2.504
 9807SOL    HW230321   3.358   3.208   2.425
 9808SOL     OW30322   3.502   5.513   4.197
 9808SOL    HW130323   3.469   5.457   4.121
 9808SOL    HW230324   3.599   5.534   4.184
 9809SOL     OW30325   0.892   3.382   0.298
 9809SOL    HW130326   0.933   3.299   0.260
 9809SOL    HW230327   0.878   3.448   0.225
 9810SOL     OW30328   2.921   2.089   4.909
 9810SOL    HW130329   2.867   2.086   4.993
 9810SOL    HW230330   3.009   2.133   4.928
 9811SOL     OW30331   5.920   4.336   3.438
 9811SOL    HW130332   6.017   4.324   3.456
 9811SOL    HW230333   5.907   4.413   3.375
 9812SOL     OW30334   2.561   1.195   4.443
 9812SOL    HW130335   2.642   1.142   4.466
 9812SOL    HW230336   2.541   1.260   4.517
 9813SOL     OW30337   5.365   2.020   0.975
 9813SOL    HW130338   5.304   2.003   1.052
 9813SOL    HW230339   5.438   2.083   1.003
 9814SOL     OW30340   5.484   1.397   0.139
 9814SOL    HW130341   5.474   1.489   0.101
 9814SOL    HW230342   5.398   1.347   0.125
 9815SOL     OW30343   4.771   2.668   4.290
 9815SOL    HW130344   4.756   2.751   4.344
 9815SOL    HW230345   4.683   2.624   4.271
 9816SOL     OW30346   0.987   0.957   5.954
 9816SOL    HW130347   1.078   0.925   5.931
 9816SOL    HW230348   0.920   0.917   5.892
 9817SOL     OW30349   1.087   0.194   3.248
 9817SOL    HW130350   1.095   0.103   3.208
 9817SOL    HW230351   1.162   0.251   3.213
 9818SOL     OW30352   6.446   2.247   4.710
 9818SOL    HW130353   6.396   2.290   4.635
 9818SOL    HW230354   6.382   2.219   4.782
 9819SOL     OW30355   4.874   3.196   3.340
 9819SOL    HW130356   4.922   3.159   3.420
 9819SOL    HW230357   4.823   3.278   3.366
 9820SOL     OW30358   3.569   3.196   6.408
 9820SOL    HW130359   3.620   3.113   6.385
 9820SOL    HW230360   3.494   3.173   6.469
 9821SOL     OW30361   5.494   0.805   6.597
 9821SOL    HW130362   5.535   0.886   6.554
 9821SOL    HW230363   5.466   0.827   6.690
 9822SOL     OW30364   1.218   6.839   3.227
 9822SOL    HW130365   1.149   6.796   3.286
 9822SOL    HW230366   1.174   6.903   3.165
 9823SOL     OW30367   3.846   0.245   1.306
 9823SOL    HW130368   3.922   0.309   1.292
 9823SOL    HW230369   3.878   0.165   1.356
 9824SOL     OW30370   1.735   4.303   5.692
 9824SOL    HW130371   1.693   4.375   5.636
 9824SOL    HW230372   1.798   4.344   5.757
 9825SOL     OW30373   3.127   4.976   5.465
 9825SOL    HW130374   3.089   4.899   5.415
 9825SOL    HW230375   3.162   5.044   5.401
 9826SOL     OW30376   5.282   5.276   6.114
 9826SOL    HW130377   5.268   5.371   6.086
 9826SOL    HW230378   5.195   5.227   6.111
 9827SOL     OW30379   2.118   3.391   4.172
 9827SOL    HW130380   2.124   3.374   4.074
 9827SOL    HW230381   2.165   3.476   4.194
 9828SOL     OW30382   2.651   3.010   6.241
 9828SOL    HW130383   2.640   2.949   6.162
 9828SOL    HW230384   2.610   2.967   6.322
 9829SOL     OW30385   3.134   6.428   0.609
 9829SOL    HW130386   3.208   6.367   0.583
 9829SOL    HW230387   3.048   6.376   0.612
 9830SOL     OW30388   5.274   2.556   1.322
 9830SOL    HW130389   5.184   2.512   1.332
 9830SOL    HW230390   5.320   2.521   1.241
 9831SOL     OW30391   1.645   6.327   1.118
 9831SOL    HW130392   1.548   6.304   1.117
 9831SOL    HW230393   1.698   6.243   1.133
 9832SOL     OW30394   5.039   5.039   2.651
 9832SOL    HW130395   4.943   5.021   2.629
 9832SOL    HW230396   5.089   5.057   2.566
 9833SOL     OW30397   3.390   2.964   4.700
 9833SOL    HW130398   3.386   2.877   4.749
 9833SOL    HW230399   3.300   3.008   4.704
 9834SOL     OW30400   3.279   4.292   5.598
 9834SOL    HW130401   3.224   4.344   5.533
 9834SOL    HW230402   3.244   4.199   5.606
 9835SOL     OW30403   3.531   2.693   5.740
 9835SOL    HW130404   3.615   2.692   5.686
 9835SOL    HW230405   3.452   2.698   5.680
 9836SOL     OW30406   6.103   4.642   3.471
 9836SOL    HW130407   6.066   4.716   3.414
 9836SOL    HW230408   6.045   4.630   3.551
 9837SOL     OW30409   3.197   0.247   2.418
 9837SOL    HW130410   3.216   0.185   2.494
 9837SOL    HW230411   3.252   0.221   2.339
 9838SOL     OW30412   0.582   0.076   5.973
 9838SOL    HW130413   0.563   0.020   5.892
 9838SOL    HW230414   0.630   0.159   5.945
 9839SOL     OW30415   5.367   1.316   3.293
 9839SOL    HW130416   5.418   1.296   3.210
 9839SOL    HW230417   5.384   1.411   3.321
 9840SOL     OW30418   0.676   0.975   1.403
 9840SOL    HW130419   0.758   1.032   1.406
 9840SOL    HW230420   0.628   0.982   1.490
 9841SOL     OW30421   1.425   3.899   4.786
 9841SOL    HW130422   1.345   3.889   4.727
 9841SOL    HW230423   1.485   3.820   4.775
 9842SOL     OW30424   3.948   3.915   3.044
 9842SOL    HW130425   3.965   3.944   2.950
 9842SOL    HW230426   3.866   3.960   3.079
 9843SOL     OW30427   5.861   1.798   1.683
 9843SOL    HW130428   5.848   1.711   1.731
 9843SOL    HW230429   5.779   1.854   1.691
 9844SOL     OW30430   5.408   0.714   2.513
 9844SOL    HW130431   5.396   0.658   2.595
 9844SOL    HW230432   5.473   0.670   2.451
 9845SOL     OW30433   2.784   1.292   3.760
 9845SOL    HW130434   2.698   1.344   3.756
 9845SOL    HW230435   2.800   1.249   3.671
 9846SOL     OW30436   4.054   3.855   2.104
 9846SOL    HW130437   3.995   3.788   2.058
 9846SOL    HW230438   4.136   3.871   2.049
 9847SOL     OW30439   3.288   2.854   5.051
 9847SOL    HW130440   3.353   2.784   5.020
 9847SOL    HW230441   3.237   2.820   5.130
 9848SOL     OW30442   3.801   2.934   6.113
 9848SOL    HW130443   3.881   2.989   6.139
 9848SOL    HW230444   3.782   2.947   6.016
 9849SOL     OW30445   6.421   0.505   0.435
 9849SOL    HW130446   6.379   0.596   0.434
 9849SOL    HW230447   6.457   0.486   0.526
 9850SOL     OW30448   5.676   6.391   2.758
 9850SOL    HW130449   5.670   6.488   2.737
 9850SOL    HW230450   5.716   6.379   2.849
 9851SOL     OW30451   4.571   2.478   5.955
 9851SOL    HW130452   4.612   2.566   5.979
 9851SOL    HW230453   4.643   2.414   5.929
 9852SOL     OW30454   4.185   2.017   2.896
 9852SOL    HW130455   4.180   2.103   2.845
 9852SOL    HW230456   4.134   1.946   2.849
 9853SOL     OW30457   4.899   3.945   3.559
 9853SOL    HW130458   4.995   3.973   3.558
 9853SOL    HW230459   4.858   3.962   3.469
 9854SOL     OW30460   6.913   5.083   4.474
 9854SOL    HW130461   7.013   5.083   4.473
 9854SOL    HW230462   6.880   4.996   4.512
 9855SOL     OW30463   2.576   4.157   1.329
 9855SOL    HW130464   2.654   4.183   1.273
 9855SOL    HW230465   2.531   4.077   1.289
 9856SOL     OW30466   5.182   3.775   6.728
 9856SOL    HW130467   5.111   3.808   6.666
 9856SOL    HW230468   5.206   3.681   6.704
 9857SOL     OW30469   4.004   1.777   4.691
 9857SOL    HW130470   4.025   1.827   4.607
 9857SOL    HW230471   3.913   1.802   4.724
 9858SOL     OW30472   0.333   0.553   1.357
 9858SOL    HW130473   0.282   0.492   1.297
 9858SOL    HW230474   0.431   0.534   1.350
 9859SOL     OW30475   6.069   6.888   2.104
 9859SOL    HW130476   6.006   6.817   2.069
 9859SOL    HW230477   6.026   6.977   2.095
 9860SOL     OW30478   6.902   1.261   3.018
 9860SOL    HW130479   6.855   1.327   2.960
 9860SOL    HW230480   6.932   1.183   2.963
 9861SOL     OW30481   3.718   6.844   2.973
 9861SOL    HW130482   3.726   6.935   3.013
 9861SOL    HW230483   3.628   6.835   2.930
 9862SOL     OW30484   2.649   5.196   0.536
 9862SOL    HW130485   2.747   5.180   0.544
 9862SOL    HW230486   2.631   5.294   0.539
 9863SOL     OW30487   3.413   0.477   3.615
 9863SOL    HW130488   3.393   0.424   3.697
 9863SOL    HW230489   3.328   0.496   3.565
 9864SOL     OW30490   3.632   5.791   4.012
 9864SOL    HW130491   3.600   5.732   3.938
 9864SOL    HW230492   3.629   5.886   3.982
 9865SOL     OW30493   1.829   1.074   4.072
 9865SOL    HW130494   1.847   1.155   4.015
 9865SOL    HW230495   1.735   1.043   4.057
 9866SOL     OW30496   5.647   4.761   5.234
 9866SOL    HW130497   5.614   4.754   5.328
 9866SOL    HW230498   5.692   4.675   5.208
 9867SOL     OW30499   6.210   0.449   0.783
 9867SOL    HW130500   6.158   0.406   0.710
 9867SOL    HW230501   6.307   0.449   0.759
 9868SOL     OW30502   0.937   3.805   5.696
 9868SOL    HW130503   0.951   3.832   5.791
 9868SOL    HW230504   0.914   3.707   5.692
 9869SOL     OW30505   1.647   3.147   2.299
 9869SOL    HW130506   1.689   3.205   2.229
 9869SOL    HW230507   1.551   3.132   2.276
 9870SOL     OW30508   4.824   5.930   2.933
 9870SOL    HW130509   4.922   5.910   2.938
 9870SOL    HW230510   4.785   5.883   2.854
 9871SOL     OW30511   0.856   6.872   6.203
 9871SOL    HW130512   0.870   6.807   6.277
 9871SOL    HW230513   0.763   6.909   6.209
 9872SOL     OW30514   2.557   4.558   4.406
 9872SOL    HW130515   2.489   4.506   4.354
 9872SOL    HW230516   2.559   4.525   4.500
 9873SOL     OW30517   2.907   2.286   1.158
 9873SOL    HW130518   2.951   2.365   1.200
 9873SOL    HW230519   2.838   2.249   1.220
 9874SOL     OW30520   1.027   3.471   4.084
 9874SOL    HW130521   1.104   3.413   4.112
 9874SOL    HW230522   0.950   3.412   4.058
 9875SOL     OW30523   6.830   6.599   2.252
 9875SOL    HW130524   6.890   6.582   2.173
 9875SOL    HW230525   6.782   6.685   2.240
 9876SOL     OW30526   6.006   0.481   2.669
 9876SOL    HW130527   6.060   0.449   2.591
 9876SOL    HW230528   5.968   0.571   2.649
 9877SOL     OW30529   0.282   6.250   3.614
 9877SOL    HW130530   0.274   6.241   3.514
 9877SOL    HW230531   0.361   6.196   3.645
 9878SOL     OW30532   2.902   5.142   5.075
 9878SOL    HW130533   2.962   5.073   5.035
 9878SOL    HW230534   2.813   5.101   5.094
 9879SOL     OW30535   5.634   5.429   4.036
 9879SOL    HW130536   5.645   5.342   3.989
 9879SOL    HW230537   5.645   5.504   3.970
 9880SOL     OW30538   3.003   1.436   5.688
 9880SOL    HW130539   2.943   1.507   5.725
 9880SOL    HW230540   2.974   1.413   5.595
 9881SOL     OW30541   1.483   1.618   5.038
 9881SOL    HW130542   1.429   1.674   5.101
 9881SOL    HW230543   1.520   1.539   5.087
 9882SOL     OW30544   0.683   2.562   3.441
 9882SOL    HW130545   0.768   2.570   3.494
 9882SOL    HW230546   0.658   2.466   3.433
 9883SOL     OW30547   1.248   5.500   6.964
 9883SOL    HW130548   1.203   5.546   0.016
 9883SOL    HW230549   1.326   5.556   6.934
 9884SOL     OW30550   4.416   2.018   3.055
 9884SOL    HW130551   4.480   2.088   3.024
 9884SOL    HW230552   4.329   2.028   3.005
 9885SOL     OW30553   6.693   2.816   5.527
 9885SOL    HW130554   6.720   2.728   5.489
 9885SOL    HW230555   6.723   2.823   5.622
 9886SOL     OW30556   0.930   3.685   1.977
 9886SOL    HW130557   0.938   3.678   1.878
 9886SOL    HW230558   0.864   3.618   2.011
 9887SOL     OW30559   3.943   0.788   6.154
 9887SOL    HW130560   3.961   0.844   6.236
 9887SOL    HW230561   3.992   0.702   6.162
 9888SOL     OW30562   5.416   4.424   1.941
 9888SOL    HW130563   5.442   4.473   2.025
 9888SOL    HW230564   5.494   4.372   1.907
 9889SOL     OW30565   0.196   5.605   1.606
 9889SOL    HW130566   0.128   5.536   1.630
 9889SOL    HW230567   0.259   5.568   1.537
 9890SOL     OW30568   1.733   1.897   0.335
 9890SOL    HW130569   1.807   1.844   0.293
 9890SOL    HW230570   1.770   1.952   0.409
 9891SOL     OW30571   5.731   3.237   2.072
 9891SOL    HW130572   5.688   3.326   2.060
 9891SOL    HW230573   5.678   3.183   2.137
 9892SOL     OW30574   6.698   4.725   0.842
 9892SOL    HW130575   6.797   4.709   0.844
 9892SOL    HW230576   6.672   4.760   0.752
 9893SOL     OW30577   1.010   6.982   1.426
 9893SOL    HW130578   1.031   0.030   1.491
 9893SOL    HW230579   1.095   6.942   1.392
 9894SOL     OW30580   2.735   2.554   1.754
 9894SOL    HW130581   2.685   2.475   1.792
 9894SOL    HW230582   2.832   2.547   1.779
 9895SOL     OW30583   6.618   4.281   4.986
 9895SOL    HW130584   6.655   4.348   4.921
 9895SOL    HW230585   6.686   4.262   5.057
 9896SOL     OW30586   6.221   0.910   6.813
 9896SOL    HW130587   6.209   0.812   6.824
 9896SOL    HW230588   6.258   0.929   6.722
 9897SOL     OW30589   5.963   5.924   2.891
 9897SOL    HW130590   5.948   5.827   2.872
 9897SOL    HW230591   5.979   5.973   2.806
 9898SOL     OW30592   1.108   6.109   4.220
 9898SOL    HW130593   1.191   6.052   4.225
 9898SOL    HW230594   1.042   6.066   4.158
 9899SOL     OW30595   0.781   5.965   0.380
 9899SOL    HW130596   0.860   5.926   0.332
 9899SOL    HW230597   0.807   6.055   0.417
 9900SOL     OW30598   2.044   3.588   3.293
 9900SOL    HW130599   2.072   3.678   3.326
 9900SOL    HW230600   2.053   3.586   3.193
 9901SOL     OW30601   2.853   0.407   6.590
 9901SOL    HW130602   2.754   0.404   6.572
 9901SOL    HW230603   2.888   0.498   6.566
 9902SOL     OW30604   3.402   5.030   0.964
 9902SOL    HW130605   3.421   4.990   1.053
 9902SOL    HW230606   3.347   5.113   0.975
 9903SOL     OW30607   4.749   2.002   2.382
 9903SOL    HW130608   4.834   2.044   2.349
 9903SOL    HW230609   4.671   2.058   2.355
 9904SOL     OW30610   1.201   3.970   0.231
 9904SOL    HW130611   1.203   4.064   0.266
 9904SOL    HW230612   1.250   3.965   0.144
 9905SOL     OW30613   1.990   6.938   6.118
 9905SOL    HW130614   1.927   6.969   6.189
 9905SOL    HW230615   1.965   6.845   6.090
 9906SOL     OW30616   2.361   3.574   1.621
 9906SOL    HW130617   2.356   3.526   1.708
 9906SOL    HW230618   2.337   3.671   1.634
 9907SOL     OW30619   6.770   0.366   1.349
 9907SOL    HW130620   6.675   0.346   1.375
 9907SOL    HW230621   6.805   0.440   1.407
 9908SOL     OW30622   5.952   1.483   4.939
 9908SOL    HW130623   6.040   1.504   4.982
 9908SOL    HW230624   5.902   1.568   4.922
 9909SOL     OW30625   4.583   0.281   3.408
 9909SOL    HW130626   4.543   0.217   3.474
 9909SOL    HW230627   4.676   0.305   3.437
 9910SOL     OW30628   1.399   4.596   2.500
 9910SOL    HW130629   1.391   4.650   2.584
 9910SOL    HW230630   1.308   4.582   2.461
 9911SOL     OW30631   2.700   5.608   2.010
 9911SOL    HW130632   2.763   5.591   1.935
 9911SOL    HW230633   2.684   5.707   2.019
 9912SOL     OW30634   3.678   0.252   1.653
 9912SOL    HW130635   3.753   0.189   1.673
 9912SOL    HW230636   3.710   0.346   1.660
 9913SOL     OW30637   5.912   3.569   0.996
 9913SOL    HW130638   5.995   3.623   1.008
 9913SOL    HW230639   5.908   3.498   1.066
 9914SOL     OW30640   5.667   1.161   4.663
 9914SOL    HW130641   5.668   1.143   4.565
 9914SOL    HW230642   5.590   1.113   4.705
 9915SOL     OW30643   5.150   0.414   3.233
 9915SOL    HW130644   5.139   0.392   3.330
 9915SOL    HW230645   5.085   0.360   3.179
 9916SOL     OW30646   2.128   2.307   2.962
 9916SOL    HW130647   2.056   2.302   2.894
 9916SOL    HW230648   2.177   2.220   2.966
 9917SOL     OW30649   5.564   4.453   6.702
 9917SOL    HW130650   5.575   4.377   6.638
 9917SOL    HW230651   5.498   4.518   6.665
 9918SOL     OW30652   3.277   1.309   3.029
 9918SOL    HW130653   3.271   1.296   3.128
 9918SOL    HW230654   3.364   1.270   2.996
 9919SOL     OW30655   0.317   5.193   1.277
 9919SOL    HW130656   0.241   5.152   1.225
 9919SOL    HW230657   0.323   5.150   1.366
 9920SOL     OW30658   4.687   1.505   2.342
 9920SOL    HW130659   4.679   1.590   2.395
 9920SOL    HW230660   4.721   1.526   2.250
 9921SOL     OW30661   3.850   0.184   5.379
 9921SOL    HW130662   3.830   0.128   5.459
 9921SOL    HW230663   3.783   0.258   5.374
 9922SOL     OW30664   2.575   4.067   0.760
 9922SOL    HW130665   2.664   4.065   0.805
 9922SOL    HW230666   2.530   4.154   0.777
 9923SOL     OW30667   5.121   5.183   6.504
 9923SOL    HW130668   5.150   5.279   6.499
 9923SOL    HW230669   5.074   5.167   6.591
 9924SOL     OW30670   6.568   1.634   4.383
 9924SOL    HW130671   6.468   1.644   4.384
 9924SOL    HW230672   6.598   1.615   4.289
 9925SOL     OW30673   0.634   3.834   4.297
 9925SOL    HW130674   0.716   3.823   4.241
 9925SOL    HW230675   0.558   3.864   4.239
 9926SOL     OW30676   3.954   2.573   1.077
 9926SOL    HW130677   4.028   2.533   1.132
 9926SOL    HW230678   3.895   2.500   1.042
 9927SOL     OW30679   6.739   6.867   0.583
 9927SOL    HW130680   6.721   6.831   0.492
 9927SOL    HW230681   6.793   6.951   0.576
 9928SOL     OW30682   4.853   3.794   2.393
 9928SOL    HW130683   4.852   3.703   2.350
 9928SOL    HW230684   4.928   3.799   2.459
 9929SOL     OW30685   3.559   4.218   5.607
 9929SOL    HW130686   3.501   4.299   5.613
 9929SOL    HW230687   3.653   4.243   5.628
 9930SOL     OW30688   6.260   6.175   4.743
 9930SOL    HW130689   6.269   6.129   4.655
 9930SOL    HW230690   6.212   6.115   4.807
 9931SOL     OW30691   0.738   5.733   4.404
 9931SOL    HW130692   0.833   5.761   4.413
 9931SOL    HW230693   0.690   5.750   4.490
 9932SOL     OW30694   3.545   3.655   6.975
 9932SOL    HW130695   3.512   3.565   7.006
 9932SOL    HW230696   3.603   3.695   0.021
 9933SOL     OW30697   7.012   5.928   3.207
 9933SOL    HW130698   6.918   5.960   3.216
 9933SOL    HW230699   0.049   5.991   3.254
 9934SOL     OW30700   6.283   2.281   5.789
 9934SOL    HW130701   6.274   2.378   5.814
 9934SOL    HW230702   6.368   2.268   5.737
 9935SOL     OW30703   2.833   6.387   6.694
 9935SOL    HW130704   2.741   6.408   6.726
 9935SOL    HW230705   2.875   6.319   6.754
 9936SOL     OW30706   6.935   5.293   0.004
 9936SOL    HW130707   7.003   5.367   7.017
 9936SOL    HW230708   6.846   5.333   0.023
 9937SOL     OW30709   6.360   1.902   0.803
 9937SOL    HW130710   6.334   1.930   0.895
 9937SOL    HW230711   6.330   1.808   0.786
 9938SOL     OW30712   6.621   4.892   3.035
 9938SOL    HW130713   6.656   4.860   2.947
 9938SOL    HW230714   6.629   4.819   3.102
 9939SOL     OW30715   4.181   2.147   1.137
 9939SOL    HW130716   4.132   2.165   1.222
 9939SOL    HW230717   4.273   2.187   1.141
 9940SOL     OW30718   1.129   0.069   1.139
 9940SOL    HW130719   1.070   0.049   1.062
 9940SOL    HW230720   1.080   0.053   1.225
 9941SOL     OW30721   3.531   3.478   5.595
 9941SOL    HW130722   3.530   3.382   5.624
 9941SOL    HW230723   3.621   3.501   5.559
 9942SOL     OW30724   2.359   5.063   2.824
 9942SOL    HW130725   2.284   5.077   2.760
 9942SOL    HW230726   2.440   5.111   2.790
 9943SOL     OW30727   0.375   4.820   5.876
 9943SOL    HW130728   0.379   4.909   5.831
 9943SOL    HW230729   0.281   4.786   5.874
 9944SOL     OW30730   0.934   4.519   6.385
 9944SOL    HW130731   1.030   4.522   6.412
 9944SOL    HW230732   0.922   4.570   6.300
 9945SOL     OW30733   5.391   5.246   6.750
 9945SOL    HW130734   5.324   5.321   6.748
 9945SOL    HW230735   5.382   5.191   6.668
 9946SOL     OW30736   5.630   0.581   3.871
 9946SOL    HW130737   5.682   0.603   3.789
 9946SOL    HW230738   5.637   0.657   3.937
 9947SOL     OW30739   2.316   2.111   4.743
 9947SOL    HW130740   2.219   2.091   4.758
 9947SOL    HW230741   2.330   2.137   4.647
 9948SOL     OW30742   5.876   4.294   4.937
 9948SOL    HW130743   5.909   4.381   4.901
 9948SOL    HW230744   5.843   4.237   4.861
 9949SOL     OW30745   6.538   4.980   4.721
 9949SOL    HW130746   6.567   4.896   4.766
 9949SOL    HW230747   6.518   4.961   4.625
 9950SOL     OW30748   5.737   5.952   5.396
 9950SOL    HW130749   5.683   6.012   5.455
 9950SOL    HW230750   5.831   5.986   5.391
 9951SOL     OW30751   6.941   1.156   4.139
 9951SOL    HW130752   6.933   1.255   4.146
 9951SOL    HW230753   0.012   1.131   4.126
 9952SOL     OW30754   1.222   3.725   0.836
 9952SOL    HW130755   1.191   3.637   0.802
 9952SOL    HW230756   1.317   3.740   0.810
 9953SOL     OW30757   5.369   2.381   4.738
 9953SOL    HW130758   5.413   2.406   4.824
 9953SOL    HW230759   5.392   2.448   4.668
 9954SOL     OW30760   6.715   0.695   6.269
 9954SOL    HW130761   6.708   0.747   6.353
 9954SOL    HW230762   6.809   0.663   6.257
 9955SOL     OW30763   6.405   3.543   5.428
 9955SOL    HW130764   6.323   3.487   5.415
 9955SOL    HW230765   6.453   3.512   5.510
 9956SOL     OW30766   1.408   0.102   2.025
 9956SOL    HW130767   1.437   0.174   1.961
 9956SOL    HW230768   1.488   0.049   2.054
 9957SOL     OW30769   5.016   5.909   2.660
 9957SOL    HW130770   5.041   5.944   2.570
 9957SOL    HW230771   4.993   5.985   2.721
 9958SOL     OW30772   3.335   5.411   0.041
 9958SOL    HW130773   3.414   5.352   0.053
 9958SOL    HW230774   3.361   5.506   0.060
 9959SOL     OW30775   4.143   3.620   5.157
 9959SOL    HW130776   4.176   3.600   5.065
 9959SOL    HW230777   4.155   3.718   5.176
 9960SOL     OW30778   6.886   0.462   1.881
 9960SOL    HW130779   6.974   0.479   1.925
 9960SOL    HW230780   6.815   0.518   1.924
 9961SOL     OW30781   1.374   4.911   4.790
 9961SOL    HW130782   1.324   4.928   4.874
 9961SOL    HW230783   1.427   4.827   4.799
 9962SOL     OW30784   6.255   5.937   2.062
 9962SOL    HW130785   6.201   5.855   2.042
 9962SOL    HW230786   6.290   5.932   2.156
 9963SOL     OW30787   3.001   3.297   6.564
 9963SOL    HW130788   3.056   3.332   6.489
 9963SOL    HW230789   2.948   3.218   6.533
 9964SOL     OW30790   5.623   4.434   5.571
 9964SOL    HW130791   5.671   4.432   5.658
 9964SOL    HW230792   5.614   4.528   5.539
 9965SOL     OW30793   3.540   6.528   5.982
 9965SOL    HW130794   3.448   6.506   6.016
 9965SOL    HW230795   3.551   6.627   5.975
 9966SOL     OW30796   1.817   5.905   2.154
 9966SOL    HW130797   1.831   5.914   2.055
 9966SOL    HW230798   1.719   5.904   2.174
 9967SOL     OW30799   0.002   0.166   2.207
 9967SOL    HW130800   6.991   0.096   2.145
 9967SOL    HW230801   0.043   0.121   2.286
 9968SOL     OW30802   3.506   3.882   0.647
 9968SOL    HW130803   3.483   3.793   0.609
 9968SOL    HW230804   3.466   3.891   0.738
 9969SOL     OW30805   1.789   2.901   2.852
 9969SOL    HW130806   1.822   2.938   2.939
 9969SOL    HW230807   1.699   2.939   2.832
 9970SOL     OW30808   5.437   3.629   2.695
 9970SOL    HW130809   5.491   3.619   2.611
 9970SOL    HW230810   5.441   3.724   2.726
 9971SOL     OW30811   2.105   5.606   0.954
 9971SOL    HW130812   2.167   5.681   0.931
 9971SOL    HW230813   2.156   5.520   0.953
 9972SOL     OW30814   4.358   4.844   1.422
 9972SOL    HW130815   4.439   4.868   1.474
 9972SOL    HW230816   4.380   4.842   1.324
 9973SOL     OW30817   4.500   1.889   4.047
 9973SOL    HW130818   4.488   1.813   3.984
 9973SOL    HW230819   4.520   1.854   4.139
 9974SOL     OW30820   0.456   2.944   3.253
 9974SOL    HW130821   0.381   2.973   3.194
 9974SOL    HW230822   0.478   3.017   3.318
 9975SOL     OW30823   6.073   4.393   7.023
 9975SOL    HW130824   6.134   4.450   6.968
 9975SOL    HW230825   6.124   4.352   0.074
 9976SOL     OW30826   0.240   6.523   5.405
 9976SOL    HW130827   0.283   6.434   5.390
 9976SOL    HW230828   0.208   6.530   5.499
 9977SOL     OW30829   7.015   5.629   5.467
 9977SOL    HW130830   7.024   5.531   5.448
 9977SOL    HW230831   7.019   5.680   5.381
 9978SOL     OW30832   6.978   2.539   3.568
 9978SOL    HW130833   6.952   2.514   3.475
 9978SOL    HW230834   7.006   2.457   3.618
 9979SOL     OW30835   6.229   5.553   5.139
 9979SOL    HW130836   6.186   5.612   5.071
 9979SOL    HW230837   6.316   5.520   5.104
 9980SOL     OW30838   1.717   1.283   5.396
 9980SOL    HW130839   1.802   1.334   5.404
 9980SOL    HW230840   1.737   1.185   5.396
 9981SOL     OW30841   2.107   1.934   1.895
 9981SOL    HW130842   2.100   1.963   1.799
 9981SOL    HW230843   2.115   1.835   1.900
 9982SOL     OW30844   6.701   6.931   4.063
 9982SOL    HW130845   6.791   6.912   4.024
 9982SOL    HW230846   6.674   7.025   4.041
 9983SOL     OW30847   6.976   2.609   2.836
 9983SOL    HW130848   6.897   2.566   2.879
 9983SOL    HW230849   6.954   2.633   2.741
 9984SOL     OW30850   1.866   0.666   6.999
 9984SOL    HW130851   1.944   0.688   6.940
 9984SOL    HW230852   1.863   0.729   0.052
 9985SOL     OW30853   1.750   1.175   0.920
 9985SOL    HW130854   1.838   1.162   0.965
 9985SOL    HW230855   1.677   1.170   0.989
 9986SOL     OW30856   5.946   4.261   5.754
 9986SOL    HW130857   6.011   4.195   5.792
 9986SOL    HW230858   5.928   4.240   5.658
 9987SOL     OW30859   0.089   3.077   4.040
 9987SOL    HW130860   0.014   3.086   3.974
 9987SOL    HW230861   0.147   3.000   4.013
 9988SOL     OW30862   6.970   5.566   4.563
 9988SOL    HW130863   7.019   5.617   4.493
 9988SOL    HW230864   6.886   5.615   4.587
 9989SOL     OW30865   6.428   3.731   3.379
 9989SOL    HW130866   6.494   3.769   3.314
 9989SOL    HW230867   6.470   3.723   3.469
 9990SOL     OW30868   2.496   5.455   1.659
 9990SOL    HW130869   2.418   5.394   1.649
 9990SOL    HW230870   2.463   5.547   1.683
 9991SOL     OW30871   2.152   2.910   3.669
 9991SOL    HW130872   2.082   2.950   3.728
 9991SOL    HW230873   2.123   2.819   3.639
 9992SOL     OW30874   5.735   4.743   0.269
 9992SOL    HW130875   5.762   4.689   0.190
 9992SOL    HW230876   5.809   4.746   0.335
 9993SOL     OW30877   3.085   0.122   0.335
 9993SOL    HW130878   3.102   0.167   0.423
 9993SOL    HW230879   3.079   0.023   0.349
 9994SOL     OW30880   6.970   4.376   3.314
 9994SOL    HW130881   6.933   4.291   3.351
 9994SOL    HW230882   6.993   4.438   3.389
 9995SOL     OW30883   4.358   1.070   3.087
 9995SOL    HW130884   4.372   0.991   3.027
 9995SOL    HW230885   4.327   1.148   3.033
 9996SOL     OW30886   2.936   3.167   1.559
 9996SOL    HW130887   2.886   3.250   1.584
 9996SOL    HW230888   2.885   3.117   1.488
 9997SOL     OW30889   3.456   1.322   0.602
 9997SOL    HW130890   3.517   1.380   0.549
 9997SOL    HW230891   3.407   1.378   0.669
 9998SOL     OW30892   5.344   4.474   6.287
 9998SOL    HW130893   5.297   4.390   6.258
 9998SOL    HW230894   5.376   4.523   6.207
 9999SOL     OW30895   6.555   3.377   5.235
 9999SOL    HW130896   6.522   3.329   5.154
 9999SOL    HW230897   6.491   3.450   5.260
10000SOL     OW30898   0.404   4.488   6.873
10000SOL    HW130899   0.430   4.500   6.777
10000SOL    HW230900   0.316   4.531   6.889
10001SOL     OW30901   4.654   6.887   2.000
10001SOL    HW130902   4.696   6.817   2.059
10001SOL    HW230903   4.722   6.919   1.934
10002SOL     OW30904   2.001   0.394   2.928
10002SOL    HW130905   2.093   0.405   2.965
10002SOL    HW230906   2.000   0.317   2.865
10003SOL     OW30907   3.714   1.357   3.314
10003SOL    HW130908   3.682   1.383   3.405
10003SOL    HW230909   3.657   1.283   3.278
10004SOL     OW30910   6.309   2.571   4.745
10004SOL    HW130911   6.304   2.540   4.650
10004SOL    HW230912   6.404   2.594   4.768
10005SOL     OW30913   4.630   0.135   4.772
10005SOL    HW130914   4.607   0.044   4.736
10005SOL    HW230915   4.592   0.205   4.711
10006SOL     OW30916   5.336   6.244   3.897
10006SOL    HW130917   5.388   6.159   3.895
10006SOL    HW230918   5.260   6.238   3.832
10007SOL     OW30919   6.923   5.163   5.886
10007SOL    HW130920   6.984   5.211   5.823
10007SOL    HW230921   6.906   5.070   5.852
10008SOL     OW30922   4.361   1.433   4.784
10008SOL    HW130923   4.278   1.446   4.839
10008SOL    HW230924   4.340   1.371   4.707
10009SOL     OW30925   1.798   4.043   1.682
10009SOL    HW130926   1.882   3.993   1.662
10009SOL    HW230927   1.734   3.983   1.729
10010SOL     OW30928   2.616   0.705   5.776
10010SOL    HW130929   2.558   0.754   5.712
10010SOL    HW230930   2.564   0.632   5.820
10011SOL     OW30931   5.440   1.034   5.913
10011SOL    HW130932   5.535   1.053   5.938
10011SOL    HW230933   5.421   0.937   5.929
10012SOL     OW30934   5.907   1.636   3.490
10012SOL    HW130935   5.911   1.611   3.587
10012SOL    HW230936   5.957   1.568   3.437
10013SOL     OW30937   0.368   0.908   3.174
10013SOL    HW130938   0.367   1.007   3.184
10013SOL    HW230939   0.322   0.866   3.252
10014SOL     OW30940   6.836   4.019   0.648
10014SOL    HW130941   6.861   3.923   0.639
10014SOL    HW230942   6.815   4.057   0.557
10015SOL     OW30943   1.785   4.909   0.495
10015SOL    HW130944   1.883   4.904   0.519
10015SOL    HW230945   1.749   4.817   0.482
10016SOL     OW30946   1.174   0.670   6.447
10016SOL    HW130947   1.083   0.642   6.415
10016SOL    HW230948   1.169   0.761   6.488
10017SOL     OW30949   2.698   1.801   2.863
10017SOL    HW130950   2.632   1.872   2.838
10017SOL    HW230951   2.671   1.714   2.820
10018SOL     OW30952   4.568   0.164   6.278
10018SOL    HW130953   4.481   0.192   6.317
10018SOL    HW230954   4.626   0.245   6.264
10019SOL     OW30955   0.588   0.924   2.993
10019SOL    HW130956   0.599   1.016   3.031
10019SOL    HW230957   0.509   0.880   3.034
10020SOL     OW30958   1.832   2.518   0.841
10020SOL    HW130959   1.882   2.581   0.901
10020SOL    HW230960   1.799   2.440   0.894
10021SOL     OW30961   0.309   2.318   1.539
10021SOL    HW130962   0.394   2.272   1.565
10021SOL    HW230963   0.233   2.282   1.594
10022SOL     OW30964   2.562   1.092   6.017
10022SOL    HW130965   2.471   1.057   5.994
10022SOL    HW230966   2.554   1.157   6.092
10023SOL     OW30967   0.708   4.990   1.034
10023SOL    HW130968   0.693   4.894   1.058
10023SOL    HW230969   0.804   5.013   1.050
10024SOL     OW30970   2.269   5.806   1.970
10024SOL    HW130971   2.213   5.737   1.925
10024SOL    HW230972   2.217   5.847   2.045
10025SOL     OW30973   1.380   1.437   0.432
10025SOL    HW130974   1.393   1.529   0.397
10025SOL    HW230975   1.469   1.399   0.459
10026SOL     OW30976   5.203   6.477   3.607
10026SOL    HW130977   5.300   6.504   3.609
10026SOL    HW230978   5.161   6.496   3.695
10027SOL     OW30979   6.985   4.044   4.517
10027SOL    HW130980   6.894   4.075   4.490
10027SOL    HW230981   7.006   4.079   4.609
10028SOL     OW30982   1.393   0.752   2.534
10028SOL    HW130983   1.431   0.820   2.472
10028SOL    HW230984   1.398   0.661   2.493
10029SOL     OW30985   4.811   1.488   4.481
10029SOL    HW130986   4.877   1.560   4.459
10029SOL    HW230987   4.749   1.520   4.552
10030SOL     OW30988   1.969   0.506   3.298
10030SOL    HW130989   1.956   0.592   3.347
10030SOL    HW230990   2.067   0.488   3.287
10031SOL     OW30991   5.593   4.506   5.009
10031SOL    HW130992   5.660   4.452   5.059
10031SOL    HW230993   5.639   4.581   4.961
10032SOL     OW30994   3.008   1.018   5.095
10032SOL    HW130995   2.992   1.093   5.030
10032SOL    HW230996   3.099   0.980   5.081
10033SOL     OW30997   6.564   3.057   4.513
10033SOL    HW130998   6.580   3.145   4.557
10033SOL    HW230999   6.549   3.070   4.415
10034SOL     OW31000   3.476   0.419   4.349
10034SOL    HW131001   3.573   0.406   4.368
10034SOL    HW231002   3.459   0.514   4.323
10035SOL     OW31003   6.842   5.293   1.664
10035SOL    HW131004   6.806   5.211   1.709
10035SOL    HW231005   6.908   5.266   1.593
10036SOL     OW31006   6.313   2.366   0.700
10036SOL    HW131007   6.215   2.347   0.704
10036SOL    HW231008   6.355   2.310   0.629
10037SOL     OW31009   0.156   1.598   0.452
10037SOL    HW131010   0.236   1.578   0.396
10037SOL    HW231011   0.078   1.616   0.393
10038SOL     OW31012   6.058   0.471   0.155
10038SOL    HW131013   5.959   0.472   0.148
10038SOL    HW231014   6.093   0.565   0.145
10039SOL     OW31015   3.759   0.485   4.063
10039SOL    HW131016   3.853   0.456   4.081
10039SOL    HW231017   3.725   0.536   4.142
10040SOL     OW31018   5.804   5.317   6.359
10040SOL    HW131019   5.813   5.278   6.267
10040SOL    HW231020   5.779   5.244   6.423
10041SOL     OW31021   3.758   6.015   6.937
10041SOL    HW131022   3.823   6.003   6.862
10041SOL    HW231023   3.802   5.991   7.024
10042SOL     OW31024   0.691   1.551   3.450
10042SOL    HW131025   0.700   1.590   3.542
10042SOL    HW231026   0.704   1.452   3.454
10043SOL     OW31027   6.010   1.775   5.086
10043SOL    HW131028   6.068   1.693   5.087
10043SOL    HW231029   6.063   1.852   5.049
10044SOL     OW31030   2.482   2.592   5.240
10044SOL    HW131031   2.421   2.550   5.306
10044SOL    HW231032   2.533   2.666   5.284
10045SOL     OW31033   4.129   0.620   1.552
10045SOL    HW131034   4.138   0.717   1.571
10045SOL    HW231035   4.056   0.606   1.485
10046SOL     OW31036   2.078   3.407   1.254
10046SOL    HW131037   2.110   3.364   1.169
10046SOL    HW231038   1.989   3.450   1.237
10047SOL     OW31039   0.455   3.105   5.942
10047SOL    HW131040   0.504   3.021   5.921
10047SOL    HW231041   0.500   3.152   6.018
10048SOL     OW31042   6.647   6.473   3.076
10048SOL    HW131043   6.613   6.567   3.070
10048SOL    HW231044   6.716   6.467   3.148
10049SOL     OW31045   1.287   1.680   5.831
10049SOL    HW131046   1.259   1.624   5.753
10049SOL    HW231047   1.258   1.635   5.916
10050SOL     OW31048   5.835   3.278   4.807
10050SOL    HW131049   5.756   3.228   4.770
10050SOL    HW231050   5.919   3.227   4.786
10051SOL     OW31051   0.840   4.501   5.013
10051SOL    HW131052   0.889   4.423   4.973
10051SOL    HW231053   0.799   4.555   4.940
10052SOL     OW31054   1.817   1.292   3.418
10052SOL    HW131055   1.748   1.252   3.357
10052SOL    HW231056   1.906   1.253   3.397
10053SOL     OW31057   4.653   5.623   4.136
10053SOL    HW131058   4.733   5.681   4.117
10053SOL    HW231059   4.682   5.529   4.149
10054SOL     OW31060   5.449   4.098   5.071
10054SOL    HW131061   5.515   4.023   5.071
10054SOL    HW231062   5.486   4.174   5.018
10055SOL     OW31063   6.703   2.812   6.419
10055SOL    HW131064   6.708   2.908   6.448
10055SOL    HW231065   6.794   2.780   6.394
10056SOL     OW31066   5.415   3.982   2.942
10056SOL    HW131067   5.348   3.941   3.003
10056SOL    HW231068   5.382   3.976   2.848
10057SOL     OW31069   5.760   3.985   5.547
10057SOL    HW131070   5.828   4.057   5.535
10057SOL    HW231071   5.719   3.962   5.458
10058SOL     OW31072   6.738   3.395   4.226
10058SOL    HW131073   6.769   3.316   4.279
10058SOL    HW231074   6.645   3.378   4.192
10059SOL     OW31075   6.326   2.085   0.597
10059SOL    HW131076   6.396   2.089   0.526
10059SOL    HW231077   6.352   2.019   0.667
10060SOL     OW31078   2.473   1.681   2.428
10060SOL    HW131079   2.477   1.593   2.381
10060SOL    HW231080   2.566   1.716   2.443
10061SOL     OW31081   4.275   1.135   3.649
10061SOL    HW131082   4.296   1.037   3.646
10061SOL    HW231083   4.294   1.176   3.560
10062SOL     OW31084   6.816   6.662   4.190
10062SOL    HW131085   6.878   6.595   4.230
10062SOL    HW231086   6.838   6.674   4.093
10063SOL     OW31087   2.111   2.041   4.471
10063SOL    HW131088   2.117   1.956   4.524
10063SOL    HW231089   2.197   2.091   4.479
10064SOL     OW31090   4.117   6.044   6.598
10064SOL    HW131091   4.059   6.017   6.675
10064SOL    HW231092   4.094   5.988   6.519
10065SOL     OW31093   1.488   0.854   1.714
10065SOL    HW131094   1.546   0.934   1.730
10065SOL    HW231095   1.510   0.815   1.625
10066SOL     OW31096   0.348   3.616   5.104
10066SOL    HW131097   0.435   3.623   5.055
10066SOL    HW231098   0.316   3.521   5.102
10067SOL     OW31099   0.998   3.324   6.461
10067SOL    HW131100   1.044   3.239   6.486
10067SOL    HW231101   0.973   3.322   6.364
10068SOL     OW31102   1.845   3.547   2.923
10068SOL    HW131103   1.759   3.596   2.907
10068SOL    HW231104   1.830   3.471   2.986
10069SOL     OW31105   3.603   5.139   1.935
10069SOL    HW131106   3.682   5.199   1.947
10069SOL    HW231107   3.526   5.192   1.900
10070SOL     OW31108   2.253   5.872   4.279
10070SOL    HW131109   2.207   5.862   4.191
10070SOL    HW231110   2.187   5.904   4.347
10071SOL     OW31111   0.695   6.941   4.207
10071SOL    HW131112   0.678   6.959   4.110
10071SOL    HW231113   0.782   6.894   4.217
10072SOL     OW31114   0.126   1.586   2.435
10072SOL    HW131115   0.055   1.642   2.478
10072SOL    HW231116   0.115   1.491   2.465
10073SOL     OW31117   6.302   2.686   3.806
10073SOL    HW131118   6.344   2.664   3.895
10073SOL    HW231119   6.355   2.758   3.762
10074SOL     OW31120   1.325   5.411   0.449
10074SOL    HW131121   1.313   5.507   0.427
10074SOL    HW231122   1.304   5.355   0.368
10075SOL     OW31123   2.520   0.745   2.374
10075SOL    HW131124   2.596   0.697   2.330
10075SOL    HW231125   2.508   0.710   2.467
10076SOL     OW31126   4.966   5.307   3.231
10076SOL    HW131127   4.997   5.335   3.140
10076SOL    HW231128   4.866   5.307   3.234
10077SOL     OW31129   6.007   3.524   6.998
10077SOL    HW131130   6.076   3.592   7.019
10077SOL    HW231131   6.047   3.432   7.002
10078SOL     OW31132   6.694   6.370   4.688
10078SOL    HW131133   6.786   6.410   4.689
10078SOL    HW231134   6.626   6.442   4.679
10079SOL     OW31135   5.968   2.397   3.823
10079SOL    HW131136   5.888   2.380   3.881
10079SOL    HW231137   5.999   2.492   3.837
10080SOL     OW31138   5.703   1.089   5.960
10080SOL    HW131139   5.770   1.058   5.892
10080SOL    HW231140   5.745   1.159   6.018
10081SOL     OW31141   1.163   1.575   6.332
10081SOL    HW131142   1.220   1.528   6.399
10081SOL    HW231143   1.077   1.602   6.374
10082SOL     OW31144   1.094   5.545   3.031
10082SOL    HW131145   1.047   5.611   2.972
10082SOL    HW231146   1.124   5.590   3.115
10083SOL     OW31147   3.619   5.638   3.631
10083SOL    HW131148   3.701   5.599   3.588
10083SOL    HW231149   3.547   5.648   3.562
10084SOL     OW31150   0.640   0.169   5.390
10084SOL    HW131151   0.594   0.181   5.302
10084SOL    HW231152   0.577   0.124   5.453
10085SOL     OW31153   3.865   6.369   0.187
10085SOL    HW131154   3.806   6.422   0.126
10085SOL    HW231155   3.953   6.416   0.198
10086SOL     OW31156   6.019   6.324   2.158
10086SOL    HW131157   6.077   6.397   2.121
10086SOL    HW231158   6.005   6.254   2.088
10087SOL     OW31159   0.260   6.398   4.601
10087SOL    HW131160   0.290   6.419   4.508
10087SOL    HW231161   0.293   6.469   4.664
10088SOL     OW31162   6.947   2.261   0.213
10088SOL    HW131163   6.911   2.314   0.137
10088SOL    HW231164   0.022   2.269   0.215
10089SOL     OW31165   4.210   1.693   2.508
10089SOL    HW131166   4.274   1.618   2.494
10089SOL    HW231167   4.255   1.780   2.487
10090SOL     OW31168   1.022   5.252   1.543
10090SOL    HW131169   1.033   5.194   1.463
10090SOL    HW231170   1.106   5.251   1.597
10091SOL     OW31171   6.673   5.540   6.463
10091SOL    HW131172   6.709   5.502   6.548
10091SOL    HW231173   6.710   5.632   6.449
10092SOL     OW31174   0.761   3.139   5.627
10092SOL    HW131175   0.735   3.160   5.533
10092SOL    HW231176   0.859   3.155   5.639
10093SOL     OW31177   5.220   3.582   5.766
10093SOL    HW131178   5.128   3.553   5.741
10093SOL    HW231179   5.239   3.672   5.727
10094SOL     OW31180   3.263   6.741   0.855
10094SOL    HW131181   3.203   6.810   0.814
10094SOL    HW231182   3.358   6.768   0.842
10095SOL     OW31183   5.124   2.382   4.924
10095SOL    HW131184   5.195   2.321   4.890
10095SOL    HW231185   5.121   2.377   5.024
10096SOL     OW31186   4.837   0.930   2.593
10096SOL    HW131187   4.889   1.012   2.574
10096SOL    HW231188   4.867   0.856   2.533
10097SOL     OW31189   2.240   1.936   6.131
10097SOL    HW131190   2.259   1.851   6.083
10097SOL    HW231191   2.173   1.990   6.080
10098SOL     OW31192   3.117   5.375   4.325
10098SOL    HW131193   3.156   5.458   4.287
10098SOL    HW231194   3.059   5.397   4.403
10099SOL     OW31195   6.280   4.073   1.549
10099SOL    HW131196   6.275   4.012   1.628
10099SOL    HW231197   6.346   4.146   1.568
10100SOL     OW31198   5.224   5.810   5.295
10100SOL    HW131199   5.220   5.889   5.357
10100SOL    HW231200   5.306   5.817   5.238
10101SOL     OW31201   6.464   2.704   1.884
10101SOL    HW131202   6.401   2.734   1.813
10101SOL    HW231203   6.473   2.604   1.880
10102SOL     OW31204   6.024   0.102   0.765
10102SOL    HW131205   5.930   0.078   0.741
10102SOL    HW231206   6.055   0.176   0.706
10103SOL     OW31207   0.705   0.313   5.912
10103SOL    HW131208   0.666   0.322   5.821
10103SOL    HW231209   0.661   0.379   5.974
10104SOL     OW31210   2.056   0.386   6.137
10104SOL    HW131211   2.043   0.418   6.043
10104SOL    HW231212   2.099   0.458   6.192
10105SOL     OW31213   2.826   1.498   6.076
10105SOL    HW131214   2.843   1.580   6.022
10105SOL    HW231215   2.805   1.421   6.016
10106SOL     OW31216   5.274   6.376   1.512
10106SOL    HW131217   5.285   6.284   1.474
10106SOL    HW231218   5.207   6.373   1.587
10107SOL     OW31219   5.223   4.950   6.411
10107SOL    HW131220   5.276   4.900   6.479
10107SOL    HW231221   5.190   5.036   6.450
10108SOL     OW31222   1.558   3.272   0.673
10108SOL    HW131223   1.473   3.324   0.680
10108SOL    HW231224   1.630   3.317   0.726
10109SOL     OW31225   0.455   1.389   0.111
10109SOL    HW131226   0.547   1.374   0.148
10109SOL    HW231227   0.462   1.409   0.013
10110SOL     OW31228   4.591   5.071   2.782
10110SOL    HW131229   4.636   5.037   2.699
10110SOL    HW231230   4.643   5.041   2.862
10111SOL     OW31231   1.043   2.059   2.046
10111SOL    HW131232   1.082   2.143   2.084
10111SOL    HW231233   0.955   2.041   2.090
10112SOL     OW31234   6.461   2.895   3.685
10112SOL    HW131235   6.444   2.987   3.721
10112SOL    HW231236   6.458   2.897   3.585
10113SOL     OW31237   5.132   1.340   6.858
10113SOL    HW131238   5.098   1.367   6.768
10113SOL    HW231239   5.055   1.311   6.915
10114SOL     OW31240   4.166   2.171   3.363
10114SOL    HW131241   4.068   2.152   3.358
10114SOL    HW231242   4.217   2.086   3.360
10115SOL     OW31243   3.074   1.120   4.808
10115SOL    HW131244   3.116   1.140   4.720
10115SOL    HW231245   2.982   1.082   4.793
10116SOL     OW31246   6.300   0.655   5.457
10116SOL    HW131247   6.374   0.628   5.395
10116SOL    HW231248   6.324   0.741   5.502
10117SOL     OW31249   6.633   5.372   5.244
10117SOL    HW131250   6.698   5.337   5.178
10117SOL    HW231251   6.563   5.303   5.262
10118SOL     OW31252   3.073   5.304   4.932
10118SOL    HW131253   2.999   5.256   4.979
10118SOL    HW231254   3.039   5.391   4.898
10119SOL     OW31255   0.536   5.205   4.261
10119SOL    HW131256   0.591   5.274   4.213
10119SOL    HW231257   0.561   5.114   4.229
10120SOL     OW31258   1.471   2.943   2.415
10120SOL    HW131259   1.552   2.979   2.460
10120SOL    HW231260   1.409   2.905   2.483
10121SOL     OW31261   6.348   4.419   0.680
10121SOL    HW131262   6.353   4.321   0.662
10121SOL    HW231263   6.400   4.441   0.763
10122SOL     OW31264   0.391   1.818   3.582
10122SOL    HW131265   0.293   1.821   3.563
10122SOL    HW231266   0.406   1.834   3.679
10123SOL     OW31267   5.810   6.162   1.178
10123SOL    HW131268   5.718   6.144   1.212
10123SOL    HW231269   5.877   6.113   1.234
10124SOL     OW31270   1.276   4.811   2.685
10124SOL    HW131271   1.232   4.725   2.710
10124SOL    HW231272   1.235   4.887   2.736
10125SOL     OW31273   1.942   1.774   0.205
10125SOL    HW131274   1.949   1.766   0.106
10125SOL    HW231275   1.942   1.684   0.247
10126SOL     OW31276   5.792   0.699   6.790
10126SOL    HW131277   5.706   0.701   6.841
10126SOL    HW231278   5.813   0.791   6.757
10127SOL     OW31279   1.846   4.980   5.944
10127SOL    HW131280   1.883   4.889   5.962
10127SOL    HW231281   1.817   4.986   5.848
10128SOL     OW31282   3.409   0.615   0.474
10128SOL    HW131283   3.403   0.542   0.407
10128SOL    HW231284   3.496   0.609   0.523
10129SOL     OW31285   6.063   1.821   3.465
10129SOL    HW131286   5.997   1.749   3.486
10129SOL    HW231287   6.065   1.888   3.539
10130SOL     OW31288   1.434   1.999   2.093
10130SOL    HW131289   1.519   2.015   2.143
10130SOL    HW231290   1.386   1.921   2.134
10131SOL     OW31291   1.921   0.647   4.645
10131SOL    HW131292   1.917   0.739   4.607
10131SOL    HW231293   1.902   0.580   4.574
10132SOL     OW31294   6.532   0.300   2.250
10132SOL    HW131295   6.584   0.240   2.311
10132SOL    HW231296   6.569   0.393   2.257
10133SOL     OW31297   4.663   5.789   0.881
10133SOL    HW131298   4.674   5.811   0.784
10133SOL    HW231299   4.575   5.822   0.913
10134SOL     OW31300   5.541   0.614   2.132
10134SOL    HW131301   5.577   0.578   2.046
10134SOL    HW231302   5.578   0.706   2.147
10135SOL     OW31303   5.610   7.002   3.960
10135SOL    HW131304   5.689   0.028   3.994
10135SOL    HW231305   5.563   0.032   3.890
10136SOL     OW31306   4.998   2.138   2.647
10136SOL    HW131307   4.985   2.114   2.744
10136SOL    HW231308   4.916   2.184   2.613
10137SOL     OW31309   0.123   5.906   5.861
10137SOL    HW131310   0.074   5.993   5.873
10137SOL    HW231311   0.058   5.834   5.836
10138SOL     OW31312   5.553   1.284   6.750
10138SOL    HW131313   5.619   1.254   6.819
10138SOL    HW231314   5.495   1.356   6.789
10139SOL     OW31315   3.401   3.540   5.834
10139SOL    HW131316   3.421   3.627   5.880
10139SOL    HW231317   3.451   3.536   5.748
10140SOL     OW31318   6.874   5.688   6.175
10140SOL    HW131319   6.823   5.744   6.240
10140SOL    HW231320   6.930   5.622   6.225
10141SOL     OW31321   2.960   1.562   3.827
10141SOL    HW131322   2.937   1.568   3.924
10141SOL    HW231323   2.974   1.467   3.801
10142SOL     OW31324   6.103   6.282   4.465
10142SOL    HW131325   6.041   6.272   4.387
10142SOL    HW231326   6.184   6.225   4.451
10143SOL     OW31327   5.664   3.530   0.675
10143SOL    HW131328   5.598   3.605   0.664
10143SOL    HW231329   5.757   3.565   0.666
10144SOL     OW31330   3.732   6.319   5.274
10144SOL    HW131331   3.744   6.417   5.289
10144SOL    HW231332   3.668   6.282   5.343
10145SOL     OW31333   5.194   6.406   0.946
10145SOL    HW131334   5.193   6.318   0.995
10145SOL    HW231335   5.269   6.407   0.881
10146SOL     OW31336   0.526   3.563   4.324
10146SOL    HW131337   0.554   3.658   4.314
10146SOL    HW231338   0.440   3.547   4.275
10147SOL     OW31339   4.520   5.827   6.325
10147SOL    HW131340   4.471   5.879   6.254
10147SOL    HW231341   4.585   5.887   6.372
10148SOL     OW31342   1.090   4.910   6.884
10148SOL    HW131343   1.166   4.923   6.948
10148SOL    HW231344   1.120   4.930   6.791
10149SOL     OW31345   4.708   4.556   1.227
10149SOL    HW131346   4.669   4.463   1.227
10149SOL    HW231347   4.713   4.590   1.133
10150SOL     OW31348   4.403   3.962   0.402
10150SOL    HW131349   4.390   3.982   0.499
10150SOL    HW231350   4.473   3.891   0.392
10151SOL     OW31351   6.454   0.299   5.417
10151SOL    HW131352   6.486   0.320   5.509
10151SOL    HW231353   6.474   0.203   5.396
10152SOL     OW31354   5.614   6.156   2.613
10152SOL    HW131355   5.617   6.236   2.672
10152SOL    HW231356   5.672   6.171   2.533
10153SOL     OW31357   5.300   4.909   4.057
10153SOL    HW131358   5.262   4.983   4.001
10153SOL    HW231359   5.305   4.939   4.152
10154SOL     OW31360   3.735   5.156   5.482
10154SOL    HW131361   3.739   5.172   5.383
10154SOL    HW231362   3.743   5.244   5.530
10155SOL     OW31363   4.598   1.847   5.542
10155SOL    HW131364   4.675   1.870   5.483
10155SOL    HW231365   4.582   1.921   5.607
10156SOL     OW31366   4.937   0.489   0.856
10156SOL    HW131367   4.888   0.562   0.903
10156SOL    HW231368   4.894   0.401   0.877
10157SOL     OW31369   0.046   2.848   1.430
10157SOL    HW131370   0.070   2.787   1.354
10157SOL    HW231371   0.042   2.942   1.398
10158SOL     OW31372   5.661   6.438   1.941
10158SOL    HW131373   5.643   6.497   1.863
10158SOL    HW231374   5.655   6.490   2.025
10159SOL     OW31375   3.818   3.490   3.369
10159SOL    HW131376   3.891   3.434   3.330
10159SOL    HW231377   3.825   3.489   3.469
10160SOL     OW31378   2.006   4.283   3.095
10160SOL    HW131379   1.969   4.204   3.046
10160SOL    HW231380   2.016   4.360   3.031
10161SOL     OW31381   3.779   4.850   6.447
10161SOL    HW131382   3.863   4.797   6.432
10161SOL    HW231383   3.793   4.914   6.523
10162SOL     OW31384   1.785   4.428   2.254
10162SOL    HW131385   1.766   4.482   2.171
10162SOL    HW231386   1.774   4.331   2.234
10163SOL     OW31387   1.210   6.691   5.071
10163SOL    HW131388   1.200   6.733   5.161
10163SOL    HW231389   1.184   6.756   5.001
10164SOL     OW31390   6.665   2.878   3.374
10164SOL    HW131391   6.701   2.846   3.287
10164SOL    HW231392   6.720   2.839   3.449
10165SOL     OW31393   6.335   2.875   4.059
10165SOL    HW131394   6.268   2.873   4.134
10165SOL    HW231395   6.312   2.949   3.996
10166SOL     OW31396   0.928   2.524   0.934
10166SOL    HW131397   0.976   2.526   0.847
10166SOL    HW231398   0.895   2.616   0.956
10167SOL     OW31399   0.594   6.359   6.214
10167SOL    HW131400   0.597   6.282   6.277
10167SOL    HW231401   0.502   6.399   6.213
10168SOL     OW31402   5.956   1.331   0.072
10168SOL    HW131403   5.905   1.334   7.011
10168SOL    HW231404   6.015   1.250   0.073
10169SOL     OW31405   6.775   3.461   3.326
10169SOL    HW131406   6.858   3.467   3.271
10169SOL    HW231407   6.768   3.369   3.365
10170SOL     OW31408   6.272   5.355   0.148
10170SOL    HW131409   6.211   5.280   0.173
10170SOL    HW231410   6.233   5.406   0.071
10171SOL     OW31411   1.858   2.974   5.216
10171SOL    HW131412   1.920   2.908   5.260
10171SOL    HW231413   1.870   3.064   5.259
10172SOL     OW31414   6.696   0.387   3.721
10172SOL    HW131415   6.746   0.471   3.742
10172SOL    HW231416   6.602   0.410   3.696
10173SOL     OW31417   3.528   5.233   0.104
10173SOL    HW131418   3.614   5.210   0.150
10173SOL    HW231419   3.476   5.150   0.087
10174SOL     OW31420   4.673   6.611   2.567
10174SOL    HW131421   4.614   6.669   2.623
10174SOL    HW231422   4.767   6.616   2.602
10175SOL     OW31423   0.060   2.347   3.727
10175SOL    HW131424   0.022   2.255   3.732
10175SOL    HW231425   0.082   2.380   3.819
10176SOL     OW31426   6.107   3.124   5.612
10176SOL    HW131427   6.061   3.078   5.688
10176SOL    HW231428   6.178   3.185   5.647
10177SOL     OW31429   2.172   0.357   1.690
10177SOL    HW131430   2.150   0.412   1.609
10177SOL    HW231431   2.272   0.356   1.703
10178SOL     OW31432   1.699   1.369   0.062
10178SOL    HW131433   1.678   1.467   0.058
10178SOL    HW231434   1.789   1.356   0.104
10179SOL     OW31435   6.661   4.350   0.805
10179SOL    HW131436   6.644   4.253   0.792
10179SOL    HW231437   6.716   4.385   0.729
10180SOL     OW31438   4.364   6.726   6.216
10180SOL    HW131439   4.464   6.716   6.215
10180SOL    HW231440   4.324   6.655   6.274
10181SOL     OW31441   6.569   4.128   1.050
10181SOL    HW131442   6.659   4.151   1.089
10181SOL    HW231443   6.573   4.139   0.951
10182SOL     OW31444   5.236   1.234   0.216
10182SOL    HW131445   5.211   1.180   0.135
10182SOL    HW231446   5.184   1.201   0.295
10183SOL     OW31447   6.675   2.056   6.140
10183SOL    HW131448   6.690   2.154   6.127
10183SOL    HW231449   6.587   2.042   6.186
10184SOL     OW31450   6.065   3.772   5.793
10184SOL    HW131451   6.161   3.760   5.770
10184SOL    HW231452   6.055   3.786   5.892
10185SOL     OW31453   4.129   5.820   2.504
10185SOL    HW131454   4.210   5.784   2.458
10185SOL    HW231455   4.145   5.916   2.529
10186SOL     OW31456   5.047   4.227   5.399
10186SOL    HW131457   5.044   4.256   5.494
10186SOL    HW231458   5.010   4.134   5.391
10187SOL     OW31459   2.565   4.640   6.070
10187SOL    HW131460   2.543   4.592   6.154
10187SOL    HW231461   2.523   4.593   5.992
10188SOL     OW31462   2.751   6.890   0.124
10188SOL    HW131463   2.698   6.911   0.041
10188SOL    HW231464   2.790   6.974   0.160
10189SOL     OW31465   1.213   1.515   6.066
10189SOL    HW131466   1.127   1.478   6.032
10189SOL    HW231467   1.212   1.516   6.166
10190SOL     OW31468   3.114   4.559   1.253
10190SOL    HW131469   3.163   4.644   1.274
10190SOL    HW231470   3.020   4.567   1.286
10191SOL     OW31471   5.883   5.552   6.945
10191SOL    HW131472   5.907   5.463   6.984
10191SOL    HW231473   5.956   5.583   6.884
10192SOL     OW31474   2.196   1.942   5.070
10192SOL    HW131475   2.098   1.926   5.068
10192SOL    HW231476   2.215   2.033   5.105
10193SOL     OW31477   4.082   3.639   2.854
10193SOL    HW131478   4.079   3.627   2.954
10193SOL    HW231479   4.028   3.720   2.829
10194SOL     OW31480   3.402   0.121   4.345
10194SOL    HW131481   3.438   0.209   4.312
10194SOL    HW231482   3.476   0.054   4.346
10195SOL     OW31483   5.407   6.952   1.981
10195SOL    HW131484   5.499   6.974   1.949
10195SOL    HW231485   5.413   6.895   2.063
10196SOL     OW31486   5.674   1.684   2.977
10196SOL    HW131487   5.672   1.776   2.936
10196SOL    HW231488   5.731   1.686   3.059
10197SOL     OW31489   6.058   0.104   3.093
10197SOL    HW131490   6.072   0.103   2.994
10197SOL    HW231491   6.053   0.010   3.127
10198SOL     OW31492   3.134   6.426   1.834
10198SOL    HW131493   3.199   6.501   1.822
10198SOL    HW231494   3.085   6.410   1.749
10199SOL     OW31495   1.130   1.835   6.833
10199SOL    HW131496   1.207   1.823   6.895
10199SOL    HW231497   1.047   1.798   6.876
10200SOL     OW31498   5.349   4.333   5.516
10200SOL    HW131499   5.315   4.376   5.432
10200SOL    HW231500   5.436   4.374   5.542
10201SOL     OW31501   0.763   5.291   2.364
10201SOL    HW131502   0.835   5.354   2.336
10201SOL    HW231503   0.789   5.197   2.342
10202SOL     OW31504   0.359   3.993   1.573
10202SOL    HW131505   0.262   3.983   1.595
10202SOL    HW231506   0.411   4.010   1.656
10203SOL     OW31507   2.153   3.050   2.095
10203SOL    HW131508   2.143   3.099   2.182
10203SOL    HW231509   2.147   2.952   2.112
10204SOL     OW31510   2.900   4.689   5.577
10204SOL    HW131511   2.936   4.696   5.484
10204SOL    HW231512   2.843   4.769   5.596
10205SOL     OW31513   5.709   1.419   4.011
10205SOL    HW131514   5.636   1.350   4.014
10205SOL    HW231515   5.683   1.491   3.946
10206SOL     OW31516   5.655   6.579   6.100
10206SOL    HW131517   5.747   6.581   6.141
10206SOL    HW231518   5.609   6.665   6.119
10207SOL     OW31519   2.542   0.719   2.661
10207SOL    HW131520   2.614   0.780   2.694
10207SOL    HW231521   2.573   0.624   2.668
10208SOL     OW31522   5.762   5.275   5.144
10208SOL    HW131523   5.713   5.303   5.061
10208SOL    HW231524   5.730   5.185   5.174
10209SOL     OW31525   6.925   1.228   5.994
10209SOL    HW131526   6.971   1.210   5.907
10209SOL    HW231527   6.871   1.148   6.020
10210SOL     OW31528   5.735   0.022   2.261
10210SOL    HW131529   5.656   0.081   2.273
10210SOL    HW231530   5.803   0.042   2.331
10211SOL     OW31531   3.840   6.845   5.479
10211SOL    HW131532   3.835   6.922   5.543
10211SOL    HW231533   3.772   6.856   5.407
10212SOL     OW31534   0.703   1.105   3.951
10212SOL    HW131535   0.780   1.151   3.996
10212SOL    HW231536   0.618   1.153   3.974
10213SOL     OW31537   6.032   1.769   2.963
10213SOL    HW131538   6.089   1.804   3.038
10213SOL    HW231539   6.023   1.670   2.971
10214SOL     OW31540   6.263   0.562   2.320
10214SOL    HW131541   6.309   0.510   2.392
10214SOL    HW231542   6.304   0.653   2.313
10215SOL     OW31543   3.587   3.150   6.060
10215SOL    HW131544   3.603   3.072   6.000
10215SOL    HW231545   3.644   3.142   6.142
10216SOL     OW31546   6.471   0.007   1.085
10216SOL    HW131547   6.377   0.042   1.088
10216SOL    HW231548   6.530   0.065   1.140
10217SOL     OW31549   2.778   2.054   4.103
10217SOL    HW131550   2.783   2.038   4.004
10217SOL    HW231551   2.749   1.969   4.148
10218SOL     OW31552   1.532   1.179   1.096
10218SOL    HW131553   1.442   1.199   1.056
10218SOL    HW231554   1.520   1.132   1.183
10219SOL     OW31555   0.814   1.877   2.122
10219SOL    HW131556   0.731   1.866   2.177
10219SOL    HW231557   0.881   1.807   2.149
10220SOL     OW31558   4.263   1.881   1.601
10220SOL    HW131559   4.183   1.831   1.567
10220SOL    HW231560   4.234   1.956   1.660
10221SOL     OW31561   2.699   0.746   5.340
10221SOL    HW131562   2.721   0.843   5.325
10221SOL    HW231563   2.775   0.701   5.386
10222SOL     OW31564   0.884   3.801   5.420
10222SOL    HW131565   0.857   3.779   5.513
10222SOL    HW231566   0.984   3.808   5.414
10223SOL     OW31567   1.516   4.962   6.829
10223SOL    HW131568   1.496   5.057   6.804
10223SOL    HW231569   1.501   4.903   6.750
10224SOL     OW31570   1.159   0.873   4.136
10224SOL    HW131571   1.242   0.817   4.136
10224SOL    HW231572   1.152   0.923   4.222
10225SOL     OW31573   0.493   6.118   4.569
10225SOL    HW131574   0.410   6.123   4.514
10225SOL    HW231575   0.565   6.072   4.517
10226SOL     OW31576   2.892   1.017   6.876
10226SOL    HW131577   2.967   0.985   6.818
10226SOL    HW231578   2.899   1.117   6.886
10227SOL     OW31579   4.708   4.777   0.021
10227SOL    HW131580   4.707   4.877   0.024
10227SOL    HW231581   4.651   4.741   0.095
10228SOL     OW31582   0.510   5.457   2.568
10228SOL    HW131583   0.425   5.508   2.582
10228SOL    HW231584   0.512   5.379   2.631
10229SOL     OW31585   0.413   0.541   3.164
10229SOL    HW131586   0.345   0.564   3.094
10229SOL    HW231587   0.500   0.583   3.140
10230SOL     OW31588   6.357   0.124   3.812
10230SOL    HW131589   6.385   0.043   3.864
10230SOL    HW231590   6.402   0.205   3.848
10231SOL     OW31591   6.393   6.959   4.805
10231SOL    HW131592   6.406   6.991   4.712
10231SOL    HW231593   6.448   6.877   4.820
10232SOL     OW31594   3.448   1.088   4.160
10232SOL    HW131595   3.357   1.080   4.201
10232SOL    HW231596   3.517   1.083   4.232
10233SOL     OW31597   4.086   3.017   6.224
10233SOL    HW131598   4.173   3.066   6.213
10233SOL    HW231599   4.099   2.940   6.287
10234SOL     OW31600   4.914   0.531   0.582
10234SOL    HW131601   4.910   0.445   0.634
10234SOL    HW231602   4.850   0.527   0.505
10235SOL     OW31603   4.694   1.168   0.188
10235SOL    HW131604   4.729   1.241   0.129
10235SOL    HW231605   4.664   1.207   0.275
10236SOL     OW31606   2.293   6.139   1.657
10236SOL    HW131607   2.361   6.095   1.716
10236SOL    HW231608   2.319   6.235   1.643
10237SOL     OW31609   6.520   4.505   1.840
10237SOL    HW131610   6.596   4.445   1.818
10237SOL    HW231611   6.460   4.460   1.906
10238SOL     OW31612   3.572   4.408   5.308
10238SOL    HW131613   3.514   4.338   5.268
10238SOL    HW231614   3.520   4.493   5.316
10239SOL     OW31615   0.823   4.124   5.472
10239SOL    HW131616   0.879   4.042   5.460
10239SOL    HW231617   0.851   4.193   5.406
10240SOL     OW31618   0.989   4.311   2.805
10240SOL    HW131619   0.944   4.400   2.809
10240SOL    HW231620   1.086   4.321   2.830
10241SOL     OW31621   0.318   1.327   1.910
10241SOL    HW131622   0.251   1.365   1.845
10241SOL    HW231623   0.376   1.261   1.863
10242SOL     OW31624   0.350   1.287   5.661
10242SOL    HW131625   0.362   1.291   5.562
10242SOL    HW231626   0.404   1.212   5.698
10243SOL     OW31627   0.129   5.521   1.119
10243SOL    HW131628   0.207   5.574   1.151
10243SOL    HW231629   0.117   5.534   1.020
10244SOL     OW31630   2.405   5.084   6.871
10244SOL    HW131631   2.492   5.037   6.881
10244SOL    HW231632   2.393   5.149   6.946
10245SOL     OW31633   2.084   3.345   7.021
10245SOL    HW131634   2.077   3.260   6.969
10245SOL    HW231635   2.026   3.415   6.979
10246SOL     OW31636   3.108   4.030   4.755
10246SOL    HW131637   3.200   4.048   4.791
10246SOL    HW231638   3.046   4.103   4.784
10247SOL     OW31639   0.299   5.454   5.428
10247SOL    HW131640   0.222   5.447   5.365
10247SOL    HW231641   0.385   5.456   5.376
10248SOL     OW31642   3.391   0.581   2.330
10248SOL    HW131643   3.356   0.673   2.310
10248SOL    HW231644   3.364   0.519   2.256
10249SOL     OW31645   3.938   0.600   5.542
10249SOL    HW131646   3.852   0.614   5.591
10249SOL    HW231647   4.011   0.651   5.588
10250SOL     OW31648   6.547   1.074   1.593
10250SOL    HW131649   6.509   1.008   1.528
10250SOL    HW231650   6.499   1.161   1.583
10251SOL     OW31651   2.718   2.769   5.799
10251SOL    HW131652   2.703   2.847   5.860
10251SOL    HW231653   2.813   2.739   5.805
10252SOL     OW31654   6.213   6.815   0.970
10252SOL    HW131655   6.284   6.768   1.022
10252SOL    HW231656   6.150   6.861   1.034
10253SOL     OW31657   4.765   5.277   0.478
10253SOL    HW131658   4.682   5.224   0.461
10253SOL    HW231659   4.838   5.215   0.510
10254SOL     OW31660   3.074   1.854   4.906
10254SOL    HW131661   3.015   1.925   4.867
10254SOL    HW231662   3.166   1.862   4.867
10255SOL     OW31663   1.809   6.245   2.061
10255SOL    HW131664   1.772   6.187   2.134
10255SOL    HW231665   1.878   6.194   2.009
10256SOL     OW31666   5.030   0.191   0.954
10256SOL    HW131667   5.004   0.198   0.857
10256SOL    HW231668   5.104   0.255   0.974
10257SOL     OW31669   1.181   4.737   5.462
10257SOL    HW131670   1.242   4.811   5.491
10257SOL    HW231671   1.201   4.654   5.514
10258SOL     OW31672   5.073   6.217   3.455
10258SOL    HW131673   4.974   6.235   3.452
10258SOL    HW231674   5.120   6.279   3.392
10259SOL     OW31675   0.253   5.138   3.771
10259SOL    HW131676   0.281   5.181   3.857
10259SOL    HW231677   0.241   5.209   3.701
10260SOL     OW31678   0.026   6.432   3.153
10260SOL    HW131679   6.964   6.474   3.181
10260SOL    HW231680   0.036   6.439   3.054
10261SOL     OW31681   6.761   6.248   2.234
10261SOL    HW131682   6.793   6.313   2.303
10261SOL    HW231683   6.665   6.267   2.212
10262SOL     OW31684   3.577   4.956   4.485
10262SOL    HW131685   3.578   4.934   4.387
10262SOL    HW231686   3.666   4.937   4.525
10263SOL     OW31687   5.063   2.128   6.826
10263SOL    HW131688   5.138   2.077   6.785
10263SOL    HW231689   5.005   2.065   6.878
10264SOL     OW31690   6.058   1.586   6.504
10264SOL    HW131691   6.126   1.628   6.444
10264SOL    HW231692   5.967   1.603   6.468
10265SOL     OW31693   3.042   1.704   3.225
10265SOL    HW131694   3.106   1.649   3.279
10265SOL    HW231695   3.017   1.786   3.277
10266SOL     OW31696   3.631   3.898   6.137
10266SOL    HW131697   3.700   3.970   6.129
10266SOL    HW231698   3.542   3.939   6.153
10267SOL     OW31699   6.466   2.202   0.004
10267SOL    HW131700   6.554   2.157   7.016
10267SOL    HW231701   6.443   2.257   6.949
10268SOL     OW31702   5.828   6.267   1.538
10268SOL    HW131703   5.840   6.274   1.637
10268SOL    HW231704   5.837   6.357   1.497
10269SOL     OW31705   2.556   1.998   5.449
10269SOL    HW131706   2.565   1.967   5.544
10269SOL    HW231707   2.464   1.977   5.416
10270SOL     OW31708   2.024   5.945   1.071
10270SOL    HW131709   2.122   5.926   1.059
10270SOL    HW231710   1.979   5.947   0.983
10271SOL     OW31711   3.152   3.627   0.580
10271SOL    HW131712   3.070   3.645   0.527
10271SOL    HW231713   3.172   3.704   0.640
10272SOL     OW31714   1.186   1.108   3.974
10272SOL    HW131715   1.162   1.030   4.032
10272SOL    HW231716   1.209   1.187   4.032
10273SOL     OW31717   3.902   5.454   4.098
10273SOL    HW131718   3.832   5.382   4.100
10273SOL    HW231719   3.991   5.414   4.116
10274SOL     OW31720   1.354   4.955   5.643
10274SOL    HW131721   1.409   5.036   5.665
10274SOL    HW231722   1.332   4.907   5.728
10275SOL     OW31723   0.671   6.612   3.224
10275SOL    HW131724   0.592   6.675   3.225
10275SOL    HW231725   0.654   6.537   3.287
10276SOL     OW31726   6.648   5.565   5.986
10276SOL    HW131727   6.728   5.565   6.045
10276SOL    HW231728   6.566   5.553   6.041
10277SOL     OW31729   2.980   6.232   3.962
10277SOL    HW131730   2.902   6.173   3.938
10277SOL    HW231731   2.999   6.295   3.887
10278SOL     OW31732   6.801   1.478   6.091
10278SOL    HW131733   6.705   1.456   6.109
10278SOL    HW231734   6.849   1.397   6.059
10279SOL     OW31735   3.000   0.172   4.307
10279SOL    HW131736   2.944   0.163   4.224
10279SOL    HW231737   3.019   0.269   4.324
10280SOL     OW31738   2.312   4.814   0.914
10280SOL    HW131739   2.245   4.780   0.848
10280SOL    HW231740   2.296   4.770   1.003
10281SOL     OW31741   4.932   1.622   3.081
10281SOL    HW131742   4.877   1.540   3.066
10281SOL    HW231743   5.025   1.596   3.106
10282SOL     OW31744   0.004   2.993   3.498
10282SOL    HW131745   0.057   2.992   3.583
10282SOL    HW231746   0.002   3.086   3.461
10283SOL     OW31747   0.904   3.322   1.041
10283SOL    HW131748   0.961   3.323   0.959
10283SOL    HW231749   0.933   3.395   1.103
10284SOL     OW31750   5.432   3.873   4.795
10284SOL    HW131751   5.511   3.934   4.804
10284SOL    HW231752   5.356   3.924   4.753
10285SOL     OW31753   4.996   0.459   1.337
10285SOL    HW131754   5.062   0.385   1.328
10285SOL    HW231755   4.905   0.425   1.314
10286SOL     OW31756   4.047   1.496   2.713
10286SOL    HW131757   4.095   1.536   2.635
10286SOL    HW231758   3.964   1.549   2.732
10287SOL     OW31759   1.700   6.505   2.066
10287SOL    HW131760   1.611   6.511   2.020
10287SOL    HW231761   1.712   6.414   2.103
10288SOL     OW31762   5.090   5.882   3.012
10288SOL    HW131763   5.111   5.788   3.040
10288SOL    HW231764   5.144   5.906   2.931
10289SOL     OW31765   3.370   1.032   1.106
10289SOL    HW131766   3.328   1.008   1.194
10289SOL    HW231767   3.332   0.975   1.034
10290SOL     OW31768   3.973   3.853   2.715
10290SOL    HW131769   4.000   3.833   2.621
10290SOL    HW231770   3.885   3.901   2.714
10291SOL     OW31771   4.238   0.802   3.641
10291SOL    HW131772   4.157   0.825   3.588
10291SOL    HW231773   4.214   0.793   3.738
10292SOL     OW31774   0.421   2.260   4.912
10292SOL    HW131775   0.469   2.212   4.838
10292SOL    HW231776   0.486   2.319   4.961
10293SOL     OW31777   1.582   6.144   2.880
10293SOL    HW131778   1.619   6.062   2.924
10293SOL    HW231779   1.482   6.142   2.886
10294SOL     OW31780   4.765   2.733   2.788
10294SOL    HW131781   4.760   2.692   2.879
10294SOL    HW231782   4.786   2.831   2.797
10295SOL     OW31783   6.012   4.419   5.502
10295SOL    HW131784   6.019   4.339   5.443
10295SOL    HW231785   6.068   4.405   5.584
10296SOL     OW31786   6.050   4.392   6.221
10296SOL    HW131787   6.001   4.313   6.259
10296SOL    HW231788   6.040   4.470   6.282
10297SOL     OW31789   2.826   6.837   4.305
10297SOL    HW131790   2.871   6.771   4.246
10297SOL    HW231791   2.883   6.855   4.385
10298SOL     OW31792   4.822   4.330   3.335
10298SOL    HW131793   4.743   4.382   3.367
10298SOL    HW231794   4.902   4.353   3.391
10299SOL     OW31795   4.640   4.521   3.526
10299SOL    HW131796   4.582   4.497   3.603
10299SOL    HW231797   4.672   4.615   3.536
10300SOL     OW31798   1.549   3.492   1.944
10300SOL    HW131799   1.523   3.474   1.849
10300SOL    HW231800   1.469   3.520   1.996
10301SOL     OW31801   5.948   1.596   3.752
10301SOL    HW131802   5.967   1.498   3.751
10301SOL    HW231803   5.990   1.637   3.834
10302SOL     OW31804   1.011   6.542   2.593
10302SOL    HW131805   0.967   6.601   2.660
10302SOL    HW231806   1.080   6.486   2.638
10303SOL     OW31807   3.846   3.364   1.856
10303SOL    HW131808   3.923   3.395   1.800
10303SOL    HW231809   3.790   3.301   1.803
10304SOL     OW31810   6.039   6.850   4.090
10304SOL    HW131811   6.082   6.837   4.000
10304SOL    HW231812   6.106   6.887   4.154
10305SOL     OW31813   1.488   5.699   0.196
10305SOL    HW131814   1.561   5.736   0.253
10305SOL    HW231815   1.484   5.600   0.208
10306SOL     OW31816   4.300   5.807   6.585
10306SOL    HW131817   4.232   5.797   6.512
10306SOL    HW231818   4.302   5.902   6.616
10307SOL     OW31819   1.770   0.964   5.375
10307SOL    HW131820   1.694   0.900   5.367
10307SOL    HW231821   1.779   0.995   5.470
10308SOL     OW31822   3.175   4.899   3.572
10308SOL    HW131823   3.191   4.892   3.474
10308SOL    HW231824   3.107   4.831   3.600
10309SOL     OW31825   5.921   6.201   3.366
10309SOL    HW131826   6.000   6.140   3.370
10309SOL    HW231827   5.838   6.147   3.356
10310SOL     OW31828   2.926   3.638   2.271
10310SOL    HW131829   2.922   3.585   2.187
10310SOL    HW231830   2.901   3.580   2.349
10311SOL     OW31831   0.258   5.959   0.662
10311SOL    HW131832   0.346   5.913   0.673
10311SOL    HW231833   0.215   5.930   0.576
10312SOL     OW31834   3.638   4.807   0.599
10312SOL    HW131835   3.655   4.892   0.549
10312SOL    HW231836   3.702   4.801   0.676
10313SOL     OW31837   4.458   6.992   2.160
10313SOL    HW131838   4.503   6.925   2.101
10313SOL    HW231839   4.447   6.954   2.251
10314SOL     OW31840   6.535   0.004   0.335
10314SOL    HW131841   6.527   0.101   0.312
10314SOL    HW231842   6.453   7.000   0.385
10315SOL     OW31843   6.156   6.003   5.515
10315SOL    HW131844   6.110   6.078   5.467
10315SOL    HW231845   6.152   5.921   5.459
10316SOL     OW31846   0.657   3.894   4.860
10316SOL    HW131847   0.756   3.891   4.873
10316SOL    HW231848   0.636   3.920   4.766
10317SOL     OW31849   3.749   5.336   6.661
10317SOL    HW131850   3.827   5.376   6.614
10317SOL    HW231851   3.712   5.262   6.606
10318SOL     OW31852   6.396   5.010   1.175
10318SOL    HW131853   6.399   5.110   1.173
10318SOL    HW231854   6.490   4.974   1.171
10319SOL     OW31855   0.408   4.454   3.910
10319SOL    HW131856   0.433   4.371   3.859
10319SOL    HW231857   0.356   4.515   3.851
10320SOL     OW31858   0.931   0.089   0.922
10320SOL    HW131859   0.940   0.140   0.836
10320SOL    HW231860   0.890   7.025   0.904
10321SOL     OW31861   4.206   6.151   4.616
10321SOL    HW131862   4.144   6.210   4.564
10321SOL    HW231863   4.289   6.135   4.562
10322SOL     OW31864   6.302   5.398   0.581
10322SOL    HW131865   6.361   5.441   0.513
10322SOL    HW231866   6.343   5.409   0.672
10323SOL     OW31867   6.379   3.231   6.110
10323SOL    HW131868   6.415   3.154   6.057
10323SOL    HW231869   6.404   3.221   6.206
10324SOL     OW31870   3.297   2.913   3.512
10324SOL    HW131871   3.336   2.846   3.574
10324SOL    HW231872   3.324   2.891   3.418
10325SOL     OW31873   6.542   3.691   3.653
10325SOL    HW131874   6.519   3.604   3.611
10325SOL    HW231875   6.525   3.687   3.751
10326SOL     OW31876   5.004   2.950   0.341
10326SOL    HW131877   5.030   2.921   0.249
10326SOL    HW231878   4.929   3.016   0.334
10327SOL     OW31879   1.638   1.131   3.298
10327SOL    HW131880   1.686   1.051   3.259
10327SOL    HW231881   1.598   1.184   3.224
10328SOL     OW31882   5.956   3.844   2.307
10328SOL    HW131883   5.988   3.752   2.332
10328SOL    HW231884   6.032   3.909   2.315
10329SOL     OW31885   3.516   0.300   2.936
10329SOL    HW131886   3.432   0.291   2.988
10329SOL    HW231887   3.505   0.255   2.847
10330SOL     OW31888   3.690   5.286   2.923
10330SOL    HW131889   3.783   5.291   2.959
10330SOL    HW231890   3.670   5.370   2.871
10331SOL     OW31891   5.401   0.917   3.587
10331SOL    HW131892   5.427   0.881   3.677
10331SOL    HW231893   5.370   0.841   3.529
10332SOL     OW31894   6.977   1.988   0.904
10332SOL    HW131895   0.050   1.974   0.893
10332SOL    HW231896   6.931   1.899   0.910
10333SOL     OW31897   6.005   5.124   4.133
10333SOL    HW131898   6.041   5.214   4.108
10333SOL    HW231899   6.048   5.094   4.218
10334SOL     OW31900   2.322   5.070   4.330
10334SOL    HW131901   2.348   4.981   4.293
10334SOL    HW231902   2.229   5.066   4.367
10335SOL     OW31903   2.102   5.636   6.834
10335SOL    HW131904   2.102   5.536   6.843
10335SOL    HW231905   2.013   5.667   6.801
10336SOL     OW31906   4.299   0.065   1.888
10336SOL    HW131907   4.351   7.006   1.902
10336SOL    HW231908   4.354   0.144   1.917
10337SOL     OW31909   0.387   5.355   4.955
10337SOL    HW131910   0.451   5.283   4.928
10337SOL    HW231911   0.304   5.350   4.898
10338SOL     OW31912   3.166   6.844   2.010
10338SOL    HW131913   3.174   6.916   2.079
10338SOL    HW231914   3.224   6.867   1.931
10339SOL     OW31915   3.406   5.920   0.946
10339SOL    HW131916   3.436   5.994   1.006
10339SOL    HW231917   3.479   5.898   0.881
10340SOL     OW31918   2.456   6.018   0.084
10340SOL    HW131919   2.453   5.918   0.072
10340SOL    HW231920   2.398   6.044   0.161
10341SOL     OW31921   2.197   2.170   2.273
10341SOL    HW131922   2.262   2.244   2.284
10341SOL    HW231923   2.237   2.097   2.217
10342SOL     OW31924   2.495   6.948   5.551
10342SOL    HW131925   2.466   6.987   5.464
10342SOL    HW231926   2.563   6.876   5.534
10343SOL     OW31927   2.569   3.928   5.989
10343SOL    HW131928   2.606   3.873   5.915
10343SOL    HW231929   2.474   3.952   5.970
10344SOL     OW31930   4.189   3.536   4.885
10344SOL    HW131931   4.137   3.463   4.841
10344SOL    HW231932   4.285   3.529   4.860
10345SOL     OW31933   2.348   0.964   0.211
10345SOL    HW131934   2.426   0.927   0.262
10345SOL    HW231935   2.335   0.911   0.127
10346SOL     OW31936   5.242   6.896   6.886
10346SOL    HW131937   5.157   6.848   6.904
10346SOL    HW231938   5.289   6.915   6.973
10347SOL     OW31939   5.519   1.947   1.239
10347SOL    HW131940   5.420   1.939   1.222
10347SOL    HW231941   5.557   1.857   1.261
10348SOL     OW31942   6.271   1.061   6.337
10348SOL    HW131943   6.265   1.143   6.393
10348SOL    HW231944   6.216   0.988   6.379
10349SOL     OW31945   6.542   1.239   1.285
10349SOL    HW131946   6.483   1.211   1.360
10349SOL    HW231947   6.596   1.160   1.254
10350SOL     OW31948   3.502   5.896   4.233
10350SOL    HW131949   3.556   5.841   4.170
10350SOL    HW231950   3.482   5.843   4.315
10351SOL     OW31951   5.865   5.524   4.868
10351SOL    HW131952   5.963   5.543   4.874
10351SOL    HW231953   5.827   5.574   4.790
10352SOL     OW31954   5.376   1.478   6.815
10352SOL    HW131955   5.290   1.442   6.851
10352SOL    HW231956   5.417   1.540   6.882
10353SOL     OW31957   0.516   3.237   3.347
10353SOL    HW131958   0.519   3.175   3.425
10353SOL    HW231959   0.524   3.331   3.379
10354SOL     OW31960   0.217   3.769   0.393
10354SOL    HW131961   0.295   3.798   0.337
10354SOL    HW231962   0.135   3.817   0.362
10355SOL     OW31963   1.089   1.245   0.742
10355SOL    HW131964   0.994   1.268   0.764
10355SOL    HW231965   1.131   1.323   0.695
10356SOL     OW31966   6.973   3.150   6.831
10356SOL    HW131967   0.029   3.137   6.774
10356SOL    HW231968   6.992   3.219   6.901
10357SOL     OW31969   1.544   2.404   6.495
10357SOL    HW131970   1.493   2.474   6.546
10357SOL    HW231971   1.484   2.363   6.427
10358SOL     OW31972   1.372   2.569   2.555
10358SOL    HW131973   1.335   2.572   2.462
10358SOL    HW231974   1.311   2.620   2.616
10359SOL     OW31975   5.320   2.356   3.108
10359SOL    HW131976   5.290   2.323   3.198
10359SOL    HW231977   5.414   2.388   3.114
10360SOL     OW31978   5.335   4.991   3.129
10360SOL    HW131979   5.408   4.978   3.062
10360SOL    HW231980   5.370   4.972   3.221
10361SOL     OW31981   1.806   1.334   1.348
10361SOL    HW131982   1.758   1.248   1.335
10361SOL    HW231983   1.751   1.395   1.405
10362SOL     OW31984   0.446   5.209   1.867
10362SOL    HW131985   0.490   5.258   1.792
10362SOL    HW231986   0.407   5.275   1.932
10363SOL     OW31987   4.598   3.491   0.583
10363SOL    HW131988   4.588   3.482   0.484
10363SOL    HW231989   4.622   3.402   0.623
10364SOL     OW31990   4.911   5.139   1.311
10364SOL    HW131991   4.885   5.076   1.238
10364SOL    HW231992   4.977   5.206   1.276
10365SOL     OW31993   5.965   4.756   0.473
10365SOL    HW131994   5.959   4.801   0.562
10365SOL    HW231995   5.925   4.665   0.479
10366SOL     OW31996   3.968   6.614   2.666
10366SOL    HW131997   4.048   6.618   2.606
10366SOL    HW231998   3.986   6.550   2.741
10367SOL     OW31999   6.673   1.612   1.688
10367SOL    HW132000   6.592   1.555   1.700
10367SOL    HW232001   6.663   1.667   1.605
10368SOL     OW32002   2.435   0.079   2.288
10368SOL    HW132003   2.344   0.114   2.268
10368SOL    HW232004   2.430   0.013   2.362
10369SOL     OW32005   3.267   6.159   5.108
10369SOL    HW132006   3.264   6.059   5.108
10369SOL    HW232007   3.245   6.194   5.017
10370SOL     OW32008   6.788   1.825   4.509
10370SOL    HW132009   6.701   1.796   4.550
10370SOL    HW232010   6.815   1.760   4.438
10371SOL     OW32011   4.045   6.385   3.553
10371SOL    HW132012   4.104   6.418   3.627
10371SOL    HW232013   4.100   6.372   3.470
10372SOL     OW32014   2.989   0.603   1.474
10372SOL    HW132015   3.056   0.646   1.534
10372SOL    HW232016   2.984   0.505   1.495
10373SOL     OW32017   7.022   0.666   5.330
10373SOL    HW132018   6.949   0.601   5.349
10373SOL    HW232019   6.986   0.742   5.276
10374SOL     OW32020   3.128   6.746   4.454
10374SOL    HW132021   3.141   6.825   4.394
10374SOL    HW232022   3.198   6.677   4.434
10375SOL     OW32023   3.472   2.835   6.564
10375SOL    HW132024   3.402   2.817   6.495
10375SOL    HW232025   3.523   2.917   6.539
10376SOL     OW32026   1.229   6.275   3.729
10376SOL    HW132027   1.291   6.351   3.709
10376SOL    HW232028   1.154   6.275   3.662
10377SOL     OW32029   0.437   1.258   1.514
10377SOL    HW132030   0.458   1.189   1.583
10377SOL    HW232031   0.436   1.348   1.555
10378SOL     OW32032   0.319   5.677   5.105
10378SOL    HW132033   0.349   5.759   5.153
10378SOL    HW232034   0.377   5.600   5.132
10379SOL     OW32035   2.719   6.611   3.952
10379SOL    HW132036   2.708   6.689   3.892
10379SOL    HW232037   2.697   6.527   3.903
10380SOL     OW32038   1.483   2.429   4.370
10380SOL    HW132039   1.559   2.493   4.356
10380SOL    HW232040   1.506   2.365   4.443
10381SOL     OW32041   3.878   4.430   1.679
10381SOL    HW132042   3.969   4.391   1.693
10381SOL    HW232043   3.883   4.529   1.692
10382SOL     OW32044   2.617   5.121   2.227
10382SOL    HW132045   2.570   5.186   2.166
10382SOL    HW232046   2.712   5.111   2.198
10383SOL     OW32047   1.502   4.836   0.205
10383SOL    HW132048   1.492   4.912   0.269
10383SOL    HW232049   1.584   4.851   0.149
10384SOL     OW32050   6.295   6.164   1.284
10384SOL    HW132051   6.375   6.196   1.334
10384SOL    HW232052   6.260   6.238   1.226
10385SOL     OW32053   3.423   5.199   6.310
10385SOL    HW132054   3.328   5.224   6.323
10385SOL    HW232055   3.431   5.141   6.228
10386SOL     OW32056   0.029   1.346   6.198
10386SOL    HW132057   0.015   1.307   6.289
10386SOL    HW232058   7.004   1.293   6.130
10387SOL     OW32059   5.436   2.668   3.296
10387SOL    HW132060   5.413   2.731   3.222
10387SOL    HW232061   5.354   2.619   3.325
10388SOL     OW32062   2.937   0.284   6.259
10388SOL    HW132063   2.951   0.375   6.220
10388SOL    HW232064   2.904   0.222   6.189
10389SOL     OW32065   6.481   4.120   0.070
10389SOL    HW132066   6.517   4.210   0.096
10389SOL    HW232067   6.538   4.049   0.111
10390SOL     OW32068   1.925   2.230   0.477
10390SOL    HW132069   1.902   2.311   0.422
10390SOL    HW232070   1.970   2.259   0.561
10391SOL     OW32071   0.966   6.012   3.383
10391SOL    HW132072   0.875   5.982   3.353
10391SOL    HW232073   1.032   5.939   3.368
10392SOL     OW32074   6.410   5.198   5.297
10392SOL    HW132075   6.373   5.212   5.206
10392SOL    HW232076   6.340   5.220   5.365
10393SOL     OW32077   2.138   3.313   3.897
10393SOL    HW132078   2.109   3.235   3.841
10393SOL    HW232079   2.111   3.398   3.851
10394SOL     OW32080   2.619   5.809   3.809
10394SOL    HW132081   2.551   5.736   3.802
10394SOL    HW232082   2.629   5.835   3.904
10395SOL     OW32083   0.357   6.473   1.174
10395SOL    HW132084   0.332   6.410   1.101
10395SOL    HW232085   0.419   6.543   1.139
10396SOL     OW32086   3.953   1.838   4.402
10396SOL    HW132087   3.882   1.769   4.392
10396SOL    HW232088   3.911   1.929   4.400
10397SOL     OW32089   3.531   1.638   2.820
10397SOL    HW132090   3.598   1.713   2.823
10397SOL    HW232091   3.450   1.668   2.769
10398SOL     OW32092   5.995   2.825   1.313
10398SOL    HW132093   5.923   2.851   1.248
10398SOL    HW232094   6.036   2.907   1.351
10399SOL     OW32095   5.274   2.263   3.341
10399SOL    HW132096   5.277   2.180   3.286
10399SOL    HW232097   5.303   2.243   3.434
10400SOL     OW32098   4.486   6.758   0.354
10400SOL    HW132099   4.447   6.747   0.445
10400SOL    HW232100   4.465   6.849   0.320
10401SOL     OW32101   6.383   0.918   3.758
10401SOL    HW132102   6.451   0.917   3.685
10401SOL    HW232103   6.364   0.824   3.788
10402SOL     OW32104   6.774   3.582   5.256
10402SOL    HW132105   6.726   3.497   5.276
10402SOL    HW232106   6.715   3.642   5.202
10403SOL     OW32107   4.496   0.891   3.566
10403SOL    HW132108   4.442   0.845   3.637
10403SOL    HW232109   4.438   0.906   3.486
10404SOL     OW32110   6.271   6.527   5.057
10404SOL    HW132111   6.343   6.477   5.008
10404SOL    HW232112   6.302   6.620   5.077
10405SOL     OW32113   0.080   1.892   5.531
10405SOL    HW132114   0.146   1.935   5.591
10405SOL    HW232115   0.023   1.962   5.488
10406SOL     OW32116   2.837   5.288   3.042
10406SOL    HW132117   2.879   5.345   3.113
10406SOL    HW232118   2.768   5.229   3.082
10407SOL     OW32119   3.192   6.694   6.186
10407SOL    HW132120   3.237   6.782   6.202
10407SOL    HW232121   3.223   6.628   6.255
10408SOL     OW32122   4.887   0.033   1.258
10408SOL    HW132123   4.923   6.968   1.233
10408SOL    HW232124   4.963   0.096   1.271
10409SOL     OW32125   6.973   4.737   0.827
10409SOL    HW132126   7.006   4.748   0.734
10409SOL    HW232127   0.025   4.735   0.890
10410SOL     OW32128   5.505   1.854   0.482
10410SOL    HW132129   5.513   1.896   0.572
10410SOL    HW232130   5.531   1.920   0.412
10411SOL     OW32131   4.177   6.430   3.332
10411SOL    HW132132   4.183   6.527   3.309
10411SOL    HW232133   4.168   6.376   3.249
10412SOL     OW32134   6.998   1.011   0.168
10412SOL    HW132135   6.968   0.986   0.260
10412SOL    HW232136   7.002   1.111   0.160
10413SOL     OW32137   6.297   3.064   0.371
10413SOL    HW132138   6.345   3.066   0.459
10413SOL    HW232139   6.361   3.036   0.299
10414SOL     OW32140   3.863   4.205   5.426
10414SOL    HW132141   3.791   4.154   5.379
10414SOL    HW232142   3.950   4.190   5.380
10415SOL     OW32143   1.121   4.004   4.528
10415SOL    HW132144   1.174   3.960   4.455
10415SOL    HW232145   1.036   3.954   4.543
10416SOL     OW32146   5.989   0.267   4.582
10416SOL    HW132147   5.918   0.236   4.645
10416SOL    HW232148   6.009   0.195   4.516
10417SOL     OW32149   3.320   5.221   4.453
10417SOL    HW132150   3.271   5.291   4.401
10417SOL    HW232151   3.282   5.218   4.546
10418SOL     OW32152   0.029   4.657   6.603
10418SOL    HW132153   0.093   4.628   6.533
10418SOL    HW232154   0.028   4.757   6.609
10419SOL     OW32155   1.574   6.969   6.385
10419SOL    HW132156   1.548   6.968   6.481
10419SOL    HW232157   1.645   0.012   6.370
10420SOL     OW32158   6.991   3.775   2.702
10420SOL    HW132159   7.004   3.676   2.693
10420SOL    HW232160   6.937   3.809   2.625
10421SOL     OW32161   0.317   1.466   3.568
10421SOL    HW132162   0.341   1.556   3.531
10421SOL    HW232163   0.373   1.396   3.524
10422SOL     OW32164   6.196   3.394   5.365
10422SOL    HW132165   6.143   3.422   5.285
10422SOL    HW232166   6.134   3.358   5.435
10423SOL     OW32167   5.820   5.247   4.766
10423SOL    HW132168   5.908   5.224   4.724
10423SOL    HW232169   5.821   5.343   4.795
10424SOL     OW32170   5.700   2.880   0.410
10424SOL    HW132171   5.700   2.954   0.343
10424SOL    HW232172   5.782   2.886   0.468
10425SOL     OW32173   0.901   6.758   2.016
10425SOL    HW132174   0.891   6.743   1.918
10425SOL    HW232175   0.925   6.854   2.033
10426SOL     OW32176   0.072   5.083   0.317
10426SOL    HW132177   0.112   5.120   0.401
10426SOL    HW232178   7.016   5.029   0.342
10427SOL     OW32179   3.666   0.543   6.990
10427SOL    HW132180   3.674   0.552   6.891
10427SOL    HW232181   3.748   0.580   0.009
10428SOL     OW32182   2.869   1.110   4.233
10428SOL    HW132183   2.874   1.097   4.134
10428SOL    HW232184   2.881   1.206   4.255
10429SOL     OW32185   6.955   5.070   0.827
10429SOL    HW132186   6.913   4.990   0.869
10429SOL    HW232187   6.937   5.150   0.884
10430SOL     OW32188   4.712   6.419   3.634
10430SOL    HW132189   4.732   6.348   3.566
10430SOL    HW232190   4.755   6.395   3.721
10431SOL     OW32191   3.291   5.863   3.864
10431SOL    HW132192   3.275   5.897   3.956
10431SOL    HW232193   3.355   5.787   3.868
10432SOL     OW32194   6.039   6.561   4.578
10432SOL    HW132195   6.039   6.469   4.538
10432SOL    HW232196   5.947   6.600   4.571
10433SOL     OW32197   1.582   6.648   1.556
10433SOL    HW132198   1.575   6.549   1.546
10433SOL    HW232199   1.645   6.685   1.488
10434SOL     OW32200   4.174   0.228   3.466
10434SOL    HW132201   4.177   0.327   3.479
10434SOL    HW232202   4.153   0.184   3.554
10435SOL     OW32203   0.250   0.328   4.820
10435SOL    HW132204   0.287   0.394   4.754
10435SOL    HW232205   0.175   0.371   4.871
10436SOL     OW32206   0.859   5.456   6.267
10436SOL    HW132207   0.879   5.525   6.198
10436SOL    HW232208   0.930   5.386   6.266
10437SOL     OW32209   6.495   4.839   6.153
10437SOL    HW132210   6.573   4.831   6.215
10437SOL    HW232211   6.419   4.882   6.202
10438SOL     OW32212   6.031   6.325   0.686
10438SOL    HW132213   6.102   6.330   0.757
10438SOL    HW232214   5.960   6.393   0.706
10439SOL     OW32215   3.951   1.421   6.337
10439SOL    HW132216   3.974   1.335   6.382
10439SOL    HW232217   3.871   1.461   6.382
10440SOL     OW32218   1.216   6.460   0.400
10440SOL    HW132219   1.233   6.545   0.350
10440SOL    HW232220   1.284   6.392   0.375
10441SOL     OW32221   4.068   1.060   0.157
10441SOL    HW132222   4.157   1.014   0.152
10441SOL    HW232223   3.999   1.002   0.113
10442SOL     OW32224   3.582   6.307   5.555
10442SOL    HW132225   3.558   6.244   5.629
10442SOL    HW232226   3.662   6.360   5.582
10443SOL     OW32227   5.035   3.967   4.913
10443SOL    HW132228   4.988   3.899   4.856
10443SOL    HW232229   5.004   4.059   4.886
10444SOL     OW32230   3.756   6.673   4.352
10444SOL    HW132231   3.835   6.726   4.384
10444SOL    HW232232   3.708   6.634   4.431
10445SOL     OW32233   1.250   5.719   4.397
10445SOL    HW132234   1.319   5.792   4.392
10445SOL    HW232235   1.220   5.709   4.492
10446SOL     OW32236   0.819   2.895   5.999
10446SOL    HW132237   0.800   2.802   6.027
10446SOL    HW232238   0.747   2.926   5.936
10447SOL     OW32239   6.914   1.049   2.268
10447SOL    HW132240   6.841   1.010   2.212
10447SOL    HW232241   7.000   1.002   2.247
10448SOL     OW32242   3.915   2.157   1.826
10448SOL    HW132243   3.921   2.251   1.794
10448SOL    HW232244   3.820   2.126   1.820
10449SOL     OW32245   2.731   5.552   4.534
10449SOL    HW132246   2.678   5.492   4.474
10449SOL    HW232247   2.696   5.545   4.628
10450SOL     OW32248   0.814   2.655   0.453
10450SOL    HW132249   0.814   2.706   0.539
10450SOL    HW232250   0.786   2.561   0.470
10451SOL     OW32251   2.180   5.290   3.415
10451SOL    HW132252   2.100   5.305   3.473
10451SOL    HW232253   2.260   5.336   3.455
10452SOL     OW32254   5.933   3.430   3.522
10452SOL    HW132255   5.911   3.363   3.452
10452SOL    HW232256   6.008   3.488   3.491
10453SOL     OW32257   5.226   5.939   1.800
10453SOL    HW132258   5.222   5.903   1.893
10453SOL    HW232259   5.133   5.950   1.764
10454SOL     OW32260   4.140   2.950   1.256
10454SOL    HW132261   4.138   2.932   1.157
10454SOL    HW232262   4.224   2.911   1.295
10455SOL     OW32263   0.098   5.614   2.308
10455SOL    HW132264   0.057   5.660   2.230
10455SOL    HW232265   0.177   5.666   2.340
10456SOL     OW32266   3.221   6.135   1.695
10456SOL    HW132267   3.147   6.172   1.751
10456SOL    HW232268   3.292   6.097   1.754
10457SOL     OW32269   3.719   2.902   3.069
10457SOL    HW132270   3.638   2.847   3.084
10457SOL    HW232271   3.744   2.899   2.972
10458SOL     OW32272   0.154   0.759   6.605
10458SOL    HW132273   0.227   0.779   6.539
10458SOL    HW232274   0.149   0.833   6.672
10459SOL     OW32275   5.363   5.385   2.541
10459SOL    HW132276   5.270   5.350   2.531
10459SOL    HW232277   5.405   5.345   2.622
10460SOL     OW32278   1.898   5.736   1.232
10460SOL    HW132279   1.828   5.700   1.170
10460SOL    HW232280   1.926   5.827   1.201
10461SOL     OW32281   1.471   6.228   5.147
10461SOL    HW132282   1.476   6.194   5.241
10461SOL    HW232283   1.475   6.328   5.148
10462SOL     OW32284   5.370   2.209   2.596
10462SOL    HW132285   5.465   2.236   2.582
10462SOL    HW232286   5.325   2.273   2.658
10463SOL     OW32287   3.787   3.046   5.571
10463SOL    HW132288   3.765   3.111   5.499
10463SOL    HW232289   3.883   3.019   5.564
10464SOL     OW32290   5.329   0.158   0.805
10464SOL    HW132291   5.306   0.219   0.881
10464SOL    HW232292   5.329   0.063   0.837
10465SOL     OW32293   6.396   6.756   1.157
10465SOL    HW132294   6.431   6.842   1.121
10465SOL    HW232295   6.417   6.749   1.254
10466SOL     OW32296   4.323   5.157   4.812
10466SOL    HW132297   4.405   5.134   4.760
10466SOL    HW232298   4.324   5.108   4.899
10467SOL     OW32299   0.993   1.968   5.159
10467SOL    HW132300   0.936   1.890   5.186
10467SOL    HW232301   1.061   1.985   5.229
10468SOL     OW32302   3.461   5.198   3.084
10468SOL    HW132303   3.531   5.226   3.019
10468SOL    HW232304   3.463   5.260   3.163
10469SOL     OW32305   3.395   2.941   6.989
10469SOL    HW132306   3.453   2.974   0.039
10469SOL    HW232307   3.300   2.965   7.008
10470SOL     OW32308   2.107   1.883   3.102
10470SOL    HW132309   2.156   1.954   3.052
10470SOL    HW232310   2.021   1.921   3.137
10471SOL     OW32311   2.176   3.625   1.384
10471SOL    HW132312   2.144   3.564   1.311
10471SOL    HW232313   2.201   3.571   1.464
10472SOL     OW32314   3.438   6.465   1.119
10472SOL    HW132315   3.487   6.454   1.032
10472SOL    HW232316   3.488   6.528   1.178
10473SOL     OW32317   5.653   0.059   0.969
10473SOL    HW132318   5.678   0.004   1.049
10473SOL    HW232319   5.710   0.031   0.891
10474SOL     OW32320   4.683   0.479   5.076
10474SOL    HW132321   4.772   0.433   5.080
10474SOL    HW232322   4.618   0.422   5.026
10475SOL     OW32323   4.817   6.232   1.678
10475SOL    HW132324   4.790   6.243   1.774
10475SOL    HW232325   4.739   6.254   1.619
10476SOL     OW32326   0.567   5.619   6.483
10476SOL    HW132327   0.587   5.654   6.575
10476SOL    HW232328   0.597   5.524   6.476
10477SOL     OW32329   5.958   2.580   5.091
10477SOL    HW132330   5.887   2.514   5.065
10477SOL    HW232331   5.920   2.647   5.154
10478SOL     OW32332   0.553   0.311   0.192
10478SOL    HW132333   0.532   0.232   0.134
10478SOL    HW232334   0.652   0.329   0.187
10479SOL     OW32335   0.687   2.887   1.419
10479SOL    HW132336   0.605   2.889   1.361
10479SOL    HW232337   0.674   2.820   1.492
10480SOL     OW32338   5.563   0.618   1.000
10480SOL    HW132339   5.579   0.526   1.037
10480SOL    HW232340   5.477   0.654   1.037
10481SOL     OW32341   2.852   1.287   5.256
10481SOL    HW132342   2.768   1.316   5.302
10481SOL    HW232343   2.915   1.247   5.322
10482SOL     OW32344   0.828   5.931   4.729
10482SOL    HW132345   0.798   5.957   4.821
10482SOL    HW232346   0.756   5.878   4.685
10483SOL     OW32347   6.956   5.333   0.352
10483SOL    HW132348   6.867   5.307   0.313
10483SOL    HW232349   7.024   5.263   0.329
10484SOL     OW32350   6.775   0.349   0.554
10484SOL    HW132351   6.766   0.390   0.645
10484SOL    HW232352   6.803   0.420   0.489
10485SOL     OW32353   3.790   3.513   3.049
10485SOL    HW132354   3.878   3.555   3.071
10485SOL    HW232355   3.743   3.487   3.133
10486SOL     OW32356   6.366   0.790   5.846
10486SOL    HW132357   6.454   0.760   5.884
10486SOL    HW232358   6.335   0.872   5.895
10487SOL     OW32359   4.499   1.967   1.488
10487SOL    HW132360   4.541   1.888   1.444
10487SOL    HW232361   4.416   1.938   1.536
10488SOL     OW32362   1.621   2.253   5.531
10488SOL    HW132363   1.611   2.241   5.630
10488SOL    HW232364   1.535   2.288   5.494
10489SOL     OW32365   5.676   5.730   3.975
10489SOL    HW132366   5.765   5.742   3.932
10489SOL    HW232367   5.685   5.746   4.074
10490SOL     OW32368   5.707   0.555   0.472
10490SOL    HW132369   5.659   0.643   0.467
10490SOL    HW232370   5.730   0.524   0.380
10491SOL     OW32371   2.156   2.878   6.119
10491SOL    HW132372   2.254   2.883   6.102
10491SOL    HW232373   2.137   2.905   6.214
10492SOL     OW32374   3.856   5.933   0.557
10492SOL    HW132375   3.804   5.966   0.478
10492SOL    HW232376   3.858   6.004   0.627
10493SOL     OW32377   3.007   5.542   1.447
10493SOL    HW132378   2.999   5.444   1.466
10493SOL    HW232379   2.958   5.564   1.363
10494SOL     OW32380   0.470   4.818   6.120
10494SOL    HW132381   0.465   4.816   6.020
10494SOL    HW232382   0.469   4.725   6.155
10495SOL     OW32383   6.508   5.863   0.045
10495SOL    HW132384   6.512   5.854   6.971
10495SOL    HW232385   6.420   5.904   0.071
10496SOL     OW32386   6.619   4.465   5.283
10496SOL    HW132387   6.624   4.370   5.316
10496SOL    HW232388   6.528   4.482   5.245
10497SOL     OW32389   0.936   0.030   1.789
10497SOL    HW132390   0.916   0.067   1.698
10497SOL    HW232391   1.023   0.067   1.821
10498SOL     OW32392   5.318   5.790   1.595
10498SOL    HW132393   5.290   5.822   1.685
10498SOL    HW232394   5.240   5.796   1.532
10499SOL     OW32395   5.547   6.081   1.221
10499SOL    HW132396   5.515   5.989   1.194
10499SOL    HW232397   5.538   6.091   1.320
10500SOL     OW32398   4.835   3.160   5.080
10500SOL    HW132399   4.849   3.073   5.126
10500SOL    HW232400   4.825   3.146   4.982
10501SOL     OW32401   2.307   5.599   2.578
10501SOL    HW132402   2.375   5.640   2.638
10501SOL    HW232403   2.261   5.670   2.526
10502SOL     OW32404   3.158   3.233   1.406
10502SOL    HW132405   3.148   3.230   1.306
10502SOL    HW232406   3.082   3.183   1.447
10503SOL     OW32407   6.676   3.991   6.557
10503SOL    HW132408   6.631   3.915   6.604
10503SOL    HW232409   6.648   3.993   6.461
10504SOL     OW32410   0.701   2.661   6.109
10504SOL    HW132411   0.657   2.633   6.024
10504SOL    HW232412   0.736   2.581   6.157
10505SOL     OW32413   5.972   5.673   2.008
10505SOL    HW132414   5.967   5.699   1.912
10505SOL    HW232415   5.881   5.652   2.043
10506SOL     OW32416   0.558   3.392   0.124
10506SOL    HW132417   0.519   3.303   0.149
10506SOL    HW232418   0.565   3.450   0.205
10507SOL     OW32419   2.142   5.129   0.036
10507SOL    HW132420   2.123   5.084   0.124
10507SOL    HW232421   2.077   5.098   6.993
10508SOL     OW32422   1.343   5.668   3.738
10508SOL    HW132423   1.384   5.642   3.650
10508SOL    HW232424   1.381   5.612   3.811
10509SOL     OW32425   5.337   3.667   4.430
10509SOL    HW132426   5.361   3.734   4.360
10509SOL    HW232427   5.404   3.671   4.505
10510SOL     OW32428   4.467   6.421   6.291
10510SOL    HW132429   4.507   6.369   6.367
10510SOL    HW232430   4.391   6.369   6.252
10511SOL     OW32431   2.780   1.299   2.283
10511SOL    HW132432   2.710   1.336   2.222
10511SOL    HW232433   2.801   1.205   2.256
10512SOL     OW32434   4.192   6.939   5.660
10512SOL    HW132435   4.222   6.990   5.580
10512SOL    HW232436   4.271   6.914   5.716
10513SOL     OW32437   6.414   2.595   2.683
10513SOL    HW132438   6.403   2.628   2.589
10513SOL    HW232439   6.487   2.527   2.686
10514SOL     OW32440   1.784   1.796   1.040
10514SOL    HW132441   1.878   1.765   1.060
10514SOL    HW232442   1.719   1.736   1.087
10515SOL     OW32443   2.314   2.299   3.721
10515SOL    HW132444   2.339   2.214   3.766
10515SOL    HW232445   2.397   2.349   3.694
10516SOL     OW32446   2.873   1.820   0.219
10516SOL    HW132447   2.826   1.780   0.297
10516SOL    HW232448   2.942   1.885   0.251
10517SOL     OW32449   1.788   4.559   2.019
10517SOL    HW132450   1.864   4.506   1.982
10517SOL    HW232451   1.710   4.554   1.957
10518SOL     OW32452   0.088   5.119   2.102
10518SOL    HW132453   0.154   5.048   2.126
10518SOL    HW232454   0.040   5.093   2.019
10519SOL     OW32455   2.873   5.290   1.224
10519SOL    HW132456   2.957   5.314   1.273
10519SOL    HW232457   2.810   5.243   1.286
10520SOL     OW32458   6.713   1.733   6.449
10520SOL    HW132459   6.747   1.716   6.357
10520SOL    HW232460   6.789   1.762   6.508
10521SOL     OW32461   6.267   4.575   1.692
10521SOL    HW132462   6.356   4.583   1.736
10521SOL    HW232463   6.259   4.485   1.649
10522SOL     OW32464   0.221   2.626   3.126
10522SOL    HW132465   0.263   2.580   3.048
10522SOL    HW232466   0.292   2.663   3.185
10523SOL     OW32467   0.378   4.173   3.428
10523SOL    HW132468   0.428   4.108   3.371
10523SOL    HW232469   0.291   4.194   3.384
10524SOL     OW32470   0.093   5.561   3.631
10524SOL    HW132471   0.088   5.624   3.553
10524SOL    HW232472   0.016   5.577   3.692
10525SOL     OW32473   3.842   0.375   4.900
10525SOL    HW132474   3.896   0.411   4.976
10525SOL    HW232475   3.780   0.446   4.867
10526SOL     OW32476   0.250   6.274   0.988
10526SOL    HW132477   0.335   6.221   0.990
10526SOL    HW232478   0.196   6.246   0.908
10527SOL     OW32479   0.435   0.513   5.838
10527SOL    HW132480   0.347   0.552   5.866
10527SOL    HW232481   0.426   0.475   5.746
10528SOL     OW32482   0.761   3.968   6.826
10528SOL    HW132483   0.753   3.895   6.894
10528SOL    HW232484   0.857   3.985   6.807
10529SOL     OW32485   1.560   6.294   4.872
10529SOL    HW132486   1.524   6.248   4.791
10529SOL    HW232487   1.554   6.232   4.950
10530SOL     OW32488   1.542   6.378   6.066
10530SOL    HW132489   1.629   6.329   6.060
10530SOL    HW232490   1.484   6.352   5.989
10531SOL     OW32491   2.522   2.485   4.322
10531SOL    HW132492   2.583   2.486   4.243
10531SOL    HW232493   2.566   2.437   4.397
10532SOL     OW32494   5.799   6.772   6.897
10532SOL    HW132495   5.752   6.700   6.846
10532SOL    HW232496   5.894   6.744   6.914
10533SOL     OW32497   3.248   5.598   4.193
10533SOL    HW132498   3.252   5.698   4.188
10533SOL    HW232499   3.340   5.560   4.180
10534SOL     OW32500   0.268   5.786   2.081
10534SOL    HW132501   0.206   5.858   2.052
10534SOL    HW232502   0.279   5.789   2.180
10535SOL     OW32503   2.261   1.184   1.627
10535SOL    HW132504   2.254   1.087   1.647
10535SOL    HW232505   2.172   1.219   1.599
10536SOL     OW32506   4.212   6.708   3.823
10536SOL    HW132507   4.223   6.803   3.854
10536SOL    HW232508   4.153   6.705   3.743
10537SOL     OW32509   5.003   6.492   3.414
10537SOL    HW132510   5.082   6.475   3.473
10537SOL    HW232511   4.967   6.583   3.431
10538SOL     OW32512   5.772   3.721   2.504
10538SOL    HW132513   5.802   3.759   2.592
10538SOL    HW232514   5.805   3.779   2.430
10539SOL     OW32515   6.365   5.335   1.956
10539SOL    HW132516   6.414   5.363   2.038
10539SOL    HW232517   6.424   5.344   1.876
10540SOL     OW32518   2.312   4.158   6.164
10540SOL    HW132519   2.331   4.097   6.087
10540SOL    HW232520   2.276   4.104   6.240
10541SOL     OW32521   3.657   2.902   4.148
10541SOL    HW132522   3.654   2.813   4.193
10541SOL    HW232523   3.564   2.937   4.137
10542SOL     OW32524   6.673   0.425   4.502
10542SOL    HW132525   6.717   0.366   4.434
10542SOL    HW232526   6.723   0.419   4.589
10543SOL     OW32527   7.021   2.481   5.467
10543SOL    HW132528   0.015   2.548   5.538
10543SOL    HW232529   6.923   2.479   5.447
10544SOL     OW32530   1.758   0.072   3.664
10544SOL    HW132531   1.781   0.124   3.582
10544SOL    HW232532   1.842   0.051   3.714
10545SOL     OW32533   0.967   2.840   2.192
10545SOL    HW132534   1.033   2.904   2.152
10545SOL    HW232535   1.010   2.792   2.269
10546SOL     OW32536   3.423   6.249   1.361
10546SOL    HW132537   3.354   6.260   1.431
10546SOL    HW232538   3.503   6.305   1.384
10547SOL     OW32539   4.790   0.747   4.486
10547SOL    HW132540   4.878   0.781   4.453
10547SOL    HW232541   4.725   0.742   4.410
10548SOL     OW32542   0.558   4.731   4.882
10548SOL    HW132543   0.631   4.693   4.825
10548SOL    HW232544   0.522   4.814   4.839
10549SOL     OW32545   0.051   1.496   0.712
10549SOL    HW132546   0.097   1.533   0.631
10549SOL    HW232547   6.984   1.466   0.688
10550SOL     OW32548   3.901   6.601   3.040
10550SOL    HW132549   3.849   6.563   3.116
10550SOL    HW232550   3.848   6.674   2.996
10551SOL     OW32551   2.625   1.752   6.444
10551SOL    HW132552   2.526   1.765   6.437
10551SOL    HW232553   2.662   1.729   6.354
10552SOL     OW32554   2.366   0.615   5.018
10552SOL    HW132555   2.362   0.692   4.953
10552SOL    HW232556   2.281   0.611   5.069
10553SOL     OW32557   6.812   4.460   1.027
10553SOL    HW132558   6.738   4.441   0.963
10553SOL    HW232559   6.898   4.423   0.990
10554SOL     OW32560   5.765   4.758   2.159
10554SOL    HW132561   5.728   4.665   2.159
10554SOL    HW232562   5.710   4.816   2.219
10555SOL     OW32563   3.070   2.486   0.655
10555SOL    HW132564   3.011   2.564   0.678
10555SOL    HW232565   3.070   2.474   0.556
10556SOL     OW32566   2.518   1.450   3.373
10556SOL    HW132567   2.492   1.516   3.444
10556SOL    HW232568   2.516   1.358   3.411
10557SOL     OW32569   1.675   3.270   4.699
10557SOL    HW132570   1.757   3.241   4.650
10557SOL    HW232571   1.700   3.299   4.791
10558SOL     OW32572   3.009   4.630   5.864
10558SOL    HW132573   2.959   4.708   5.902
10558SOL    HW232574   2.974   4.610   5.773
10559SOL     OW32575   3.515   0.928   0.558
10559SOL    HW132576   3.512   0.829   0.569
10559SOL    HW232577   3.517   0.972   0.647
10560SOL     OW32578   4.271   6.182   2.017
10560SOL    HW132579   4.289   6.172   2.115
10560SOL    HW232580   4.325   6.258   1.981
10561SOL     OW32581   4.088   5.023   2.020
10561SOL    HW132582   4.080   4.929   2.051
10561SOL    HW232583   4.094   5.025   1.920
10562SOL     OW32584   3.499   6.161   1.069
10562SOL    HW132585   3.452   6.220   1.135
10562SOL    HW232586   3.576   6.116   1.115
10563SOL     OW32587   0.847   0.578   1.183
10563SOL    HW132588   0.913   0.634   1.233
10563SOL    HW232589   0.894   0.506   1.133
10564SOL     OW32590   6.386   5.467   3.661
10564SOL    HW132591   6.411   5.507   3.573
10564SOL    HW232592   6.316   5.397   3.648
10565SOL     OW32593   6.661   6.813   5.825
10565SOL    HW132594   6.649   6.773   5.915
10565SOL    HW232595   6.706   6.747   5.765
10566SOL     OW32596   3.149   2.782   0.495
10566SOL    HW132597   3.104   2.780   0.406
10566SOL    HW232598   3.081   2.766   0.567
10567SOL     OW32599   1.805   2.638   5.449
10567SOL    HW132600   1.867   2.679   5.382
10567SOL    HW232601   1.781   2.705   5.518
10568SOL     OW32602   6.219   2.806   6.364
10568SOL    HW132603   6.194   2.719   6.406
10568SOL    HW232604   6.136   2.859   6.344
10569SOL     OW32605   5.281   1.035   1.768
10569SOL    HW132606   5.201   1.095   1.776
10569SOL    HW232607   5.260   0.960   1.706
10570SOL     OW32608   1.699   4.722   4.295
10570SOL    HW132609   1.691   4.623   4.300
10570SOL    HW232610   1.782   4.751   4.344
10571SOL     OW32611   0.547   4.311   6.219
10571SOL    HW132612   0.548   4.255   6.136
10571SOL    HW232613   0.635   4.304   6.265
10572SOL     OW32614   6.854   4.652   1.748
10572SOL    HW132615   6.944   4.615   1.769
10572SOL    HW232616   6.803   4.667   1.832
10573SOL     OW32617   4.983   0.427   5.037
10573SOL    HW132618   5.005   0.342   5.085
10573SOL    HW232619   5.011   0.419   4.941
10574SOL     OW32620   6.626   0.875   4.224
10574SOL    HW132621   6.599   0.924   4.306
10574SOL    HW232622   6.724   0.857   4.226
10575SOL     OW32623   5.489   0.357   3.610
10575SOL    HW132624   5.425   0.291   3.571
10575SOL    HW232625   5.583   0.324   3.598
10576SOL     OW32626   1.264   5.289   2.734
10576SOL    HW132627   1.316   5.229   2.673
10576SOL    HW232628   1.298   5.278   2.827
10577SOL     OW32629   2.597   5.781   0.252
10577SOL    HW132630   2.622   5.869   0.292
10577SOL    HW232631   2.628   5.778   0.157
10578SOL     OW32632   5.555   1.389   3.507
10578SOL    HW132633   5.529   1.293   3.492
10578SOL    HW232634   5.585   1.429   3.421
10579SOL     OW32635   2.923   3.904   1.237
10579SOL    HW132636   2.939   3.985   1.294
10579SOL    HW232637   2.855   3.926   1.167
10580SOL     OW32638   6.359   6.637   6.360
10580SOL    HW132639   6.316   6.706   6.419
10580SOL    HW232640   6.442   6.603   6.404
10581SOL     OW32641   4.942   6.563   2.727
10581SOL    HW132642   4.941   6.652   2.682
10581SOL    HW232643   5.030   6.551   2.773
10582SOL     OW32644   5.543   4.697   6.922
10582SOL    HW132645   5.619   4.739   6.973
10582SOL    HW232646   5.580   4.630   6.857
10583SOL     OW32647   3.494   0.260   4.051
10583SOL    HW132648   3.548   0.193   4.101
10583SOL    HW232649   3.518   0.352   4.082
10584SOL     OW32650   6.490   0.606   6.571
10584SOL    HW132651   6.562   0.542   6.545
10584SOL    HW232652   6.424   0.559   6.631
10585SOL     OW32653   1.567   1.642   5.969
10585SOL    HW132654   1.477   1.641   5.924
10585SOL    HW232655   1.607   1.551   5.964
10586SOL     OW32656   4.698   5.033   5.545
10586SOL    HW132657   4.614   5.083   5.564
10586SOL    HW232658   4.694   4.997   5.451
10587SOL     OW32659   0.513   5.923   6.080
10587SOL    HW132660   0.524   5.883   6.171
10587SOL    HW232661   0.570   6.005   6.073
10588SOL     OW32662   2.050   2.061   4.775
10588SOL    HW132663   2.021   1.966   4.767
10588SOL    HW232664   1.973   2.118   4.804
10589SOL     OW32665   5.108   6.251   4.074
10589SOL    HW132666   5.191   6.283   4.028
10589SOL    HW232667   5.049   6.330   4.095
10590SOL     OW32668   0.148   5.857   1.693
10590SOL    HW132669   0.170   5.763   1.665
10590SOL    HW232670   0.164   5.919   1.617
10591SOL     OW32671   2.089   1.612   1.546
10591SOL    HW132672   2.015   1.649   1.602
10591SOL    HW232673   2.059   1.528   1.502
10592SOL     OW32674   5.664   2.445   4.340
10592SOL    HW132675   5.714   2.364   4.371
10592SOL    HW232676   5.641   2.435   4.244
10593SOL     OW32677   1.293   6.212   0.792
10593SOL    HW132678   1.194   6.216   0.776
10593SOL    HW232679   1.330   6.305   0.794
10594SOL     OW32680   3.940   1.254   3.468
10594SOL    HW132681   3.862   1.281   3.412
10594SOL    HW232682   3.915   1.255   3.565
10595SOL     OW32683   6.032   0.744   0.364
10595SOL    HW132684   6.107   0.699   0.413
10595SOL    HW232685   6.059   0.758   0.268
10596SOL     OW32686   4.957   1.236   0.101
10596SOL    HW132687   4.966   1.225   0.200
10596SOL    HW232688   4.896   1.313   0.081
10597SOL     OW32689   2.722   0.856   5.974
10597SOL    HW132690   2.648   0.922   5.986
10597SOL    HW232691   2.698   0.791   5.902
10598SOL     OW32692   2.813   2.056   6.922
10598SOL    HW132693   2.846   2.089   6.833
10598SOL    HW232694   2.809   2.133   6.986
10599SOL     OW32695   6.607   4.180   6.096
10599SOL    HW132696   6.671   4.254   6.116
10599SOL    HW232697   6.520   4.198   6.142
10600SOL     OW32698   3.765   0.873   1.418
10600SOL    HW132699   3.837   0.878   1.348
10600SOL    HW232700   3.676   0.863   1.374
10601SOL     OW32701   0.406   5.816   5.319
10601SOL    HW132702   0.357   5.826   5.406
10601SOL    HW232703   0.500   5.788   5.337
10602SOL     OW32704   0.781   0.952   0.734
10602SOL    HW132705   0.807   0.990   0.645
10602SOL    HW232706   0.719   0.875   0.721
10603SOL     OW32707   4.537   6.682   2.308
10603SOL    HW132708   4.573   6.599   2.266
10603SOL    HW232709   4.606   6.721   2.369
10604SOL     OW32710   0.315   6.394   4.909
10604SOL    HW132711   0.344   6.299   4.897
10604SOL    HW232712   0.233   6.396   4.967
10605SOL     OW32713   1.524   6.989   6.891
10605SOL    HW132714   1.593   6.987   6.963
10605SOL    HW232715   1.466   0.044   6.903
10606SOL     OW32716   6.872   0.525   1.573
10606SOL    HW132717   6.869   0.470   1.656
10606SOL    HW232718   6.859   0.621   1.595
10607SOL     OW32719   4.268   4.218   0.383
10607SOL    HW132720   4.329   4.140   0.369
10607SOL    HW232721   4.241   4.222   0.479
10608SOL     OW32722   6.348   3.219   3.455
10608SOL    HW132723   6.255   3.203   3.422
10608SOL    HW232724   6.407   3.144   3.426
10609SOL     OW32725   2.590   6.490   0.327
10609SOL    HW132726   2.677   6.526   0.293
10609SOL    HW232727   2.572   6.401   0.284
10610SOL     OW32728   6.918   2.699   4.446
10610SOL    HW132729   6.939   2.611   4.404
10610SOL    HW232730   7.003   2.746   4.470
10611SOL     OW32731   2.964   5.255   5.562
10611SOL    HW132732   2.866   5.274   5.572
10611SOL    HW232733   3.009   5.335   5.524
10612SOL     OW32734   5.107   1.297   4.317
10612SOL    HW132735   5.193   1.282   4.267
10612SOL    HW232736   5.038   1.332   4.253
10613SOL     OW32737   5.584   6.198   4.333
10613SOL    HW132738   5.497   6.235   4.363
10613SOL    HW232739   5.651   6.203   4.408
10614SOL     OW32740   5.328   1.135   4.871
10614SOL    HW132741   5.264   1.083   4.814
10614SOL    HW232742   5.318   1.107   4.966
10615SOL     OW32743   4.123   1.493   5.573
10615SOL    HW132744   4.042   1.435   5.579
10615SOL    HW232745   4.205   1.440   5.596
10616SOL     OW32746   2.681   6.063   6.305
10616SOL    HW132747   2.728   6.133   6.358
10616SOL    HW232748   2.598   6.035   6.352
10617SOL     OW32749   2.204   4.388   1.711
10617SOL    HW132750   2.289   4.356   1.753
10617SOL    HW232751   2.219   4.403   1.613
10618SOL     OW32752   0.744   5.368   5.335
10618SOL    HW132753   0.737   5.290   5.397
10618SOL    HW232754   0.738   5.336   5.240
10619SOL     OW32755   0.676   2.506   2.977
10619SOL    HW132756   0.584   2.524   2.942
10619SOL    HW232757   0.700   2.576   3.045
10620SOL     OW32758   1.569   0.258   5.499
10620SOL    HW132759   1.563   0.304   5.588
10620SOL    HW232760   1.478   0.236   5.466
10621SOL     OW32761   0.964   4.324   2.394
10621SOL    HW132762   1.054   4.345   2.357
10621SOL    HW232763   0.907   4.286   2.321
10622SOL     OW32764   4.235   2.278   1.483
10622SOL    HW132765   4.251   2.188   1.524
10622SOL    HW232766   4.272   2.349   1.544
10623SOL     OW32767   6.057   5.975   5.096
10623SOL    HW132768   6.154   5.979   5.120
10623SOL    HW232769   6.014   6.062   5.119
10624SOL     OW32770   0.460   3.060   4.693
10624SOL    HW132771   0.483   3.054   4.790
10624SOL    HW232772   0.363   3.039   4.680
10625SOL     OW32773   0.378   3.679   1.125
10625SOL    HW132774   0.381   3.581   1.104
10625SOL    HW232775   0.394   3.692   1.223
10626SOL     OW32776   3.285   3.008   1.574
10626SOL    HW132777   3.346   2.973   1.644
10626SOL    HW232778   3.227   3.080   1.613
10627SOL     OW32779   5.849   0.934   6.672
10627SOL    HW132780   5.937   0.961   6.632
10627SOL    HW232781   5.774   0.971   6.616
10628SOL     OW32782   4.522   0.182   0.619
10628SOL    HW132783   4.596   0.125   0.583
10628SOL    HW232784   4.534   0.193   0.718
10629SOL     OW32785   3.304   4.897   4.930
10629SOL    HW132786   3.399   4.890   4.962
10629SOL    HW232787   3.302   4.899   4.830
10630SOL     OW32788   5.575   0.957   2.553
10630SOL    HW132789   5.600   0.990   2.645
10630SOL    HW232790   5.533   0.866   2.561
10631SOL     OW32791   4.266   4.497   5.759
10631SOL    HW132792   4.357   4.538   5.765
10631SOL    HW232793   4.271   4.413   5.706
10632SOL     OW32794   5.200   5.653   3.130
10632SOL    HW132795   5.211   5.617   3.222
10632SOL    HW232796   5.132   5.598   3.080
10633SOL     OW32797   2.628   2.367   1.926
10633SOL    HW132798   2.718   2.343   1.963
10633SOL    HW232799   2.599   2.297   1.861
10634SOL     OW32800   1.241   5.681   0.677
10634SOL    HW132801   1.213   5.691   0.772
10634SOL    HW232802   1.338   5.655   0.674
10635SOL     OW32803   2.237   3.319   0.230
10635SOL    HW132804   2.182   3.329   0.147
10635SOL    HW232805   2.177   3.292   0.306
10636SOL     OW32806   6.763   1.736   1.094
10636SOL    HW132807   6.697   1.774   1.160
10636SOL    HW232808   6.737   1.764   1.002
10637SOL     OW32809   1.720   5.821   6.268
10637SOL    HW132810   1.640   5.765   6.292
10637SOL    HW232811   1.786   5.765   6.219
10638SOL     OW32812   5.786   6.387   2.275
10638SOL    HW132813   5.869   6.380   2.220
10638SOL    HW232814   5.786   6.316   2.344
10639SOL     OW32815   1.890   3.239   1.841
10639SOL    HW132816   1.990   3.235   1.847
10639SOL    HW232817   1.864   3.288   1.758
10640SOL     OW32818   4.736   0.612   3.466
10640SOL    HW132819   4.727   0.592   3.563
10640SOL    HW232820   4.808   0.555   3.426
10641SOL     OW32821   2.053   1.441   3.915
10641SOL    HW132822   2.051   1.446   4.015
10641SOL    HW232823   2.145   1.413   3.885
10642SOL     OW32824   5.802   2.044   0.550
10642SOL    HW132825   5.827   1.984   0.474
10642SOL    HW232826   5.843   2.010   0.634
10643SOL     OW32827   2.285   6.309   4.329
10643SOL    HW132828   2.288   6.403   4.295
10643SOL    HW232829   2.357   6.295   4.397
10644SOL     OW32830   5.800   3.301   0.946
10644SOL    HW132831   5.872   3.240   0.981
10644SOL    HW232832   5.838   3.392   0.930
10645SOL     OW32833   2.395   2.631   3.564
10645SOL    HW132834   2.380   2.676   3.652
10645SOL    HW232835   2.311   2.586   3.534
10646SOL     OW32836   5.931   0.705   5.726
10646SOL    HW132837   5.966   0.708   5.633
10646SOL    HW232838   5.843   0.658   5.727
10647SOL     OW32839   3.341   5.497   5.144
10647SOL    HW132840   3.327   5.528   5.050
10647SOL    HW232841   3.259   5.449   5.176
10648SOL     OW32842   5.916   5.392   6.642
10648SOL    HW132843   5.862   5.341   6.709
10648SOL    HW232844   5.865   5.398   6.556
10649SOL     OW32845   1.188   3.452   3.447
10649SOL    HW132846   1.183   3.524   3.516
10649SOL    HW232847   1.257   3.476   3.378
10650SOL     OW32848   0.646   0.300   4.189
10650SOL    HW132849   0.721   0.309   4.123
10650SOL    HW232850   0.628   0.203   4.205
10651SOL     OW32851   6.026   6.098   6.599
10651SOL    HW132852   6.012   6.009   6.557
10651SOL    HW232853   5.957   6.162   6.566
10652SOL     OW32854   2.065   6.809   5.649
10652SOL    HW132855   2.107   6.719   5.632
10652SOL    HW232856   1.969   6.807   5.622
10653SOL     OW32857   3.847   5.987   4.930
10653SOL    HW132858   3.748   5.992   4.946
10653SOL    HW232859   3.885   6.080   4.930
10654SOL     OW32860   4.807   0.940   5.590
10654SOL    HW132861   4.888   0.996   5.608
10654SOL    HW232862   4.833   0.861   5.535
10655SOL     OW32863   1.519   4.397   0.542
10655SOL    HW132864   1.581   4.318   0.532
10655SOL    HW232865   1.504   4.439   0.453
10656SOL     OW32866   6.547   1.223   2.902
10656SOL    HW132867   6.532   1.162   2.980
10656SOL    HW232868   6.462   1.230   2.849
10657SOL     OW32869   6.258   0.702   4.690
10657SOL    HW132870   6.159   0.715   4.701
10657SOL    HW232871   6.300   0.789   4.664
10658SOL     OW32872   6.522   4.043   4.833
10658SOL    HW132873   6.532   4.129   4.884
10658SOL    HW232874   6.612   4.011   4.804
10659SOL     OW32875   0.797   4.579   0.486
10659SOL    HW132876   0.833   4.649   0.425
10659SOL    HW232877   0.818   4.488   0.450
10660SOL     OW32878   5.998   4.130   5.488
10660SOL    HW132879   5.995   4.130   5.388
10660SOL    HW232880   6.012   4.036   5.521
10661SOL     OW32881   1.539   5.811   0.665
10661SOL    HW132882   1.600   5.852   0.733
10661SOL    HW232883   1.556   5.713   0.659
10662SOL     OW32884   4.349   0.749   2.395
10662SOL    HW132885   4.442   0.771   2.425
10662SOL    HW232886   4.287   0.820   2.427
10663SOL     OW32887   0.606   1.084   2.747
10663SOL    HW132888   0.576   1.049   2.836
10663SOL    HW232889   0.669   1.160   2.761
10664SOL     OW32890   6.818   4.841   5.150
10664SOL    HW132891   6.832   4.764   5.212
10664SOL    HW232892   6.726   4.877   5.161
10665SOL     OW32893   2.124   2.105   6.846
10665SOL    HW132894   2.169   2.195   6.846
10665SOL    HW232895   2.039   2.111   6.794
10666SOL     OW32896   3.285   3.952   2.600
10666SOL    HW132897   3.245   3.872   2.555
10666SOL    HW232898   3.286   4.029   2.536
10667SOL     OW32899   4.727   1.537   4.009
10667SOL    HW132900   4.785   1.611   4.042
10667SOL    HW232901   4.670   1.504   4.084
10668SOL     OW32902   3.358   1.262   4.955
10668SOL    HW132903   3.283   1.201   4.929
10668SOL    HW232904   3.345   1.351   4.912
10669SOL     OW32905   6.368   0.749   1.020
10669SOL    HW132906   6.420   0.713   1.098
10669SOL    HW232907   6.275   0.772   1.050
10670SOL     OW32908   5.762   4.730   5.001
10670SOL    HW132909   5.707   4.763   5.078
10670SOL    HW232910   5.847   4.691   5.035
10671SOL     OW32911   1.785   1.869   4.277
10671SOL    HW132912   1.769   1.775   4.307
10671SOL    HW232913   1.722   1.930   4.325
10672SOL     OW32914   6.778   4.399   1.990
10672SOL    HW132915   6.803   4.410   1.894
10672SOL    HW232916   6.850   4.436   2.048
10673SOL     OW32917   1.015   0.235   0.281
10673SOL    HW132918   1.058   0.320   0.312
10673SOL    HW232919   0.995   0.177   0.360
10674SOL     OW32920   4.049   3.807   4.124
10674SOL    HW132921   4.092   3.872   4.062
10674SOL    HW232922   4.098   3.720   4.121
10675SOL     OW32923   2.575   0.450   6.492
10675SOL    HW132924   2.622   0.530   6.456
10675SOL    HW232925   2.480   0.450   6.460
10676SOL     OW32926   0.350   6.616   4.763
10676SOL    HW132927   0.261   6.659   4.752
10676SOL    HW232928   0.347   6.552   4.840
10677SOL     OW32929   1.800   0.731   1.328
10677SOL    HW132930   1.862   0.784   1.385
10677SOL    HW232931   1.778   0.784   1.245
10678SOL     OW32932   4.325   4.716   3.960
10678SOL    HW132933   4.301   4.735   4.056
10678SOL    HW232934   4.424   4.719   3.949
10679SOL     OW32935   3.539   5.459   6.391
10679SOL    HW132936   3.635   5.452   6.364
10679SOL    HW232937   3.496   5.369   6.383
10680SOL     OW32938   3.651   2.140   3.419
10680SOL    HW132939   3.566   2.177   3.381
10680SOL    HW232940   3.643   2.131   3.518
10681SOL     OW32941   6.669   3.740   0.466
10681SOL    HW132942   6.569   3.732   0.471
10681SOL    HW232943   6.694   3.774   0.375
10682SOL     OW32944   0.008   2.774   5.251
10682SOL    HW132945   0.083   2.732   5.199
10682SOL    HW232946   0.044   2.817   5.333
10683SOL     OW32947   4.821   0.918   3.805
10683SOL    HW132948   4.729   0.902   3.842
10683SOL    HW232949   4.837   1.017   3.799
10684SOL     OW32950   4.227   4.961   2.518
10684SOL    HW132951   4.206   4.878   2.466
10684SOL    HW232952   4.248   4.937   2.612
10685SOL     OW32953   0.327   5.892   1.234
10685SOL    HW132954   0.412   5.942   1.251
10685SOL    HW232955   0.343   5.794   1.249
10686SOL     OW32956   1.537   3.871   5.961
10686SOL    HW132957   1.579   3.933   5.895
10686SOL    HW232958   1.453   3.833   5.921
10687SOL     OW32959   6.166   4.991   4.297
10687SOL    HW132960   6.131   4.936   4.372
10687SOL    HW232961   6.240   4.942   4.251
10688SOL     OW32962   6.047   3.137   2.782
10688SOL    HW132963   6.109   3.065   2.751
10688SOL    HW232964   6.099   3.207   2.830
10689SOL     OW32965   6.154   0.186   2.549
10689SOL    HW132966   6.151   0.278   2.509
10689SOL    HW232967   6.226   0.133   2.505
10690SOL     OW32968   0.557   5.376   3.522
10690SOL    HW132969   0.557   5.294   3.464
10690SOL    HW232970   0.523   5.454   3.470
10691SOL     OW32971   1.878   1.675   1.892
10691SOL    HW132972   1.977   1.684   1.902
10691SOL    HW232973   1.843   1.752   1.839
10692SOL     OW32974   2.413   0.441   3.627
10692SOL    HW132975   2.480   0.374   3.658
10692SOL    HW232976   2.376   0.490   3.705
10693SOL     OW32977   1.485   6.102   1.339
10693SOL    HW132978   1.532   6.123   1.253
10693SOL    HW232979   1.551   6.063   1.404
10694SOL     OW32980   5.425   5.901   6.664
10694SOL    HW132981   5.426   5.973   6.734
10694SOL    HW232982   5.446   5.813   6.707
10695SOL     OW32983   1.402   2.244   2.471
10695SOL    HW132984   1.477   2.206   2.417
10695SOL    HW232985   1.405   2.344   2.467
10696SOL     OW32986   6.140   4.331   3.981
10696SOL    HW132987   6.102   4.249   4.024
10696SOL    HW232988   6.148   4.404   4.049
10697SOL     OW32989   0.370   0.266   5.440
10697SOL    HW132990   0.446   0.215   5.479
10697SOL    HW232991   0.288   0.208   5.438
10698SOL     OW32992   5.169   5.113   6.935
10698SOL    HW132993   5.209   5.198   6.968
10698SOL    HW232994   5.241   5.044   6.924
10699SOL     OW32995   3.759   4.893   1.656
10699SOL    HW132996   3.814   4.814   1.630
10699SOL    HW232997   3.669   4.887   1.613
10700SOL     OW32998   5.641   6.161   0.468
10700SOL    HW132999   5.616   6.132   0.376
10700SOL    HW233000   5.590   6.106   0.535
10701SOL     OW33001   2.454   6.515   5.625
10701SOL    HW133002   2.509   6.524   5.709
10701SOL    HW233003   2.482   6.432   5.577
10702SOL     OW33004   6.067   3.277   2.246
10702SOL    HW133005   6.075   3.223   2.330
10702SOL    HW233006   5.972   3.275   2.214
10703SOL     OW33007   2.563   2.834   5.308
10703SOL    HW133008   2.517   2.911   5.264
10703SOL    HW233009   2.645   2.866   5.354
10704SOL     OW33010   6.268   4.879   1.890
10704SOL    HW133011   6.325   4.923   1.820
10704SOL    HW233012   6.191   4.834   1.846
10705SOL     OW33013   6.751   4.985   1.477
10705SOL    HW133014   6.748   5.082   1.453
10705SOL    HW233015   6.778   4.932   1.396
10706SOL     OW33016   4.646   0.405   3.104
10706SOL    HW133017   4.653   0.504   3.116
10706SOL    HW233018   4.570   0.370   3.159
10707SOL     OW33019   0.377   6.546   4.357
10707SOL    HW133020   0.468   6.581   4.382
10707SOL    HW233021   0.370   6.541   4.258
10708SOL     OW33022   3.788   1.232   1.158
10708SOL    HW133023   3.800   1.328   1.135
10708SOL    HW233024   3.806   1.219   1.256
10709SOL     OW33025   5.683   5.858   5.646
10709SOL    HW133026   5.777   5.889   5.655
10709SOL    HW233027   5.659   5.801   5.725
10710SOL     OW33028   6.124   0.920   4.334
10710SOL    HW133029   6.202   0.865   4.363
10710SOL    HW233030   6.041   0.885   4.376
10711SOL     OW33031   2.039   6.470   4.153
10711SOL    HW133032   2.016   6.384   4.199
10711SOL    HW233033   2.126   6.460   4.105
10712SOL     OW33034   2.959   0.806   1.909
10712SOL    HW133035   2.953   0.810   1.810
10712SOL    HW233036   2.871   0.834   1.949
10713SOL     OW33037   0.617   3.596   0.947
10713SOL    HW133038   0.614   3.513   1.003
10713SOL    HW233039   0.612   3.676   1.007
10714SOL     OW33040   5.392   4.011   5.408
10714SOL    HW133041   5.323   3.951   5.449
10714SOL    HW233042   5.347   4.072   5.342
10715SOL     OW33043   4.522   0.460   2.233
10715SOL    HW133044   4.568   0.452   2.321
10715SOL    HW233045   4.437   0.408   2.235
10716SOL     OW33046   5.748   2.089   4.002
10716SOL    HW133047   5.659   2.044   4.011
10716SOL    HW233048   5.770   2.101   3.905
10717SOL     OW33049   1.029   2.320   1.394
10717SOL    HW133050   0.982   2.393   1.346
10717SOL    HW233051   1.112   2.295   1.345
10718SOL     OW33052   1.008   3.778   6.868
10718SOL    HW133053   0.925   3.734   6.834
10718SOL    HW233054   1.038   3.731   6.951
10719SOL     OW33055   0.085   5.871   2.660
10719SOL    HW133056   0.034   5.823   2.732
10719SOL    HW233057   0.084   5.816   2.577
10720SOL     OW33058   0.479   4.632   5.517
10720SOL    HW133059   0.464   4.533   5.508
10720SOL    HW233060   0.393   4.676   5.544
10721SOL     OW33061   5.300   3.766   5.024
10721SOL    HW133062   5.352   3.817   4.955
10721SOL    HW233063   5.262   3.683   4.982
10722SOL     OW33064   1.466   5.300   6.461
10722SOL    HW133065   1.529   5.298   6.539
10722SOL    HW233066   1.392   5.364   6.480
10723SOL     OW33067   0.775   3.067   6.468
10723SOL    HW133068   0.789   3.144   6.406
10723SOL    HW233069   0.815   2.984   6.428
10724SOL     OW33070   6.414   1.498   0.167
10724SOL    HW133071   6.424   1.500   0.068
10724SOL    HW233072   6.319   1.518   0.191
10725SOL     OW33073   1.498   5.523   4.673
10725SOL    HW133074   1.551   5.525   4.589
10725SOL    HW233075   1.537   5.455   4.736
10726SOL     OW33076   5.359   0.398   4.650
10726SOL    HW133077   5.414   0.426   4.728
10726SOL    HW233078   5.391   0.310   4.615
10727SOL     OW33079   0.196   5.022   5.532
10727SOL    HW133080   0.192   4.922   5.528
10727SOL    HW233081   0.218   5.050   5.626
10728SOL     OW33082   0.550   6.089   6.459
10728SOL    HW133083   0.510   6.042   6.538
10728SOL    HW233084   0.577   6.182   6.486
10729SOL     OW33085   4.995   1.700   2.491
10729SOL    HW133086   4.896   1.704   2.475
10729SOL    HW233087   5.033   1.793   2.489
10730SOL     OW33088   1.911   0.817   0.960
10730SOL    HW133089   1.834   0.857   1.009
10730SOL    HW233090   1.965   0.760   1.023
10731SOL     OW33091   3.073   6.876   0.675
10731SOL    HW133092   3.093   6.971   0.650
10731SOL    HW233093   2.974   6.864   0.685
10732SOL     OW33094   6.366   4.665   4.782
10732SOL    HW133095   6.421   4.713   4.851
10732SOL    HW233096   6.399   4.571   4.772
10733SOL     OW33097   6.316   2.259   0.999
10733SOL    HW133098   6.244   2.200   0.963
10733SOL    HW233099   6.383   2.278   0.928
10734SOL     OW33100   0.772   0.608   6.983
10734SOL    HW133101   0.709   0.550   0.009
10734SOL    HW233102   0.777   0.577   6.888
10735SOL     OW33103   0.706   2.705   3.183
10735SOL    HW133104   0.622   2.688   3.235
10735SOL    HW233105   0.699   2.793   3.136
10736SOL     OW33106   0.925   0.418   3.216
10736SOL    HW133107   0.973   0.332   3.232
10736SOL    HW233108   0.860   0.434   3.291
10737SOL     OW33109   1.760   1.776   0.746
10737SOL    HW133110   1.808   1.845   0.692
10737SOL    HW233111   1.789   1.782   0.841
10738SOL     OW33112   2.713   0.444   3.085
10738SOL    HW133113   2.746   0.454   2.991
10738SOL    HW233114   2.730   0.528   3.136
10739SOL     OW33115   1.473   1.725   0.628
10739SOL    HW133116   1.445   1.629   0.624
10739SOL    HW233117   1.566   1.732   0.665
10740SOL     OW33118   0.211   4.842   4.926
10740SOL    HW133119   0.124   4.867   4.883
10740SOL    HW233120   0.227   4.744   4.913
10741SOL     OW33121   5.453   0.668   1.381
10741SOL    HW133122   5.378   0.733   1.394
10741SOL    HW233123   5.415   0.579   1.352
10742SOL     OW33124   5.663   0.351   0.888
10742SOL    HW133125   5.594   0.410   0.847
10742SOL    HW233126   5.618   0.274   0.934
10743SOL     OW33127   2.725   1.546   5.799
10743SOL    HW133128   2.669   1.485   5.743
10743SOL    HW233129   2.766   1.617   5.740
10744SOL     OW33130   3.774   1.507   1.123
10744SOL    HW133131   3.860   1.557   1.125
10744SOL    HW233132   3.698   1.572   1.113
10745SOL     OW33133   0.208   6.155   6.475
10745SOL    HW133134   0.263   6.132   6.395
10745SOL    HW233135   0.246   6.236   6.520
10746SOL     OW33136   2.531   4.969   0.886
10746SOL    HW133137   2.463   4.895   0.891
10746SOL    HW233138   2.610   4.938   0.833
10747SOL     OW33139   3.884   1.173   4.356
10747SOL    HW133140   3.935   1.257   4.375
10747SOL    HW233141   3.801   1.195   4.305
10748SOL     OW33142   5.307   0.996   0.997
10748SOL    HW133143   5.394   0.952   0.976
10748SOL    HW233144   5.232   0.933   0.977
10749SOL     OW33145   0.876   5.206   2.975
10749SOL    HW133146   0.848   5.110   2.971
10749SOL    HW233147   0.807   5.262   2.929
10750SOL     OW33148   4.396   6.124   4.434
10750SOL    HW133149   4.460   6.188   4.391
10750SOL    HW233150   4.405   6.034   4.391
10751SOL     OW33151   1.532   4.294   4.982
10751SOL    HW133152   1.604   4.314   4.916
10751SOL    HW233153   1.535   4.360   5.056
10752SOL     OW33154   6.269   3.855   6.045
10752SOL    HW133155   6.205   3.778   6.040
10752SOL    HW233156   6.250   3.910   6.126
10753SOL     OW33157   4.825   5.699   4.508
10753SOL    HW133158   4.776   5.685   4.594
10753SOL    HW233159   4.921   5.719   4.527
10754SOL     OW33160   1.013   0.713   2.812
10754SOL    HW133161   1.099   0.762   2.822
10754SOL    HW233162   1.016   0.628   2.864
10755SOL     OW33163   6.588   0.865   6.985
10755SOL    HW133164   6.537   0.798   6.931
10755SOL    HW233165   6.564   0.855   0.057
10756SOL     OW33166   6.947   5.033   0.066
10756SOL    HW133167   6.960   5.132   0.064
10756SOL    HW233168   6.850   5.013   0.082
10757SOL     OW33169   2.517   2.804   0.557
10757SOL    HW133170   2.460   2.886   0.552
10757SOL    HW233171   2.510   2.764   0.648
10758SOL     OW33172   0.611   6.690   4.383
10758SOL    HW133173   0.701   6.654   4.408
10758SOL    HW233174   0.622   6.775   4.331
10759SOL     OW33175   2.074   2.886   1.248
10759SOL    HW133176   2.136   2.865   1.324
10759SOL    HW233177   2.048   2.801   1.202
10760SOL     OW33178   5.275   1.664   2.805
10760SOL    HW133179   5.294   1.753   2.764
10760SOL    HW233180   5.189   1.627   2.769
10761SOL     OW33181   1.131   6.801   6.097
10761SOL    HW133182   1.099   6.710   6.122
10761SOL    HW233183   1.064   6.869   6.127
10762SOL     OW33184   3.567   2.151   4.355
10762SOL    HW133185   3.665   2.171   4.351
10762SOL    HW233186   3.536   2.151   4.450
10763SOL     OW33187   5.541   6.872   2.561
10763SOL    HW133188   5.570   6.966   2.582
10763SOL    HW233189   5.449   6.873   2.523
10764SOL     OW33190   5.013   2.429   5.884
10764SOL    HW133191   5.002   2.456   5.980
10764SOL    HW233192   5.051   2.337   5.880
10765SOL     OW33193   4.967   2.505   0.143
10765SOL    HW133194   5.039   2.573   0.156
10765SOL    HW233195   4.887   2.530   0.198
10766SOL     OW33196   5.068   4.126   0.254
10766SOL    HW133197   5.078   4.046   0.313
10766SOL    HW233198   5.147   4.186   0.265
10767SOL     OW33199   1.271   0.991   0.030
10767SOL    HW133200   1.300   0.983   6.959
10767SOL    HW233201   1.172   0.997   0.035
10768SOL     OW33202   4.358   4.847   1.922
10768SOL    HW133203   4.454   4.818   1.925
10768SOL    HW233204   4.328   4.870   2.015
10769SOL     OW33205   2.418   4.315   5.191
10769SOL    HW133206   2.418   4.218   5.168
10769SOL    HW233207   2.395   4.369   5.110
10770SOL     OW33208   5.499   0.141   4.586
10770SOL    HW133209   5.563   0.160   4.511
10770SOL    HW233210   5.457   0.052   4.572
10771SOL     OW33211   5.951   7.015   3.793
10771SOL    HW133212   5.929   0.043   3.875
10771SOL    HW233213   5.873   7.015   3.731
10772SOL     OW33214   5.786   6.715   4.598
10772SOL    HW133215   5.842   6.798   4.588
10772SOL    HW233216   5.759   6.705   4.694
10773SOL     OW33217   6.462   6.269   6.888
10773SOL    HW133218   6.554   6.230   6.894
10773SOL    HW233219   6.405   6.211   6.830
10774SOL     OW33220   2.810   1.545   6.991
10774SOL    HW133221   2.799   1.628   6.936
10774SOL    HW233222   2.760   1.470   6.948
10775SOL     OW33223   0.484   4.814   1.586
10775SOL    HW133224   0.522   4.874   1.655
10775SOL    HW233225   0.551   4.744   1.561
10776SOL     OW33226   0.045   0.973   6.763
10776SOL    HW133227   7.022   0.934   6.841
10776SOL    HW233228   0.089   1.059   6.790
10777SOL     OW33229   3.890   5.503   3.204
10777SOL    HW133230   3.956   5.454   3.148
10777SOL    HW233231   3.915   5.493   3.301
10778SOL     OW33232   5.474   6.837   4.165
10778SOL    HW133233   5.508   6.913   4.110
10778SOL    HW233234   5.531   6.827   4.247
10779SOL     OW33235   6.226   3.536   3.722
10779SOL    HW133236   6.208   3.539   3.624
10779SOL    HW233237   6.232   3.630   3.758
10780SOL     OW33238   2.206   0.917   3.474
10780SOL    HW133239   2.171   0.925   3.568
10780SOL    HW233240   2.306   0.910   3.477
10781SOL     OW33241   4.599   1.074   4.461
10781SOL    HW133242   4.692   1.071   4.497
10781SOL    HW233243   4.573   0.984   4.427
10782SOL     OW33244   6.332   1.884   1.540
10782SOL    HW133245   6.412   1.890   1.599
10782SOL    HW233246   6.250   1.900   1.594
10783SOL     OW33247   0.346   2.644   2.864
10783SOL    HW133248   0.260   2.695   2.860
10783SOL    HW233249   0.367   2.608   2.773
10784SOL     OW33250   3.661   6.866   3.929
10784SOL    HW133251   3.565   6.867   3.899
10784SOL    HW233252   3.679   6.946   3.985
10785SOL     OW33253   0.058   4.839   0.572
10785SOL    HW133254   0.105   4.907   0.628
10785SOL    HW233255   7.002   4.880   0.530
10786SOL     OW33256   5.697   4.566   3.427
10786SOL    HW133257   5.699   4.654   3.380
10786SOL    HW233258   5.776   4.558   3.487
10787SOL     OW33259   2.433   1.715   5.466
10787SOL    HW133260   2.384   1.633   5.494
10787SOL    HW233261   2.452   1.772   5.546
10788SOL     OW33262   1.721   4.560   6.407
10788SOL    HW133263   1.709   4.461   6.411
10788SOL    HW233264   1.794   4.582   6.342
10789SOL     OW33265   6.898   2.406   6.624
10789SOL    HW133266   6.873   2.419   6.528
10789SOL    HW233267   6.839   2.463   6.681
10790SOL     OW33268   1.134   0.168   1.576
10790SOL    HW133269   1.100   0.237   1.513
10790SOL    HW233270   1.157   0.211   1.663
10791SOL     OW33271   6.752   6.670   1.737
10791SOL    HW133272   6.654   6.663   1.756
10791SOL    HW233273   6.766   6.723   1.653
10792SOL     OW33274   3.230   3.757   4.639
10792SOL    HW133275   3.152   3.756   4.577
10792SOL    HW233276   3.285   3.839   4.624
10793SOL     OW33277   5.839   3.032   5.011
10793SOL    HW133278   5.855   3.033   5.110
10793SOL    HW233279   5.778   3.108   4.987
10794SOL     OW33280   3.691   3.244   3.899
10794SOL    HW133281   3.592   3.243   3.913
10794SOL    HW233282   3.731   3.163   3.942
10795SOL     OW33283   6.890   4.994   2.287
10795SOL    HW133284   6.970   5.039   2.248
10795SOL    HW233285   6.920   4.924   2.352
10796SOL     OW33286   5.909   0.478   6.086
10796SOL    HW133287   5.931   0.529   6.169
10796SOL    HW233288   5.823   0.512   6.049
10797SOL     OW33289   3.044   2.287   1.496
10797SOL    HW133290   3.114   2.336   1.547
10797SOL    HW233291   2.965   2.270   1.555
10798SOL     OW33292   2.627   0.267   0.133
10798SOL    HW133293   2.687   0.195   0.167
10798SOL    HW233294   2.570   0.302   0.207
10799SOL     OW33295   4.146   1.140   1.899
10799SOL    HW133296   4.088   1.146   1.980
10799SOL    HW233297   4.242   1.146   1.927
10800SOL     OW33298   6.643   6.499   6.291
10800SOL    HW133299   6.740   6.502   6.267
10800SOL    HW233300   6.588   6.498   6.207
10801SOL     OW33301   1.410   6.286   6.298
10801SOL    HW133302   1.446   6.320   6.211
10801SOL    HW233303   1.339   6.348   6.331
10802SOL     OW33304   1.054   0.218   2.850
10802SOL    HW133305   1.036   0.141   2.789
10802SOL    HW233306   0.990   0.293   2.828
10803SOL     OW33307   2.347   5.098   6.259
10803SOL    HW133308   2.251   5.092   6.286
10803SOL    HW233309   2.398   5.145   6.331
10804SOL     OW33310   5.856   3.127   2.575
10804SOL    HW133311   5.767   3.134   2.621
10804SOL    HW233312   5.929   3.127   2.643
10805SOL     OW33313   4.671   6.740   6.154
10805SOL    HW133314   4.738   6.810   6.176
10805SOL    HW233315   4.708   6.679   6.084
10806SOL     OW33316   4.082   3.982   5.991
10806SOL    HW133317   4.144   4.059   5.972
10806SOL    HW233318   4.128   3.896   5.969
10807SOL     OW33319   1.724   6.859   2.572
10807SOL    HW133320   1.753   6.876   2.478
10807SOL    HW233321   1.629   6.830   2.572
10808SOL     OW33322   6.842   2.810   6.032
10808SOL    HW133323   6.913   2.787   6.099
10808SOL    HW233324   6.801   2.898   6.056
10809SOL     OW33325   2.646   4.597   3.397
10809SOL    HW133326   2.686   4.630   3.482
10809SOL    HW233327   2.556   4.557   3.414
10810SOL     OW33328   1.399   0.515   3.522
10810SOL    HW133329   1.359   0.482   3.608
10810SOL    HW233330   1.360   0.465   3.445
10811SOL     OW33331   4.060   4.798   5.896
10811SOL    HW133332   4.080   4.887   5.938
10811SOL    HW233333   4.081   4.725   5.961
10812SOL     OW33334   0.314   3.753   0.636
10812SOL    HW133335   0.290   3.750   0.539
10812SOL    HW233336   0.300   3.663   0.677
10813SOL     OW33337   1.588   3.972   6.345
10813SOL    HW133338   1.646   3.955   6.265
10813SOL    HW233339   1.636   3.941   6.428
10814SOL     OW33340   1.647   6.850   6.164
10814SOL    HW133341   1.576   6.875   6.098
10814SOL    HW233342   1.617   6.875   6.256
10815SOL     OW33343   5.154   3.692   3.327
10815SOL    HW133344   5.143   3.730   3.419
10815SOL    HW233345   5.185   3.598   3.333
10816SOL     OW33346   3.272   3.622   2.735
10816SOL    HW133347   3.239   3.679   2.659
10816SOL    HW233348   3.295   3.680   2.813
10817SOL     OW33349   4.242   0.542   3.528
10817SOL    HW133350   4.248   0.622   3.587
10817SOL    HW233351   4.150   0.538   3.487
10818SOL     OW33352   4.775   4.574   5.506
10818SOL    HW133353   4.751   4.539   5.597
10818SOL    HW233354   4.805   4.498   5.449
10819SOL     OW33355   6.180   5.240   6.300
10819SOL    HW133356   6.242   5.300   6.349
10819SOL    HW233357   6.153   5.283   6.214
10820SOL     OW33358   6.968   4.879   4.169
10820SOL    HW133359   7.003   4.847   4.081
10820SOL    HW233360   6.934   4.802   4.222
10821SOL     OW33361   4.710   6.864   3.821
10821SOL    HW133362   4.681   6.769   3.812
10821SOL    HW233363   4.748   6.878   3.913
10822SOL     OW33364   5.990   2.165   2.778
10822SOL    HW133365   5.994   2.212   2.866
10822SOL    HW233366   6.022   2.071   2.788
10823SOL     OW33367   1.033   0.827   1.803
10823SOL    HW133368   1.021   0.926   1.813
10823SOL    HW233369   1.128   0.803   1.821
10824SOL     OW33370   7.003   1.434   2.734
10824SOL    HW133371   6.972   1.511   2.790
10824SOL    HW233372   7.013   1.353   2.792
10825SOL     OW33373   2.058   1.808   6.478
10825SOL    HW133374   2.069   1.908   6.477
10825SOL    HW233375   2.036   1.776   6.386
10826SOL     OW33376   0.752   2.105   3.219
10826SOL    HW133377   0.817   2.114   3.294
10826SOL    HW233378   0.688   2.031   3.239
10827SOL     OW33379   0.239   3.460   4.698
10827SOL    HW133380   0.239   3.384   4.632
10827SOL    HW233381   0.159   3.453   4.757
10828SOL     OW33382   1.313   4.255   0.676
10828SOL    HW133383   1.384   4.325   0.661
10828SOL    HW233384   1.344   4.168   0.637
10829SOL     OW33385   4.809   2.648   0.615
10829SOL    HW133386   4.747   2.602   0.678
10829SOL    HW233387   4.823   2.743   0.645
10830SOL     OW33388   4.309   1.923   3.355
10830SOL    HW133389   4.308   1.825   3.333
10830SOL    HW233390   4.385   1.967   3.308
10831SOL     OW33391   3.296   6.355   2.980
10831SOL    HW133392   3.335   6.442   2.952
10831SOL    HW233393   3.220   6.332   2.919
10832SOL     OW33394   0.037   3.703   6.227
10832SOL    HW133395   6.963   3.717   6.233
10832SOL    HW233396   0.077   3.775   6.170
10833SOL     OW33397   0.493   0.947   1.990
10833SOL    HW133398   0.539   0.942   2.079
10833SOL    HW233399   0.406   0.896   1.995
10834SOL     OW33400   6.326   1.528   0.617
10834SOL    HW133401   6.296   1.441   0.579
10834SOL    HW233402   6.364   1.513   0.709
10835SOL     OW33403   6.001   2.460   0.193
10835SOL    HW133404   5.941   2.492   0.266
10835SOL    HW233405   6.012   2.361   0.200
10836SOL     OW33406   6.485   1.962   4.562
10836SOL    HW133407   6.516   1.895   4.630
10836SOL    HW233408   6.484   2.053   4.604
10837SOL     OW33409   6.681   4.954   1.007
10837SOL    HW133410   6.678   5.037   0.950
10837SOL    HW233411   6.670   4.874   0.949
10838SOL     OW33412   6.878   6.048   3.737
10838SOL    HW133413   6.961   6.092   3.770
10838SOL    HW233414   6.803   6.114   3.738
10839SOL     OW33415   4.492   3.296   1.269
10839SOL    HW133416   4.394   3.276   1.274
10839SOL    HW233417   4.542   3.226   1.320
10840SOL     OW33418   2.988   6.238   2.296
10840SOL    HW133419   3.075   6.214   2.253
10840SOL    HW233420   2.942   6.155   2.327
10841SOL     OW33421   6.494   4.752   5.737
10841SOL    HW133422   6.476   4.655   5.722
10841SOL    HW233423   6.468   4.804   5.656
10842SOL     OW33424   4.492   2.215   1.161
10842SOL    HW133425   4.554   2.291   1.182
10842SOL    HW233426   4.513   2.138   1.221
10843SOL     OW33427   1.350   1.326   0.881
10843SOL    HW133428   1.311   1.418   0.892
10843SOL    HW233429   1.445   1.333   0.852
10844SOL     OW33430   0.862   5.488   3.504
10844SOL    HW133431   0.773   5.441   3.505
10844SOL    HW233432   0.875   5.536   3.590
10845SOL     OW33433   3.517   6.602   5.406
10845SOL    HW133434   3.481   6.672   5.467
10845SOL    HW233435   3.511   6.512   5.451
10846SOL     OW33436   5.547   0.819   6.928
10846SOL    HW133437   5.453   0.787   6.943
10846SOL    HW233438   5.557   0.910   6.968
10847SOL     OW33439   3.545   2.618   0.394
10847SOL    HW133440   3.539   2.718   0.406
10847SOL    HW233441   3.486   2.574   0.462
10848SOL     OW33442   2.360   3.912   0.752
10848SOL    HW133443   2.385   3.821   0.784
10848SOL    HW233444   2.438   3.974   0.763
10849SOL     OW33445   2.397   4.418   4.219
10849SOL    HW133446   2.372   4.321   4.227
10849SOL    HW233447   2.439   4.433   4.129
10850SOL     OW33448   2.876   5.996   6.107
10850SOL    HW133449   2.842   6.044   6.188
10850SOL    HW233450   2.942   5.926   6.135
10851SOL     OW33451   2.692   3.679   0.601
10851SOL    HW133452   2.648   3.762   0.567
10851SOL    HW233453   2.646   3.649   0.685
10852SOL     OW33454   1.424   0.623   6.881
10852SOL    HW133455   1.329   0.600   6.858
10852SOL    HW233456   1.482   0.543   6.867
10853SOL     OW33457   1.608   3.181   5.469
10853SOL    HW133458   1.523   3.182   5.522
10853SOL    HW233459   1.636   3.274   5.448
10854SOL     OW33460   4.427   5.050   5.615
10854SOL    HW133461   4.343   5.099   5.637
10854SOL    HW233462   4.417   4.954   5.642
10855SOL     OW33463   4.246   1.239   0.851
10855SOL    HW133464   4.188   1.307   0.895
10855SOL    HW233465   4.308   1.199   0.918
10856SOL     OW33466   5.123   0.820   0.917
10856SOL    HW133467   5.026   0.813   0.943
10856SOL    HW233468   5.136   0.783   0.825
10857SOL     OW33469   0.769   2.111   2.722
10857SOL    HW133470   0.796   2.192   2.773
10857SOL    HW233471   0.846   2.047   2.718
10858SOL     OW33472   0.929   1.429   0.419
10858SOL    HW133473   0.976   1.342   0.402
10858SOL    HW233474   0.996   1.499   0.441
10859SOL     OW33475   1.056   4.666   4.556
10859SOL    HW133476   1.125   4.736   4.540
10859SOL    HW233477   1.034   4.662   4.654
10860SOL     OW33478   0.214   3.350   5.101
10860SOL    HW133479   0.226   3.258   5.138
10860SOL    HW233480   0.185   3.345   5.006
10861SOL     OW33481   3.139   4.045   3.549
10861SOL    HW133482   3.166   4.093   3.632
10861SOL    HW233483   3.154   3.947   3.560
10862SOL     OW33484   2.109   1.095   6.283
10862SOL    HW133485   2.090   1.154   6.204
10862SOL    HW233486   2.113   1.000   6.253
10863SOL     OW33487   2.563   0.659   3.865
10863SOL    HW133488   2.531   0.723   3.935
10863SOL    HW233489   2.486   0.631   3.808
10864SOL     OW33490   2.184   6.457   0.324
10864SOL    HW133491   2.264   6.462   0.265
10864SOL    HW233492   2.194   6.379   0.386
10865SOL     OW33493   6.898   1.453   1.306
10865SOL    HW133494   6.980   1.458   1.363
10865SOL    HW233495   6.818   1.440   1.364
10866SOL     OW33496   5.625   3.998   0.148
10866SOL    HW133497   5.614   3.903   0.120
10866SOL    HW233498   5.610   4.058   0.069
10867SOL     OW33499   3.700   4.017   0.404
10867SOL    HW133500   3.620   4.012   0.464
10867SOL    HW233501   3.768   3.950   0.432
10868SOL     OW33502   5.099   0.960   4.017
10868SOL    HW133503   5.187   0.965   4.065
10868SOL    HW233504   5.106   1.010   3.931
10869NA      NA33505   6.341   2.912   5.314
10870NA      NA33506   4.370   4.659   5.213
10871NA      NA33507   1.701   2.831   2.075
10872NA      NA33508   5.077   3.861   5.108
10873NA      NA33509   4.108   2.313   5.320
10874NA      NA33510   3.596   4.932   1.831
10875NA      NA33511   0.151   4.996   0.095
10876NA      NA33512   3.736   3.619   4.380
10877NA      NA33513   4.950   6.202   0.117
10878NA      NA33514   3.470   6.706   5.177
10879NA      NA33515   5.944   5.180   2.031
10880NA      NA33516   2.090   0.205   3.929
10881NA      NA33517   4.026   5.457   2.670
10882NA      NA33518   3.676   3.903   2.315
   7.02501   7.02501   7.02501
