Generated by trjconv : CNT in water t=  94.00000
33518
    1C        C    1   2.847   2.776   4.746
    1C        C    2   2.899   2.723   4.866
    1C        C    3   2.839   2.774   4.982
    1C        C    4   2.849   2.776   4.258
    1C        C    5   2.899   2.726   4.380
    1C        C    6   2.845   2.772   4.502
    1C        C    7   3.010   2.640   4.624
    1C        C    8   2.897   2.725   4.625
    1C        C    9   3.074   2.602   4.744
    1C        C   10   3.004   2.629   4.864
    1C        C   11   3.180   2.490   4.973
    1C        C   12   3.061   2.564   4.974
    1C        C   13   2.850   2.774   3.770
    1C        C   14   2.902   2.725   3.892
    1C        C   15   2.847   2.772   4.013
    1C        C   16   3.018   2.648   4.138
    1C        C   17   2.902   2.729   4.136
    1C        C   18   3.082   2.616   4.260
    1C        C   19   3.017   2.648   4.381
    1C        C   20   3.206   2.556   4.504
    1C        C   21   3.074   2.605   4.503
    1C        C   22   3.277   2.538   4.625
    1C        C   23   3.206   2.550   4.747
    1C        C   24   3.414   2.479   4.862
    1C        C   25   3.272   2.501   4.863
    1C        C   26   3.491   2.477   4.979
    1C        C   27   2.848   2.767   3.282
    1C        C   28   2.901   2.722   3.405
    1C        C   29   2.854   2.777   3.526
    1C        C   30   3.017   2.640   3.651
    1C        C   31   2.903   2.724   3.648
    1C        C   32   3.080   2.606   3.773
    1C        C   33   3.016   2.641   3.893
    1C        C   34   3.208   2.553   4.015
    1C        C   35   3.079   2.611   4.016
    1C        C   36   3.276   2.531   4.137
    1C        C   37   3.209   2.554   4.259
    1C        C   38   3.411   2.506   4.381
    1C        C   39   3.272   2.528   4.383
    1C        C   40   3.487   2.508   4.500
    1C        C   41   3.415   2.509   4.622
    1C        C   42   3.630   2.491   4.741
    1C        C   43   3.488   2.488   4.741
    1C        C   44   3.705   2.492   4.861
    1C        C   45   3.630   2.471   4.978
    1C        C   46   2.840   2.754   2.793
    1C        C   47   2.892   2.710   2.917
    1C        C   48   2.843   2.762   3.038
    1C        C   49   3.016   2.638   3.161
    1C        C   50   2.900   2.718   3.160
    1C        C   51   3.079   2.607   3.284
    1C        C   52   3.018   2.643   3.406
    1C        C   53   3.209   2.553   3.527
    1C        C   54   3.078   2.606   3.529
    1C        C   55   3.278   2.530   3.648
    1C        C   56   3.209   2.549   3.770
    1C        C   57   3.415   2.509   3.894
    1C        C   58   3.275   2.529   3.893
    1C        C   59   3.486   2.502   4.015
    1C        C   60   3.416   2.507   4.138
    1C        C   61   3.626   2.509   4.259
    1C        C   62   3.485   2.501   4.260
    1C        C   63   3.699   2.513   4.380
    1C        C   64   3.628   2.497   4.502
    1C        C   65   3.838   2.545   4.621
    1C        C   66   3.703   2.505   4.621
    1C        C   67   3.907   2.562   4.743
    1C        C   68   3.840   2.532   4.864
    1C        C   69   4.057   2.582   4.976
    1C        C   70   3.926   2.533   4.974
    1C        C   71   2.821   2.730   2.309
    1C        C   72   2.880   2.687   2.429
    1C        C   73   2.833   2.747   2.548
    1C        C   74   3.013   2.635   2.673
    1C        C   75   2.890   2.705   2.671
    1C        C   76   3.074   2.600   2.795
    1C        C   77   3.010   2.631   2.917
    1C        C   78   3.204   2.544   3.038
    1C        C   79   3.074   2.597   3.038
    1C        C   80   3.274   2.531   3.160
    1C        C   81   3.211   2.556   3.284
    1C        C   82   3.415   2.501   3.401
    1C        C   83   3.277   2.531   3.405
    1C        C   84   3.486   2.498   3.524
    1C        C   85   3.418   2.508   3.647
    1C        C   86   3.626   2.500   3.770
    1C        C   87   3.485   2.499   3.771
    1C        C   88   3.695   2.508   3.893
    1C        C   89   3.628   2.499   4.017
    1C        C   90   3.835   2.546   4.134
    1C        C   91   3.699   2.509   4.138
    1C        C   92   3.902   2.578   4.255
    1C        C   93   3.835   2.551   4.376
    1C        C   94   4.030   2.631   4.500
    1C        C   95   3.905   2.566   4.498
    1C        C   96   4.093   2.670   4.621
    1C        C   97   4.032   2.630   4.741
    1C        C   98   4.193   2.768   4.863
    1C        C   99   4.102   2.657   4.862
    1C        C  100   4.217   2.842   4.979
    1C        C  101   2.824   2.731   2.070
    1C        C  102   2.992   2.594   2.189
    1C        C  103   2.878   2.680   2.189
    1C        C  104   3.062   2.573   2.311
    1C        C  105   3.003   2.617   2.431
    1C        C  106   3.202   2.537   2.550
    1C        C  107   3.072   2.592   2.552
    1C        C  108   3.271   2.521   2.672
    1C        C  109   3.203   2.542   2.794
    1C        C  110   3.410   2.494   2.914
    1C        C  111   3.272   2.522   2.915
    1C        C  112   3.483   2.488   3.035
    1C        C  113   3.413   2.504   3.156
    1C        C  114   3.626   2.499   3.278
    1C        C  115   3.484   2.495   3.278
    1C        C  116   3.697   2.505   3.400
    1C        C  117   3.627   2.501   3.523
    1C        C  118   3.831   2.543   3.648
    1C        C  119   3.695   2.507   3.647
    1C        C  120   3.895   2.576   3.769
    1C        C  121   3.828   2.555   3.892
    1C        C  122   4.025   2.643   4.010
    1C        C  123   3.900   2.578   4.012
    1C        C  124   4.087   2.676   4.133
    1C        C  125   4.030   2.637   4.256
    1C        C  126   4.194   2.768   4.378
    1C        C  127   4.090   2.672   4.379
    1C        C  128   4.246   2.820   4.499
    1C        C  129   4.196   2.767   4.621
    1C        C  130   4.329   2.936   4.740
    1C        C  131   4.242   2.824   4.742
    1C        C  132   4.359   3.003   4.860
    1C        C  133   4.290   2.960   4.974
    1C        C  134   3.175   2.475   2.079
    1C        C  135   3.038   2.507   2.085
    1C        C  136   3.260   2.476   2.191
    1C        C  137   3.192   2.514   2.309
    1C        C  138   3.406   2.487   2.425
    1C        C  139   3.266   2.505   2.428
    1C        C  140   3.477   2.478   2.546
    1C        C  141   3.409   2.490   2.669
    1C        C  142   3.621   2.492   2.788
    1C        C  143   3.480   2.485   2.791
    1C        C  144   3.692   2.503   2.910
    1C        C  145   3.624   2.497   3.033
    1C        C  146   3.832   2.534   3.155
    1C        C  147   3.695   2.500   3.155
    1C        C  148   3.898   2.564   3.277
    1C        C  149   3.833   2.542   3.400
    1C        C  150   4.023   2.630   3.521
    1C        C  151   3.897   2.567   3.524
    1C        C  152   4.080   2.673   3.643
    1C        C  153   4.020   2.643   3.767
    1C        C  154   4.196   2.765   3.888
    1C        C  155   4.082   2.681   3.887
    1C        C  156   4.247   2.812   4.011
    1C        C  157   4.198   2.763   4.134
    1C        C  158   4.341   2.920   4.253
    1C        C  159   4.250   2.811   4.256
    1C        C  160   4.378   2.984   4.373
    1C        C  161   4.334   2.930   4.495
    1C        C  162   4.439   3.115   4.616
    1C        C  163   4.373   2.990   4.617
    1C        C  164   4.469   3.184   4.736
    1C        C  165   4.433   3.124   4.858
    1C        C  166   4.515   3.319   4.972
    1C        C  167   4.476   3.186   4.976
    1C        C  168   3.474   2.436   2.071
    1C        C  169   3.399   2.453   2.188
    1C        C  170   3.619   2.469   2.307
    1C        C  171   3.477   2.466   2.305
    1C        C  172   3.692   2.488   2.426
    1C        C  173   3.619   2.482   2.547
    1C        C  174   3.829   2.536   2.667
    1C        C  175   3.691   2.503   2.666
    1C        C  176   3.894   2.565   2.789
    1C        C  177   3.828   2.543   2.912
    1C        C  178   4.027   2.618   3.031
    1C        C  179   3.898   2.561   3.033
    1C        C  180   4.085   2.661   3.152
    1C        C  181   4.022   2.632   3.275
    1C        C  182   4.193   2.754   3.401
    1C        C  183   4.082   2.665   3.398
    1C        C  184   4.245   2.808   3.521
    1C        C  185   4.193   2.759   3.642
    1C        C  186   4.337   2.918   3.764
    1C        C  187   4.246   2.810   3.763
    1C        C  188   4.378   2.976   3.886
    1C        C  189   4.339   2.919   4.009
    1C        C  190   4.443   3.106   4.128
    1C        C  191   4.378   2.980   4.130
    1C        C  192   4.471   3.171   4.250
    1C        C  193   4.447   3.108   4.374
    1C        C  194   4.504   3.315   4.491
    1C        C  195   4.471   3.178   4.494
    1C        C  196   4.518   3.388   4.611
    1C        C  197   4.515   3.318   4.734
    1C        C  198   4.562   3.532   4.851
    1C        C  199   4.539   3.391   4.854
    1C        C  200   4.574   3.616   4.966
    1C        C  201   3.612   2.414   2.075
    1C        C  202   3.824   2.514   2.184
    1C        C  203   3.691   2.461   2.184
    1C        C  204   3.898   2.543   2.303
    1C        C  205   3.829   2.523   2.424
    1C        C  206   4.021   2.620   2.542
    1C        C  207   3.896   2.555   2.544
    1C        C  208   4.082   2.658   2.664
    1C        C  209   4.022   2.625   2.787
    1C        C  210   4.195   2.748   2.908
    1C        C  211   4.082   2.662   2.909
    1C        C  212   4.247   2.797   3.030
    1C        C  213   4.195   2.750   3.153
    1C        C  214   4.327   2.912   3.269
    1C        C  215   4.243   2.799   3.277
    1C        C  216   4.367   2.971   3.391
    1C        C  217   4.334   2.918   3.518
    1C        C  218   4.436   3.102   3.636
    1C        C  219   4.374   2.975   3.640
    1C        C  220   4.459   3.170   3.758
    1C        C  221   4.437   3.104   3.882
    1C        C  222   4.505   3.305   4.002
    1C        C  223   4.468   3.168   4.004
    1C        C  224   4.518   3.378   4.122
    1C        C  225   4.506   3.308   4.244
    1C        C  226   4.526   3.519   4.366
    1C        C  227   4.523   3.378   4.366
    1C        C  228   4.515   3.595   4.484
    1C        C  229   4.523   3.529   4.609
    1C        C  230   4.496   3.738   4.726
    1C        C  231   4.538   3.602   4.729
    1C        C  232   4.488   3.817   4.842
    1C        C  233   4.538   3.750   4.955
    1C        C  234   4.018   2.615   2.062
    1C        C  235   3.894   2.552   2.069
    1C        C  236   4.089   2.644   2.179
    1C        C  237   4.025   2.606   2.299
    1C        C  238   4.201   2.732   2.419
    1C        C  239   4.085   2.649   2.419
    1C        C  240   4.252   2.781   2.541
    1C        C  241   4.199   2.738   2.665
    1C        C  242   4.335   2.904   2.783
    1C        C  243   4.251   2.790   2.785
    1C        C  244   4.376   2.963   2.905
    1C        C  245   4.339   2.903   3.028
    1C        C  246   4.443   3.091   3.148
    1C        C  247   4.376   2.966   3.149
    1C        C  248   4.463   3.161   3.269
    1C        C  249   4.431   3.097   3.391
    1C        C  250   4.497   3.301   3.514
    1C        C  251   4.460   3.165   3.512
    1C        C  252   4.510   3.372   3.636
    1C        C  253   4.502   3.304   3.760
    1C        C  254   4.522   3.517   3.878
    1C        C  255   4.520   3.376   3.880
    1C        C  256   4.520   3.589   4.000
    1C        C  257   4.525   3.519   4.123
    1C        C  258   4.491   3.730   4.240
    1C        C  259   4.522   3.592   4.244
    1C        C  260   4.470   3.800   4.361
    1C        C  261   4.488   3.733   4.484
    1C        C  262   4.426   3.939   4.604
    1C        C  263   4.471   3.805   4.604
    1C        C  264   4.395   4.009   4.722
    1C        C  265   4.434   3.947   4.843
    1C        C  266   4.316   4.128   4.960
    1C        C  267   4.391   4.010   4.960
    1C        C  268   4.261   2.780   2.062
    1C        C  269   4.200   2.732   2.178
    1C        C  270   4.346   2.890   2.298
    1C        C  271   4.251   2.785   2.298
    1C        C  272   4.383   2.951   2.420
    1C        C  273   4.338   2.894   2.541
    1C        C  274   4.446   3.082   2.658
    1C        C  275   4.376   2.959   2.660
    1C        C  276   4.471   3.150   2.779
    1C        C  277   4.442   3.088   2.902
    1C        C  278   4.504   3.291   3.025
    1C        C  279   4.465   3.155   3.024
    1C        C  280   4.519   3.365   3.144
    1C        C  281   4.502   3.297   3.267
    1C        C  282   4.522   3.507   3.387
    1C        C  283   4.514   3.366   3.390
    1C        C  284   4.513   3.579   3.508
    1C        C  285   4.515   3.513   3.633
    1C        C  286   4.497   3.725   3.751
    1C        C  287   4.517   3.585   3.754
    1C        C  288   4.478   3.794   3.873
    1C        C  289   4.494   3.727   3.997
    1C        C  290   4.427   3.930   4.116
    1C        C  291   4.478   3.799   4.118
    1C        C  292   4.391   3.996   4.237
    1C        C  293   4.423   3.934   4.359
    1C        C  294   4.324   4.123   4.480
    1C        C  295   4.397   4.002   4.480
    1C        C  296   4.285   4.190   4.598
    1C        C  297   4.322   4.132   4.721
    1C        C  298   4.201   4.312   4.836
    1C        C  299   4.285   4.197   4.842
    1C        C  300   4.170   4.402   4.943
    1C        C  301   4.348   2.889   2.061
    1C        C  302   4.473   3.069   2.175
    1C        C  303   4.398   2.947   2.178
    1C        C  304   4.478   3.145   2.295
    1C        C  305   4.449   3.076   2.415
    1C        C  306   4.505   3.283   2.536
    1C        C  307   4.477   3.145   2.535
    1C        C  308   4.509   3.356   2.657
    1C        C  309   4.501   3.288   2.781
    1C        C  310   4.525   3.501   2.901
    1C        C  311   4.518   3.359   2.902
    1C        C  312   4.521   3.577   3.020
    1C        C  313   4.524   3.506   3.142
    1C        C  314   4.490   3.715   3.264
    1C        C  315   4.519   3.577   3.264
    1C        C  316   4.478   3.787   3.385
    1C        C  317   4.496   3.720   3.508
    1C        C  318   4.421   3.921   3.627
    1C        C  319   4.476   3.791   3.628
    1C        C  320   4.388   3.986   3.748
    1C        C  321   4.424   3.925   3.871
    1C        C  322   4.317   4.109   3.993
    1C        C  323   4.393   3.989   3.993
    1C        C  324   4.271   4.166   4.114
    1C        C  325   4.317   4.116   4.238
    1C        C  326   4.187   4.285   4.355
    1C        C  327   4.282   4.181   4.358
    1C        C  328   4.135   4.342   4.473
    1C        C  329   4.190   4.295   4.595
    1C        C  330   4.023   4.434   4.713
    1C        C  331   4.137   4.349   4.714
    1C        C  332   3.969   4.488   4.831
    1C        C  333   4.055   4.482   4.942
    1C        C  334   4.543   3.269   2.056
    1C        C  335   4.532   3.130   2.060
    1C        C  336   4.535   3.351   2.170
    1C        C  337   4.509   3.284   2.292
    1C        C  338   4.521   3.495   2.410
    1C        C  339   4.515   3.354   2.414
    1C        C  340   4.519   3.567   2.531
    1C        C  341   4.521   3.496   2.654
    1C        C  342   4.491   3.706   2.772
    1C        C  343   4.515   3.567   2.776
    1C        C  344   4.474   3.777   2.892
    1C        C  345   4.489   3.714   3.018
    1C        C  346   4.419   3.912   3.136
    1C        C  347   4.472   3.782   3.141
    1C        C  348   4.392   3.978   3.258
    1C        C  349   4.432   3.921   3.381
    1C        C  350   4.320   4.102   3.504
    1C        C  351   4.400   3.985   3.503
    1C        C  352   4.270   4.158   3.623
    1C        C  353   4.308   4.103   3.747
    1C        C  354   4.175   4.265   3.867
    1C        C  355   4.270   4.161   3.870
    1C        C  356   4.119   4.311   3.988
    1C        C  357   4.174   4.269   4.111
    1C        C  358   4.014   4.408   4.230
    1C        C  359   4.129   4.325   4.232
    1C        C  360   3.953   4.450   4.350
    1C        C  361   4.018   4.420   4.472
    1C        C  362   3.826   4.520   4.592
    1C        C  363   3.954   4.459   4.592
    1C        C  364   3.758   4.548   4.713
    1C        C  365   3.838   4.541   4.829
    1C        C  366   3.629   4.585   4.951
    1C        C  367   3.768   4.570   4.946
    1C        C  368   4.502   3.566   2.053
    1C        C  369   4.528   3.492   2.169
    1C        C  370   4.506   3.707   2.288
    1C        C  371   4.521   3.566   2.288
    1C        C  372   4.480   3.778   2.407
    1C        C  373   4.497   3.706   2.527
    1C        C  374   4.423   3.905   2.649
    1C        C  375   4.475   3.774   2.649
    1C        C  376   4.393   3.973   2.770
    1C        C  377   4.423   3.909   2.892
    1C        C  378   4.318   4.096   3.013
    1C        C  379   4.393   3.976   3.013
    1C        C  380   4.274   4.152   3.136
    1C        C  381   4.319   4.099   3.259
    1C        C  382   4.174   4.254   3.376
    1C        C  383   4.276   4.156   3.381
    1C        C  384   4.123   4.306   3.497
    1C        C  385   4.173   4.261   3.621
    1C        C  386   4.003   4.387   3.741
    1C        C  387   4.122   4.310   3.744
    1C        C  388   3.945   4.429   3.862
    1C        C  389   4.006   4.395   3.985
    1C        C  390   3.820   4.492   4.109
    1C        C  391   3.950   4.437   4.108
    1C        C  392   3.752   4.520   4.230
    1C        C  393   3.822   4.503   4.351
    1C        C  394   3.614   4.552   4.473
    1C        C  395   3.754   4.531   4.472
    1C        C  396   3.546   4.572   4.595
    1C        C  397   3.619   4.572   4.716
    1C        C  398   3.409   4.550   4.840
    1C        C  399   3.548   4.577   4.838
    1C        C  400   3.341   4.517   4.958
    1C        C  401   4.496   3.705   2.047
    1C        C  402   4.449   3.912   2.165
    1C        C  403   4.492   3.778   2.167
    1C        C  404   4.414   3.979   2.285
    1C        C  405   4.433   3.912   2.407
    1C        C  406   4.323   4.095   2.526
    1C        C  407   4.398   3.975   2.529
    1C        C  408   4.271   4.146   2.647
    1C        C  409   4.316   4.091   2.769
    1C        C  410   4.173   4.249   2.889
    1C        C  411   4.275   4.151   2.890
    1C        C  412   4.122   4.298   3.011
    1C        C  413   4.169   4.246   3.133
    1C        C  414   4.001   4.378   3.253
    1C        C  415   4.114   4.293   3.255
    1C        C  416   3.942   4.418   3.375
    1C        C  417   4.004   4.384   3.497
    1C        C  418   3.815   4.482   3.619
    1C        C  419   3.942   4.421   3.618
    1C        C  420   3.748   4.509   3.741
    1C        C  421   3.817   4.491   3.863
    1C        C  422   3.613   4.533   3.985
    1C        C  423   3.752   4.510   3.987
    1C        C  424   3.544   4.544   4.107
    1C        C  425   3.612   4.538   4.231
    1C        C  426   3.400   4.554   4.356
    1C        C  427   3.541   4.555   4.352
    1C        C  428   3.330   4.555   4.479
    1C        C  429   3.405   4.564   4.598
    1C        C  430   3.196   4.521   4.722
    1C        C  431   3.335   4.551   4.720
    1C        C  432   3.124   4.499   4.842
    1C        C  433   3.203   4.507   4.958
    1C        C  434   4.384   4.123   2.054
    1C        C  435   4.446   3.997   2.054
    1C        C  436   4.304   4.168   2.164
    1C        C  437   4.333   4.096   2.282
    1C        C  438   4.180   4.247   2.401
    1C        C  439   4.280   4.148   2.403
    1C        C  440   4.125   4.296   2.521
    1C        C  441   4.170   4.245   2.645
    1C        C  442   4.005   4.378   2.765
    1C        C  443   4.120   4.296   2.767
    1C        C  444   3.944   4.415   2.887
    1C        C  445   4.005   4.377   3.009
    1C        C  446   3.813   4.471   3.129
    1C        C  447   3.941   4.412   3.130
    1C        C  448   3.747   4.498   3.251
    1C        C  449   3.813   4.474   3.374
    1C        C  450   3.609   4.529   3.498
    1C        C  451   3.747   4.500   3.496
    1C        C  452   3.538   4.541   3.619
    1C        C  453   3.609   4.535   3.741
    1C        C  454   3.399   4.546   3.862
    1C        C  455   3.540   4.543   3.864
    1C        C  456   3.332   4.537   3.986
    1C        C  457   3.402   4.544   4.108
    1C        C  458   3.197   4.504   4.234
    1C        C  459   3.335   4.536   4.232
    1C        C  460   3.129   4.487   4.357
    1C        C  461   3.194   4.516   4.478
    1C        C  462   3.000   4.434   4.604
    1C        C  463   3.128   4.493   4.601
    1C        C  464   2.930   4.401   4.722
    1C        C  465   2.991   4.445   4.842
    1C        C  466   2.799   4.339   4.960
    1C        C  467   2.904   4.432   4.955
    1C        C  468   4.120   4.279   2.041
    1C        C  469   4.190   4.254   2.160
    1C        C  470   4.006   4.374   2.278
    1C        C  471   4.125   4.296   2.280
    1C        C  472   3.942   4.404   2.400
    1C        C  473   4.008   4.375   2.521
    1C        C  474   3.812   4.463   2.641
    1C        C  475   3.943   4.409   2.642
    1C        C  476   3.745   4.489   2.763
    1C        C  477   3.814   4.470   2.885
    1C        C  478   3.608   4.525   3.008
    1C        C  479   3.746   4.493   3.007
    1C        C  480   3.537   4.535   3.130
    1C        C  481   3.609   4.531   3.252
    1C        C  482   3.399   4.540   3.374
    1C        C  483   3.540   4.539   3.375
    1C        C  484   3.326   4.531   3.495
    1C        C  485   3.397   4.541   3.617
    1C        C  486   3.191   4.500   3.745
    1C        C  487   3.327   4.536   3.740
    1C        C  488   3.128   4.473   3.869
    1C        C  489   3.195   4.502   3.990
    1C        C  490   3.008   4.408   4.115
    1C        C  491   3.129   4.481   4.113
    1C        C  492   2.945   4.382   4.239
    1C        C  493   3.003   4.423   4.361
    1C        C  494   2.833   4.300   4.481
    1C        C  495   2.939   4.393   4.483
    1C        C  496   2.781   4.249   4.602
    1C        C  497   2.820   4.310   4.724
    1C        C  498   2.670   4.161   4.847
    1C        C  499   2.756   4.274   4.844
    1C        C  500   2.601   4.114   4.960
    1C        C  501   4.005   4.357   2.040
    1C        C  502   3.817   4.466   2.155
    1C        C  503   3.947   4.411   2.156
    1C        C  504   3.746   4.484   2.275
    1C        C  505   3.810   4.455   2.398
    1C        C  506   3.603   4.505   2.519
    1C        C  507   3.742   4.479   2.520
    1C        C  508   3.535   4.522   2.641
    1C        C  509   3.607   4.519   2.763
    1C        C  510   3.397   4.529   2.885
    1C        C  511   3.538   4.533   2.886
    1C        C  512   3.326   4.525   3.007
    1C        C  513   3.396   4.535   3.130
    1C        C  514   3.191   4.494   3.254
    1C        C  515   3.327   4.531   3.253
    1C        C  516   3.124   4.469   3.376
    1C        C  517   3.190   4.495   3.499
    1C        C  518   3.003   4.404   3.625
    1C        C  519   3.125   4.475   3.623
    1C        C  520   2.946   4.365   3.748
    1C        C  521   3.005   4.402   3.871
    1C        C  522   2.840   4.274   3.998
    1C        C  523   2.949   4.365   3.995
    1C        C  524   2.789   4.231   4.122
    1C        C  525   2.836   4.292   4.240
    1C        C  526   2.698   4.130   4.365
    1C        C  527   2.787   4.240   4.362
    1C        C  528   2.656   4.071   4.486
    1C        C  529   2.691   4.141   4.604
    1C        C  530   2.586   3.962   4.731
    1C        C  531   2.643   4.092   4.727
    1C        C  532   2.547   3.899   4.853
    1C        C  533   2.529   3.994   4.959
    1C        C  534   3.617   4.558   2.038
    1C        C  535   3.751   4.518   2.042
    1C        C  536   3.535   4.542   2.154
    1C        C  537   3.606   4.512   2.273
    1C        C  538   3.396   4.518   2.399
    1C        C  539   3.537   4.524   2.396
    1C        C  540   3.324   4.509   2.521
    1C        C  541   3.394   4.514   2.643
    1C        C  542   3.187   4.479   2.766
    1C        C  543   3.324   4.513   2.766
    1C        C  544   3.123   4.460   2.891
    1C        C  545   3.190   4.490   3.012
    1C        C  546   2.997   4.403   3.136
    1C        C  547   3.122   4.469   3.134
    1C        C  548   2.940   4.363   3.259
    1C        C  549   2.997   4.407   3.380
    1C        C  550   2.835   4.275   3.505
    1C        C  551   2.939   4.371   3.504
    1C        C  552   2.787   4.223   3.627
    1C        C  553   2.836   4.276   3.749
    1C        C  554   2.704   4.117   3.876
    1C        C  555   2.790   4.229   3.874
    1C        C  556   2.664   4.060   3.999
    1C        C  557   2.702   4.120   4.121
    1C        C  558   2.594   3.942   4.245
    1C        C  559   2.661   4.066   4.245
    1C        C  560   2.565   3.878   4.368
    1C        C  561   2.589   3.946   4.489
    1C        C  562   2.528   3.750   4.615
    1C        C  563   2.562   3.887   4.614
    1C        C  564   2.512   3.681   4.737
    1C        C  565   2.519   3.759   4.856
    1C        C  566   2.531   3.548   4.975
    1C        C  567   2.519   3.686   4.976
    1C        C  568   3.328   4.476   2.041
    1C        C  569   3.396   4.515   2.157
    1C        C  570   3.185   4.476   2.283
    1C        C  571   3.322   4.513   2.279
    1C        C  572   3.115   4.457   2.404
    1C        C  573   3.185   4.486   2.524
    1C        C  574   2.988   4.406   2.650
    1C        C  575   3.115   4.467   2.645
    1C        C  576   2.931   4.362   2.772
    1C        C  577   2.996   4.397   2.892
    1C        C  578   2.835   4.264   3.015
    1C        C  579   2.936   4.363   3.016
    1C        C  580   2.791   4.212   3.139
    1C        C  581   2.834   4.270   3.260
    1C        C  582   2.698   4.111   3.384
    1C        C  583   2.783   4.224   3.384
    1C        C  584   2.667   4.051   3.508
    1C        C  585   2.701   4.112   3.631
    1C        C  586   2.593   3.933   3.757
    1C        C  587   2.664   4.056   3.755
    1C        C  588   2.570   3.868   3.881
    1C        C  589   2.598   3.935   4.002
    1C        C  590   2.523   3.739   4.126
    1C        C  591   2.564   3.874   4.125
    1C        C  592   2.510   3.671   4.250
    1C        C  593   2.526   3.743   4.371
    1C        C  594   2.514   3.535   4.496
    1C        C  595   2.513   3.677   4.495
    1C        C  596   2.518   3.465   4.618
    1C        C  597   2.513   3.538   4.739
    1C        C  598   2.539   3.327   4.863
    1C        C  599   2.526   3.467   4.860
    1C        C  600   2.541   3.249   4.980
    1C        C  601   3.194   4.444   2.045
    1C        C  602   2.983   4.391   2.159
    1C        C  603   3.119   4.437   2.163
    1C        C  604   2.926   4.357   2.285
    1C        C  605   2.988   4.396   2.406
    1C        C  606   2.823   4.268   2.529
    1C        C  607   2.932   4.359   2.530
    1C        C  608   2.772   4.220   2.652
    1C        C  609   2.825   4.269   2.773
    1C        C  610   2.688   4.106   2.896
    1C        C  611   2.783   4.211   2.895
    1C        C  612   2.649   4.051   3.020
    1C        C  613   2.694   4.109   3.141
    1C        C  614   2.594   3.923   3.267
    1C        C  615   2.653   4.051   3.264
    1C        C  616   2.568   3.862   3.392
    1C        C  617   2.599   3.927   3.513
    1C        C  618   2.520   3.733   3.637
    1C        C  619   2.566   3.867   3.636
    1C        C  620   2.508   3.665   3.761
    1C        C  621   2.524   3.735   3.883
    1C        C  622   2.505   3.526   4.010
    1C        C  623   2.507   3.667   4.006
    1C        C  624   2.504   3.456   4.133
    1C        C  625   2.501   3.530   4.253
    1C        C  626   2.533   3.322   4.376
    1C        C  627   2.508   3.461   4.376
    1C        C  628   2.556   3.255   4.499
    1C        C  629   2.539   3.325   4.621
    1C        C  630   2.589   3.117   4.742
    1C        C  631   2.553   3.255   4.742
    1C        C  632   2.615   3.051   4.865
    1C        C  633   2.564   3.111   4.985
    1C        C  634   2.784   4.303   2.056
    1C        C  635   2.891   4.392   2.050
    1C        C  636   2.756   4.225   2.169
    1C        C  637   2.812   4.272   2.289
    1C        C  638   2.682   4.104   2.411
    1C        C  639   2.763   4.220   2.411
    1C        C  640   2.641   4.048   2.534
    1C        C  641   2.683   4.111   2.654
    1C        C  642   2.586   3.920   2.775
    1C        C  643   2.645   4.048   2.775
    1C        C  644   2.561   3.857   2.899
    1C        C  645   2.587   3.925   3.020
    1C        C  646   2.522   3.725   3.149
    1C        C  647   2.565   3.860   3.144
    1C        C  648   2.510   3.656   3.271
    1C        C  649   2.524   3.727   3.392
    1C        C  650   2.504   3.521   3.519
    1C        C  651   2.505   3.662   3.516
    1C        C  652   2.511   3.453   3.642
    1C        C  653   2.506   3.524   3.765
    1C        C  654   2.533   3.316   3.889
    1C        C  655   2.512   3.455   3.888
    1C        C  656   2.547   3.247   4.012
    1C        C  657   2.535   3.318   4.133
    1C        C  658   2.602   3.119   4.258
    1C        C  659   2.557   3.253   4.256
    1C        C  660   2.630   3.054   4.380
    1C        C  661   2.600   3.121   4.500
    1C        C  662   2.703   2.936   4.622
    1C        C  663   2.621   3.051   4.621
    1C        C  664   2.747   2.877   4.743
    1C        C  665   2.694   2.932   4.863
    1C        C  666   2.739   2.870   4.980
    1C        C  667   2.678   4.022   2.054
    1C        C  668   2.687   4.102   2.169
    1C        C  669   2.590   3.911   2.291
    1C        C  670   2.646   4.041   2.290
    1C        C  671   2.563   3.847   2.414
    1C        C  672   2.584   3.918   2.534
    1C        C  673   2.517   3.716   2.659
    1C        C  674   2.554   3.852   2.655
    1C        C  675   2.506   3.650   2.783
    1C        C  676   2.526   3.721   2.904
    1C        C  677   2.505   3.513   3.029
    1C        C  678   2.510   3.654   3.027
    1C        C  679   2.505   3.443   3.152
    1C        C  680   2.504   3.515   3.273
    1C        C  681   2.529   3.308   3.401
    1C        C  682   2.507   3.448   3.398
    1C        C  683   2.546   3.242   3.524
    1C        C  684   2.530   3.313   3.645
    1C        C  685   2.600   3.114   3.770
    1C        C  686   2.554   3.247   3.767
    1C        C  687   2.633   3.053   3.893
    1C        C  688   2.599   3.116   4.016
    1C        C  689   2.712   2.936   4.137
    1C        C  690   2.630   3.050   4.137
    1C        C  691   2.757   2.883   4.261
    1C        C  692   2.715   2.941   4.383
    1C        C  693   2.749   2.876   4.503
    1C        C  694   2.630   3.891   2.054
    1C        C  695   2.528   3.704   2.175
    1C        C  696   2.574   3.837   2.171
    1C        C  697   2.505   3.637   2.297
    1C        C  698   2.517   3.713   2.415
    1C        C  699   2.491   3.503   2.541
    1C        C  700   2.505   3.644   2.538
    1C        C  701   2.493   3.434   2.664
    1C        C  702   2.493   3.509   2.784
    1C        C  703   2.522   3.301   2.910
    1C        C  704   2.504   3.441   2.907
    1C        C  705   2.542   3.234   3.033
    1C        C  706   2.528   3.303   3.156
    1C        C  707   2.599   3.107   3.279
    1C        C  708   2.547   3.238   3.279
    1C        C  709   2.627   3.045   3.403
    1C        C  710   2.601   3.111   3.525
    1C        C  711   2.713   2.935   3.649
    1C        C  712   2.630   3.049   3.648
    1C        C  713   2.763   2.885   3.771
    1C        C  714   2.715   2.938   3.893
    1C        C  715   2.754   2.879   4.015
    1C        C  716   2.453   3.495   2.063
    1C        C  717   2.498   3.628   2.061
    1C        C  718   2.465   3.420   2.183
    1C        C  719   2.483   3.497   2.301
    1C        C  720   2.514   3.286   2.425
    1C        C  721   2.488   3.425   2.423
    1C        C  722   2.533   3.222   2.549
    1C        C  723   2.522   3.296   2.669
    1C        C  724   2.590   3.095   2.793
    1C        C  725   2.543   3.228   2.791
    1C        C  726   2.623   3.034   2.916
    1C        C  727   2.593   3.103   3.035
    1C        C  728   2.707   2.923   3.160
    1C        C  729   2.630   3.042   3.157
    1C        C  730   2.754   2.872   3.283
    1C        C  731   2.711   2.931   3.404
    1C        C  732   2.754   2.877   3.527
    1C        C  733   2.490   3.194   2.073
    1C        C  734   2.488   3.278   2.185
    1C        C  735   2.586   3.084   2.303
    1C        C  736   2.527   3.213   2.305
    1C        C  737   2.612   3.022   2.428
    1C        C  738   2.591   3.093   2.548
    1C        C  739   2.696   2.910   2.670
    1C        C  740   2.621   3.030   2.671
    1C        C  741   2.743   2.857   2.792
    1C        C  742   2.704   2.918   2.913
    1C        C  743   2.745   2.864   3.037
    1C        C  744   2.537   3.063   2.072
    1C        C  745   2.690   2.900   2.186
    1C        C  746   2.610   3.016   2.182
    1C        C  747   2.729   2.839   2.308
    1C        C  748   2.688   2.903   2.427
    1C        C  749   2.741   2.854   2.548
    1C        C  750   2.743   2.845   2.069
    1C        C  751   3.666   2.320   1.974
    1C        O  752   3.675   2.202   2.018
    1C        O  753   3.636   2.319   1.837
    1C        C  754   4.573   3.070   1.930
    1C        O  755   4.494   3.066   1.832
    1C        O  756   4.705   3.038   1.897
    1C        C  757   4.463   4.226   1.984
    1C        O  758   4.558   4.288   2.039
    1C        O  759   4.484   4.233   1.845
    1C        C  760   3.599   4.667   1.939
    1C        O  761   3.599   4.783   1.987
    1C        O  762   3.568   4.646   1.804
    1C        C  763   2.858   4.522   1.987
    1C        O  764   2.868   4.523   1.862
    1C        O  765   2.760   4.610   2.035
    1C        C  766   2.340   3.478   1.968
    1C        O  767   2.364   3.434   1.853
    1C        O  768   2.213   3.533   1.991
    1C        C  769   4.674   3.584   5.071
    1C        O  770   4.647   3.595   5.193
    1C        O  771   4.806   3.613   5.032
    1C        C  772   4.272   4.450   5.039
    1C        O  773   4.248   4.454   5.162
    1C        O  774   4.344   4.566   5.007
    1C        C  775   4.149   2.521   5.075
    1C        O  776   4.230   2.437   5.028
    1C        O  777   4.167   2.561   5.208
    1C        C  778   2.870   4.557   5.027
    1C        O  779   2.749   4.592   5.026
    1C        O  780   2.929   4.574   5.153
    1C        C  781   2.469   3.030   5.063
    1C        O  782   2.364   2.987   5.007
    1C        O  783   2.456   3.023   5.202
    1C        C  784   2.402   3.995   5.034
    1C        O  785   2.290   4.012   4.979
    1C        O  786   2.393   4.061   5.157
    1C        C  787   2.951   2.406   2.020
    1C        O  788   2.903   2.424   1.905
    1C        O  789   2.893   2.305   2.095
    1C        C  790   3.173   2.377   5.068
    1C        O  791   3.074   2.299   5.068
    1C        O  792   3.277   2.329   5.148
    1C        H  793   4.251   3.039   5.036
    1C        H  794   4.165   2.825   5.072
    1C        H  795   4.510   3.114   5.049
    1C        H  796   4.522   3.370   5.066
    1C        H  797   4.559   3.810   5.041
    1C        H  798   4.421   3.973   5.056
    1C        H  799   4.272   4.152   5.054
    1C        H  800   4.070   4.581   4.980
    1C        H  801   3.833   4.606   5.023
    1C        H  802   3.589   4.623   5.043
    1C        H  803   3.379   4.559   5.049
    1C        H  804   3.152   4.533   5.048
    1C        H  805   3.895   2.478   5.061
    1C        H  806   3.672   2.413   5.057
    1C        H  807   3.001   2.550   5.062
    1C        H  808   3.446   2.507   5.072
    1C        H  809   2.901   2.780   5.070
    1C        H  810   2.665   2.870   5.058
    1C        H  811   2.534   3.299   5.075
    1C        H  812   2.543   3.506   5.072
    1C        H  813   2.538   3.738   5.067
    1C        H  814   2.628   4.150   5.057
    1C        H  815   2.737   4.338   5.047
    1C        H  816   2.748   2.903   1.979
    1C        H  817   2.805   2.660   1.993
    1C        H  818   3.220   2.466   1.983
    1C        H  819   3.434   2.478   1.981
    1C        H  820   3.830   2.565   1.984
    1C        H  821   4.066   2.610   1.967
    1C        H  822   4.260   2.733   1.966
    1C        H  823   4.389   2.922   1.968
    1C        H  824   4.610   3.310   1.983
    1C        H  825   4.427   3.527   1.987
    1C        H  826   4.536   3.748   1.958
    1C        H  827   3.809   4.542   1.955
    1C        H  828   3.952   4.373   1.949
    1C        H  829   4.105   4.194   1.978
    1C        H  830   4.490   3.959   1.964
    1C        H  831   2.633   3.842   1.959
    1C        H  832   2.698   4.061   1.957
    1C        H  833   2.709   4.311   1.980
    1C        H  834   3.373   4.499   1.947
    1C        H  835   3.141   4.443   1.952
    1C        H  836   2.461   2.997   2.037
    1C        H  837   2.426   3.220   1.991
    1C        H  838   2.530   3.660   1.964
    2V3OU   H29  839   2.802   3.547   1.542
    2V3OU   C27  840   2.783   3.505   1.644
    2V3OU   H27  841   2.731   3.575   1.715
    2V3OU   H28  842   2.733   3.407   1.627
    2V3OU   O11  843   2.907   3.481   1.711
    2V3OU   C15  844   2.917   3.398   1.821
    2V3OU   C13  845   3.049   3.376   1.866
    2V3OU   C14  846   3.081   3.265   1.946
    2V3OU   C16  847   2.974   3.187   1.988
    2V3OU    H6  848   2.993   3.102   2.056
    2V3OU   C12  849   3.216   3.230   1.994
    2V3OU    O2  850   3.238   3.122   2.052
    2V3OU   C10  851   3.328   3.313   1.947
    2V3OU    C8  852   3.457   3.270   1.976
    2V3OU   O10  853   3.490   3.150   2.031
    2V3OU   H26  854   3.403   3.109   2.041
    2V3OU    C6  855   3.564   3.351   1.930
    2V3OU    C5  856   3.536   3.463   1.852
    2V3OU    C4  857   3.703   3.298   1.926
    2V3OU    H4  858   3.726   3.233   2.015
    2V3OU    H5  859   3.710   3.228   1.837
    2V3OU    C2  860   3.816   3.401   1.916
    2V3OU    O6  861   3.821   3.483   2.033
    2V3OU   H21  862   3.753   3.549   2.010
    2V3OU    C3  863   3.782   3.495   1.800
    2V3OU    H2  864   3.861   3.575   1.798
    2V3OU    H3  865   3.782   3.438   1.703
    2V3OU   C25  866   3.947   3.325   1.900
    2V3OU    O7  867   3.989   3.291   1.790
    2V3OU   C26  868   4.024   3.291   2.027
    2V3OU   H22  869   4.059   3.388   2.069
    2V3OU   H23  870   4.115   3.230   2.001
    2V3OU    O8  871   3.950   3.211   2.116
    2V3OU   H24  872   3.925   3.269   2.189
    2V3OU    C1  873   3.645   3.559   1.814
    2V3OU    H1  874   3.623   3.614   1.718
    2V3OU    O3  875   3.658   3.657   1.918
    2V3OU   C19  876   3.613   3.791   1.899
    2V3OU    H9  877   3.522   3.794   1.833
    2V3OU    O4  878   3.710   3.850   1.816
    2V3OU   C20  879   3.841   3.874   1.869
    2V3OU   H10  880   3.893   3.774   1.877
    2V3OU   C24  881   3.610   3.848   2.041
    2V3OU   H16  882   3.540   3.791   2.108
    2V3OU   H17  883   3.568   3.952   2.035
    2V3OU   C23  884   3.751   3.871   2.096
    2V3OU   H15  885   3.792   3.768   2.120
    2V3OU    N1  886   3.737   3.954   2.214
    2V3OU   H19  887   3.800   3.923   2.286
    2V3OU   H20  888   3.641   3.932   2.229
    2V3OU   C21  889   3.847   3.950   2.002
    2V3OU   H11  890   3.950   3.925   2.041
    2V3OU    O5  891   3.826   4.090   1.999
    2V3OU   H18  892   3.785   4.103   2.086
    2V3OU   C22  893   3.912   3.948   1.757
    2V3OU   H12  894   3.862   4.047   1.742
    2V3OU   H13  895   3.904   3.891   1.661
    2V3OU   H14  896   4.021   3.958   1.783
    2V3OU   C11  897   3.157   3.471   1.840
    2V3OU    O1  898   3.137   3.582   1.785
    2V3OU    C9  899   3.295   3.432   1.876
    2V3OU    C7  900   3.402   3.507   1.827
    2V3OU    O9  901   3.387   3.613   1.740
    2V3OU   H25  902   3.291   3.626   1.748
    2V3OU   C17  903   2.814   3.314   1.868
    2V3OU    H7  904   2.716   3.346   1.833
    2V3OU   C18  905   2.841   3.207   1.953
    2V3OU    H8  906   2.759   3.147   1.995
    3SOL     OW  907   1.313   3.426   1.482
    3SOL    HW1  908   1.286   3.432   1.386
    3SOL    HW2  909   1.290   3.336   1.518
    4SOL     OW  910   5.846   0.587   1.943
    4SOL    HW1  911   5.828   0.531   2.024
    4SOL    HW2  912   5.851   0.528   1.862
    5SOL     OW  913   4.276   1.982   0.828
    5SOL    HW1  914   4.333   1.937   0.897
    5SOL    HW2  915   4.180   1.976   0.855
    6SOL     OW  916   2.891   1.969   1.808
    6SOL    HW1  917   2.943   2.008   1.883
    6SOL    HW2  918   2.817   1.911   1.844
    7SOL     OW  919   5.435   1.821   2.126
    7SOL    HW1  920   5.461   1.822   2.029
    7SOL    HW2  921   5.389   1.906   2.150
    8SOL     OW  922   2.570   0.613   4.083
    8SOL    HW1  923   2.479   0.604   4.042
    8SOL    HW2  924   2.585   0.709   4.108
    9SOL     OW  925   1.671   4.165   6.066
    9SOL    HW1  926   1.577   4.198   6.061
    9SOL    HW2  927   1.733   4.235   6.031
   10SOL     OW  928   1.010   4.292   6.343
   10SOL    HW1  929   0.995   4.202   6.385
   10SOL    HW2  930   0.998   4.364   6.411
   11SOL     OW  931   4.223   6.665   0.014
   11SOL    HW1  932   4.225   6.608   6.955
   11SOL    HW2  933   4.307   6.718   0.019
   12SOL     OW  934   5.554   6.041   2.561
   12SOL    HW1  935   5.548   6.101   2.481
   12SOL    HW2  936   5.543   6.094   2.644
   13SOL     OW  937   3.095   6.125   3.476
   13SOL    HW1  938   3.150   6.188   3.421
   13SOL    HW2  939   3.001   6.126   3.442
   14SOL     OW  940   3.733   6.500   0.549
   14SOL    HW1  941   3.786   6.451   0.480
   14SOL    HW2  942   3.794   6.561   0.600
   15SOL     OW  943   1.094   6.651   6.840
   15SOL    HW1  944   1.115   6.555   6.823
   15SOL    HW2  945   1.150   6.685   6.915
   16SOL     OW  946   6.310   2.613   6.148
   16SOL    HW1  947   6.305   2.712   6.161
   16SOL    HW2  948   6.379   2.575   6.209
   17SOL     OW  949   5.247   6.620   4.126
   17SOL    HW1  950   5.214   6.708   4.162
   17SOL    HW2  951   5.179   6.581   4.065
   18SOL     OW  952   1.783   1.965   5.847
   18SOL    HW1  953   1.787   1.963   5.748
   18SOL    HW2  954   1.799   2.059   5.879
   19SOL     OW  955   0.634   0.096   2.420
   19SOL    HW1  956   0.632   0.186   2.376
   19SOL    HW2  957   0.676   0.030   2.358
   20SOL     OW  958   3.664   1.850   4.028
   20SOL    HW1  959   3.634   1.757   4.050
   20SOL    HW2  960   3.602   1.915   4.072
   21SOL     OW  961   3.240   1.472   1.277
   21SOL    HW1  962   3.253   1.522   1.192
   21SOL    HW2  963   3.295   1.514   1.349
   22SOL     OW  964   2.101   6.179   5.923
   22SOL    HW1  965   2.011   6.145   5.951
   22SOL    HW2  966   2.099   6.203   5.826
   23SOL     OW  967   4.063   6.388   4.500
   23SOL    HW1  968   4.054   6.484   4.524
   23SOL    HW2  969   4.111   6.340   4.573
   24SOL     OW  970   5.283   1.404   5.010
   24SOL    HW1  971   5.202   1.403   5.069
   24SOL    HW2  972   5.265   1.349   4.928
   25SOL     OW  973   4.010   5.881   0.726
   25SOL    HW1  974   3.912   5.888   0.706
   25SOL    HW2  975   4.031   5.937   0.806
   26SOL     OW  976   6.581   1.309   2.215
   26SOL    HW1  977   6.560   1.219   2.178
   26SOL    HW2  978   6.512   1.375   2.183
   27SOL     OW  979   6.188   0.526   2.913
   27SOL    HW1  980   6.116   0.459   2.931
   27SOL    HW2  981   6.187   0.595   2.985
   28SOL     OW  982   3.921   0.408   0.114
   28SOL    HW1  983   3.876   0.495   0.095
   28SOL    HW2  984   3.852   0.338   0.134
   29SOL     OW  985   4.483   2.559   1.303
   29SOL    HW1  986   4.550   2.497   1.345
   29SOL    HW2  987   4.490   2.649   1.346
   30SOL     OW  988   3.229   1.134   4.904
   30SOL    HW1  989   3.172   1.170   4.831
   30SOL    HW2  990   3.196   1.167   4.992
   31SOL     OW  991   0.800   1.160   4.990
   31SOL    HW1  992   0.860   1.236   5.018
   31SOL    HW2  993   0.721   1.197   4.942
   32SOL     OW  994   0.428   2.003   1.604
   32SOL    HW1  995   0.460   2.003   1.509
   32SOL    HW2  996   0.340   1.956   1.610
   33SOL     OW  997   1.882   2.613   6.426
   33SOL    HW1  998   1.875   2.570   6.516
   33SOL    HW2  999   1.837   2.702   6.428
   34SOL     OW 1000   1.981   0.295   4.821
   34SOL    HW1 1001   1.928   0.328   4.743
   34SOL    HW2 1002   1.948   0.206   4.850
   35SOL     OW 1003   5.088   1.585   0.169
   35SOL    HW1 1004   5.169   1.616   0.118
   35SOL    HW2 1005   5.054   1.500   0.128
   36SOL     OW 1006   1.536   1.325   5.445
   36SOL    HW1 1007   1.492   1.236   5.430
   36SOL    HW2 1008   1.603   1.317   5.518
   37SOL     OW 1009   3.157   6.637   1.427
   37SOL    HW1 1010   3.236   6.601   1.477
   37SOL    HW2 1011   3.170   6.624   1.329
   38SOL     OW 1012   6.907   6.557   3.143
   38SOL    HW1 1013   6.850   6.635   3.119
   38SOL    HW2 1014   6.996   6.565   3.097
   39SOL     OW 1015   6.806   3.205   5.046
   39SOL    HW1 1016   6.843   3.255   5.124
   39SOL    HW2 1017   6.730   3.147   5.075
   40SOL     OW 1018   6.122   0.953   2.677
   40SOL    HW1 1019   6.077   0.901   2.750
   40SOL    HW2 1020   6.172   0.891   2.617
   41SOL     OW 1021   1.419   6.765   4.960
   41SOL    HW1 1022   1.372   6.853   4.971
   41SOL    HW2 1023   1.351   6.692   4.948
   42SOL     OW 1024   3.688   0.222   6.672
   42SOL    HW1 1025   3.597   0.260   6.686
   42SOL    HW2 1026   3.745   0.240   6.752
   43SOL     OW 1027   5.660   6.484   5.249
   43SOL    HW1 1028   5.633   6.392   5.222
   43SOL    HW2 1029   5.701   6.481   5.340
   44SOL     OW 1030   0.754   2.464   6.295
   44SOL    HW1 1031   0.677   2.477   6.232
   44SOL    HW2 1032   0.726   2.491   6.387
   45SOL     OW 1033   2.410   0.848   2.019
   45SOL    HW1 1034   2.454   0.876   2.105
   45SOL    HW2 1035   2.373   0.929   1.973
   46SOL     OW 1036   1.738   4.010   4.729
   46SOL    HW1 1037   1.720   4.075   4.803
   46SOL    HW2 1038   1.830   4.025   4.693
   47SOL     OW 1039   6.725   4.366   3.553
   47SOL    HW1 1040   6.718   4.280   3.501
   47SOL    HW2 1041   6.809   4.366   3.606
   48SOL     OW 1042   0.286   2.124   5.121
   48SOL    HW1 1043   0.202   2.071   5.133
   48SOL    HW2 1044   0.263   2.219   5.101
   49SOL     OW 1045   4.554   2.850   0.609
   49SOL    HW1 1046   4.631   2.914   0.617
   49SOL    HW2 1047   4.543   2.801   0.696
   50SOL     OW 1048   6.581   3.965   4.295
   50SOL    HW1 1049   6.614   3.895   4.358
   50SOL    HW2 1050   6.585   3.930   4.202
   51SOL     OW 1051   3.644   4.869   3.060
   51SOL    HW1 1052   3.647   4.947   2.998
   51SOL    HW2 1053   3.714   4.802   3.034
   52SOL     OW 1054   2.261   1.550   2.197
   52SOL    HW1 1055   2.176   1.603   2.203
   52SOL    HW2 1056   2.282   1.530   2.102
   53SOL     OW 1057   5.085   6.942   4.647
   53SOL    HW1 1058   5.137   6.859   4.669
   53SOL    HW2 1059   5.094   6.961   4.549
   54SOL     OW 1060   3.622   4.972   5.464
   54SOL    HW1 1061   3.629   4.881   5.504
   54SOL    HW2 1062   3.647   4.969   5.367
   55SOL     OW 1063   4.065   2.083   6.153
   55SOL    HW1 1064   4.093   2.136   6.233
   55SOL    HW2 1065   4.135   2.016   6.131
   56SOL     OW 1066   1.050   0.446   2.655
   56SOL    HW1 1067   1.125   0.492   2.607
   56SOL    HW2 1068   0.995   0.513   2.703
   57SOL     OW 1069   5.209   1.045   0.418
   57SOL    HW1 1070   5.188   1.074   0.325
   57SOL    HW2 1071   5.126   1.049   0.474
   58SOL     OW 1072   0.326   5.934   6.812
   58SOL    HW1 1073   0.309   5.891   6.901
   58SOL    HW2 1074   0.363   5.867   6.748
   59SOL     OW 1075   1.078   0.523   6.202
   59SOL    HW1 1076   1.074   0.623   6.203
   59SOL    HW2 1077   1.168   0.494   6.171
   60SOL     OW 1078   4.737   0.126   5.500
   60SOL    HW1 1079   4.816   0.182   5.523
   60SOL    HW2 1080   4.706   0.148   5.408
   61SOL     OW 1081   5.024   0.152   4.025
   61SOL    HW1 1082   5.027   0.062   3.982
   61SOL    HW2 1083   5.114   0.196   4.018
   62SOL     OW 1084   1.639   0.409   4.068
   62SOL    HW1 1085   1.573   0.402   4.142
   62SOL    HW2 1086   1.658   0.505   4.049
   63SOL     OW 1087   6.704   2.754   3.162
   63SOL    HW1 1088   6.783   2.701   3.193
   63SOL    HW2 1089   6.733   2.815   3.087
   64SOL     OW 1090   6.212   3.949   6.609
   64SOL    HW1 1091   6.181   3.856   6.587
   64SOL    HW2 1092   6.289   3.974   6.550
   65SOL     OW 1093   0.095   4.713   4.929
   65SOL    HW1 1094   0.005   4.757   4.932
   65SOL    HW2 1095   0.164   4.777   4.964
   66SOL     OW 1096   3.171   0.244   0.066
   66SOL    HW1 1097   3.230   0.207   0.137
   66SOL    HW2 1098   3.076   0.227   0.089
   67SOL     OW 1099   5.450   5.884   4.998
   67SOL    HW1 1100   5.417   5.863   5.090
   67SOL    HW2 1101   5.373   5.904   4.938
   68SOL     OW 1102   6.121   2.123   6.121
   68SOL    HW1 1103   6.101   2.117   6.218
   68SOL    HW2 1104   6.146   2.217   6.097
   69SOL     OW 1105   3.114   4.204   6.209
   69SOL    HW1 1106   3.142   4.297   6.234
   69SOL    HW2 1107   3.184   4.139   6.236
   70SOL     OW 1108   0.037   5.679   2.888
   70SOL    HW1 1109   0.058   5.608   2.955
   70SOL    HW2 1110   0.107   5.750   2.891
   71SOL     OW 1111   1.907   2.808   3.441
   71SOL    HW1 1112   1.904   2.735   3.509
   71SOL    HW2 1113   1.897   2.897   3.487
   72SOL     OW 1114   2.861   5.578   3.769
   72SOL    HW1 1115   2.780   5.636   3.759
   72SOL    HW2 1116   2.884   5.538   3.681
   73SOL     OW 1117   3.824   1.800   0.469
   73SOL    HW1 1118   3.905   1.858   0.469
   73SOL    HW2 1119   3.746   1.851   0.506
   74SOL     OW 1120   5.131   6.365   6.411
   74SOL    HW1 1121   5.099   6.276   6.445
   74SOL    HW2 1122   5.220   6.354   6.368
   75SOL     OW 1123   3.588   5.783   6.039
   75SOL    HW1 1124   3.491   5.765   6.022
   75SOL    HW2 1125   3.601   5.879   6.061
   76SOL     OW 1126   1.954   2.362   1.300
   76SOL    HW1 1127   1.885   2.424   1.262
   76SOL    HW2 1128   2.015   2.332   1.226
   77SOL     OW 1129   5.944   5.047   5.291
   77SOL    HW1 1130   5.979   5.141   5.285
   77SOL    HW2 1131   6.015   4.988   5.330
   78SOL     OW 1132   6.466   6.227   5.142
   78SOL    HW1 1133   6.427   6.262   5.227
   78SOL    HW2 1134   6.541   6.287   5.113
   79SOL     OW 1135   3.613   6.862   0.672
   79SOL    HW1 1136   3.524   6.853   0.717
   79SOL    HW2 1137   3.685   6.832   0.735
   80SOL     OW 1138   0.388   1.683   4.536
   80SOL    HW1 1139   0.318   1.738   4.490
   80SOL    HW2 1140   0.396   1.712   4.632
   81SOL     OW 1141   1.713   1.071   2.772
   81SOL    HW1 1142   1.691   1.101   2.864
   81SOL    HW2 1143   1.670   0.982   2.754
   82SOL     OW 1144   6.545   4.877   6.204
   82SOL    HW1 1145   6.572   4.796   6.257
   82SOL    HW2 1146   6.445   4.883   6.202
   83SOL     OW 1147   0.122   6.342   0.269
   83SOL    HW1 1148   0.193   6.351   0.200
   83SOL    HW2 1149   0.039   6.388   0.238
   84SOL     OW 1150   5.137   3.593   1.707
   84SOL    HW1 1151   5.116   3.513   1.763
   84SOL    HW2 1152   5.111   3.676   1.757
   85SOL     OW 1153   0.958   1.871   5.413
   85SOL    HW1 1154   0.890   1.813   5.370
   85SOL    HW2 1155   0.913   1.951   5.453
   86SOL     OW 1156   0.604   0.457   5.730
   86SOL    HW1 1157   0.521   0.513   5.739
   86SOL    HW2 1158   0.614   0.428   5.635
   87SOL     OW 1159   4.463   2.191   0.501
   87SOL    HW1 1160   4.529   2.130   0.457
   87SOL    HW2 1161   4.387   2.138   0.538
   88SOL     OW 1162   5.345   1.187   0.822
   88SOL    HW1 1163   5.399   1.171   0.739
   88SOL    HW2 1164   5.379   1.270   0.868
   89SOL     OW 1165   1.738   2.822   6.532
   89SOL    HW1 1166   1.794   2.900   6.563
   89SOL    HW2 1167   1.720   2.761   6.609
   90SOL     OW 1168   5.563   6.023   3.792
   90SOL    HW1 1169   5.561   6.043   3.890
   90SOL    HW2 1170   5.586   6.107   3.742
   91SOL     OW 1171   4.824   4.844   4.660
   91SOL    HW1 1172   4.810   4.749   4.685
   91SOL    HW2 1173   4.912   4.854   4.612
   92SOL     OW 1174   3.294   4.370   1.159
   92SOL    HW1 1175   3.301   4.287   1.213
   92SOL    HW2 1176   3.268   4.447   1.217
   93SOL     OW 1177   3.608   5.035   5.905
   93SOL    HW1 1178   3.568   4.955   5.862
   93SOL    HW2 1179   3.549   5.114   5.889
   94SOL     OW 1180   2.776   5.772   0.149
   94SOL    HW1 1181   2.727   5.826   0.082
   94SOL    HW2 1182   2.816   5.691   0.105
   95SOL     OW 1183   0.311   0.120   4.117
   95SOL    HW1 1184   0.292   0.212   4.081
   95SOL    HW2 1185   0.328   0.058   4.041
   96SOL     OW 1186   2.032   7.005   5.239
   96SOL    HW1 1187   1.966   6.960   5.300
   96SOL    HW2 1188   1.989   0.061   5.196
   97SOL     OW 1189   6.002   3.455   3.907
   97SOL    HW1 1190   5.928   3.478   3.970
   97SOL    HW2 1191   6.049   3.372   3.939
   98SOL     OW 1192   5.233   2.367   6.100
   98SOL    HW1 1193   5.270   2.391   6.010
   98SOL    HW2 1194   5.297   2.397   6.171
   99SOL     OW 1195   3.990   2.601   0.691
   99SOL    HW1 1196   3.973   2.665   0.766
   99SOL    HW2 1197   4.077   2.624   0.647
  100SOL     OW 1198   0.510   5.895   6.378
  100SOL    HW1 1199   0.570   5.815   6.377
  100SOL    HW2 1200   0.441   5.886   6.307
  101SOL     OW 1201   1.154   5.957   4.446
  101SOL    HW1 1202   1.161   5.984   4.350
  101SOL    HW2 1203   1.058   5.944   4.470
  102SOL     OW 1204   3.437   0.721   3.270
  102SOL    HW1 1205   3.470   0.683   3.184
  102SOL    HW2 1206   3.442   0.652   3.342
  103SOL     OW 1207   4.130   2.216   1.390
  103SOL    HW1 1208   4.089   2.301   1.356
  103SOL    HW2 1209   4.143   2.222   1.489
  104SOL     OW 1210   6.704   5.304   2.362
  104SOL    HW1 1211   6.712   5.379   2.296
  104SOL    HW2 1212   6.705   5.342   2.455
  105SOL     OW 1213   6.065   0.917   6.779
  105SOL    HW1 1214   6.062   0.925   6.679
  105SOL    HW2 1215   5.998   0.980   6.819
  106SOL     OW 1216   3.002   6.659   6.740
  106SOL    HW1 1217   3.035   6.702   6.656
  106SOL    HW2 1218   2.968   6.568   6.720
  107SOL     OW 1219   1.544   2.572   0.516
  107SOL    HW1 1220   1.623   2.511   0.519
  107SOL    HW2 1221   1.575   2.667   0.522
  108SOL     OW 1222   4.708   4.699   6.048
  108SOL    HW1 1223   4.735   4.787   6.009
  108SOL    HW2 1224   4.771   4.675   6.123
  109SOL     OW 1225   0.305   0.307   0.666
  109SOL    HW1 1226   0.220   0.356   0.685
  109SOL    HW2 1227   0.353   0.290   0.752
  110SOL     OW 1228   3.640   5.875   5.560
  110SOL    HW1 1229   3.541   5.887   5.553
  110SOL    HW2 1230   3.684   5.909   5.477
  111SOL     OW 1231   3.847   0.777   3.493
  111SOL    HW1 1232   3.848   0.729   3.405
  111SOL    HW2 1233   3.830   0.712   3.567
  112SOL     OW 1234   6.311   6.116   5.600
  112SOL    HW1 1235   6.314   6.141   5.697
  112SOL    HW2 1236   6.271   6.025   5.591
  113SOL     OW 1237   6.949   4.358   3.869
  113SOL    HW1 1238   7.018   4.377   3.940
  113SOL    HW2 1239   6.925   4.261   3.870
  114SOL     OW 1240   0.498   6.757   0.285
  114SOL    HW1 1241   0.591   6.745   0.249
  114SOL    HW2 1242   0.474   6.854   0.283
  115SOL     OW 1243   4.903   1.588   3.963
  115SOL    HW1 1244   4.866   1.601   4.055
  115SOL    HW2 1245   4.969   1.513   3.964
  116SOL     OW 1246   6.047   4.874   2.025
  116SOL    HW1 1247   6.100   4.875   2.110
  116SOL    HW2 1248   5.970   4.810   2.035
  117SOL     OW 1249   1.258   0.228   6.468
  117SOL    HW1 1250   1.349   0.268   6.458
  117SOL    HW2 1251   1.264   0.129   6.457
  118SOL     OW 1252   0.262   0.857   1.995
  118SOL    HW1 1253   0.281   0.849   1.897
  118SOL    HW2 1254   0.184   0.799   2.019
  119SOL     OW 1255   6.746   2.816   6.230
  119SOL    HW1 1256   6.646   2.825   6.231
  119SOL    HW2 1257   6.775   2.768   6.148
  120SOL     OW 1258   6.408   6.528   1.261
  120SOL    HW1 1259   6.461   6.574   1.331
  120SOL    HW2 1260   6.364   6.447   1.300
  121SOL     OW 1261   2.166   3.612   6.546
  121SOL    HW1 1262   2.094   3.592   6.480
  121SOL    HW2 1263   2.228   3.680   6.508
  122SOL     OW 1264   0.704   3.528   5.071
  122SOL    HW1 1265   0.802   3.513   5.088
  122SOL    HW2 1266   0.690   3.540   4.973
  123SOL     OW 1267   0.209   1.442   1.369
  123SOL    HW1 1268   0.209   1.411   1.274
  123SOL    HW2 1269   0.252   1.532   1.374
  124SOL     OW 1270   5.172   3.229   0.207
  124SOL    HW1 1271   5.245   3.280   0.161
  124SOL    HW2 1272   5.204   3.200   0.298
  125SOL     OW 1273   1.644   2.624   2.199
  125SOL    HW1 1274   1.590   2.639   2.116
  125SOL    HW2 1275   1.609   2.681   2.273
  126SOL     OW 1276   2.801   4.663   0.984
  126SOL    HW1 1277   2.766   4.747   1.026
  126SOL    HW2 1278   2.757   4.584   1.027
  127SOL     OW 1279   0.146   5.213   6.125
  127SOL    HW1 1280   0.085   5.159   6.068
  127SOL    HW2 1281   0.098   5.242   6.208
  128SOL     OW 1282   4.412   2.819   1.420
  128SOL    HW1 1283   4.382   2.894   1.361
  128SOL    HW2 1284   4.468   2.856   1.494
  129SOL     OW 1285   3.357   3.770   6.416
  129SOL    HW1 1286   3.453   3.747   6.436
  129SOL    HW2 1287   3.325   3.715   6.339
  130SOL     OW 1288   0.916   1.130   4.140
  130SOL    HW1 1289   1.013   1.110   4.152
  130SOL    HW2 1290   0.890   1.208   4.197
  131SOL     OW 1291   4.525   1.399   2.650
  131SOL    HW1 1292   4.434   1.398   2.692
  131SOL    HW2 1293   4.532   1.477   2.588
  132SOL     OW 1294   0.666   2.913   1.799
  132SOL    HW1 1295   0.675   2.864   1.886
  132SOL    HW2 1296   0.696   3.008   1.812
  133SOL     OW 1297   6.396   5.918   2.513
  133SOL    HW1 1298   6.354   5.873   2.435
  133SOL    HW2 1299   6.361   6.012   2.520
  134SOL     OW 1300   6.746   3.466   3.090
  134SOL    HW1 1301   6.721   3.371   3.067
  134SOL    HW2 1302   6.722   3.526   3.015
  135SOL     OW 1303   5.455   1.865   4.014
  135SOL    HW1 1304   5.418   1.809   4.088
  135SOL    HW2 1305   5.384   1.928   3.982
  136SOL     OW 1306   5.203   4.042   5.480
  136SOL    HW1 1307   5.195   4.141   5.482
  136SOL    HW2 1308   5.184   4.008   5.387
  137SOL     OW 1309   5.221   0.076   6.046
  137SOL    HW1 1310   5.221   0.014   5.968
  137SOL    HW2 1311   5.221   0.170   6.014
  138SOL     OW 1312   7.022   5.136   4.558
  138SOL    HW1 1313   6.946   5.199   4.572
  138SOL    HW2 1314   0.014   5.123   4.460
  139SOL     OW 1315   3.115   4.713   5.254
  139SOL    HW1 1316   3.066   4.765   5.324
  139SOL    HW2 1317   3.052   4.647   5.212
  140SOL     OW 1318   5.497   5.205   4.201
  140SOL    HW1 1319   5.562   5.155   4.144
  140SOL    HW2 1320   5.412   5.153   4.208
  141SOL     OW 1321   1.028   1.785   4.868
  141SOL    HW1 1322   0.933   1.788   4.838
  141SOL    HW2 1323   1.087   1.773   4.788
  142SOL     OW 1324   1.657   6.324   1.301
  142SOL    HW1 1325   1.678   6.254   1.370
  142SOL    HW2 1326   1.727   6.322   1.230
  143SOL     OW 1327   4.919   4.934   2.311
  143SOL    HW1 1328   4.839   4.903   2.259
  143SOL    HW2 1329   4.891   4.953   2.405
  144SOL     OW 1330   1.722   6.434   6.756
  144SOL    HW1 1331   1.634   6.479   6.757
  144SOL    HW2 1332   1.749   6.413   6.662
  145SOL     OW 1333   0.522   5.252   0.861
  145SOL    HW1 1334   0.441   5.218   0.812
  145SOL    HW2 1335   0.555   5.335   0.817
  146SOL     OW 1336   5.284   6.520   0.962
  146SOL    HW1 1337   5.255   6.597   1.019
  146SOL    HW2 1338   5.203   6.471   0.929
  147SOL     OW 1339   6.851   2.527   0.748
  147SOL    HW1 1340   6.886   2.618   0.769
  147SOL    HW2 1341   6.924   2.460   0.758
  148SOL     OW 1342   1.048   5.066   5.813
  148SOL    HW1 1343   1.007   5.150   5.849
  148SOL    HW2 1344   1.122   5.090   5.749
  149SOL     OW 1345   2.847   1.144   4.514
  149SOL    HW1 1346   2.791   1.160   4.595
  149SOL    HW2 1347   2.931   1.097   4.541
  150SOL     OW 1348   6.738   4.773   0.013
  150SOL    HW1 1349   6.700   4.838   6.970
  150SOL    HW2 1350   6.664   4.728   0.062
  151SOL     OW 1351   4.068   1.509   1.430
  151SOL    HW1 1352   4.114   1.587   1.472
  151SOL    HW2 1353   4.073   1.517   1.331
  152SOL     OW 1354   2.459   0.821   4.605
  152SOL    HW1 1355   2.375   0.785   4.645
  152SOL    HW2 1356   2.437   0.868   4.520
  153SOL     OW 1357   2.041   1.065   2.914
  153SOL    HW1 1358   2.094   1.146   2.893
  153SOL    HW2 1359   1.980   1.084   2.992
  154SOL     OW 1360   6.727   2.235   2.137
  154SOL    HW1 1361   6.646   2.241   2.078
  154SOL    HW2 1362   6.780   2.319   2.127
  155SOL     OW 1363   7.003   0.809   2.788
  155SOL    HW1 1364   7.012   0.759   2.874
  155SOL    HW2 1365   0.064   0.798   2.735
  156SOL     OW 1366   6.147   1.515   1.304
  156SOL    HW1 1367   6.179   1.521   1.398
  156SOL    HW2 1368   6.202   1.448   1.254
  157SOL     OW 1369   5.904   3.428   2.658
  157SOL    HW1 1370   5.840   3.352   2.647
  157SOL    HW2 1371   5.953   3.418   2.744
  158SOL     OW 1372   2.668   0.815   3.028
  158SOL    HW1 1373   2.588   0.831   3.086
  158SOL    HW2 1374   2.687   0.717   3.024
  159SOL     OW 1375   4.785   4.217   1.917
  159SOL    HW1 1376   4.691   4.226   1.949
  159SOL    HW2 1377   4.807   4.293   1.856
  160SOL     OW 1378   6.567   4.281   5.645
  160SOL    HW1 1379   6.506   4.207   5.616
  160SOL    HW2 1380   6.643   4.243   5.698
  161SOL     OW 1381   2.150   4.990   5.157
  161SOL    HW1 1382   2.134   4.898   5.194
  161SOL    HW2 1383   2.245   4.997   5.127
  162SOL     OW 1384   4.820   5.877   1.092
  162SOL    HW1 1385   4.882   5.821   1.037
  162SOL    HW2 1386   4.816   5.970   1.054
  163SOL     OW 1387   4.582   6.782   2.079
  163SOL    HW1 1388   4.633   6.755   1.997
  163SOL    HW2 1389   4.563   6.701   2.135
  164SOL     OW 1390   6.450   3.465   0.893
  164SOL    HW1 1391   6.469   3.562   0.907
  164SOL    HW2 1392   6.505   3.431   0.817
  165SOL     OW 1393   4.994   3.632   6.584
  165SOL    HW1 1394   4.905   3.642   6.539
  165SOL    HW2 1395   5.065   3.674   6.528
  166SOL     OW 1396   0.239   6.374   2.480
  166SOL    HW1 1397   0.165   6.314   2.509
  166SOL    HW2 1398   0.224   6.466   2.518
  167SOL     OW 1399   6.500   2.598   6.792
  167SOL    HW1 1400   6.508   2.503   6.822
  167SOL    HW2 1401   6.523   2.605   6.695
  168SOL     OW 1402   2.360   5.193   0.906
  168SOL    HW1 1403   2.399   5.101   0.913
  168SOL    HW2 1404   2.280   5.200   0.967
  169SOL     OW 1405   2.302   0.216   2.262
  169SOL    HW1 1406   2.332   0.292   2.319
  169SOL    HW2 1407   2.380   0.179   2.211
  170SOL     OW 1408   0.150   1.761   3.347
  170SOL    HW1 1409   0.177   1.856   3.364
  170SOL    HW2 1410   0.051   1.754   3.347
  171SOL     OW 1411   3.829   3.725   0.325
  171SOL    HW1 1412   3.923   3.710   0.294
  171SOL    HW2 1413   3.778   3.774   0.255
  172SOL     OW 1414   6.634   2.181   5.551
  172SOL    HW1 1415   6.585   2.110   5.601
  172SOL    HW2 1416   6.733   2.168   5.563
  173SOL     OW 1417   6.857   6.574   4.824
  173SOL    HW1 1418   6.878   6.656   4.771
  173SOL    HW2 1419   6.893   6.583   4.917
  174SOL     OW 1420   2.575   5.176   3.647
  174SOL    HW1 1421   2.525   5.109   3.593
  174SOL    HW2 1422   2.639   5.225   3.588
  175SOL     OW 1423   2.035   5.848   2.102
  175SOL    HW1 1424   2.089   5.898   2.035
  175SOL    HW2 1425   2.096   5.798   2.164
  176SOL     OW 1426   2.146   3.986   1.270
  176SOL    HW1 1427   2.056   3.942   1.265
  176SOL    HW2 1428   2.171   4.000   1.366
  177SOL     OW 1429   4.918   2.532   2.727
  177SOL    HW1 1430   4.897   2.486   2.641
  177SOL    HW2 1431   4.836   2.536   2.784
  178SOL     OW 1432   4.965   4.749   6.757
  178SOL    HW1 1433   4.939   4.777   6.665
  178SOL    HW2 1434   5.064   4.737   6.761
  179SOL     OW 1435   3.289   0.534   0.573
  179SOL    HW1 1436   3.236   0.578   0.500
  179SOL    HW2 1437   3.386   0.537   0.549
  180SOL     OW 1438   1.053   1.015   6.640
  180SOL    HW1 1439   1.031   0.917   6.640
  180SOL    HW2 1440   1.044   1.051   6.733
  181SOL     OW 1441   3.616   2.371   5.842
  181SOL    HW1 1442   3.681   2.392   5.915
  181SOL    HW2 1443   3.587   2.276   5.849
  182SOL     OW 1444   3.831   2.129   4.636
  182SOL    HW1 1445   3.888   2.075   4.697
  182SOL    HW2 1446   3.881   2.148   4.551
  183SOL     OW 1447   4.761   1.276   1.973
  183SOL    HW1 1448   4.803   1.324   1.896
  183SOL    HW2 1449   4.831   1.230   2.027
  184SOL     OW 1450   1.430   4.982   3.289
  184SOL    HW1 1451   1.344   5.029   3.305
  184SOL    HW2 1452   1.463   4.942   3.375
  185SOL     OW 1453   1.612   3.619   6.794
  185SOL    HW1 1454   1.685   3.551   6.797
  185SOL    HW2 1455   1.652   3.711   6.791
  186SOL     OW 1456   5.886   0.217   3.160
  186SOL    HW1 1457   5.794   0.221   3.200
  186SOL    HW2 1458   5.929   0.130   3.185
  187SOL     OW 1459   5.290   0.791   3.986
  187SOL    HW1 1460   5.248   0.719   4.041
  187SOL    HW2 1461   5.229   0.870   3.982
  188SOL     OW 1462   5.789   2.460   3.165
  188SOL    HW1 1463   5.741   2.547   3.155
  188SOL    HW2 1464   5.734   2.398   3.220
  189SOL     OW 1465   2.358   4.848   2.774
  189SOL    HW1 1466   2.405   4.935   2.789
  189SOL    HW2 1467   2.371   4.789   2.854
  190SOL     OW 1468   4.045   1.155   5.230
  190SOL    HW1 1469   4.135   1.124   5.263
  190SOL    HW2 1470   4.048   1.253   5.213
  191SOL     OW 1471   5.932   5.898   6.567
  191SOL    HW1 1472   5.932   5.980   6.511
  191SOL    HW2 1473   6.023   5.884   6.608
  192SOL     OW 1474   6.923   0.098   1.797
  192SOL    HW1 1475   6.842   0.044   1.818
  192SOL    HW2 1476   6.958   0.139   1.881
  193SOL     OW 1477   5.198   3.655   0.003
  193SOL    HW1 1478   5.164   3.581   6.967
  193SOL    HW2 1479   5.174   3.743   6.985
  194SOL     OW 1480   3.072   0.926   3.399
  194SOL    HW1 1481   3.028   0.840   3.372
  194SOL    HW2 1482   3.018   1.003   3.363
  195SOL     OW 1483   1.845   5.413   3.485
  195SOL    HW1 1484   1.857   5.325   3.532
  195SOL    HW2 1485   1.759   5.454   3.513
  196SOL     OW 1486   1.513   1.682   6.763
  196SOL    HW1 1487   1.600   1.633   6.773
  196SOL    HW2 1488   1.479   1.671   6.669
  197SOL     OW 1489   1.928   0.934   1.422
  197SOL    HW1 1490   2.006   0.872   1.432
  197SOL    HW2 1491   1.897   0.933   1.327
  198SOL     OW 1492   3.599   1.605   3.074
  198SOL    HW1 1493   3.637   1.579   3.163
  198SOL    HW2 1494   3.629   1.697   3.051
  199SOL     OW 1495   1.127   1.992   3.746
  199SOL    HW1 1496   1.091   1.929   3.815
  199SOL    HW2 1497   1.056   2.059   3.722
  200SOL     OW 1498   6.925   2.565   0.378
  200SOL    HW1 1499   6.834   2.605   0.386
  200SOL    HW2 1500   6.977   2.585   0.461
  201SOL     OW 1501   0.678   0.493   6.006
  201SOL    HW1 1502   0.652   0.476   5.911
  201SOL    HW2 1503   0.651   0.586   6.032
  202SOL     OW 1504   4.609   0.414   6.333
  202SOL    HW1 1505   4.558   0.495   6.362
  202SOL    HW2 1506   4.627   0.418   6.235
  203SOL     OW 1507   5.263   2.903   5.647
  203SOL    HW1 1508   5.301   2.903   5.740
  203SOL    HW2 1509   5.278   2.993   5.606
  204SOL     OW 1510   6.718   0.532   6.004
  204SOL    HW1 1511   6.753   0.474   5.931
  204SOL    HW2 1512   6.685   0.618   5.966
  205SOL     OW 1513   0.876   3.055   2.059
  205SOL    HW1 1514   0.856   2.974   2.114
  205SOL    HW2 1515   0.960   3.040   2.007
  206SOL     OW 1516   0.347   3.238   0.653
  206SOL    HW1 1517   0.315   3.271   0.564
  206SOL    HW2 1518   0.273   3.185   0.697
  207SOL     OW 1519   5.242   1.988   3.927
  207SOL    HW1 1520   5.150   1.952   3.946
  207SOL    HW2 1521   5.239   2.045   3.845
  208SOL     OW 1522   1.143   4.213   4.722
  208SOL    HW1 1523   1.182   4.129   4.683
  208SOL    HW2 1524   1.051   4.227   4.687
  209SOL     OW 1525   6.469   4.495   2.414
  209SOL    HW1 1526   6.505   4.552   2.488
  209SOL    HW2 1527   6.458   4.551   2.332
  210SOL     OW 1528   4.690   2.052   0.052
  210SOL    HW1 1529   4.767   1.998   0.017
  210SOL    HW2 1530   4.626   2.070   7.000
  211SOL     OW 1531   0.626   0.544   3.321
  211SOL    HW1 1532   0.605   0.581   3.231
  211SOL    HW2 1533   0.542   0.538   3.375
  212SOL     OW 1534   1.835   4.132   3.399
  212SOL    HW1 1535   1.828   4.037   3.368
  212SOL    HW2 1536   1.842   4.133   3.499
  213SOL     OW 1537   2.150   5.124   1.079
  213SOL    HW1 1538   2.079   5.071   1.033
  213SOL    HW2 1539   2.217   5.061   1.119
  214SOL     OW 1540   4.507   5.946   2.327
  214SOL    HW1 1541   4.575   6.019   2.342
  214SOL    HW2 1542   4.475   5.912   2.415
  215SOL     OW 1543   2.387   4.776   2.127
  215SOL    HW1 1544   2.315   4.785   2.059
  215SOL    HW2 1545   2.450   4.853   2.119
  216SOL     OW 1546   1.232   6.745   2.230
  216SOL    HW1 1547   1.213   6.826   2.286
  216SOL    HW2 1548   1.321   6.708   2.254
  217SOL     OW 1549   1.686   3.935   6.773
  217SOL    HW1 1550   1.680   3.966   6.868
  217SOL    HW2 1551   1.601   3.957   6.725
  218SOL     OW 1552   0.564   2.428   5.298
  218SOL    HW1 1553   0.643   2.478   5.333
  218SOL    HW2 1554   0.565   2.430   5.198
  219SOL     OW 1555   3.749   1.233   0.791
  219SOL    HW1 1556   3.791   1.170   0.726
  219SOL    HW2 1557   3.778   1.209   0.884
  220SOL     OW 1558   3.338   6.757   0.612
  220SOL    HW1 1559   3.360   6.692   0.540
  220SOL    HW2 1560   3.276   6.714   0.678
  221SOL     OW 1561   5.308   5.622   1.277
  221SOL    HW1 1562   5.363   5.546   1.310
  221SOL    HW2 1563   5.348   5.659   1.192
  222SOL     OW 1564   2.148   4.451   6.202
  222SOL    HW1 1565   2.244   4.425   6.199
  222SOL    HW2 1566   2.097   4.385   6.257
  223SOL     OW 1567   6.328   2.275   5.490
  223SOL    HW1 1568   6.398   2.341   5.515
  223SOL    HW2 1569   6.357   2.225   5.408
  224SOL     OW 1570   2.176   1.730   6.128
  224SOL    HW1 1571   2.250   1.797   6.120
  224SOL    HW2 1572   2.213   1.638   6.115
  225SOL     OW 1573   4.467   4.808   6.385
  225SOL    HW1 1574   4.470   4.713   6.416
  225SOL    HW2 1575   4.396   4.857   6.436
  226SOL     OW 1576   1.095   1.970   6.624
  226SOL    HW1 1577   1.127   1.965   6.718
  226SOL    HW2 1578   1.065   1.879   6.593
  227SOL     OW 1579   1.656   3.657   2.044
  227SOL    HW1 1580   1.612   3.747   2.050
  227SOL    HW2 1581   1.734   3.654   2.107
  228SOL     OW 1582   1.606   0.152   2.905
  228SOL    HW1 1583   1.693   0.104   2.891
  228SOL    HW2 1584   1.530   0.090   2.886
  229SOL     OW 1585   4.889   5.077   6.426
  229SOL    HW1 1586   4.963   5.023   6.386
  229SOL    HW2 1587   4.867   5.154   6.366
  230SOL     OW 1588   4.595   6.115   4.736
  230SOL    HW1 1589   4.539   6.195   4.759
  230SOL    HW2 1590   4.574   6.041   4.799
  231SOL     OW 1591   5.008   1.366   0.012
  231SOL    HW1 1592   5.020   1.267   0.009
  231SOL    HW2 1593   4.916   1.387   0.044
  232SOL     OW 1594   1.433   2.640   5.905
  232SOL    HW1 1595   1.419   2.736   5.879
  232SOL    HW2 1596   1.406   2.627   6.001
  233SOL     OW 1597   2.527   1.214   3.379
  233SOL    HW1 1598   2.453   1.152   3.356
  233SOL    HW2 1599   2.526   1.232   3.478
  234SOL     OW 1600   4.879   1.414   6.396
  234SOL    HW1 1601   4.827   1.491   6.431
  234SOL    HW2 1602   4.976   1.439   6.387
  235SOL     OW 1603   4.987   3.093   2.300
  235SOL    HW1 1604   5.050   3.034   2.251
  235SOL    HW2 1605   4.921   3.037   2.350
  236SOL     OW 1606   4.163   3.966   6.096
  236SOL    HW1 1607   4.217   3.904   6.039
  236SOL    HW2 1608   4.205   3.972   6.187
  237SOL     OW 1609   5.856   3.911   2.476
  237SOL    HW1 1610   5.930   3.871   2.422
  237SOL    HW2 1611   5.876   4.007   2.495
  238SOL     OW 1612   6.261   1.453   0.106
  238SOL    HW1 1613   6.325   1.510   0.055
  238SOL    HW2 1614   6.271   1.472   0.204
  239SOL     OW 1615   1.262   3.653   0.485
  239SOL    HW1 1616   1.219   3.743   0.478
  239SOL    HW2 1617   1.260   3.623   0.581
  240SOL     OW 1618   5.950   3.361   3.101
  240SOL    HW1 1619   5.938   3.435   3.168
  240SOL    HW2 1620   5.902   3.279   3.133
  241SOL     OW 1621   2.544   1.286   3.958
  241SOL    HW1 1622   2.485   1.354   3.914
  241SOL    HW2 1623   2.632   1.327   3.980
  242SOL     OW 1624   3.552   4.155   3.682
  242SOL    HW1 1625   3.510   4.067   3.662
  242SOL    HW2 1626   3.565   4.206   3.597
  243SOL     OW 1627   5.000   2.721   6.180
  243SOL    HW1 1628   5.054   2.784   6.236
  243SOL    HW2 1629   4.904   2.748   6.184
  244SOL     OW 1630   6.378   3.914   6.070
  244SOL    HW1 1631   6.471   3.891   6.099
  244SOL    HW2 1632   6.315   3.907   6.147
  245SOL     OW 1633   3.330   1.712   2.663
  245SOL    HW1 1634   3.254   1.703   2.598
  245SOL    HW2 1635   3.417   1.706   2.614
  246SOL     OW 1636   6.001   1.542   3.699
  246SOL    HW1 1637   5.941   1.525   3.620
  246SOL    HW2 1638   6.085   1.585   3.668
  247SOL     OW 1639   1.899   1.535   0.678
  247SOL    HW1 1640   1.899   1.443   0.639
  247SOL    HW2 1641   1.835   1.592   0.626
  248SOL     OW 1642   1.704   1.244   2.105
  248SOL    HW1 1643   1.642   1.236   2.027
  248SOL    HW2 1644   1.749   1.334   2.103
  249SOL     OW 1645   5.630   6.653   4.856
  249SOL    HW1 1646   5.568   6.584   4.818
  249SOL    HW2 1647   5.577   6.721   4.906
  250SOL     OW 1648   3.141   2.968   0.096
  250SOL    HW1 1649   3.156   2.993   0.192
  250SOL    HW2 1650   3.064   2.905   0.089
  251SOL     OW 1651   4.274   3.809   5.445
  251SOL    HW1 1652   4.191   3.766   5.410
  251SOL    HW2 1653   4.352   3.779   5.389
  252SOL     OW 1654   6.047   6.395   5.637
  252SOL    HW1 1655   6.027   6.394   5.735
  252SOL    HW2 1656   6.005   6.315   5.593
  253SOL     OW 1657   4.609   5.362   6.046
  253SOL    HW1 1658   4.580   5.266   6.040
  253SOL    HW2 1659   4.587   5.408   5.960
  254SOL     OW 1660   5.963   2.825   4.507
  254SOL    HW1 1661   5.894   2.890   4.476
  254SOL    HW2 1662   5.945   2.800   4.603
  255SOL     OW 1663   1.875   4.710   6.120
  255SOL    HW1 1664   1.907   4.673   6.033
  255SOL    HW2 1665   1.780   4.739   6.111
  256SOL     OW 1666   4.724   3.082   5.626
  256SOL    HW1 1667   4.804   3.023   5.617
  256SOL    HW2 1668   4.649   3.030   5.666
  257SOL     OW 1669   5.002   6.138   3.311
  257SOL    HW1 1670   5.039   6.179   3.395
  257SOL    HW2 1671   4.964   6.210   3.253
  258SOL     OW 1672   2.589   3.778   6.066
  258SOL    HW1 1673   2.590   3.678   6.076
  258SOL    HW2 1674   2.572   3.801   5.971
  259SOL     OW 1675   3.914   0.120   2.860
  259SOL    HW1 1676   3.933   0.127   2.762
  259SOL    HW2 1677   3.981   0.172   2.912
  260SOL     OW 1678   4.146   5.350   3.541
  260SOL    HW1 1679   4.152   5.373   3.638
  260SOL    HW2 1680   4.234   5.313   3.510
  261SOL     OW 1681   4.645   4.874   0.640
  261SOL    HW1 1682   4.634   4.934   0.719
  261SOL    HW2 1683   4.575   4.803   0.643
  262SOL     OW 1684   2.143   4.362   0.667
  262SOL    HW1 1685   2.097   4.273   0.660
  262SOL    HW2 1686   2.242   4.348   0.671
  263SOL     OW 1687   1.143   6.471   4.031
  263SOL    HW1 1688   1.197   6.486   4.114
  263SOL    HW2 1689   1.101   6.558   4.003
  264SOL     OW 1690   0.098   3.140   6.814
  264SOL    HW1 1691   0.093   3.078   6.892
  264SOL    HW2 1692   0.020   3.124   6.753
  265SOL     OW 1693   5.732   0.155   3.813
  265SOL    HW1 1694   5.748   0.233   3.874
  265SOL    HW2 1695   5.802   0.086   3.828
  266SOL     OW 1696   4.793   1.980   5.712
  266SOL    HW1 1697   4.880   1.931   5.707
  266SOL    HW2 1698   4.757   1.995   5.619
  267SOL     OW 1699   1.437   0.684   5.167
  267SOL    HW1 1700   1.479   0.595   5.147
  267SOL    HW2 1701   1.458   0.710   5.261
  268SOL     OW 1702   3.794   1.404   1.244
  268SOL    HW1 1703   3.709   1.443   1.278
  268SOL    HW2 1704   3.832   1.342   1.313
  269SOL     OW 1705   3.484   2.312   0.176
  269SOL    HW1 1706   3.424   2.232   0.180
  269SOL    HW2 1707   3.473   2.357   0.088
  270SOL     OW 1708   6.939   6.792   0.213
  270SOL    HW1 1709   6.853   6.797   0.161
  270SOL    HW2 1710   7.016   6.801   0.151
  271SOL     OW 1711   0.086   2.269   6.294
  271SOL    HW1 1712   0.055   2.220   6.212
  271SOL    HW2 1713   0.183   2.292   6.284
  272SOL     OW 1714   3.401   6.387   3.556
  272SOL    HW1 1715   3.474   6.319   3.546
  272SOL    HW2 1716   3.353   6.397   3.469
  273SOL     OW 1717   2.108   5.150   5.394
  273SOL    HW1 1718   2.145   5.098   5.317
  273SOL    HW2 1719   2.137   5.246   5.386
  274SOL     OW 1720   4.271   0.993   4.219
  274SOL    HW1 1721   4.197   0.960   4.277
  274SOL    HW2 1722   4.235   1.015   4.128
  275SOL     OW 1723   0.175   6.636   2.566
  275SOL    HW1 1724   0.210   6.721   2.604
  275SOL    HW2 1725   0.155   6.572   2.639
  276SOL     OW 1726   0.066   0.283   4.271
  276SOL    HW1 1727   0.111   0.293   4.183
  276SOL    HW2 1728   0.077   0.367   4.325
  277SOL     OW 1729   1.831   2.745   0.563
  277SOL    HW1 1730   1.814   2.735   0.661
  277SOL    HW2 1731   1.902   2.814   0.548
  278SOL     OW 1732   0.321   2.965   2.689
  278SOL    HW1 1733   0.233   3.002   2.661
  278SOL    HW2 1734   0.308   2.876   2.732
  279SOL     OW 1735   5.719   2.902   4.327
  279SOL    HW1 1736   5.723   2.906   4.228
  279SOL    HW2 1737   5.686   2.812   4.356
  280SOL     OW 1738   2.122   4.887   2.266
  280SOL    HW1 1739   2.153   4.862   2.174
  280SOL    HW2 1740   2.201   4.907   2.324
  281SOL     OW 1741   2.181   3.936   0.806
  281SOL    HW1 1742   2.269   3.932   0.853
  281SOL    HW2 1743   2.191   3.903   0.712
  282SOL     OW 1744   3.207   1.586   6.131
  282SOL    HW1 1745   3.131   1.643   6.162
  282SOL    HW2 1746   3.181   1.537   6.048
  283SOL     OW 1747   5.341   2.904   6.574
  283SOL    HW1 1748   5.440   2.914   6.568
  283SOL    HW2 1749   5.298   2.962   6.505
  284SOL     OW 1750   0.765   3.331   3.901
  284SOL    HW1 1751   0.757   3.348   4.000
  284SOL    HW2 1752   0.684   3.283   3.869
  285SOL     OW 1753   5.796   4.534   3.741
  285SOL    HW1 1754   5.809   4.503   3.646
  285SOL    HW2 1755   5.870   4.597   3.765
  286SOL     OW 1756   3.613   3.644   6.933
  286SOL    HW1 1757   3.550   3.668   6.858
  286SOL    HW2 1758   3.607   3.546   6.951
  287SOL     OW 1759   1.976   3.710   0.943
  287SOL    HW1 1760   2.013   3.789   0.895
  287SOL    HW2 1761   1.911   3.740   1.013
  288SOL     OW 1762   4.859   1.796   0.074
  288SOL    HW1 1763   4.887   1.812   7.002
  288SOL    HW2 1764   4.929   1.741   0.120
  289SOL     OW 1765   2.596   4.880   6.087
  289SOL    HW1 1766   2.571   4.788   6.057
  289SOL    HW2 1767   2.643   4.875   6.175
  290SOL     OW 1768   0.126   2.201   5.774
  290SOL    HW1 1769   0.210   2.190   5.721
  290SOL    HW2 1770   0.119   2.296   5.805
  291SOL     OW 1771   6.643   2.137   2.423
  291SOL    HW1 1772   6.719   2.093   2.470
  291SOL    HW2 1773   6.674   2.170   2.334
  292SOL     OW 1774   1.795   0.763   3.417
  292SOL    HW1 1775   1.787   0.767   3.516
  292SOL    HW2 1776   1.886   0.793   3.389
  293SOL     OW 1777   4.082   5.291   4.300
  293SOL    HW1 1778   4.121   5.375   4.336
  293SOL    HW2 1779   4.150   5.242   4.246
  294SOL     OW 1780   5.020   6.482   6.682
  294SOL    HW1 1781   4.967   6.443   6.606
  294SOL    HW2 1782   5.066   6.565   6.651
  295SOL     OW 1783   4.750   0.846   4.200
  295SOL    HW1 1784   4.727   0.839   4.297
  295SOL    HW2 1785   4.673   0.883   4.150
  296SOL     OW 1786   2.984   2.259   3.551
  296SOL    HW1 1787   2.940   2.331   3.497
  296SOL    HW2 1788   2.914   2.208   3.602
  297SOL     OW 1789   1.194   4.234   3.186
  297SOL    HW1 1790   1.158   4.199   3.100
  297SOL    HW2 1791   1.242   4.320   3.169
  298SOL     OW 1792   6.557   4.800   1.079
  298SOL    HW1 1793   6.469   4.848   1.087
  298SOL    HW2 1794   6.552   4.714   1.130
  299SOL     OW 1795   6.573   2.359   4.754
  299SOL    HW1 1796   6.620   2.411   4.826
  299SOL    HW2 1797   6.617   2.270   4.743
  300SOL     OW 1798   6.350   0.382   3.097
  300SOL    HW1 1799   6.394   0.464   3.133
  300SOL    HW2 1800   6.325   0.397   3.001
  301SOL     OW 1801   5.627   3.783   6.218
  301SOL    HW1 1802   5.543   3.750   6.174
  301SOL    HW2 1803   5.658   3.867   6.173
  302SOL     OW 1804   0.562   6.865   3.526
  302SOL    HW1 1805   0.576   6.865   3.625
  302SOL    HW2 1806   0.556   6.770   3.494
  303SOL     OW 1807   4.962   0.929   3.697
  303SOL    HW1 1808   4.888   0.995   3.707
  303SOL    HW2 1809   5.040   0.957   3.754
  304SOL     OW 1810   2.647   0.030   3.710
  304SOL    HW1 1811   2.551   0.029   3.739
  304SOL    HW2 1812   2.696   0.099   3.762
  305SOL     OW 1813   1.578   3.321   0.994
  305SOL    HW1 1814   1.526   3.299   0.911
  305SOL    HW2 1815   1.527   3.288   1.074
  306SOL     OW 1816   1.891   0.984   3.795
  306SOL    HW1 1817   1.885   1.048   3.871
  306SOL    HW2 1818   1.849   1.025   3.714
  307SOL     OW 1819   3.830   0.106   1.210
  307SOL    HW1 1820   3.863   0.069   1.123
  307SOL    HW2 1821   3.733   0.085   1.221
  308SOL     OW 1822   0.814   5.819   4.122
  308SOL    HW1 1823   0.749   5.895   4.124
  308SOL    HW2 1824   0.828   5.789   4.028
  309SOL     OW 1825   3.476   5.183   4.859
  309SOL    HW1 1826   3.446   5.231   4.777
  309SOL    HW2 1827   3.437   5.090   4.859
  310SOL     OW 1828   0.448   6.444   5.795
  310SOL    HW1 1829   0.540   6.458   5.834
  310SOL    HW2 1830   0.382   6.499   5.846
  311SOL     OW 1831   0.357   6.621   0.995
  311SOL    HW1 1832   0.425   6.566   0.946
  311SOL    HW2 1833   0.345   6.709   0.948
  312SOL     OW 1834   4.728   1.989   5.024
  312SOL    HW1 1835   4.679   2.064   5.069
  312SOL    HW2 1836   4.685   1.970   4.936
  313SOL     OW 1837   1.344   4.169   1.626
  313SOL    HW1 1838   1.267   4.107   1.637
  313SOL    HW2 1839   1.325   4.255   1.674
  314SOL     OW 1840   4.065   6.724   0.682
  314SOL    HW1 1841   4.138   6.791   0.694
  314SOL    HW2 1842   4.002   6.756   0.612
  315SOL     OW 1843   0.737   2.096   3.024
  315SOL    HW1 1844   0.790   2.180   3.011
  315SOL    HW2 1845   0.764   2.054   3.111
  316SOL     OW 1846   2.706   2.334   4.011
  316SOL    HW1 1847   2.706   2.380   4.100
  316SOL    HW2 1848   2.798   2.336   3.972
  317SOL     OW 1849   0.113   1.502   6.675
  317SOL    HW1 1850   0.169   1.520   6.594
  317SOL    HW2 1851   0.063   1.585   6.700
  318SOL     OW 1852   2.519   4.689   0.450
  318SOL    HW1 1853   2.562   4.706   0.539
  318SOL    HW2 1854   2.504   4.591   0.438
  319SOL     OW 1855   1.646   6.298   0.599
  319SOL    HW1 1856   1.623   6.227   0.533
  319SOL    HW2 1857   1.664   6.384   0.551
  320SOL     OW 1858   5.970   3.507   0.553
  320SOL    HW1 1859   5.875   3.521   0.524
  320SOL    HW2 1860   6.030   3.522   0.474
  321SOL     OW 1861   1.831   2.612   1.208
  321SOL    HW1 1862   1.888   2.680   1.163
  321SOL    HW2 1863   1.845   2.617   1.307
  322SOL     OW 1864   3.665   2.955   5.093
  322SOL    HW1 1865   3.710   2.931   5.007
  322SOL    HW2 1866   3.642   3.052   5.091
  323SOL     OW 1867   0.565   4.469   1.879
  323SOL    HW1 1868   0.621   4.458   1.797
  323SOL    HW2 1869   0.607   4.535   1.940
  324SOL     OW 1870   0.695   2.688   5.093
  324SOL    HW1 1871   0.753   2.687   5.011
  324SOL    HW2 1872   0.702   2.778   5.137
  325SOL     OW 1873   2.315   2.464   2.133
  325SOL    HW1 1874   2.302   2.511   2.045
  325SOL    HW2 1875   2.352   2.373   2.116
  326SOL     OW 1876   1.534   5.094   6.284
  326SOL    HW1 1877   1.469   5.019   6.295
  326SOL    HW2 1878   1.563   5.126   6.374
  327SOL     OW 1879   6.239   5.317   5.045
  327SOL    HW1 1880   6.288   5.371   5.112
  327SOL    HW2 1881   6.277   5.225   5.042
  328SOL     OW 1882   3.746   5.642   2.395
  328SOL    HW1 1883   3.698   5.704   2.333
  328SOL    HW2 1884   3.731   5.547   2.366
  329SOL     OW 1885   3.420   3.640   3.022
  329SOL    HW1 1886   3.493   3.673   2.962
  329SOL    HW2 1887   3.440   3.666   3.116
  330SOL     OW 1888   3.446   0.373   1.743
  330SOL    HW1 1889   3.432   0.449   1.680
  330SOL    HW2 1890   3.371   0.307   1.733
  331SOL     OW 1891   4.891   5.362   5.934
  331SOL    HW1 1892   4.837   5.445   5.937
  331SOL    HW2 1893   4.977   5.380   5.885
  332SOL     OW 1894   3.595   1.674   2.598
  332SOL    HW1 1895   3.661   1.668   2.673
  332SOL    HW2 1896   3.593   1.588   2.548
  333SOL     OW 1897   3.900   6.189   6.309
  333SOL    HW1 1898   3.864   6.099   6.284
  333SOL    HW2 1899   3.995   6.197   6.277
  334SOL     OW 1900   4.279   0.041   2.683
  334SOL    HW1 1901   4.191   0.024   2.639
  334SOL    HW2 1902   4.350   7.010   2.637
  335SOL     OW 1903   2.740   6.904   3.324
  335SOL    HW1 1904   2.771   6.999   3.317
  335SOL    HW2 1905   2.785   6.849   3.254
  336SOL     OW 1906   2.910   0.874   4.006
  336SOL    HW1 1907   2.897   0.953   3.947
  336SOL    HW2 1908   2.895   0.790   3.954
  337SOL     OW 1909   6.739   3.600   1.282
  337SOL    HW1 1910   6.747   3.611   1.183
  337SOL    HW2 1911   6.648   3.626   1.312
  338SOL     OW 1912   3.169   3.105   1.319
  338SOL    HW1 1913   3.141   3.166   1.393
  338SOL    HW2 1914   3.113   3.022   1.321
  339SOL     OW 1915   4.358   6.456   3.203
  339SOL    HW1 1916   4.436   6.425   3.258
  339SOL    HW2 1917   4.362   6.555   3.190
  340SOL     OW 1918   4.889   4.178   4.230
  340SOL    HW1 1919   4.886   4.088   4.186
  340SOL    HW2 1920   4.955   4.176   4.305
  341SOL     OW 1921   5.229   5.448   4.709
  341SOL    HW1 1922   5.227   5.374   4.642
  341SOL    HW2 1923   5.306   5.508   4.690
  342SOL     OW 1924   6.394   4.079   0.660
  342SOL    HW1 1925   6.415   3.985   0.686
  342SOL    HW2 1926   6.424   4.096   0.566
  343SOL     OW 1927   2.934   0.232   2.630
  343SOL    HW1 1928   3.000   0.277   2.691
  343SOL    HW2 1929   2.863   0.298   2.605
  344SOL     OW 1930   3.200   5.223   0.790
  344SOL    HW1 1931   3.181   5.188   0.882
  344SOL    HW2 1932   3.115   5.254   0.748
  345SOL     OW 1933   0.849   6.801   5.133
  345SOL    HW1 1934   0.838   6.900   5.143
  345SOL    HW2 1935   0.764   6.761   5.099
  346SOL     OW 1936   1.181   0.325   3.177
  346SOL    HW1 1937   1.271   0.367   3.192
  346SOL    HW2 1938   1.149   0.284   3.263
  347SOL     OW 1939   5.231   6.623   6.434
  347SOL    HW1 1940   5.189   6.533   6.425
  347SOL    HW2 1941   5.206   6.662   6.522
  348SOL     OW 1942   3.779   5.490   1.769
  348SOL    HW1 1943   3.809   5.482   1.674
  348SOL    HW2 1944   3.682   5.466   1.776
  349SOL     OW 1945   1.542   4.800   2.030
  349SOL    HW1 1946   1.531   4.899   2.035
  349SOL    HW2 1947   1.639   4.777   2.028
  350SOL     OW 1948   4.546   3.128   0.967
  350SOL    HW1 1949   4.478   3.197   0.995
  350SOL    HW2 1950   4.630   3.140   1.020
  351SOL     OW 1951   3.620   2.000   0.443
  351SOL    HW1 1952   3.571   2.032   0.524
  351SOL    HW2 1953   3.661   2.077   0.395
  352SOL     OW 1954   3.128   0.571   6.811
  352SOL    HW1 1955   3.123   0.471   6.807
  352SOL    HW2 1956   3.130   0.607   6.718
  353SOL     OW 1957   2.377   6.434   1.520
  353SOL    HW1 1958   2.317   6.409   1.596
  353SOL    HW2 1959   2.355   6.527   1.490
  354SOL     OW 1960   4.861   1.655   1.551
  354SOL    HW1 1961   4.801   1.582   1.517
  354SOL    HW2 1962   4.817   1.700   1.629
  355SOL     OW 1963   0.495   2.520   2.432
  355SOL    HW1 1964   0.574   2.458   2.436
  355SOL    HW2 1965   0.528   2.615   2.436
  356SOL     OW 1966   4.532   5.444   3.730
  356SOL    HW1 1967   4.516   5.408   3.822
  356SOL    HW2 1968   4.622   5.413   3.698
  357SOL     OW 1969   0.578   5.239   5.363
  357SOL    HW1 1970   0.580   5.313   5.296
  357SOL    HW2 1971   0.484   5.210   5.378
  358SOL     OW 1972   5.609   0.709   1.823
  358SOL    HW1 1973   5.679   0.682   1.890
  358SOL    HW2 1974   5.639   0.683   1.731
  359SOL     OW 1975   1.063   1.486   2.013
  359SOL    HW1 1976   1.087   1.535   2.097
  359SOL    HW2 1977   1.031   1.394   2.036
  360SOL     OW 1978   4.244   6.713   0.398
  360SOL    HW1 1979   4.252   6.685   0.493
  360SOL    HW2 1980   4.319   6.775   0.375
  361SOL     OW 1981   4.373   0.309   2.743
  361SOL    HW1 1982   4.325   0.222   2.747
  361SOL    HW2 1983   4.374   0.342   2.648
  362SOL     OW 1984   3.000   3.321   0.646
  362SOL    HW1 1985   2.969   3.339   0.739
  362SOL    HW2 1986   3.029   3.406   0.603
  363SOL     OW 1987   4.473   4.993   4.195
  363SOL    HW1 1988   4.399   4.927   4.181
  363SOL    HW2 1989   4.552   4.946   4.236
  364SOL     OW 1990   1.521   5.606   5.771
  364SOL    HW1 1991   1.548   5.667   5.695
  364SOL    HW2 1992   1.433   5.637   5.808
  365SOL     OW 1993   5.002   6.408   2.015
  365SOL    HW1 1994   5.032   6.441   1.925
  365SOL    HW2 1995   5.034   6.315   2.029
  366SOL     OW 1996   5.808   0.336   0.054
  366SOL    HW1 1997   5.874   0.296   0.118
  366SOL    HW2 1998   5.724   0.281   0.054
  367SOL     OW 1999   5.219   2.909   0.907
  367SOL    HW1 2000   5.246   2.889   0.812
  367SOL    HW2 2001   5.299   2.937   0.959
  368SOL     OW 2002   0.946   4.801   5.261
  368SOL    HW1 2003   0.951   4.900   5.278
  368SOL    HW2 2004   1.035   4.767   5.232
  369SOL     OW 2005   0.947   3.950   2.327
  369SOL    HW1 2006   0.864   3.907   2.292
  369SOL    HW2 2007   1.019   3.946   2.258
  370SOL     OW 2008   3.615   1.414   6.054
  370SOL    HW1 2009   3.626   1.477   6.130
  370SOL    HW2 2010   3.704   1.374   6.031
  371SOL     OW 2011   4.268   3.063   6.568
  371SOL    HW1 2012   4.275   3.082   6.470
  371SOL    HW2 2013   4.229   2.972   6.581
  372SOL     OW 2014   1.380   6.085   6.048
  372SOL    HW1 2015   1.332   6.141   6.116
  372SOL    HW2 2016   1.319   6.012   6.017
  373SOL     OW 2017   6.967   6.671   0.450
  373SOL    HW1 2018   6.956   6.708   0.358
  373SOL    HW2 2019   0.035   6.631   0.460
  374SOL     OW 2020   3.322   0.785   1.500
  374SOL    HW1 2021   3.225   0.776   1.479
  374SOL    HW2 2022   3.349   0.881   1.493
  375SOL     OW 2023   6.954   4.698   2.828
  375SOL    HW1 2024   0.028   4.688   2.849
  375SOL    HW2 2025   6.927   4.794   2.838
  376SOL     OW 2026   2.227   2.774   3.899
  376SOL    HW1 2027   2.228   2.679   3.867
  376SOL    HW2 2028   2.288   2.784   3.977
  377SOL     OW 2029   5.007   1.868   3.981
  377SOL    HW1 2030   4.986   1.785   3.930
  377SOL    HW2 2031   4.926   1.924   3.989
  378SOL     OW 2032   5.008   2.931   4.909
  378SOL    HW1 2033   5.004   2.906   5.006
  378SOL    HW2 2034   5.095   2.899   4.871
  379SOL     OW 2035   6.353   3.175   1.169
  379SOL    HW1 2036   6.292   3.179   1.090
  379SOL    HW2 2037   6.396   3.264   1.183
  380SOL     OW 2038   1.001   2.213   0.479
  380SOL    HW1 2039   1.070   2.154   0.522
  380SOL    HW2 2040   0.936   2.156   0.429
  381SOL     OW 2041   3.404   3.427   0.849
  381SOL    HW1 2042   3.336   3.353   0.850
  381SOL    HW2 2043   3.476   3.407   0.915
  382SOL     OW 2044   2.486   5.799   0.564
  382SOL    HW1 2045   2.507   5.887   0.523
  382SOL    HW2 2046   2.566   5.739   0.559
  383SOL     OW 2047   6.338   2.789   6.886
  383SOL    HW1 2048   6.400   2.712   6.865
  383SOL    HW2 2049   6.332   2.801   6.985
  384SOL     OW 2050   1.861   5.554   5.522
  384SOL    HW1 2051   1.950   5.542   5.567
  384SOL    HW2 2052   1.874   5.556   5.423
  385SOL     OW 2053   4.858   5.354   0.800
  385SOL    HW1 2054   4.764   5.368   0.770
  385SOL    HW2 2055   4.862   5.348   0.899
  386SOL     OW 2056   3.310   6.547   5.476
  386SOL    HW1 2057   3.351   6.601   5.549
  386SOL    HW2 2058   3.358   6.564   5.390
  387SOL     OW 2059   0.353   0.291   5.397
  387SOL    HW1 2060   0.426   0.309   5.331
  387SOL    HW2 2061   0.369   0.202   5.440
  388SOL     OW 2062   6.851   2.171   4.877
  388SOL    HW1 2063   6.945   2.138   4.869
  388SOL    HW2 2064   6.799   2.108   4.935
  389SOL     OW 2065   3.952   4.460   1.625
  389SOL    HW1 2066   4.022   4.400   1.664
  389SOL    HW2 2067   3.867   4.451   1.678
  390SOL     OW 2068   3.715   2.194   0.284
  390SOL    HW1 2069   3.640   2.258   0.265
  390SOL    HW2 2070   3.793   2.217   0.226
  391SOL     OW 2071   3.557   4.208   5.047
  391SOL    HW1 2072   3.508   4.198   5.134
  391SOL    HW2 2073   3.646   4.251   5.065
  392SOL     OW 2074   1.205   3.923   1.677
  392SOL    HW1 2075   1.135   3.927   1.748
  392SOL    HW2 2076   1.234   3.828   1.663
  393SOL     OW 2077   1.188   4.374   1.465
  393SOL    HW1 2078   1.258   4.362   1.534
  393SOL    HW2 2079   1.128   4.450   1.490
  394SOL     OW 2080   6.768   0.878   6.532
  394SOL    HW1 2081   6.744   0.812   6.603
  394SOL    HW2 2082   6.815   0.831   6.457
  395SOL     OW 2083   5.519   4.980   0.824
  395SOL    HW1 2084   5.522   4.972   0.724
  395SOL    HW2 2085   5.572   4.905   0.864
  396SOL     OW 2086   2.043   0.635   1.615
  396SOL    HW1 2087   1.947   0.611   1.605
  396SOL    HW2 2088   2.085   0.644   1.525
  397SOL     OW 2089   4.201   2.063   5.569
  397SOL    HW1 2090   4.124   2.048   5.508
  397SOL    HW2 2091   4.226   2.160   5.568
  398SOL     OW 2092   1.355   1.291   4.250
  398SOL    HW1 2093   1.451   1.297   4.277
  398SOL    HW2 2094   1.328   1.374   4.202
  399SOL     OW 2095   5.687   6.495   3.920
  399SOL    HW1 2096   5.751   6.571   3.909
  399SOL    HW2 2097   5.633   6.485   3.837
  400SOL     OW 2098   5.776   0.386   3.993
  400SOL    HW1 2099   5.793   0.323   4.069
  400SOL    HW2 2100   5.861   0.434   3.970
  401SOL     OW 2101   0.407   5.300   6.005
  401SOL    HW1 2102   0.316   5.274   6.039
  401SOL    HW2 2103   0.403   5.308   5.906
  402SOL     OW 2104   5.848   1.481   3.465
  402SOL    HW1 2105   5.865   1.385   3.444
  402SOL    HW2 2106   5.924   1.536   3.430
  403SOL     OW 2107   3.194   1.104   5.190
  403SOL    HW1 2108   3.129   1.029   5.200
  403SOL    HW2 2109   3.162   1.183   5.242
  404SOL     OW 2110   3.403   5.338   3.795
  404SOL    HW1 2111   3.458   5.306   3.718
  404SOL    HW2 2112   3.328   5.273   3.812
  405SOL     OW 2113   2.064   4.954   4.210
  405SOL    HW1 2114   2.120   4.902   4.145
  405SOL    HW2 2115   2.039   5.041   4.169
  406SOL     OW 2116   0.137   6.337   5.759
  406SOL    HW1 2117   0.197   6.292   5.693
  406SOL    HW2 2118   0.183   6.341   5.848
  407SOL     OW 2119   1.935   2.781   4.099
  407SOL    HW1 2120   2.026   2.821   4.090
  407SOL    HW2 2121   1.878   2.840   4.156
  408SOL     OW 2122   2.188   1.618   3.664
  408SOL    HW1 2123   2.095   1.606   3.701
  408SOL    HW2 2124   2.191   1.583   3.571
  409SOL     OW 2125   0.454   3.641   2.614
  409SOL    HW1 2126   0.421   3.734   2.604
  409SOL    HW2 2127   0.515   3.636   2.693
  410SOL     OW 2128   1.584   1.425   1.216
  410SOL    HW1 2129   1.588   1.335   1.260
  410SOL    HW2 2130   1.598   1.414   1.118
  411SOL     OW 2131   6.957   2.940   1.474
  411SOL    HW1 2132   0.013   2.943   1.412
  411SOL    HW2 2133   6.905   2.857   1.458
  412SOL     OW 2134   1.459   4.831   2.512
  412SOL    HW1 2135   1.488   4.744   2.472
  412SOL    HW2 2136   1.379   4.865   2.463
  413SOL     OW 2137   5.895   5.959   2.343
  413SOL    HW1 2138   5.938   5.872   2.368
  413SOL    HW2 2139   5.930   6.032   2.402
  414SOL     OW 2140   1.694   6.747   2.789
  414SOL    HW1 2141   1.651   6.796   2.866
  414SOL    HW2 2142   1.698   6.807   2.710
  415SOL     OW 2143   6.160   1.067   0.399
  415SOL    HW1 2144   6.154   0.969   0.378
  415SOL    HW2 2145   6.153   1.119   0.314
  416SOL     OW 2146   5.469   3.687   5.328
  416SOL    HW1 2147   5.386   3.681   5.272
  416SOL    HW2 2148   5.485   3.782   5.354
  417SOL     OW 2149   2.040   1.928   6.511
  417SOL    HW1 2150   1.996   1.866   6.576
  417SOL    HW2 2151   2.016   1.900   6.418
  418SOL     OW 2152   3.765   6.811   4.657
  418SOL    HW1 2153   3.716   6.851   4.580
  418SOL    HW2 2154   3.795   6.884   4.719
  419SOL     OW 2155   0.062   0.106   0.584
  419SOL    HW1 2156   7.001   0.098   0.531
  419SOL    HW2 2157   0.141   0.084   0.526
  420SOL     OW 2158   3.977   0.641   6.876
  420SOL    HW1 2159   3.880   0.660   6.893
  420SOL    HW2 2160   4.031   0.672   6.954
  421SOL     OW 2161   4.686   4.288   2.271
  421SOL    HW1 2162   4.607   4.283   2.210
  421SOL    HW2 2163   4.759   4.228   2.236
  422SOL     OW 2164   5.263   2.908   1.342
  422SOL    HW1 2165   5.287   2.866   1.254
  422SOL    HW2 2166   5.165   2.927   1.344
  423SOL     OW 2167   3.453   0.971   6.435
  423SOL    HW1 2168   3.407   0.926   6.359
  423SOL    HW2 2169   3.551   0.949   6.433
  424SOL     OW 2170   0.872   3.953   4.288
  424SOL    HW1 2171   0.884   3.860   4.322
  424SOL    HW2 2172   0.938   4.013   4.332
  425SOL     OW 2173   3.054   0.870   6.625
  425SOL    HW1 2174   3.063   0.772   6.606
  425SOL    HW2 2175   2.975   0.885   6.685
  426SOL     OW 2176   2.419   1.887   4.203
  426SOL    HW1 2177   2.386   1.828   4.277
  426SOL    HW2 2178   2.489   1.949   4.239
  427SOL     OW 2179   4.231   2.298   2.982
  427SOL    HW1 2180   4.243   2.215   2.929
  427SOL    HW2 2181   4.139   2.336   2.965
  428SOL     OW 2182   2.605   2.281   5.825
  428SOL    HW1 2183   2.621   2.198   5.771
  428SOL    HW2 2184   2.559   2.256   5.910
  429SOL     OW 2185   6.817   5.381   4.048
  429SOL    HW1 2186   6.733   5.395   3.996
  429SOL    HW2 2187   6.797   5.390   4.146
  430SOL     OW 2188   1.455   0.031   3.583
  430SOL    HW1 2189   1.522   0.102   3.562
  430SOL    HW2 2190   1.480   7.009   3.669
  431SOL     OW 2191   2.300   1.726   1.726
  431SOL    HW1 2192   2.358   1.769   1.656
  431SOL    HW2 2193   2.207   1.762   1.718
  432SOL     OW 2194   4.982   2.063   1.411
  432SOL    HW1 2195   4.992   2.034   1.316
  432SOL    HW2 2196   4.893   2.034   1.445
  433SOL     OW 2197   1.553   5.022   0.946
  433SOL    HW1 2198   1.493   4.942   0.937
  433SOL    HW2 2199   1.613   5.009   1.025
  434SOL     OW 2200   5.233   5.420   3.548
  434SOL    HW1 2201   5.155   5.363   3.523
  434SOL    HW2 2202   5.218   5.514   3.517
  435SOL     OW 2203   3.605   2.077   5.568
  435SOL    HW1 2204   3.544   2.058   5.645
  435SOL    HW2 2205   3.700   2.074   5.600
  436SOL     OW 2206   4.801   6.858   3.131
  436SOL    HW1 2207   4.756   6.923   3.193
  436SOL    HW2 2208   4.743   6.843   3.051
  437SOL     OW 2209   6.300   0.822   4.894
  437SOL    HW1 2210   6.382   0.790   4.846
  437SOL    HW2 2211   6.219   0.801   4.840
  438SOL     OW 2212   0.478   4.587   2.323
  438SOL    HW1 2213   0.494   4.551   2.415
  438SOL    HW2 2214   0.410   4.531   2.276
  439SOL     OW 2215   0.003   0.760   4.633
  439SOL    HW1 2216   7.009   0.854   4.603
  439SOL    HW2 2217   0.039   0.761   4.727
  440SOL     OW 2218   4.292   1.528   0.676
  440SOL    HW1 2219   4.212   1.506   0.621
  440SOL    HW2 2220   4.328   1.617   0.649
  441SOL     OW 2221   0.474   4.456   2.656
  441SOL    HW1 2222   0.454   4.547   2.691
  441SOL    HW2 2223   0.573   4.444   2.650
  442SOL     OW 2224   5.351   2.555   5.536
  442SOL    HW1 2225   5.448   2.569   5.520
  442SOL    HW2 2226   5.298   2.607   5.469
  443SOL     OW 2227   5.169   3.047   1.684
  443SOL    HW1 2228   5.152   2.992   1.766
  443SOL    HW2 2229   5.255   3.018   1.642
  444SOL     OW 2230   4.558   1.595   1.844
  444SOL    HW1 2231   4.516   1.685   1.829
  444SOL    HW2 2232   4.493   1.523   1.820
  445SOL     OW 2233   1.728   5.044   2.686
  445SOL    HW1 2234   1.734   5.045   2.586
  445SOL    HW2 2235   1.638   5.079   2.713
  446SOL     OW 2236   5.843   0.133   1.275
  446SOL    HW1 2237   5.776   0.200   1.305
  446SOL    HW2 2238   5.796   0.052   1.240
  447SOL     OW 2239   6.043   4.620   0.788
  447SOL    HW1 2240   6.113   4.637   0.719
  447SOL    HW2 2241   6.002   4.706   0.816
  448SOL     OW 2242   3.259   0.053   3.494
  448SOL    HW1 2243   3.305   6.992   3.463
  448SOL    HW2 2244   3.327   0.117   3.529
  449SOL     OW 2245   1.509   3.518   5.195
  449SOL    HW1 2246   1.575   3.590   5.216
  449SOL    HW2 2247   1.442   3.511   5.269
  450SOL     OW 2248   6.895   4.901   3.245
  450SOL    HW1 2249   6.909   4.840   3.323
  450SOL    HW2 2250   6.971   4.892   3.180
  451SOL     OW 2251   1.006   1.946   1.224
  451SOL    HW1 2252   0.912   1.918   1.204
  451SOL    HW2 2253   1.017   2.043   1.202
  452SOL     OW 2254   4.905   5.436   2.398
  452SOL    HW1 2255   4.890   5.359   2.460
  452SOL    HW2 2256   4.854   5.421   2.313
  453SOL     OW 2257   3.327   0.916   6.657
  453SOL    HW1 2258   3.228   0.911   6.650
  453SOL    HW2 2259   3.366   0.941   6.568
  454SOL     OW 2260   6.540   3.672   6.284
  454SOL    HW1 2261   6.555   3.673   6.185
  454SOL    HW2 2262   6.626   3.696   6.330
  455SOL     OW 2263   5.091   4.925   5.655
  455SOL    HW1 2264   5.088   4.976   5.569
  455SOL    HW2 2265   5.079   4.828   5.637
  456SOL     OW 2266   2.737   1.076   2.857
  456SOL    HW1 2267   2.747   1.006   2.928
  456SOL    HW2 2268   2.662   1.051   2.796
  457SOL     OW 2269   2.399   6.530   0.406
  457SOL    HW1 2270   2.360   6.607   0.457
  457SOL    HW2 2271   2.443   6.468   0.471
  458SOL     OW 2272   2.968   1.625   3.141
  458SOL    HW1 2273   2.985   1.580   3.054
  458SOL    HW2 2274   2.881   1.593   3.179
  459SOL     OW 2275   3.540   0.401   3.238
  459SOL    HW1 2276   3.597   0.319   3.226
  459SOL    HW2 2277   3.567   0.469   3.170
  460SOL     OW 2278   0.831   1.747   6.511
  460SOL    HW1 2279   0.804   1.695   6.592
  460SOL    HW2 2280   0.797   1.841   6.519
  461SOL     OW 2281   1.219   4.887   5.655
  461SOL    HW1 2282   1.238   4.789   5.661
  461SOL    HW2 2283   1.121   4.903   5.671
  462SOL     OW 2284   3.874   4.019   4.836
  462SOL    HW1 2285   3.871   4.053   4.931
  462SOL    HW2 2286   3.811   4.073   4.780
  463SOL     OW 2287   5.267   6.249   3.818
  463SOL    HW1 2288   5.325   6.321   3.779
  463SOL    HW2 2289   5.277   6.166   3.763
  464SOL     OW 2290   3.933   5.395   6.625
  464SOL    HW1 2291   3.875   5.388   6.544
  464SOL    HW2 2292   4.020   5.349   6.608
  465SOL     OW 2293   0.659   3.974   1.085
  465SOL    HW1 2294   0.689   4.069   1.074
  465SOL    HW2 2295   0.733   3.921   1.129
  466SOL     OW 2296   3.963   5.196   4.711
  466SOL    HW1 2297   3.943   5.099   4.700
  466SOL    HW2 2298   3.901   5.249   4.653
  467SOL     OW 2299   6.170   0.223   1.969
  467SOL    HW1 2300   6.135   0.226   2.062
  467SOL    HW2 2301   6.161   0.313   1.927
  468SOL     OW 2302   3.150   6.558   6.199
  468SOL    HW1 2303   3.219   6.493   6.166
  468SOL    HW2 2304   3.077   6.509   6.246
  469SOL     OW 2305   2.909   4.873   4.473
  469SOL    HW1 2306   2.837   4.842   4.535
  469SOL    HW2 2307   2.982   4.804   4.470
  470SOL     OW 2308   2.540   4.590   2.702
  470SOL    HW1 2309   2.474   4.516   2.719
  470SOL    HW2 2310   2.551   4.603   2.603
  471SOL     OW 2311   1.480   2.456   4.004
  471SOL    HW1 2312   1.442   2.548   3.987
  471SOL    HW2 2313   1.512   2.417   3.918
  472SOL     OW 2314   5.401   3.776   6.462
  472SOL    HW1 2315   5.427   3.720   6.384
  472SOL    HW2 2316   5.354   3.858   6.430
  473SOL     OW 2317   5.982   2.788   2.061
  473SOL    HW1 2318   5.884   2.769   2.055
  473SOL    HW2 2319   6.012   2.779   2.157
  474SOL     OW 2320   4.990   6.087   4.529
  474SOL    HW1 2321   5.021   6.169   4.480
  474SOL    HW2 2322   5.011   6.006   4.473
  475SOL     OW 2323   5.673   1.655   0.315
  475SOL    HW1 2324   5.689   1.749   0.344
  475SOL    HW2 2325   5.675   1.651   0.215
  476SOL     OW 2326   1.263   3.955   0.489
  476SOL    HW1 2327   1.302   3.962   0.397
  476SOL    HW2 2328   1.186   4.018   0.497
  477SOL     OW 2329   1.729   4.799   3.930
  477SOL    HW1 2330   1.706   4.896   3.938
  477SOL    HW2 2331   1.689   4.748   4.006
  478SOL     OW 2332   4.962   6.168   2.331
  478SOL    HW1 2333   5.046   6.183   2.384
  478SOL    HW2 2334   4.982   6.181   2.233
  479SOL     OW 2335   3.424   4.116   3.322
  479SOL    HW1 2336   3.514   4.084   3.353
  479SOL    HW2 2337   3.356   4.100   3.393
  480SOL     OW 2338   0.823   0.979   2.514
  480SOL    HW1 2339   0.904   0.920   2.515
  480SOL    HW2 2340   0.852   1.075   2.510
  481SOL     OW 2341   0.188   0.051   0.868
  481SOL    HW1 2342   0.265   0.108   0.897
  481SOL    HW2 2343   0.157   0.082   0.778
  482SOL     OW 2344   4.045   4.799   2.231
  482SOL    HW1 2345   3.959   4.799   2.180
  482SOL    HW2 2346   4.106   4.730   2.195
  483SOL     OW 2347   5.911   2.278   4.170
  483SOL    HW1 2348   5.831   2.338   4.174
  483SOL    HW2 2349   5.894   2.204   4.106
  484SOL     OW 2350   2.455   4.890   3.986
  484SOL    HW1 2351   2.505   4.856   3.907
  484SOL    HW2 2352   2.391   4.820   4.019
  485SOL     OW 2353   5.558   2.845   1.332
  485SOL    HW1 2354   5.490   2.773   1.341
  485SOL    HW2 2355   5.634   2.827   1.395
  486SOL     OW 2356   5.701   6.278   6.245
  486SOL    HW1 2357   5.671   6.374   6.242
  486SOL    HW2 2358   5.640   6.223   6.188
  487SOL     OW 2359   0.152   6.839   5.711
  487SOL    HW1 2360   0.129   6.763   5.651
  487SOL    HW2 2361   0.247   6.832   5.740
  488SOL     OW 2362   2.100   5.536   3.442
  488SOL    HW1 2363   2.002   5.533   3.463
  488SOL    HW2 2364   2.149   5.478   3.508
  489SOL     OW 2365   2.232   5.500   6.009
  489SOL    HW1 2366   2.191   5.410   5.995
  489SOL    HW2 2367   2.270   5.507   6.101
  490SOL     OW 2368   0.644   4.109   4.651
  490SOL    HW1 2369   0.561   4.117   4.594
  490SOL    HW2 2370   0.618   4.093   4.746
  491SOL     OW 2371   0.228   2.934   0.521
  491SOL    HW1 2372   0.302   2.871   0.545
  491SOL    HW2 2373   0.266   3.023   0.496
  492SOL     OW 2374   1.303   2.869   5.779
  492SOL    HW1 2375   1.302   2.775   5.745
  492SOL    HW2 2376   1.222   2.917   5.746
  493SOL     OW 2377   2.048   5.194   4.988
  493SOL    HW1 2378   1.953   5.169   4.973
  493SOL    HW2 2379   2.089   5.132   5.054
  494SOL     OW 2380   2.773   6.954   4.446
  494SOL    HW1 2381   2.843   6.992   4.506
  494SOL    HW2 2382   2.755   6.859   4.471
  495SOL     OW 2383   3.628   4.000   6.644
  495SOL    HW1 2384   3.722   3.996   6.678
  495SOL    HW2 2385   3.567   4.026   6.718
  496SOL     OW 2386   4.674   1.834   3.337
  496SOL    HW1 2387   4.698   1.738   3.324
  496SOL    HW2 2388   4.754   1.892   3.318
  497SOL     OW 2389   4.970   1.567   0.432
  497SOL    HW1 2390   4.998   1.587   0.338
  497SOL    HW2 2391   5.046   1.521   0.480
  498SOL     OW 2392   0.184   6.830   1.308
  498SOL    HW1 2393   0.198   6.909   1.248
  498SOL    HW2 2394   0.160   6.861   1.400
  499SOL     OW 2395   2.656   5.955   0.341
  499SOL    HW1 2396   2.697   5.898   0.270
  499SOL    HW2 2397   2.594   6.021   0.299
  500SOL     OW 2398   5.549   2.132   0.045
  500SOL    HW1 2399   5.461   2.087   0.063
  500SOL    HW2 2400   5.559   2.149   6.970
  501SOL     OW 2401   0.899   1.521   4.610
  501SOL    HW1 2402   0.980   1.522   4.668
  501SOL    HW2 2403   0.817   1.512   4.667
  502SOL     OW 2404   2.670   4.382   6.990
  502SOL    HW1 2405   2.654   4.435   0.050
  502SOL    HW2 2406   2.719   4.438   6.924
  503SOL     OW 2407   4.016   5.500   0.827
  503SOL    HW1 2408   4.042   5.438   0.754
  503SOL    HW2 2409   4.094   5.516   0.888
  504SOL     OW 2410   6.854   5.732   1.550
  504SOL    HW1 2411   6.950   5.731   1.579
  504SOL    HW2 2412   6.796   5.756   1.628
  505SOL     OW 2413   4.929   5.764   5.370
  505SOL    HW1 2414   4.873   5.813   5.437
  505SOL    HW2 2415   4.894   5.671   5.361
  506SOL     OW 2416   4.144   5.046   2.598
  506SOL    HW1 2417   4.225   4.990   2.578
  506SOL    HW2 2418   4.074   4.989   2.641
  507SOL     OW 2419   3.284   0.726   1.762
  507SOL    HW1 2420   3.346   0.721   1.840
  507SOL    HW2 2421   3.330   0.771   1.686
  508SOL     OW 2422   0.422   4.510   3.052
  508SOL    HW1 2423   0.446   4.414   3.068
  508SOL    HW2 2424   0.324   4.522   3.065
  509SOL     OW 2425   4.460   0.258   5.912
  509SOL    HW1 2426   4.519   0.238   5.833
  509SOL    HW2 2427   4.447   0.357   5.918
  510SOL     OW 2428   6.465   3.814   0.059
  510SOL    HW1 2429   6.429   3.836   6.992
  510SOL    HW2 2430   6.420   3.871   0.128
  511SOL     OW 2431   0.509   1.741   0.468
  511SOL    HW1 2432   0.420   1.697   0.454
  511SOL    HW2 2433   0.533   1.738   0.566
  512SOL     OW 2434   0.601   2.388   3.893
  512SOL    HW1 2435   0.671   2.427   3.952
  512SOL    HW2 2436   0.528   2.349   3.949
  513SOL     OW 2437   4.923   0.978   3.381
  513SOL    HW1 2438   4.963   0.923   3.309
  513SOL    HW2 2439   4.993   1.037   3.421
  514SOL     OW 2440   5.395   0.970   4.789
  514SOL    HW1 2441   5.411   1.028   4.868
  514SOL    HW2 2442   5.464   0.990   4.719
  515SOL     OW 2443   4.067   0.045   6.218
  515SOL    HW1 2444   4.018   0.055   6.132
  515SOL    HW2 2445   4.106   6.976   6.224
  516SOL     OW 2446   2.123   6.076   2.413
  516SOL    HW1 2447   2.085   5.987   2.441
  516SOL    HW2 2448   2.223   6.069   2.408
  517SOL     OW 2449   2.833   5.740   1.403
  517SOL    HW1 2450   2.857   5.644   1.417
  517SOL    HW2 2451   2.907   5.787   1.355
  518SOL     OW 2452   1.724   4.101   4.377
  518SOL    HW1 2453   1.707   4.003   4.381
  518SOL    HW2 2454   1.810   4.122   4.424
  519SOL     OW 2455   0.070   0.703   2.114
  519SOL    HW1 2456   0.022   0.733   2.197
  519SOL    HW2 2457   0.023   0.739   2.033
  520SOL     OW 2458   1.997   4.126   0.758
  520SOL    HW1 2459   1.918   4.072   0.730
  520SOL    HW2 2460   2.067   4.066   0.795
  521SOL     OW 2461   6.498   6.345   4.401
  521SOL    HW1 2462   6.571   6.372   4.464
  521SOL    HW2 2463   6.422   6.305   4.452
  522SOL     OW 2464   3.741   4.430   1.127
  522SOL    HW1 2465   3.712   4.427   1.222
  522SOL    HW2 2466   3.786   4.344   1.103
  523SOL     OW 2467   0.705   0.010   0.459
  523SOL    HW1 2468   0.632   0.018   0.528
  523SOL    HW2 2469   0.672   0.045   0.372
  524SOL     OW 2470   6.574   1.784   1.460
  524SOL    HW1 2471   6.498   1.846   1.442
  524SOL    HW2 2472   6.649   1.834   1.503
  525SOL     OW 2473   0.529   3.445   4.497
  525SOL    HW1 2474   0.461   3.503   4.542
  525SOL    HW2 2475   0.488   3.358   4.470
  526SOL     OW 2476   3.679   0.325   3.914
  526SOL    HW1 2477   3.748   0.310   3.844
  526SOL    HW2 2478   3.606   0.383   3.878
  527SOL     OW 2479   0.297   1.270   0.734
  527SOL    HW1 2480   0.296   1.351   0.675
  527SOL    HW2 2481   0.387   1.259   0.774
  528SOL     OW 2482   6.924   2.903   4.765
  528SOL    HW1 2483   6.849   2.936   4.708
  528SOL    HW2 2484   6.976   2.833   4.715
  529SOL     OW 2485   1.664   6.802   6.917
  529SOL    HW1 2486   1.683   6.896   6.889
  529SOL    HW2 2487   1.638   6.801   7.014
  530SOL     OW 2488   3.613   4.793   1.030
  530SOL    HW1 2489   3.548   4.740   1.086
  530SOL    HW2 2490   3.680   4.730   0.990
  531SOL     OW 2491   1.875   0.154   0.612
  531SOL    HW1 2492   1.911   0.154   0.519
  531SOL    HW2 2493   1.775   0.150   0.609
  532SOL     OW 2494   1.654   2.446   5.966
  532SOL    HW1 2495   1.742   2.489   5.945
  532SOL    HW2 2496   1.579   2.509   5.943
  533SOL     OW 2497   4.167   0.392   3.970
  533SOL    HW1 2498   4.186   0.490   3.965
  533SOL    HW2 2499   4.147   0.367   4.065
  534SOL     OW 2500   1.791   3.995   2.136
  534SOL    HW1 2501   1.709   3.957   2.093
  534SOL    HW2 2502   1.841   4.050   2.069
  535SOL     OW 2503   4.886   3.414   3.830
  535SOL    HW1 2504   4.830   3.446   3.754
  535SOL    HW2 2505   4.882   3.314   3.834
  536SOL     OW 2506   6.679   6.822   2.026
  536SOL    HW1 2507   6.713   6.865   2.110
  536SOL    HW2 2508   6.676   6.890   1.953
  537SOL     OW 2509   2.929   1.619   3.512
  537SOL    HW1 2510   2.979   1.552   3.457
  537SOL    HW2 2511   2.943   1.710   3.473
  538SOL     OW 2512   3.436   4.866   5.134
  538SOL    HW1 2513   3.412   4.850   5.039
  538SOL    HW2 2514   3.358   4.905   5.182
  539SOL     OW 2515   0.765   0.014   0.142
  539SOL    HW1 2516   0.762   6.938   0.157
  539SOL    HW2 2517   0.842   0.036   0.082
  540SOL     OW 2518   1.220   0.569   4.558
  540SOL    HW1 2519   1.181   0.514   4.484
  540SOL    HW2 2520   1.298   0.621   4.523
  541SOL     OW 2521   5.119   5.917   3.832
  541SOL    HW1 2522   5.166   6.003   3.812
  541SOL    HW2 2523   5.186   5.843   3.836
  542SOL     OW 2524   3.487   0.350   5.216
  542SOL    HW1 2525   3.451   0.338   5.124
  542SOL    HW2 2526   3.575   0.304   5.225
  543SOL     OW 2527   6.418   2.169   3.933
  543SOL    HW1 2528   6.481   2.103   3.974
  543SOL    HW2 2529   6.349   2.196   4.000
  544SOL     OW 2530   1.589   3.388   1.457
  544SOL    HW1 2531   1.491   3.392   1.479
  544SOL    HW2 2532   1.617   3.476   1.418
  545SOL     OW 2533   6.126   0.014   1.668
  545SOL    HW1 2534   6.127   0.012   1.768
  545SOL    HW2 2535   6.150   6.947   1.632
  546SOL     OW 2536   0.212   4.389   2.564
  546SOL    HW1 2537   0.240   4.366   2.471
  546SOL    HW2 2538   0.291   4.422   2.616
  547SOL     OW 2539   5.077   0.796   6.125
  547SOL    HW1 2540   5.051   0.816   6.220
  547SOL    HW2 2541   5.170   0.760   6.123
  548SOL     OW 2542   4.331   2.050   0.028
  548SOL    HW1 2543   4.249   2.006   0.064
  548SOL    HW2 2544   4.312   2.086   6.959
  549SOL     OW 2545   5.526   1.206   1.538
  549SOL    HW1 2546   5.439   1.244   1.569
  549SOL    HW2 2547   5.601   1.250   1.586
  550SOL     OW 2548   0.298   6.020   3.343
  550SOL    HW1 2549   0.337   5.945   3.289
  550SOL    HW2 2550   0.332   6.107   3.307
  551SOL     OW 2551   6.335   0.488   0.380
  551SOL    HW1 2552   6.362   0.409   0.324
  551SOL    HW2 2553   6.244   0.470   0.420
  552SOL     OW 2554   0.273   6.238   5.537
  552SOL    HW1 2555   0.366   6.265   5.561
  552SOL    HW2 2556   0.274   6.143   5.505
  553SOL     OW 2557   3.357   1.299   6.959
  553SOL    HW1 2558   3.386   1.255   6.874
  553SOL    HW2 2559   3.277   1.356   6.941
  554SOL     OW 2560   5.421   6.479   1.386
  554SOL    HW1 2561   5.448   6.447   1.295
  554SOL    HW2 2562   5.355   6.554   1.377
  555SOL     OW 2563   1.536   3.760   5.695
  555SOL    HW1 2564   1.561   3.670   5.731
  555SOL    HW2 2565   1.514   3.752   5.598
  556SOL     OW 2566   6.005   0.380   3.733
  556SOL    HW1 2567   5.937   0.368   3.661
  556SOL    HW2 2568   6.055   0.465   3.717
  557SOL     OW 2569   6.529   4.242   6.632
  557SOL    HW1 2570   6.578   4.223   6.547
  557SOL    HW2 2571   6.539   4.164   6.694
  558SOL     OW 2572   3.106   3.931   2.276
  558SOL    HW1 2573   3.053   3.853   2.243
  558SOL    HW2 2574   3.087   3.947   2.373
  559SOL     OW 2575   6.293   6.480   5.566
  559SOL    HW1 2576   6.207   6.452   5.608
  559SOL    HW2 2577   6.287   6.576   5.538
  560SOL     OW 2578   6.991   3.135   4.194
  560SOL    HW1 2579   6.951   3.180   4.274
  560SOL    HW2 2580   6.949   3.172   4.111
  561SOL     OW 2581   0.704   2.696   0.418
  561SOL    HW1 2582   0.656   2.747   0.347
  561SOL    HW2 2583   0.739   2.760   0.487
  562SOL     OW 2584   4.188   0.226   4.910
  562SOL    HW1 2585   4.275   0.242   4.957
  562SOL    HW2 2586   4.202   0.233   4.811
  563SOL     OW 2587   1.159   0.612   3.897
  563SOL    HW1 2588   1.253   0.580   3.889
  563SOL    HW2 2589   1.155   0.689   3.960
  564SOL     OW 2590   6.606   1.513   6.384
  564SOL    HW1 2591   6.598   1.591   6.447
  564SOL    HW2 2592   6.703   1.497   6.364
  565SOL     OW 2593   3.355   3.273   3.606
  565SOL    HW1 2594   3.313   3.364   3.616
  565SOL    HW2 2595   3.408   3.270   3.521
  566SOL     OW 2596   3.069   0.644   3.887
  566SOL    HW1 2597   3.065   0.717   3.818
  566SOL    HW2 2598   3.116   0.678   3.968
  567SOL     OW 2599   2.387   2.786   5.503
  567SOL    HW1 2600   2.295   2.824   5.509
  567SOL    HW2 2601   2.454   2.860   5.512
  568SOL     OW 2602   0.708   6.542   6.949
  568SOL    HW1 2603   0.781   6.494   6.901
  568SOL    HW2 2604   0.743   6.628   6.986
  569SOL     OW 2605   6.273   3.018   0.043
  569SOL    HW1 2606   6.210   3.029   0.120
  569SOL    HW2 2607   6.331   2.938   0.059
  570SOL     OW 2608   2.367   0.510   6.176
  570SOL    HW1 2609   2.378   0.590   6.236
  570SOL    HW2 2610   2.451   0.457   6.176
  571SOL     OW 2611   2.520   4.882   1.397
  571SOL    HW1 2612   2.461   4.944   1.451
  571SOL    HW2 2613   2.546   4.804   1.453
  572SOL     OW 2614   2.862   0.374   4.490
  572SOL    HW1 2615   2.911   0.337   4.411
  572SOL    HW2 2616   2.853   0.473   4.480
  573SOL     OW 2617   0.195   0.471   5.540
  573SOL    HW1 2618   0.252   0.391   5.520
  573SOL    HW2 2619   0.243   0.530   5.605
  574SOL     OW 2620   2.273   1.797   5.353
  574SOL    HW1 2621   2.176   1.819   5.342
  574SOL    HW2 2622   2.296   1.718   5.296
  575SOL     OW 2623   4.143   3.074   0.434
  575SOL    HW1 2624   4.132   3.132   0.354
  575SOL    HW2 2625   4.130   3.128   0.517
  576SOL     OW 2626   2.258   2.945   2.617
  576SOL    HW1 2627   2.293   2.878   2.683
  576SOL    HW2 2628   2.213   2.897   2.542
  577SOL     OW 2629   0.744   0.852   1.428
  577SOL    HW1 2630   0.708   0.906   1.504
  577SOL    HW2 2631   0.668   0.822   1.370
  578SOL     OW 2632   3.106   6.754   6.493
  578SOL    HW1 2633   3.093   6.843   6.449
  578SOL    HW2 2634   3.144   6.689   6.427
  579SOL     OW 2635   2.016   3.677   1.921
  579SOL    HW1 2636   1.938   3.619   1.896
  579SOL    HW2 2637   2.095   3.619   1.943
  580SOL     OW 2638   4.481   5.661   4.774
  580SOL    HW1 2639   4.475   5.563   4.794
  580SOL    HW2 2640   4.500   5.674   4.677
  581SOL     OW 2641   1.514   2.852   4.627
  581SOL    HW1 2642   1.425   2.893   4.644
  581SOL    HW2 2643   1.513   2.756   4.654
  582SOL     OW 2644   4.940   5.181   4.137
  582SOL    HW1 2645   4.987   5.269   4.128
  582SOL    HW2 2646   4.899   5.156   4.050
  583SOL     OW 2647   4.502   6.129   5.845
  583SOL    HW1 2648   4.482   6.166   5.935
  583SOL    HW2 2649   4.518   6.204   5.781
  584SOL     OW 2650   4.857   0.922   4.873
  584SOL    HW1 2651   4.835   0.871   4.956
  584SOL    HW2 2652   4.782   0.983   4.850
  585SOL     OW 2653   2.993   0.580   1.916
  585SOL    HW1 2654   3.035   0.636   1.988
  585SOL    HW2 2655   3.010   0.483   1.935
  586SOL     OW 2656   3.715   0.719   0.767
  586SOL    HW1 2657   3.768   0.642   0.803
  586SOL    HW2 2658   3.618   0.705   0.788
  587SOL     OW 2659   4.843   2.110   1.696
  587SOL    HW1 2660   4.939   2.086   1.705
  587SOL    HW2 2661   4.797   2.094   1.783
  588SOL     OW 2662   2.085   5.428   3.183
  588SOL    HW1 2663   2.004   5.377   3.154
  588SOL    HW2 2664   2.096   5.420   3.282
  589SOL     OW 2665   3.029   5.635   1.036
  589SOL    HW1 2666   2.988   5.585   1.113
  589SOL    HW2 2667   3.007   5.733   1.045
  590SOL     OW 2668   4.217   2.127   0.594
  590SOL    HW1 2669   4.230   2.090   0.686
  590SOL    HW2 2670   4.130   2.175   0.589
  591SOL     OW 2671   3.048   6.025   4.225
  591SOL    HW1 2672   3.090   6.042   4.136
  591SOL    HW2 2673   3.089   6.086   4.293
  592SOL     OW 2674   3.713   2.146   4.220
  592SOL    HW1 2675   3.746   2.218   4.280
  592SOL    HW2 2676   3.616   2.129   4.238
  593SOL     OW 2677   2.805   1.972   6.838
  593SOL    HW1 2678   2.901   1.978   6.811
  593SOL    HW2 2679   2.747   1.972   6.757
  594SOL     OW 2680   4.947   1.115   2.082
  594SOL    HW1 2681   4.910   1.121   2.175
  594SOL    HW2 2682   4.959   1.019   2.057
  595SOL     OW 2683   5.814   5.668   2.406
  595SOL    HW1 2684   5.767   5.606   2.344
  595SOL    HW2 2685   5.752   5.694   2.481
  596SOL     OW 2686   6.087   4.906   4.374
  596SOL    HW1 2687   6.005   4.930   4.426
  596SOL    HW2 2688   6.131   4.826   4.415
  597SOL     OW 2689   2.561   0.395   6.405
  597SOL    HW1 2690   2.616   0.407   6.322
  597SOL    HW2 2691   2.577   0.304   6.443
  598SOL     OW 2692   3.174   4.048   4.280
  598SOL    HW1 2693   3.095   3.999   4.245
  598SOL    HW2 2694   3.168   4.054   4.380
  599SOL     OW 2695   1.260   4.687   1.612
  599SOL    HW1 2696   1.182   4.635   1.646
  599SOL    HW2 2697   1.295   4.747   1.684
  600SOL     OW 2698   6.601   3.663   5.074
  600SOL    HW1 2699   6.582   3.711   4.988
  600SOL    HW2 2700   6.696   3.680   5.102
  601SOL     OW 2701   1.501   6.408   5.683
  601SOL    HW1 2702   1.489   6.370   5.775
  601SOL    HW2 2703   1.450   6.352   5.617
  602SOL     OW 2704   1.966   0.119   3.719
  602SOL    HW1 2705   1.881   0.172   3.729
  602SOL    HW2 2706   2.005   0.101   3.810
  603SOL     OW 2707   1.244   1.530   4.959
  603SOL    HW1 2708   1.210   1.452   5.012
  603SOL    HW2 2709   1.225   1.615   5.009
  604SOL     OW 2710   6.273   2.264   1.982
  604SOL    HW1 2711   6.215   2.243   1.904
  604SOL    HW2 2712   6.249   2.354   2.018
  605SOL     OW 2713   6.889   6.476   1.539
  605SOL    HW1 2714   6.979   6.437   1.560
  605SOL    HW2 2715   6.838   6.488   1.624
  606SOL     OW 2716   3.688   6.915   4.414
  606SOL    HW1 2717   3.612   6.979   4.421
  606SOL    HW2 2718   3.660   6.837   4.357
  607SOL     OW 2719   1.632   3.889   6.063
  607SOL    HW1 2720   1.534   3.903   6.072
  607SOL    HW2 2721   1.680   3.975   6.075
  608SOL     OW 2722   2.968   1.321   5.589
  608SOL    HW1 2723   2.968   1.228   5.624
  608SOL    HW2 2724   2.967   1.386   5.665
  609SOL     OW 2725   3.205   2.870   1.922
  609SOL    HW1 2726   3.241   2.792   1.871
  609SOL    HW2 2727   3.114   2.848   1.956
  610SOL     OW 2728   4.779   3.501   1.699
  610SOL    HW1 2729   4.787   3.519   1.601
  610SOL    HW2 2730   4.729   3.416   1.713
  611SOL     OW 2731   3.106   0.454   2.864
  611SOL    HW1 2732   3.180   0.396   2.896
  611SOL    HW2 2733   3.115   0.470   2.766
  612SOL     OW 2734   4.098   4.885   4.852
  612SOL    HW1 2735   4.190   4.852   4.829
  612SOL    HW2 2736   4.053   4.918   4.769
  613SOL     OW 2737   4.339   4.752   5.540
  613SOL    HW1 2738   4.244   4.777   5.519
  613SOL    HW2 2739   4.367   4.796   5.625
  614SOL     OW 2740   3.326   5.764   6.006
  614SOL    HW1 2741   3.299   5.825   5.931
  614SOL    HW2 2742   3.360   5.678   5.969
  615SOL     OW 2743   0.971   5.052   2.197
  615SOL    HW1 2744   0.976   4.962   2.153
  615SOL    HW2 2745   0.958   5.040   2.295
  616SOL     OW 2746   6.050   3.447   3.368
  616SOL    HW1 2747   6.005   3.416   3.451
  616SOL    HW2 2748   6.148   3.434   3.375
  617SOL     OW 2749   3.343   6.381   6.140
  617SOL    HW1 2750   3.432   6.420   6.163
  617SOL    HW2 2751   3.348   6.281   6.143
  618SOL     OW 2752   1.337   1.176   2.707
  618SOL    HW1 2753   1.315   1.272   2.725
  618SOL    HW2 2754   1.420   1.170   2.653
  619SOL     OW 2755   0.269   1.265   7.005
  619SOL    HW1 2756   0.336   1.332   6.974
  619SOL    HW2 2757   0.305   1.217   0.062
  620SOL     OW 2758   4.313   3.563   1.291
  620SOL    HW1 2759   4.350   3.612   1.213
  620SOL    HW2 2760   4.238   3.616   1.331
  621SOL     OW 2761   0.660   4.803   1.122
  621SOL    HW1 2762   0.623   4.763   1.206
  621SOL    HW2 2763   0.739   4.860   1.145
  622SOL     OW 2764   1.247   0.401   6.948
  622SOL    HW1 2765   1.250   0.410   6.849
  622SOL    HW2 2766   1.194   0.475   6.988
  623SOL     OW 2767   0.327   4.589   6.350
  623SOL    HW1 2768   0.241   4.558   6.390
  623SOL    HW2 2769   0.393   4.610   6.422
  624SOL     OW 2770   1.232   2.302   1.811
  624SOL    HW1 2771   1.332   2.293   1.815
  624SOL    HW2 2772   1.207   2.362   1.734
  625SOL     OW 2773   1.958   1.201   1.811
  625SOL    HW1 2774   1.899   1.127   1.844
  625SOL    HW2 2775   2.037   1.162   1.764
  626SOL     OW 2776   3.416   6.708   4.467
  626SOL    HW1 2777   3.469   6.681   4.386
  626SOL    HW2 2778   3.345   6.773   4.440
  627SOL     OW 2779   4.652   0.743   0.063
  627SOL    HW1 2780   4.650   0.744   0.163
  627SOL    HW2 2781   4.595   0.668   0.029
  628SOL     OW 2782   5.290   4.042   3.625
  628SOL    HW1 2783   5.328   4.016   3.714
  628SOL    HW2 2784   5.208   3.987   3.608
  629SOL     OW 2785   1.620   6.252   0.256
  629SOL    HW1 2786   1.573   6.339   0.275
  629SOL    HW2 2787   1.666   6.257   0.168
  630SOL     OW 2788   3.736   2.084   1.329
  630SOL    HW1 2789   3.672   2.008   1.337
  630SOL    HW2 2790   3.802   2.081   1.404
  631SOL     OW 2791   2.378   6.785   4.856
  631SOL    HW1 2792   2.320   6.829   4.924
  631SOL    HW2 2793   2.367   6.831   4.768
  632SOL     OW 2794   2.054   1.388   0.977
  632SOL    HW1 2795   1.975   1.449   0.984
  632SOL    HW2 2796   2.034   1.315   0.912
  633SOL     OW 2797   2.372   0.085   5.968
  633SOL    HW1 2798   2.354   0.126   5.879
  633SOL    HW2 2799   2.310   0.008   5.982
  634SOL     OW 2800   3.409   6.024   0.471
  634SOL    HW1 2801   3.508   6.039   0.471
  634SOL    HW2 2802   3.384   5.967   0.549
  635SOL     OW 2803   2.682   0.616   3.347
  635SOL    HW1 2804   2.680   0.571   3.257
  635SOL    HW2 2805   2.651   0.551   3.417
  636SOL     OW 2806   5.390   5.393   0.155
  636SOL    HW1 2807   5.329   5.322   0.191
  636SOL    HW2 2808   5.425   5.365   0.066
  637SOL     OW 2809   5.362   4.634   0.708
  637SOL    HW1 2810   5.385   4.550   0.758
  637SOL    HW2 2811   5.400   4.629   0.616
  638SOL     OW 2812   5.337   1.549   2.749
  638SOL    HW1 2813   5.316   1.463   2.702
  638SOL    HW2 2814   5.344   1.533   2.847
  639SOL     OW 2815   4.289   4.664   2.136
  639SOL    HW1 2816   4.381   4.625   2.133
  639SOL    HW2 2817   4.241   4.642   2.051
  640SOL     OW 2818   3.110   4.377   5.749
  640SOL    HW1 2819   3.149   4.442   5.685
  640SOL    HW2 2820   3.077   4.425   5.830
  641SOL     OW 2821   6.969   5.863   5.005
  641SOL    HW1 2822   6.989   5.836   4.911
  641SOL    HW2 2823   6.956   5.782   5.062
  642SOL     OW 2824   1.655   4.649   5.907
  642SOL    HW1 2825   1.640   4.701   5.823
  642SOL    HW2 2826   1.639   4.708   5.986
  643SOL     OW 2827   5.442   6.081   4.662
  643SOL    HW1 2828   5.416   6.175   4.684
  643SOL    HW2 2829   5.407   6.019   4.733
  644SOL     OW 2830   1.954   6.131   1.951
  644SOL    HW1 2831   1.877   6.166   1.897
  644SOL    HW2 2832   2.039   6.141   1.900
  645SOL     OW 2833   5.984   3.370   3.616
  645SOL    HW1 2834   5.979   3.276   3.583
  645SOL    HW2 2835   5.984   3.370   3.716
  646SOL     OW 2836   1.269   1.718   4.369
  646SOL    HW1 2837   1.180   1.722   4.414
  646SOL    HW2 2838   1.308   1.811   4.364
  647SOL     OW 2839   5.352   3.157   0.428
  647SOL    HW1 2840   5.282   3.127   0.492
  647SOL    HW2 2841   5.387   3.078   0.378
  648SOL     OW 2842   5.656   2.123   2.897
  648SOL    HW1 2843   5.732   2.188   2.910
  648SOL    HW2 2844   5.572   2.164   2.930
  649SOL     OW 2845   4.176   4.598   1.916
  649SOL    HW1 2846   4.196   4.511   1.871
  649SOL    HW2 2847   4.181   4.672   1.850
  650SOL     OW 2848   4.030   3.850   0.973
  650SOL    HW1 2849   3.936   3.880   0.990
  650SOL    HW2 2850   4.028   3.763   0.923
  651SOL     OW 2851   1.093   5.521   6.221
  651SOL    HW1 2852   1.147   5.498   6.302
  651SOL    HW2 2853   1.015   5.577   6.247
  652SOL     OW 2854   4.095   1.377   2.392
  652SOL    HW1 2855   4.023   1.316   2.361
  652SOL    HW2 2856   4.169   1.379   2.325
  653SOL     OW 2857   4.101   5.156   3.260
  653SOL    HW1 2858   4.112   5.160   3.359
  653SOL    HW2 2859   4.156   5.228   3.218
  654SOL     OW 2860   6.269   5.285   0.475
  654SOL    HW1 2861   6.276   5.238   0.387
  654SOL    HW2 2862   6.358   5.321   0.500
  655SOL     OW 2863   0.351   0.665   6.865
  655SOL    HW1 2864   0.393   0.587   6.818
  655SOL    HW2 2865   0.308   0.634   6.949
  656SOL     OW 2866   2.753   6.377   2.149
  656SOL    HW1 2867   2.779   6.433   2.228
  656SOL    HW2 2868   2.691   6.429   2.090
  657SOL     OW 2869   3.928   1.575   6.771
  657SOL    HW1 2870   3.857   1.533   6.827
  657SOL    HW2 2871   3.930   1.674   6.790
  658SOL     OW 2872   3.756   5.334   6.422
  658SOL    HW1 2873   3.721   5.412   6.372
  658SOL    HW2 2874   3.741   5.250   6.370
  659SOL     OW 2875   2.591   0.149   6.564
  659SOL    HW1 2876   2.563   0.053   6.576
  659SOL    HW2 2877   2.686   0.153   6.534
  660SOL     OW 2878   4.013   5.465   3.139
  660SOL    HW1 2879   4.092   5.523   3.118
  660SOL    HW2 2880   3.993   5.471   3.236
  661SOL     OW 2881   5.559   5.635   2.759
  661SOL    HW1 2882   5.609   5.599   2.838
  661SOL    HW2 2883   5.618   5.697   2.707
  662SOL     OW 2884   3.671   1.317   0.458
  662SOL    HW1 2885   3.682   1.412   0.487
  662SOL    HW2 2886   3.756   1.267   0.474
  663SOL     OW 2887   2.243   4.748   4.963
  663SOL    HW1 2888   2.272   4.843   4.976
  663SOL    HW2 2889   2.324   4.691   4.952
  664SOL     OW 2890   6.327   1.040   6.975
  664SOL    HW1 2891   6.388   1.013   6.900
  664SOL    HW2 2892   6.278   0.959   7.009
  665SOL     OW 2893   2.341   5.146   2.720
  665SOL    HW1 2894   2.306   5.159   2.812
  665SOL    HW2 2895   2.271   5.172   2.654
  666SOL     OW 2896   3.978   0.872   1.643
  666SOL    HW1 2897   4.005   0.940   1.575
  666SOL    HW2 2898   4.041   0.795   1.641
  667SOL     OW 2899   1.056   6.446   2.413
  667SOL    HW1 2900   1.148   6.409   2.415
  667SOL    HW2 2901   1.018   6.437   2.321
  668SOL     OW 2902   5.205   3.797   0.408
  668SOL    HW1 2903   5.238   3.712   0.367
  668SOL    HW2 2904   5.269   3.827   0.478
  669SOL     OW 2905   4.755   1.383   2.450
  669SOL    HW1 2906   4.760   1.483   2.452
  669SOL    HW2 2907   4.659   1.355   2.439
  670SOL     OW 2908   2.672   1.869   3.182
  670SOL    HW1 2909   2.652   1.775   3.209
  670SOL    HW2 2910   2.718   1.916   3.257
  671SOL     OW 2911   3.428   6.910   1.050
  671SOL    HW1 2912   3.333   6.883   1.035
  671SOL    HW2 2913   3.451   6.986   0.989
  672SOL     OW 2914   1.115   6.529   2.085
  672SOL    HW1 2915   1.132   6.615   2.134
  672SOL    HW2 2916   1.190   6.466   2.102
  673SOL     OW 2917   5.635   6.352   0.715
  673SOL    HW1 2918   5.675   6.325   0.803
  673SOL    HW2 2919   5.663   6.286   0.645
  674SOL     OW 2920   6.370   1.364   4.441
  674SOL    HW1 2921   6.395   1.345   4.535
  674SOL    HW2 2922   6.283   1.413   4.439
  675SOL     OW 2923   0.078   3.111   2.631
  675SOL    HW1 2924   0.013   3.035   2.640
  675SOL    HW2 2925   0.068   3.173   2.708
  676SOL     OW 2926   2.837   6.101   5.652
  676SOL    HW1 2927   2.837   6.128   5.748
  676SOL    HW2 2928   2.925   6.123   5.611
  677SOL     OW 2929   5.012   1.508   1.180
  677SOL    HW1 2930   5.049   1.560   1.258
  677SOL    HW2 2931   5.065   1.425   1.167
  678SOL     OW 2932   1.813   5.100   4.859
  678SOL    HW1 2933   1.818   5.019   4.917
  678SOL    HW2 2934   1.730   5.153   4.882
  679SOL     OW 2935   5.221   2.053   5.157
  679SOL    HW1 2936   5.200   1.957   5.172
  679SOL    HW2 2937   5.265   2.091   5.238
  680SOL     OW 2938   5.506   6.988   4.321
  680SOL    HW1 2939   5.514   6.926   4.399
  680SOL    HW2 2940   5.523   0.059   4.352
  681SOL     OW 2941   4.360   4.897   2.578
  681SOL    HW1 2942   4.456   4.921   2.566
  681SOL    HW2 2943   4.353   4.808   2.624
  682SOL     OW 2944   0.455   0.887   3.301
  682SOL    HW1 2945   0.388   0.936   3.246
  682SOL    HW2 2946   0.543   0.888   3.255
  683SOL     OW 2947   4.099   3.674   1.499
  683SOL    HW1 2948   4.168   3.689   1.569
  683SOL    HW2 2949   4.106   3.745   1.429
  684SOL     OW 2950   6.617   0.629   6.619
  684SOL    HW1 2951   6.584   0.537   6.600
  684SOL    HW2 2952   6.577   0.694   6.554
  685SOL     OW 2953   3.306   0.302   2.963
  685SOL    HW1 2954   3.380   0.290   2.897
  685SOL    HW2 2955   3.279   0.213   3.000
  686SOL     OW 2956   4.409   0.638   4.640
  686SOL    HW1 2957   4.389   0.736   4.631
  686SOL    HW2 2958   4.479   0.613   4.573
  687SOL     OW 2959   0.623   1.805   3.974
  687SOL    HW1 2960   0.638   1.737   3.903
  687SOL    HW2 2961   0.597   1.759   4.059
  688SOL     OW 2962   6.501   0.955   6.774
  688SOL    HW1 2963   6.546   0.985   6.690
  688SOL    HW2 2964   6.570   0.921   6.839
  689SOL     OW 2965   1.767   5.562   5.911
  689SOL    HW1 2966   1.681   5.566   5.860
  689SOL    HW2 2967   1.782   5.650   5.957
  690SOL     OW 2968   5.558   3.584   2.376
  690SOL    HW1 2969   5.521   3.673   2.350
  690SOL    HW2 2970   5.615   3.595   2.457
  691SOL     OW 2971   5.427   1.710   0.987
  691SOL    HW1 2972   5.448   1.805   1.011
  691SOL    HW2 2973   5.327   1.699   0.980
  692SOL     OW 2974   2.116   0.529   4.878
  692SOL    HW1 2975   2.192   0.514   4.814
  692SOL    HW2 2976   2.056   0.450   4.877
  693SOL     OW 2977   5.446   6.395   3.676
  693SOL    HW1 2978   5.491   6.315   3.635
  693SOL    HW2 2979   5.444   6.469   3.609
  694SOL     OW 2980   4.670   6.679   5.293
  694SOL    HW1 2981   4.604   6.753   5.306
  694SOL    HW2 2982   4.739   6.707   5.226
  695SOL     OW 2983   3.677   0.176   4.152
  695SOL    HW1 2984   3.765   0.133   4.168
  695SOL    HW2 2985   3.676   0.220   4.063
  696SOL     OW 2986   5.406   4.354   3.257
  696SOL    HW1 2987   5.404   4.401   3.345
  696SOL    HW2 2988   5.384   4.257   3.271
  697SOL     OW 2989   1.230   5.998   2.095
  697SOL    HW1 2990   1.176   6.073   2.057
  697SOL    HW2 2991   1.326   6.026   2.099
  698SOL     OW 2992   5.896   6.399   0.407
  698SOL    HW1 2993   5.959   6.476   0.413
  698SOL    HW2 2994   5.930   6.332   0.340
  699SOL     OW 2995   2.592   2.722   1.029
  699SOL    HW1 2996   2.667   2.671   0.988
  699SOL    HW2 2997   2.596   2.715   1.129
  700SOL     OW 2998   3.379   0.518   3.993
  700SOL    HW1 2999   3.364   0.435   4.045
  700SOL    HW2 3000   3.337   0.508   3.902
  701SOL     OW 3001   5.198   5.204   1.388
  701SOL    HW1 3002   5.163   5.290   1.352
  701SOL    HW2 3003   5.190   5.132   1.319
  702SOL     OW 3004   3.369   1.134   4.254
  702SOL    HW1 3005   3.320   1.057   4.294
  702SOL    HW2 3006   3.320   1.166   4.172
  703SOL     OW 3007   2.985   1.848   6.195
  703SOL    HW1 3008   3.004   1.879   6.288
  703SOL    HW2 3009   2.886   1.855   6.178
  704SOL     OW 3010   1.726   2.741   5.503
  704SOL    HW1 3011   1.736   2.672   5.576
  704SOL    HW2 3012   1.634   2.778   5.506
  705SOL     OW 3013   0.217   6.624   5.334
  705SOL    HW1 3014   0.147   6.696   5.337
  705SOL    HW2 3015   0.197   6.561   5.259
  706SOL     OW 3016   4.523   1.175   5.135
  706SOL    HW1 3017   4.504   1.254   5.192
  706SOL    HW2 3018   4.479   1.186   5.046
  707SOL     OW 3019   3.248   5.284   4.133
  707SOL    HW1 3020   3.312   5.354   4.104
  707SOL    HW2 3021   3.237   5.216   4.061
  708SOL     OW 3022   4.386   6.362   4.053
  708SOL    HW1 3023   4.310   6.342   4.115
  708SOL    HW2 3024   4.430   6.276   4.026
  709SOL     OW 3025   3.022   6.942   1.133
  709SOL    HW1 3026   2.987   6.924   1.225
  709SOL    HW2 3027   3.072   0.006   1.133
  710SOL     OW 3028   4.547   2.858   1.668
  710SOL    HW1 3029   4.535   2.926   1.740
  710SOL    HW2 3030   4.641   2.822   1.672
  711SOL     OW 3031   6.882   2.150   6.884
  711SOL    HW1 3032   6.798   2.098   6.870
  711SOL    HW2 3033   6.883   2.187   6.977
  712SOL     OW 3034   5.091   4.221   0.845
  712SOL    HW1 3035   4.996   4.211   0.813
  712SOL    HW2 3036   5.130   4.130   0.859
  713SOL     OW 3037   3.956   2.669   5.338
  713SOL    HW1 3038   3.973   2.761   5.373
  713SOL    HW2 3039   4.037   2.636   5.290
  714SOL     OW 3040   5.443   5.826   3.038
  714SOL    HW1 3041   5.383   5.881   3.096
  714SOL    HW2 3042   5.436   5.730   3.065
  715SOL     OW 3043   6.358   5.448   5.257
  715SOL    HW1 3044   6.348   5.393   5.339
  715SOL    HW2 3045   6.366   5.545   5.282
  716SOL     OW 3046   2.102   2.053   3.059
  716SOL    HW1 3047   2.050   2.128   3.018
  716SOL    HW2 3048   2.159   2.010   2.989
  717SOL     OW 3049   5.125   4.171   3.942
  717SOL    HW1 3050   5.062   4.127   4.007
  717SOL    HW2 3051   5.134   4.268   3.965
  718SOL     OW 3052   5.754   1.587   5.426
  718SOL    HW1 3053   5.801   1.611   5.511
  718SOL    HW2 3054   5.768   1.660   5.359
  719SOL     OW 3055   5.167   0.393   3.307
  719SOL    HW1 3056   5.090   0.420   3.366
  719SOL    HW2 3057   5.168   0.450   3.225
  720SOL     OW 3058   2.953   1.355   0.779
  720SOL    HW1 3059   2.963   1.294   0.700
  720SOL    HW2 3060   3.025   1.337   0.845
  721SOL     OW 3061   7.012   1.770   2.928
  721SOL    HW1 3062   6.941   1.702   2.912
  721SOL    HW2 3063   0.079   1.730   2.911
  722SOL     OW 3064   4.939   6.687   0.471
  722SOL    HW1 3065   4.946   6.609   0.533
  722SOL    HW2 3066   4.992   6.763   0.509
  723SOL     OW 3067   2.584   5.709   3.906
  723SOL    HW1 3068   2.498   5.744   3.944
  723SOL    HW2 3069   2.576   5.611   3.891
  724SOL     OW 3070   0.883   1.351   4.297
  724SOL    HW1 3071   0.893   1.443   4.260
  724SOL    HW2 3072   0.970   1.322   4.338
  725SOL     OW 3073   1.571   4.184   2.909
  725SOL    HW1 3074   1.611   4.204   2.998
  725SOL    HW2 3075   1.486   4.134   2.922
  726SOL     OW 3076   1.597   4.259   0.825
  726SOL    HW1 3077   1.530   4.293   0.891
  726SOL    HW2 3078   1.553   4.194   0.763
  727SOL     OW 3079   4.337   6.047   5.359
  727SOL    HW1 3080   4.417   6.107   5.364
  727SOL    HW2 3081   4.314   6.031   5.264
  728SOL     OW 3082   6.755   3.516   3.714
  728SOL    HW1 3083   6.757   3.495   3.616
  728SOL    HW2 3084   6.660   3.524   3.744
  729SOL     OW 3085   0.264   4.377   1.203
  729SOL    HW1 3086   0.188   4.435   1.233
  729SOL    HW2 3087   0.240   4.281   1.217
  730SOL     OW 3088   4.345   0.633   3.291
  730SOL    HW1 3089   4.373   0.716   3.243
  730SOL    HW2 3090   4.246   0.624   3.289
  731SOL     OW 3091   4.377   4.933   5.758
  731SOL    HW1 3092   4.302   4.975   5.706
  731SOL    HW2 3093   4.343   4.900   5.845
  732SOL     OW 3094   4.688   1.614   4.836
  732SOL    HW1 3095   4.717   1.518   4.844
  732SOL    HW2 3096   4.692   1.642   4.740
  733SOL     OW 3097   5.901   6.002   3.005
  733SOL    HW1 3098   5.816   6.054   3.005
  733SOL    HW2 3099   5.925   5.976   2.911
  734SOL     OW 3100   6.087   6.506   2.256
  734SOL    HW1 3101   6.093   6.531   2.159
  734SOL    HW2 3102   6.005   6.451   2.271
  735SOL     OW 3103   4.471   0.630   2.346
  735SOL    HW1 3104   4.415   0.684   2.409
  735SOL    HW2 3105   4.559   0.610   2.389
  736SOL     OW 3106   1.548   1.508   3.974
  736SOL    HW1 3107   1.570   1.570   3.900
  736SOL    HW2 3108   1.620   1.438   3.982
  737SOL     OW 3109   4.246   1.234   6.060
  737SOL    HW1 3110   4.288   1.284   5.984
  737SOL    HW2 3111   4.253   1.136   6.043
  738SOL     OW 3112   1.846   4.689   0.829
  738SOL    HW1 3113   1.891   4.608   0.792
  738SOL    HW2 3114   1.771   4.662   0.888
  739SOL     OW 3115   3.151   0.081   4.285
  739SOL    HW1 3116   3.177   0.027   4.205
  739SOL    HW2 3117   3.051   0.084   4.292
  740SOL     OW 3118   5.146   3.753   2.523
  740SOL    HW1 3119   5.121   3.704   2.439
  740SOL    HW2 3120   5.064   3.796   2.561
  741SOL     OW 3121   2.416   1.062   3.147
  741SOL    HW1 3122   2.333   1.099   3.188
  741SOL    HW2 3123   2.466   1.135   3.100
  742SOL     OW 3124   2.108   6.667   1.728
  742SOL    HW1 3125   2.057   6.734   1.781
  742SOL    HW2 3126   2.063   6.654   1.639
  743SOL     OW 3127   0.999   6.300   3.438
  743SOL    HW1 3128   1.066   6.350   3.492
  743SOL    HW2 3129   1.032   6.207   3.422
  744SOL     OW 3130   5.069   1.970   0.375
  744SOL    HW1 3131   5.141   2.040   0.372
  744SOL    HW2 3132   4.981   2.012   0.352
  745SOL     OW 3133   2.646   0.047   4.897
  745SOL    HW1 3134   2.663   6.996   4.832
  745SOL    HW2 3135   2.634   0.008   4.988
  746SOL     OW 3136   6.741   4.749   5.796
  746SOL    HW1 3137   6.776   4.657   5.816
  746SOL    HW2 3138   6.716   4.794   5.882
  747SOL     OW 3139   5.219   5.988   3.224
  747SOL    HW1 3140   5.159   6.037   3.287
  747SOL    HW2 3141   5.165   5.925   3.168
  748SOL     OW 3142   5.346   5.433   1.902
  748SOL    HW1 3143   5.389   5.458   1.815
  748SOL    HW2 3144   5.385   5.489   1.976
  749SOL     OW 3145   5.014   3.747   4.033
  749SOL    HW1 3146   5.098   3.733   3.980
  749SOL    HW2 3147   4.986   3.660   4.075
  750SOL     OW 3148   2.354   1.856   1.954
  750SOL    HW1 3149   2.451   1.864   1.975
  750SOL    HW2 3150   2.342   1.803   1.870
  751SOL     OW 3151   3.912   0.486   0.872
  751SOL    HW1 3152   3.887   0.432   0.792
  751SOL    HW2 3153   3.888   0.437   0.956
  752SOL     OW 3154   3.524   2.244   5.332
  752SOL    HW1 3155   3.490   2.150   5.344
  752SOL    HW2 3156   3.463   2.293   5.269
  753SOL     OW 3157   3.797   3.692   4.856
  753SOL    HW1 3158   3.766   3.767   4.915
  753SOL    HW2 3159   3.864   3.727   4.790
  754SOL     OW 3160   5.974   0.246   0.256
  754SOL    HW1 3161   6.011   0.288   0.339
  754SOL    HW2 3162   6.010   0.153   0.248
  755SOL     OW 3163   4.046   4.515   5.339
  755SOL    HW1 3164   4.111   4.509   5.263
  755SOL    HW2 3165   4.018   4.610   5.351
  756SOL     OW 3166   1.901   5.137   6.202
  756SOL    HW1 3167   1.852   5.117   6.117
  756SOL    HW2 3168   1.851   5.098   6.279
  757SOL     OW 3169   2.701   6.178   2.666
  757SOL    HW1 3170   2.626   6.128   2.623
  757SOL    HW2 3171   2.742   6.121   2.737
  758SOL     OW 3172   3.912   1.167   4.152
  758SOL    HW1 3173   3.966   1.208   4.225
  758SOL    HW2 3174   3.818   1.154   4.184
  759SOL     OW 3175   0.488   2.998   3.897
  759SOL    HW1 3176   0.402   2.948   3.881
  759SOL    HW2 3177   0.501   3.065   3.825
  760SOL     OW 3178   6.166   5.635   3.035
  760SOL    HW1 3179   6.090   5.610   3.095
  760SOL    HW2 3180   6.243   5.666   3.091
  761SOL     OW 3181   4.120   3.601   6.142
  761SOL    HW1 3182   4.173   3.560   6.068
  761SOL    HW2 3183   4.029   3.560   6.145
  762SOL     OW 3184   3.309   5.747   4.061
  762SOL    HW1 3185   3.217   5.723   4.091
  762SOL    HW2 3186   3.311   5.843   4.032
  763SOL     OW 3187   5.554   0.544   7.009
  763SOL    HW1 3188   5.649   0.515   7.007
  763SOL    HW2 3189   5.503   0.496   6.938
  764SOL     OW 3190   5.884   0.397   5.828
  764SOL    HW1 3191   5.923   0.313   5.866
  764SOL    HW2 3192   5.884   0.392   5.728
  765SOL     OW 3193   6.957   6.380   0.938
  765SOL    HW1 3194   6.887   6.443   0.905
  765SOL    HW2 3195   6.936   6.352   1.032
  766SOL     OW 3196   2.274   2.368   4.919
  766SOL    HW1 3197   2.199   2.413   4.869
  766SOL    HW2 3198   2.333   2.438   4.959
  767SOL     OW 3199   6.332   5.898   4.429
  767SOL    HW1 3200   6.240   5.898   4.466
  767SOL    HW2 3201   6.328   5.887   4.329
  768SOL     OW 3202   2.573   5.140   2.573
  768SOL    HW1 3203   2.643   5.145   2.644
  768SOL    HW2 3204   2.483   5.130   2.615
  769SOL     OW 3205   2.791   2.024   4.728
  769SOL    HW1 3206   2.778   2.069   4.816
  769SOL    HW2 3207   2.719   1.956   4.714
  770SOL     OW 3208   1.592   4.555   5.502
  770SOL    HW1 3209   1.683   4.558   5.542
  770SOL    HW2 3210   1.525   4.584   5.570
  771SOL     OW 3211   1.417   5.517   2.763
  771SOL    HW1 3212   1.454   5.579   2.694
  771SOL    HW2 3213   1.344   5.462   2.723
  772SOL     OW 3214   5.650   4.477   0.357
  772SOL    HW1 3215   5.697   4.389   0.361
  772SOL    HW2 3216   5.715   4.551   0.377
  773SOL     OW 3217   0.910   3.877   3.549
  773SOL    HW1 3218   0.933   3.947   3.481
  773SOL    HW2 3219   0.993   3.852   3.600
  774SOL     OW 3220   2.333   0.187   3.537
  774SOL    HW1 3221   2.248   0.133   3.544
  774SOL    HW2 3222   2.402   0.133   3.489
  775SOL     OW 3223   1.738   4.369   2.509
  775SOL    HW1 3224   1.764   4.465   2.495
  775SOL    HW2 3225   1.800   4.310   2.458
  776SOL     OW 3226   2.894   5.188   6.376
  776SOL    HW1 3227   2.870   5.091   6.371
  776SOL    HW2 3228   2.980   5.199   6.425
  777SOL     OW 3229   2.241   4.059   0.029
  777SOL    HW1 3230   2.241   3.959   0.034
  777SOL    HW2 3231   2.307   4.096   0.094
  778SOL     OW 3232   2.851   6.389   0.449
  778SOL    HW1 3233   2.810   6.467   0.495
  778SOL    HW2 3234   2.946   6.410   0.426
  779SOL     OW 3235   6.977   2.097   3.271
  779SOL    HW1 3236   6.924   2.169   3.314
  779SOL    HW2 3237   6.964   2.100   3.172
  780SOL     OW 3238   0.527   2.063   3.967
  780SOL    HW1 3239   0.548   1.971   3.934
  780SOL    HW2 3240   0.471   2.055   4.050
  781SOL     OW 3241   0.846   4.414   0.117
  781SOL    HW1 3242   0.793   4.414   0.202
  781SOL    HW2 3243   0.835   4.326   0.071
  782SOL     OW 3244   1.641   3.424   4.737
  782SOL    HW1 3245   1.714   3.366   4.701
  782SOL    HW2 3246   1.667   3.520   4.729
  783SOL     OW 3247   5.907   4.843   6.604
  783SOL    HW1 3248   5.978   4.888   6.550
  783SOL    HW2 3249   5.846   4.793   6.544
  784SOL     OW 3250   2.281   5.782   0.791
  784SOL    HW1 3251   2.344   5.740   0.725
  784SOL    HW2 3252   2.211   5.833   0.742
  785SOL     OW 3253   1.357   0.025   4.929
  785SOL    HW1 3254   1.273   0.006   4.980
  785SOL    HW2 3255   1.337   0.030   4.831
  786SOL     OW 3256   6.358   1.098   3.973
  786SOL    HW1 3257   6.325   1.004   3.979
  786SOL    HW2 3258   6.406   1.123   4.057
  787SOL     OW 3259   2.266   0.143   0.623
  787SOL    HW1 3260   2.346   0.192   0.657
  787SOL    HW2 3261   2.187   0.164   0.680
  788SOL     OW 3262   2.169   2.039   1.574
  788SOL    HW1 3263   2.240   2.050   1.504
  788SOL    HW2 3264   2.103   2.114   1.566
  789SOL     OW 3265   4.344   4.960   2.250
  789SOL    HW1 3266   4.378   4.865   2.254
  789SOL    HW2 3267   4.412   5.021   2.291
  790SOL     OW 3268   0.979   2.319   2.457
  790SOL    HW1 3269   1.018   2.228   2.441
  790SOL    HW2 3270   0.956   2.330   2.553
  791SOL     OW 3271   2.885   5.738   4.546
  791SOL    HW1 3272   2.804   5.764   4.494
  791SOL    HW2 3273   2.966   5.747   4.489
  792SOL     OW 3274   1.589   0.822   0.555
  792SOL    HW1 3275   1.494   0.798   0.539
  792SOL    HW2 3276   1.594   0.899   0.619
  793SOL     OW 3277   2.762   6.034   4.194
  793SOL    HW1 3278   2.744   5.991   4.105
  793SOL    HW2 3279   2.856   6.016   4.221
  794SOL     OW 3280   3.150   3.191   2.909
  794SOL    HW1 3281   3.174   3.287   2.924
  794SOL    HW2 3282   3.091   3.184   2.829
  795SOL     OW 3283   3.769   0.393   6.190
  795SOL    HW1 3284   3.688   0.387   6.132
  795SOL    HW2 3285   3.755   0.341   6.274
  796SOL     OW 3286   0.821   2.856   0.607
  796SOL    HW1 3287   0.766   2.937   0.626
  796SOL    HW2 3288   0.898   2.853   0.670
  797SOL     OW 3289   4.653   0.128   0.435
  797SOL    HW1 3290   4.691   0.220   0.444
  797SOL    HW2 3291   4.639   0.090   0.527
  798SOL     OW 3292   4.410   6.658   0.630
  798SOL    HW1 3293   4.383   6.739   0.683
  798SOL    HW2 3294   4.490   6.680   0.574
  799SOL     OW 3295   2.199   2.298   5.690
  799SOL    HW1 3296   2.289   2.293   5.647
  799SOL    HW2 3297   2.143   2.221   5.659
  800SOL     OW 3298   6.145   3.526   2.522
  800SOL    HW1 3299   6.053   3.488   2.535
  800SOL    HW2 3300   6.192   3.530   2.610
  801SOL     OW 3301   2.505   5.852   5.682
  801SOL    HW1 3302   2.455   5.819   5.762
  801SOL    HW2 3303   2.441   5.882   5.612
  802SOL     OW 3304   5.250   2.391   6.687
  802SOL    HW1 3305   5.173   2.329   6.705
  802SOL    HW2 3306   5.302   2.358   6.608
  803SOL     OW 3307   2.689   1.325   4.921
  803SOL    HW1 3308   2.747   1.287   4.993
  803SOL    HW2 3309   2.605   1.361   4.962
  804SOL     OW 3310   5.496   0.814   3.084
  804SOL    HW1 3311   5.565   0.797   3.155
  804SOL    HW2 3312   5.533   0.878   3.017
  805SOL     OW 3313   3.616   0.943   3.513
  805SOL    HW1 3314   3.701   0.893   3.501
  805SOL    HW2 3315   3.545   0.881   3.548
  806SOL     OW 3316   2.338   6.238   5.487
  806SOL    HW1 3317   2.384   6.325   5.505
  806SOL    HW2 3318   2.406   6.168   5.464
  807SOL     OW 3319   1.031   6.151   5.995
  807SOL    HW1 3320   1.046   6.233   6.050
  807SOL    HW2 3321   1.008   6.177   5.901
  808SOL     OW 3322   5.657   2.671   6.447
  808SOL    HW1 3323   5.657   2.753   6.505
  808SOL    HW2 3324   5.747   2.662   6.403
  809SOL     OW 3325   2.458   4.689   0.147
  809SOL    HW1 3326   2.361   4.688   0.122
  809SOL    HW2 3327   2.474   4.626   0.223
  810SOL     OW 3328   3.560   3.369   6.895
  810SOL    HW1 3329   3.570   3.393   6.798
  810SOL    HW2 3330   3.591   3.275   6.909
  811SOL     OW 3331   6.251   4.955   4.803
  811SOL    HW1 3332   6.277   4.858   4.794
  811SOL    HW2 3333   6.280   5.005   4.722
  812SOL     OW 3334   0.426   3.188   1.869
  812SOL    HW1 3335   0.519   3.220   1.888
  812SOL    HW2 3336   0.401   3.213   1.775
  813SOL     OW 3337   1.288   1.799   4.672
  813SOL    HW1 3338   1.342   1.724   4.711
  813SOL    HW2 3339   1.248   1.769   4.586
  814SOL     OW 3340   0.754   5.359   2.840
  814SOL    HW1 3341   0.685   5.398   2.901
  814SOL    HW2 3342   0.818   5.430   2.811
  815SOL     OW 3343   4.990   2.024   4.660
  815SOL    HW1 3344   4.956   1.954   4.724
  815SOL    HW2 3345   5.090   2.019   4.656
  816SOL     OW 3346   5.591   5.187   6.349
  816SOL    HW1 3347   5.597   5.171   6.251
  816SOL    HW2 3348   5.526   5.262   6.367
  817SOL     OW 3349   0.887   4.369   6.791
  817SOL    HW1 3350   0.848   4.457   6.817
  817SOL    HW2 3351   0.857   4.299   6.856
  818SOL     OW 3352   6.453   2.239   5.050
  818SOL    HW1 3353   6.373   2.183   5.029
  818SOL    HW2 3354   6.533   2.204   5.000
  819SOL     OW 3355   5.006   3.000   1.326
  819SOL    HW1 3356   4.947   3.025   1.403
  819SOL    HW2 3357   4.965   3.032   1.241
  820SOL     OW 3358   2.451   2.062   5.215
  820SOL    HW1 3359   2.361   2.100   5.235
  820SOL    HW2 3360   2.491   2.112   5.138
  821SOL     OW 3361   4.902   3.592   6.135
  821SOL    HW1 3362   4.873   3.687   6.117
  821SOL    HW2 3363   4.838   3.529   6.092
  822SOL     OW 3364   0.921   5.010   3.140
  822SOL    HW1 3365   0.971   4.927   3.163
  822SOL    HW2 3366   0.835   5.012   3.191
  823SOL     OW 3367   1.091   2.998   5.206
  823SOL    HW1 3368   1.028   3.076   5.204
  823SOL    HW2 3369   1.179   3.029   5.243
  824SOL     OW 3370   5.501   1.159   6.316
  824SOL    HW1 3371   5.542   1.106   6.390
  824SOL    HW2 3372   5.573   1.198   6.259
  825SOL     OW 3373   5.641   5.399   1.092
  825SOL    HW1 3374   5.666   5.431   1.000
  825SOL    HW2 3375   5.691   5.451   1.160
  826SOL     OW 3376   4.287   2.166   6.808
  826SOL    HW1 3377   4.297   2.265   6.798
  826SOL    HW2 3378   4.273   2.124   6.719
  827SOL     OW 3379   3.969   4.174   5.144
  827SOL    HW1 3380   3.876   4.181   5.178
  827SOL    HW2 3381   3.990   4.255   5.089
  828SOL     OW 3382   6.797   6.054   6.339
  828SOL    HW1 3383   6.801   6.048   6.439
  828SOL    HW2 3384   6.889   6.055   6.301
  829SOL     OW 3385   3.388   3.671   2.611
  829SOL    HW1 3386   3.457   3.741   2.631
  829SOL    HW2 3387   3.427   3.580   2.631
  830SOL     OW 3388   6.353   4.549   0.299
  830SOL    HW1 3389   6.392   4.628   0.345
  830SOL    HW2 3390   6.329   4.479   0.367
  831SOL     OW 3391   4.397   0.130   1.654
  831SOL    HW1 3392   4.400   0.051   1.715
  831SOL    HW2 3393   4.361   0.209   1.703
  832SOL     OW 3394   2.857   1.729   4.568
  832SOL    HW1 3395   2.918   1.684   4.503
  832SOL    HW2 3396   2.818   1.811   4.526
  833SOL     OW 3397   2.980   2.202   0.131
  833SOL    HW1 3398   2.891   2.175   0.097
  833SOL    HW2 3399   3.013   2.135   0.198
  834SOL     OW 3400   5.584   2.821   0.135
  834SOL    HW1 3401   5.518   2.802   0.062
  834SOL    HW2 3402   5.665   2.764   0.121
  835SOL     OW 3403   0.421   6.926   3.957
  835SOL    HW1 3404   0.362   6.852   3.992
  835SOL    HW2 3405   0.507   6.926   4.008
  836SOL     OW 3406   4.538   1.059   4.171
  836SOL    HW1 3407   4.443   1.031   4.184
  836SOL    HW2 3408   4.540   1.144   4.119
  837SOL     OW 3409   1.487   0.787   0.909
  837SOL    HW1 3410   1.446   0.785   1.000
  837SOL    HW2 3411   1.585   0.807   0.918
  838SOL     OW 3412   1.619   5.243   3.740
  838SOL    HW1 3413   1.687   5.171   3.727
  838SOL    HW2 3414   1.571   5.228   3.827
  839SOL     OW 3415   1.524   1.922   0.410
  839SOL    HW1 3416   1.486   1.830   0.406
  839SOL    HW2 3417   1.562   1.946   0.321
  840SOL     OW 3418   5.386   5.026   6.912
  840SOL    HW1 3419   5.351   4.937   6.939
  840SOL    HW2 3420   5.416   5.023   6.816
  841SOL     OW 3421   3.545   5.026   6.969
  841SOL    HW1 3422   3.554   5.013   6.870
  841SOL    HW2 3423   3.532   4.937   7.013
  842SOL     OW 3424   4.136   5.965   0.476
  842SOL    HW1 3425   4.226   5.982   0.517
  842SOL    HW2 3426   4.077   5.919   0.543
  843SOL     OW 3427   1.191   1.190   2.310
  843SOL    HW1 3428   1.287   1.171   2.287
  843SOL    HW2 3429   1.155   1.116   2.366
  844SOL     OW 3430   6.824   0.841   1.482
  844SOL    HW1 3431   6.787   0.922   1.527
  844SOL    HW2 3432   6.803   0.759   1.536
  845SOL     OW 3433   3.366   0.979   2.446
  845SOL    HW1 3434   3.346   1.029   2.531
  845SOL    HW2 3435   3.465   0.969   2.435
  846SOL     OW 3436   2.696   1.318   0.784
  846SOL    HW1 3437   2.796   1.322   0.780
  846SOL    HW2 3438   2.666   1.337   0.878
  847SOL     OW 3439   2.718   4.171   1.585
  847SOL    HW1 3440   2.726   4.073   1.601
  847SOL    HW2 3441   2.788   4.219   1.637
  848SOL     OW 3442   6.927   5.506   0.335
  848SOL    HW1 3443   6.835   5.510   0.296
  848SOL    HW2 3444   6.926   5.447   0.416
  849SOL     OW 3445   6.045   3.750   6.526
  849SOL    HW1 3446   6.008   3.669   6.572
  849SOL    HW2 3447   6.020   3.748   6.430
  850SOL     OW 3448   1.196   0.532   4.938
  850SOL    HW1 3449   1.258   0.547   5.016
  850SOL    HW2 3450   1.211   0.440   4.901
  851SOL     OW 3451   6.035   3.440   6.062
  851SOL    HW1 3452   6.031   3.426   5.963
  851SOL    HW2 3453   5.967   3.507   6.089
  852SOL     OW 3454   0.366   3.914   2.581
  852SOL    HW1 3455   0.361   3.987   2.649
  852SOL    HW2 3456   0.406   3.950   2.497
  853SOL     OW 3457   2.770   2.572   7.019
  853SOL    HW1 3458   2.733   2.553   0.088
  853SOL    HW2 3459   2.749   2.667   6.994
  854SOL     OW 3460   5.588   6.521   6.336
  854SOL    HW1 3461   5.603   6.611   6.294
  854SOL    HW2 3462   5.583   6.531   6.435
  855SOL     OW 3463   5.543   1.315   0.484
  855SOL    HW1 3464   5.510   1.404   0.451
  855SOL    HW2 3465   5.618   1.284   0.425
  856SOL     OW 3466   2.094   5.460   1.196
  856SOL    HW1 3467   2.049   5.541   1.232
  856SOL    HW2 3468   2.192   5.477   1.188
  857SOL     OW 3469   6.717   5.492   5.770
  857SOL    HW1 3470   6.786   5.554   5.806
  857SOL    HW2 3471   6.762   5.415   5.724
  858SOL     OW 3472   4.865   3.421   0.209
  858SOL    HW1 3473   4.884   3.471   0.293
  858SOL    HW2 3474   4.863   3.323   0.228
  859SOL     OW 3475   4.889   6.765   5.135
  859SOL    HW1 3476   4.894   6.863   5.118
  859SOL    HW2 3477   4.921   6.715   5.055
  860SOL     OW 3478   5.132   3.492   5.584
  860SOL    HW1 3479   5.034   3.511   5.575
  860SOL    HW2 3480   5.150   3.449   5.672
  861SOL     OW 3481   1.833   5.749   1.938
  861SOL    HW1 3482   1.895   5.712   1.868
  861SOL    HW2 3483   1.887   5.781   2.016
  862SOL     OW 3484   0.444   4.138   3.442
  862SOL    HW1 3485   0.494   4.100   3.364
  862SOL    HW2 3486   0.374   4.200   3.409
  863SOL     OW 3487   6.519   0.356   0.650
  863SOL    HW1 3488   6.593   0.373   0.585
  863SOL    HW2 3489   6.482   0.443   0.683
  864SOL     OW 3490   5.803   6.840   4.745
  864SOL    HW1 3491   5.751   6.759   4.771
  864SOL    HW2 3492   5.791   6.911   4.814
  865SOL     OW 3493   1.698   6.245   5.015
  865SOL    HW1 3494   1.608   6.288   5.028
  865SOL    HW2 3495   1.687   6.146   5.014
  866SOL     OW 3496   3.356   6.706   2.131
  866SOL    HW1 3497   3.337   6.802   2.115
  866SOL    HW2 3498   3.295   6.650   2.074
  867SOL     OW 3499   6.135   2.650   6.623
  867SOL    HW1 3500   6.045   2.684   6.649
  867SOL    HW2 3501   6.196   2.652   6.702
  868SOL     OW 3502   6.864   2.022   2.536
  868SOL    HW1 3503   6.944   2.063   2.492
  868SOL    HW2 3504   6.861   1.925   2.514
  869SOL     OW 3505   6.741   3.819   3.621
  869SOL    HW1 3506   6.733   3.723   3.646
  869SOL    HW2 3507   6.651   3.854   3.594
  870SOL     OW 3508   3.690   5.419   2.257
  870SOL    HW1 3509   3.692   5.476   2.175
  870SOL    HW2 3510   3.624   5.345   2.246
  871SOL     OW 3511   4.403   1.751   3.047
  871SOL    HW1 3512   4.456   1.765   3.131
  871SOL    HW2 3513   4.306   1.764   3.067
  872SOL     OW 3514   7.022   2.730   5.136
  872SOL    HW1 3515   6.936   2.684   5.155
  872SOL    HW2 3516   7.004   2.816   5.088
  873SOL     OW 3517   5.034   6.733   6.234
  873SOL    HW1 3518   5.100   6.702   6.302
  873SOL    HW2 3519   5.078   6.737   6.144
  874SOL     OW 3520   4.589   4.228   0.870
  874SOL    HW1 3521   4.503   4.180   0.888
  874SOL    HW2 3522   4.665   4.171   0.898
  875SOL     OW 3523   5.391   5.447   0.860
  875SOL    HW1 3524   5.483   5.427   0.894
  875SOL    HW2 3525   5.386   5.425   0.762
  876SOL     OW 3526   0.046   6.650   1.114
  876SOL    HW1 3527   0.087   6.694   1.194
  876SOL    HW2 3528   0.037   6.552   1.130
  877SOL     OW 3529   2.351   3.044   6.450
  877SOL    HW1 3530   2.340   3.113   6.522
  877SOL    HW2 3531   2.336   3.086   6.361
  878SOL     OW 3532   4.192   6.648   4.115
  878SOL    HW1 3533   4.164   6.626   4.208
  878SOL    HW2 3534   4.279   6.603   4.095
  879SOL     OW 3535   5.708   0.234   0.417
  879SOL    HW1 3536   5.760   0.222   0.332
  879SOL    HW2 3537   5.764   0.203   0.494
  880SOL     OW 3538   2.968   3.503   3.008
  880SOL    HW1 3539   3.058   3.511   2.965
  880SOL    HW2 3540   2.934   3.593   3.032
  881SOL     OW 3541   4.052   1.691   0.046
  881SOL    HW1 3542   3.953   1.700   0.037
  881SOL    HW2 3543   4.087   1.633   6.996
  882SOL     OW 3544   1.048   3.808   4.567
  882SOL    HW1 3545   0.991   3.769   4.639
  882SOL    HW2 3546   1.060   3.906   4.583
  883SOL     OW 3547   2.671   0.087   2.648
  883SOL    HW1 3548   2.771   0.090   2.654
  883SOL    HW2 3549   2.643   0.004   2.601
  884SOL     OW 3550   4.563   3.156   5.331
  884SOL    HW1 3551   4.544   3.252   5.351
  884SOL    HW2 3552   4.476   3.106   5.324
  885SOL     OW 3553   3.538   2.735   5.849
  885SOL    HW1 3554   3.543   2.639   5.877
  885SOL    HW2 3555   3.536   2.740   5.749
  886SOL     OW 3556   3.609   6.857   6.882
  886SOL    HW1 3557   3.516   6.880   6.850
  886SOL    HW2 3558   3.609   6.850   6.982
  887SOL     OW 3559   4.525   1.910   4.264
  887SOL    HW1 3560   4.474   1.878   4.344
  887SOL    HW2 3561   4.461   1.938   4.192
  888SOL     OW 3562   0.087   0.062   3.044
  888SOL    HW1 3563   0.031   0.137   3.006
  888SOL    HW2 3564   0.121   0.088   3.134
  889SOL     OW 3565   0.631   3.460   6.804
  889SOL    HW1 3566   0.538   3.470   6.838
  889SOL    HW2 3567   0.665   3.368   6.826
  890SOL     OW 3568   2.951   5.330   3.890
  890SOL    HW1 3569   2.933   5.422   3.856
  890SOL    HW2 3570   2.865   5.281   3.900
  891SOL     OW 3571   5.634   5.753   1.138
  891SOL    HW1 3572   5.712   5.698   1.166
  891SOL    HW2 3573   5.570   5.696   1.085
  892SOL     OW 3574   3.148   4.877   6.765
  892SOL    HW1 3575   3.078   4.813   6.797
  892SOL    HW2 3576   3.104   4.964   6.741
  893SOL     OW 3577   2.490   6.528   2.767
  893SOL    HW1 3578   2.426   6.603   2.777
  893SOL    HW2 3579   2.563   6.537   2.835
  894SOL     OW 3580   1.391   3.858   1.454
  894SOL    HW1 3581   1.332   3.782   1.480
  894SOL    HW2 3582   1.353   3.944   1.488
  895SOL     OW 3583   0.719   6.065   3.961
  895SOL    HW1 3584   0.741   6.054   3.864
  895SOL    HW2 3585   0.799   6.102   4.009
  896SOL     OW 3586   6.649   6.454   5.065
  896SOL    HW1 3587   6.678   6.549   5.058
  896SOL    HW2 3588   6.694   6.410   5.143
  897SOL     OW 3589   5.495   1.045   6.699
  897SOL    HW1 3590   5.517   1.142   6.710
  897SOL    HW2 3591   5.519   1.016   6.606
  898SOL     OW 3592   4.071   5.901   3.233
  898SOL    HW1 3593   3.993   5.930   3.289
  898SOL    HW2 3594   4.126   5.981   3.210
  899SOL     OW 3595   6.821   4.534   6.945
  899SOL    HW1 3596   6.779   4.624   6.957
  899SOL    HW2 3597   6.920   4.543   6.949
  900SOL     OW 3598   5.072   5.813   0.545
  900SOL    HW1 3599   5.047   5.730   0.596
  900SOL    HW2 3600   5.171   5.824   0.546
  901SOL     OW 3601   1.469   0.954   2.375
  901SOL    HW1 3602   1.455   0.989   2.282
  901SOL    HW2 3603   1.560   0.980   2.408
  902SOL     OW 3604   6.273   4.092   2.022
  902SOL    HW1 3605   6.255   4.183   2.059
  902SOL    HW2 3606   6.370   4.085   1.997
  903SOL     OW 3607   0.078   2.851   0.299
  903SOL    HW1 3608   0.045   2.759   0.277
  903SOL    HW2 3609   0.119   2.851   0.391
  904SOL     OW 3610   2.977   1.567   2.351
  904SOL    HW1 3611   2.919   1.632   2.401
  904SOL    HW2 3612   3.020   1.504   2.416
  905SOL     OW 3613   6.066   2.465   6.458
  905SOL    HW1 3614   6.078   2.547   6.514
  905SOL    HW2 3615   6.112   2.388   6.501
  906SOL     OW 3616   6.335   3.370   6.510
  906SOL    HW1 3617   6.243   3.340   6.535
  906SOL    HW2 3618   6.332   3.467   6.482
  907SOL     OW 3619   5.086   3.858   6.865
  907SOL    HW1 3620   5.072   3.789   6.795
  907SOL    HW2 3621   5.106   3.946   6.822
  908SOL     OW 3622   2.240   4.728   2.563
  908SOL    HW1 3623   2.281   4.784   2.634
  908SOL    HW2 3624   2.162   4.677   2.601
  909SOL     OW 3625   5.260   5.172   6.391
  909SOL    HW1 3626   5.300   5.262   6.372
  909SOL    HW2 3627   5.235   5.128   6.305
  910SOL     OW 3628   2.414   3.512   1.453
  910SOL    HW1 3629   2.370   3.562   1.527
  910SOL    HW2 3630   2.414   3.568   1.370
  911SOL     OW 3631   0.964   5.289   6.488
  911SOL    HW1 3632   0.930   5.240   6.409
  911SOL    HW2 3633   0.947   5.387   6.477
  912SOL     OW 3634   4.649   2.209   2.672
  912SOL    HW1 3635   4.591   2.137   2.634
  912SOL    HW2 3636   4.742   2.175   2.683
  913SOL     OW 3637   4.920   0.183   3.550
  913SOL    HW1 3638   4.825   0.211   3.535
  913SOL    HW2 3639   4.922   0.101   3.607
  914SOL     OW 3640   2.769   6.796   0.138
  914SOL    HW1 3641   2.669   6.790   0.127
  914SOL    HW2 3642   2.790   6.819   0.233
  915SOL     OW 3643   6.320   5.690   0.766
  915SOL    HW1 3644   6.259   5.723   0.838
  915SOL    HW2 3645   6.368   5.767   0.724
  916SOL     OW 3646   1.043   2.434   2.210
  916SOL    HW1 3647   1.127   2.487   2.195
  916SOL    HW2 3648   1.034   2.415   2.308
  917SOL     OW 3649   6.845   6.836   0.826
  917SOL    HW1 3650   6.821   6.853   0.921
  917SOL    HW2 3651   6.929   6.782   0.822
  918SOL     OW 3652   1.717   5.507   0.159
  918SOL    HW1 3653   1.698   5.485   0.063
  918SOL    HW2 3654   1.651   5.574   0.192
  919SOL     OW 3655   5.762   2.237   4.910
  919SOL    HW1 3656   5.824   2.313   4.926
  919SOL    HW2 3657   5.778   2.198   4.819
  920SOL     OW 3658   2.930   4.790   2.154
  920SOL    HW1 3659   2.859   4.737   2.108
  920SOL    HW2 3660   2.958   4.743   2.238
  921SOL     OW 3661   4.831   5.374   4.988
  921SOL    HW1 3662   4.895   5.412   4.921
  921SOL    HW2 3663   4.764   5.444   5.013
  922SOL     OW 3664   4.085   3.277   3.962
  922SOL    HW1 3665   4.105   3.288   3.864
  922SOL    HW2 3666   4.121   3.355   4.013
  923SOL     OW 3667   2.311   3.368   5.321
  923SOL    HW1 3668   2.274   3.393   5.411
  923SOL    HW2 3669   2.407   3.394   5.317
  924SOL     OW 3670   0.302   4.064   3.079
  924SOL    HW1 3671   0.273   4.155   3.049
  924SOL    HW2 3672   0.327   4.010   2.999
  925SOL     OW 3673   6.606   1.913   0.608
  925SOL    HW1 3674   6.551   1.980   0.558
  925SOL    HW2 3675   6.550   1.869   0.678
  926SOL     OW 3676   0.759   1.662   2.153
  926SOL    HW1 3677   0.837   1.673   2.091
  926SOL    HW2 3678   0.685   1.617   2.105
  927SOL     OW 3679   5.768   3.818   3.253
  927SOL    HW1 3680   5.847   3.776   3.208
  927SOL    HW2 3681   5.707   3.747   3.287
  928SOL     OW 3682   2.760   4.917   6.320
  928SOL    HW1 3683   2.740   4.905   6.417
  928SOL    HW2 3684   2.858   4.903   6.305
  929SOL     OW 3685   6.810   1.382   5.260
  929SOL    HW1 3686   6.733   1.446   5.266
  929SOL    HW2 3687   6.779   1.290   5.282
  930SOL     OW 3688   5.423   5.325   5.676
  930SOL    HW1 3689   5.458   5.294   5.587
  930SOL    HW2 3690   5.449   5.259   5.747
  931SOL     OW 3691   6.379   2.367   3.271
  931SOL    HW1 3692   6.396   2.295   3.204
  931SOL    HW2 3693   6.281   2.374   3.289
  932SOL     OW 3694   3.632   0.187   3.628
  932SOL    HW1 3695   3.683   0.267   3.595
  932SOL    HW2 3696   3.534   0.205   3.623
  933SOL     OW 3697   1.335   4.890   1.788
  933SOL    HW1 3698   1.377   4.960   1.846
  933SOL    HW2 3699   1.386   4.885   1.701
  934SOL     OW 3700   1.707   4.011   0.015
  934SOL    HW1 3701   1.754   4.092   7.002
  934SOL    HW2 3702   1.666   4.032   0.103
  935SOL     OW 3703   5.941   3.099   3.903
  935SOL    HW1 3704   5.957   3.111   4.001
  935SOL    HW2 3705   6.022   3.131   3.853
  936SOL     OW 3706   1.566   0.155   5.978
  936SOL    HW1 3707   1.578   0.060   5.951
  936SOL    HW2 3708   1.629   0.213   5.925
  937SOL     OW 3709   4.469   1.664   5.733
  937SOL    HW1 3710   4.549   1.617   5.769
  937SOL    HW2 3711   4.388   1.636   5.785
  938SOL     OW 3712   5.555   5.663   4.041
  938SOL    HW1 3713   5.642   5.625   4.011
  938SOL    HW2 3714   5.568   5.759   4.067
  939SOL     OW 3715   0.085   6.577   5.596
  939SOL    HW1 3716   0.139   6.575   5.512
  939SOL    HW2 3717   0.114   6.502   5.656
  940SOL     OW 3718   2.034   5.002   0.230
  940SOL    HW1 3719   1.992   5.051   0.307
  940SOL    HW2 3720   1.992   5.032   0.144
  941SOL     OW 3721   3.432   0.295   6.716
  941SOL    HW1 3722   3.368   0.236   6.764
  941SOL    HW2 3723   3.393   0.323   6.628
  942SOL     OW 3724   0.354   5.085   0.483
  942SOL    HW1 3725   0.376   5.000   0.531
  942SOL    HW2 3726   0.406   5.089   0.398
  943SOL     OW 3727   3.317   5.521   2.729
  943SOL    HW1 3728   3.382   5.589   2.762
  943SOL    HW2 3729   3.289   5.461   2.804
  944SOL     OW 3730   6.705   6.549   4.205
  944SOL    HW1 3731   6.711   6.454   4.176
  944SOL    HW2 3732   6.769   6.604   4.152
  945SOL     OW 3733   0.734   5.310   0.051
  945SOL    HW1 3734   0.654   5.347   0.003
  945SOL    HW2 3735   0.782   5.247   7.013
  946SOL     OW 3736   4.882   3.123   3.810
  946SOL    HW1 3737   4.821   3.068   3.754
  946SOL    HW2 3738   4.973   3.125   3.768
  947SOL     OW 3739   3.783   4.069   4.157
  947SOL    HW1 3740   3.754   4.126   4.080
  947SOL    HW2 3741   3.712   4.068   4.227
  948SOL     OW 3742   3.948   0.802   2.666
  948SOL    HW1 3743   3.996   0.729   2.714
  948SOL    HW2 3744   3.850   0.781   2.661
  949SOL     OW 3745   2.746   6.826   6.184
  949SOL    HW1 3746   2.819   6.780   6.133
  949SOL    HW2 3747   2.670   6.845   6.122
  950SOL     OW 3748   0.020   0.231   2.034
  950SOL    HW1 3749   0.062   0.311   1.990
  950SOL    HW2 3750   0.092   0.166   2.059
  951SOL     OW 3751   1.862   6.433   3.447
  951SOL    HW1 3752   1.925   6.401   3.519
  951SOL    HW2 3753   1.911   6.492   3.383
  952SOL     OW 3754   3.435   1.028   1.997
  952SOL    HW1 3755   3.461   0.932   1.991
  952SOL    HW2 3756   3.511   1.086   1.969
  953SOL     OW 3757   6.050   4.620   6.179
  953SOL    HW1 3758   6.148   4.611   6.195
  953SOL    HW2 3759   6.034   4.659   6.088
  954SOL     OW 3760   4.427   5.837   2.559
  954SOL    HW1 3761   4.349   5.776   2.545
  954SOL    HW2 3762   4.511   5.782   2.567
  955SOL     OW 3763   1.412   5.149   6.745
  955SOL    HW1 3764   1.315   5.148   6.720
  955SOL    HW2 3765   1.421   5.162   6.844
  956SOL     OW 3766   5.634   0.269   1.349
  956SOL    HW1 3767   5.580   0.246   1.268
  956SOL    HW2 3768   5.588   0.340   1.401
  957SOL     OW 3769   5.794   1.106   3.281
  957SOL    HW1 3770   5.773   1.202   3.262
  957SOL    HW2 3771   5.714   1.062   3.322
  958SOL     OW 3772   5.130   6.958   1.865
  958SOL    HW1 3773   5.100   0.025   1.835
  958SOL    HW2 3774   5.074   6.928   1.942
  959SOL     OW 3775   4.029   6.642   4.599
  959SOL    HW1 3776   4.069   6.612   4.686
  959SOL    HW2 3777   3.959   6.711   4.617
  960SOL     OW 3778   1.075   0.132   6.774
  960SOL    HW1 3779   1.146   0.200   6.794
  960SOL    HW2 3780   0.989   0.179   6.755
  961SOL     OW 3781   3.252   0.065   3.119
  961SOL    HW1 3782   3.241   7.001   3.167
  961SOL    HW2 3783   3.245   0.141   3.184
  962SOL     OW 3784   6.074   0.717   4.775
  962SOL    HW1 3785   6.068   0.679   4.682
  962SOL    HW2 3786   5.983   0.739   4.808
  963SOL     OW 3787   5.672   3.135   0.584
  963SOL    HW1 3788   5.759   3.097   0.551
  963SOL    HW2 3789   5.605   3.061   0.592
  964SOL     OW 3790   4.960   4.563   5.355
  964SOL    HW1 3791   5.019   4.644   5.355
  964SOL    HW2 3792   4.935   4.539   5.449
  965SOL     OW 3793   6.097   3.069   3.624
  965SOL    HW1 3794   6.121   2.990   3.681
  965SOL    HW2 3795   6.012   3.050   3.575
  966SOL     OW 3796   4.635   1.996   4.743
  966SOL    HW1 3797   4.723   1.957   4.715
  966SOL    HW2 3798   4.631   2.092   4.715
  967SOL     OW 3799   5.054   3.956   5.929
  967SOL    HW1 3800   5.141   4.000   5.949
  967SOL    HW2 3801   4.986   3.985   5.996
  968SOL     OW 3802   4.006   0.359   1.696
  968SOL    HW1 3803   3.906   0.356   1.697
  968SOL    HW2 3804   4.040   0.291   1.631
  969SOL     OW 3805   3.304   4.038   6.339
  969SOL    HW1 3806   3.321   3.971   6.410
  969SOL    HW2 3807   3.312   3.995   6.249
  970SOL     OW 3808   6.202   0.183   6.169
  970SOL    HW1 3809   6.266   0.122   6.122
  970SOL    HW2 3810   6.155   0.132   6.242
  971SOL     OW 3811   5.660   4.343   3.158
  971SOL    HW1 3812   5.571   4.338   3.202
  971SOL    HW2 3813   5.701   4.252   3.155
  972SOL     OW 3814   0.221   3.333   0.421
  972SOL    HW1 3815   0.162   3.408   0.452
  972SOL    HW2 3816   0.204   3.316   0.324
  973SOL     OW 3817   0.105   3.481   6.236
  973SOL    HW1 3818   0.185   3.451   6.184
  973SOL    HW2 3819   0.125   3.569   6.279
  974SOL     OW 3820   6.653   4.959   3.504
  974SOL    HW1 3821   6.658   4.916   3.594
  974SOL    HW2 3822   6.719   5.034   3.499
  975SOL     OW 3823   2.625   0.342   2.005
  975SOL    HW1 3824   2.659   0.271   1.943
  975SOL    HW2 3825   2.688   0.353   2.081
  976SOL     OW 3826   6.506   2.843   2.906
  976SOL    HW1 3827   6.448   2.761   2.911
  976SOL    HW2 3828   6.466   2.915   2.962
  977SOL     OW 3829   0.120   0.981   2.434
  977SOL    HW1 3830   0.116   1.055   2.501
  977SOL    HW2 3831   0.192   1.001   2.367
  978SOL     OW 3832   5.467   3.225   1.685
  978SOL    HW1 3833   5.405   3.303   1.682
  978SOL    HW2 3834   5.433   3.153   1.625
  979SOL     OW 3835   0.570   4.115   6.834
  979SOL    HW1 3836   0.605   4.137   6.743
  979SOL    HW2 3837   0.470   4.123   6.834
  980SOL     OW 3838   3.147   1.431   4.226
  980SOL    HW1 3839   3.161   1.350   4.168
  980SOL    HW2 3840   3.052   1.436   4.254
  981SOL     OW 3841   6.712   6.732   5.117
  981SOL    HW1 3842   6.706   6.799   5.190
  981SOL    HW2 3843   6.697   6.776   5.029
  982SOL     OW 3844   6.149   1.151   5.600
  982SOL    HW1 3845   6.080   1.157   5.672
  982SOL    HW2 3846   6.239   1.171   5.637
  983SOL     OW 3847   0.256   4.733   4.618
  983SOL    HW1 3848   0.157   4.722   4.604
  983SOL    HW2 3849   0.281   4.829   4.605
  984SOL     OW 3850   0.475   3.097   3.402
  984SOL    HW1 3851   0.445   3.185   3.365
  984SOL    HW2 3852   0.575   3.095   3.407
  985SOL     OW 3853   6.435   4.637   5.416
  985SOL    HW1 3854   6.517   4.593   5.379
  985SOL    HW2 3855   6.462   4.701   5.488
  986SOL     OW 3856   5.338   5.055   1.081
  986SOL    HW1 3857   5.361   4.973   1.029
  986SOL    HW2 3858   5.415   5.081   1.139
  987SOL     OW 3859   4.903   4.774   4.202
  987SOL    HW1 3860   4.923   4.848   4.267
  987SOL    HW2 3861   4.820   4.726   4.232
  988SOL     OW 3862   2.474   4.296   1.653
  988SOL    HW1 3863   2.515   4.367   1.711
  988SOL    HW2 3864   2.547   4.243   1.610
  989SOL     OW 3865   0.810   1.570   1.124
  989SOL    HW1 3866   0.889   1.610   1.169
  989SOL    HW2 3867   0.820   1.470   1.120
  990SOL     OW 3868   3.532   6.881   3.871
  990SOL    HW1 3869   3.555   6.928   3.956
  990SOL    HW2 3870   3.519   6.784   3.889
  991SOL     OW 3871   6.845   5.159   3.316
  991SOL    HW1 3872   6.856   5.060   3.311
  991SOL    HW2 3873   6.906   5.195   3.387
  992SOL     OW 3874   0.315   2.164   0.735
  992SOL    HW1 3875   0.218   2.143   0.719
  992SOL    HW2 3876   0.368   2.080   0.733
  993SOL     OW 3877   1.215   5.272   0.048
  993SOL    HW1 3878   1.173   5.322   6.996
  993SOL    HW2 3879   1.310   5.251   0.025
  994SOL     OW 3880   3.158   6.408   7.015
  994SOL    HW1 3881   3.177   6.336   0.058
  994SOL    HW2 3882   3.072   6.454   0.015
  995SOL     OW 3883   6.094   3.792   5.821
  995SOL    HW1 3884   6.129   3.834   5.738
  995SOL    HW2 3885   6.009   3.743   5.799
  996SOL     OW 3886   3.572   6.381   5.511
  996SOL    HW1 3887   3.668   6.405   5.498
  996SOL    HW2 3888   3.558   6.345   5.604
  997SOL     OW 3889   1.805   6.232   3.198
  997SOL    HW1 3890   1.810   6.133   3.214
  997SOL    HW2 3891   1.804   6.281   3.285
  998SOL     OW 3892   6.255   0.597   6.360
  998SOL    HW1 3893   6.283   0.565   6.270
  998SOL    HW2 3894   6.156   0.607   6.363
  999SOL     OW 3895   4.757   4.577   2.807
  999SOL    HW1 3896   4.661   4.560   2.832
  999SOL    HW2 3897   4.784   4.513   2.735
 1000SOL     OW 3898   4.807   2.451   1.115
 1000SOL    HW1 3899   4.771   2.484   1.028
 1000SOL    HW2 3900   4.784   2.354   1.126
 1001SOL     OW 3901   3.094   6.134   2.687
 1001SOL    HW1 3902   3.163   6.110   2.618
 1001SOL    HW2 3903   3.109   6.080   2.770
 1002SOL     OW 3904   5.310   2.505   0.669
 1002SOL    HW1 3905   5.408   2.526   0.666
 1002SOL    HW2 3906   5.294   2.434   0.738
 1003SOL     OW 3907   0.619   0.373   3.096
 1003SOL    HW1 3908   0.717   0.373   3.119
 1003SOL    HW2 3909   0.575   0.295   3.141
 1004SOL     OW 3910   5.557   1.525   3.804
 1004SOL    HW1 3911   5.655   1.516   3.821
 1004SOL    HW2 3912   5.537   1.497   3.710
 1005SOL     OW 3913   1.385   4.600   2.713
 1005SOL    HW1 3914   1.435   4.515   2.698
 1005SOL    HW2 3915   1.450   4.677   2.716
 1006SOL     OW 3916   2.682   3.591   0.941
 1006SOL    HW1 3917   2.618   3.595   1.018
 1006SOL    HW2 3918   2.731   3.504   0.942
 1007SOL     OW 3919   5.048   0.831   6.647
 1007SOL    HW1 3920   5.118   0.891   6.687
 1007SOL    HW2 3921   5.001   0.782   6.720
 1008SOL     OW 3922   0.069   4.593   5.577
 1008SOL    HW1 3923   0.124   4.541   5.643
 1008SOL    HW2 3924   0.078   4.691   5.597
 1009SOL     OW 3925   6.890   5.214   6.360
 1009SOL    HW1 3926   6.912   5.294   6.304
 1009SOL    HW2 3927   6.823   5.157   6.312
 1010SOL     OW 3928   2.645   2.993   0.973
 1010SOL    HW1 3929   2.706   3.016   1.049
 1010SOL    HW2 3930   2.599   2.906   0.993
 1011SOL     OW 3931   6.684   5.040   2.237
 1011SOL    HW1 3932   6.753   4.987   2.187
 1011SOL    HW2 3933   6.729   5.119   2.280
 1012SOL     OW 3934   4.541   6.999   3.533
 1012SOL    HW1 3935   4.581   0.065   3.554
 1012SOL    HW2 3936   4.442   7.003   3.544
 1013SOL     OW 3937   0.202   6.089   6.562
 1013SOL    HW1 3938   0.132   6.158   6.581
 1013SOL    HW2 3939   0.196   6.015   6.629
 1014SOL     OW 3940   0.920   4.731   5.547
 1014SOL    HW1 3941   0.827   4.699   5.560
 1014SOL    HW2 3942   0.940   4.738   5.449
 1015SOL     OW 3943   2.950   6.373   6.701
 1015SOL    HW1 3944   2.905   6.323   6.627
 1015SOL    HW2 3945   2.938   6.324   6.787
 1016SOL     OW 3946   5.932   4.272   1.849
 1016SOL    HW1 3947   5.917   4.293   1.946
 1016SOL    HW2 3948   6.022   4.228   1.838
 1017SOL     OW 3949   2.273   1.507   1.894
 1017SOL    HW1 3950   2.174   1.494   1.887
 1017SOL    HW2 3951   2.301   1.584   1.837
 1018SOL     OW 3952   7.020   5.953   3.647
 1018SOL    HW1 3953   6.956   5.879   3.668
 1018SOL    HW2 3954   0.041   5.935   3.559
 1019SOL     OW 3955   6.331   4.419   0.777
 1019SOL    HW1 3956   6.411   4.392   0.831
 1019SOL    HW2 3957   6.338   4.516   0.755
 1020SOL     OW 3958   5.886   0.993   1.053
 1020SOL    HW1 3959   5.915   1.082   1.018
 1020SOL    HW2 3960   5.787   0.993   1.067
 1021SOL     OW 3961   0.251   6.160   0.964
 1021SOL    HW1 3962   0.230   6.257   0.952
 1021SOL    HW2 3963   0.226   6.110   0.882
 1022SOL     OW 3964   2.566   5.632   6.808
 1022SOL    HW1 3965   2.643   5.647   6.747
 1022SOL    HW2 3966   2.576   5.689   6.890
 1023SOL     OW 3967   0.585   1.353   3.257
 1023SOL    HW1 3968   0.684   1.356   3.244
 1023SOL    HW2 3969   0.554   1.258   3.251
 1024SOL     OW 3970   1.522   1.662   4.738
 1024SOL    HW1 3971   1.588   1.738   4.730
 1024SOL    HW2 3972   1.505   1.624   4.648
 1025SOL     OW 3973   4.362   3.718   0.201
 1025SOL    HW1 3974   4.406   3.766   0.125
 1025SOL    HW2 3975   4.430   3.667   0.253
 1026SOL     OW 3976   2.929   2.501   1.060
 1026SOL    HW1 3977   3.010   2.452   1.027
 1026SOL    HW2 3978   2.881   2.543   0.983
 1027SOL     OW 3979   0.710   6.846   0.806
 1027SOL    HW1 3980   0.680   6.854   0.901
 1027SOL    HW2 3981   0.652   6.903   0.748
 1028SOL     OW 3982   1.702   5.762   2.371
 1028SOL    HW1 3983   1.714   5.694   2.443
 1028SOL    HW2 3984   1.604   5.771   2.349
 1029SOL     OW 3985   0.679   1.011   5.833
 1029SOL    HW1 3986   0.742   1.062   5.774
 1029SOL    HW2 3987   0.698   1.032   5.929
 1030SOL     OW 3988   3.631   3.203   1.597
 1030SOL    HW1 3989   3.705   3.247   1.546
 1030SOL    HW2 3990   3.550   3.262   1.596
 1031SOL     OW 3991   3.515   3.371   1.125
 1031SOL    HW1 3992   3.612   3.373   1.150
 1031SOL    HW2 3993   3.479   3.278   1.137
 1032SOL     OW 3994   2.290   2.148   6.859
 1032SOL    HW1 3995   2.325   2.060   6.889
 1032SOL    HW2 3996   2.274   2.146   6.760
 1033SOL     OW 3997   1.139   6.204   1.977
 1033SOL    HW1 3998   1.189   6.283   2.012
 1033SOL    HW2 3999   1.157   6.194   1.879
 1034SOL     OW 4000   3.393   0.406   4.514
 1034SOL    HW1 4001   3.381   0.464   4.594
 1034SOL    HW2 4002   3.306   0.394   4.467
 1035SOL     OW 4003   1.179   2.197   6.050
 1035SOL    HW1 4004   1.183   2.272   6.116
 1035SOL    HW2 4005   1.185   2.109   6.098
 1036SOL     OW 4006   5.399   1.955   1.161
 1036SOL    HW1 4007   5.305   1.921   1.154
 1036SOL    HW2 4008   5.417   1.981   1.256
 1037SOL     OW 4009   1.237   2.785   2.211
 1037SOL    HW1 4010   1.332   2.815   2.215
 1037SOL    HW2 4011   1.179   2.848   2.263
 1038SOL     OW 4012   2.866   6.322   7.007
 1038SOL    HW1 4013   2.824   6.341   0.073
 1038SOL    HW2 4014   2.894   6.226   7.003
 1039SOL     OW 4015   3.682   2.911   3.582
 1039SOL    HW1 4016   3.726   2.899   3.493
 1039SOL    HW2 4017   3.752   2.917   3.653
 1040SOL     OW 4018   3.508   1.172   3.224
 1040SOL    HW1 4019   3.461   1.089   3.253
 1040SOL    HW2 4020   3.489   1.246   3.289
 1041SOL     OW 4021   7.012   5.662   6.102
 1041SOL    HW1 4022   7.009   5.761   6.090
 1041SOL    HW2 4023   0.083   5.629   6.090
 1042SOL     OW 4024   5.560   5.000   2.829
 1042SOL    HW1 4025   5.518   5.080   2.787
 1042SOL    HW2 4026   5.492   4.927   2.838
 1043SOL     OW 4027   3.147   2.073   3.466
 1043SOL    HW1 4028   3.085   2.141   3.504
 1043SOL    HW2 4029   3.209   2.116   3.401
 1044SOL     OW 4030   5.324   4.702   1.833
 1044SOL    HW1 4031   5.413   4.659   1.846
 1044SOL    HW2 4032   5.334   4.801   1.826
 1045SOL     OW 4033   2.202   0.672   2.792
 1045SOL    HW1 4034   2.127   0.737   2.785
 1045SOL    HW2 4035   2.167   0.586   2.831
 1046SOL     OW 4036   3.264   1.075   0.884
 1046SOL    HW1 4037   3.242   1.052   0.979
 1046SOL    HW2 4038   3.253   1.174   0.871
 1047SOL     OW 4039   3.890   6.222   3.976
 1047SOL    HW1 4040   3.980   6.226   3.933
 1047SOL    HW2 4041   3.897   6.173   4.063
 1048SOL     OW 4042   1.501   6.140   2.462
 1048SOL    HW1 4043   1.588   6.096   2.438
 1048SOL    HW2 4044   1.470   6.107   2.551
 1049SOL     OW 4045   4.342   6.331   5.126
 1049SOL    HW1 4046   4.266   6.338   5.061
 1049SOL    HW2 4047   4.321   6.387   5.207
 1050SOL     OW 4048   3.486   5.510   3.113
 1050SOL    HW1 4049   3.410   5.449   3.133
 1050SOL    HW2 4050   3.559   5.496   3.180
 1051SOL     OW 4051   0.805   6.972   6.473
 1051SOL    HW1 4052   0.830   7.012   6.385
 1051SOL    HW2 4053   0.845   6.881   6.481
 1052SOL     OW 4054   3.389   0.975   0.036
 1052SOL    HW1 4055   3.394   1.069   0.001
 1052SOL    HW2 4056   3.469   0.924   0.007
 1053SOL     OW 4057   5.788   2.737   3.344
 1053SOL    HW1 4058   5.873   2.684   3.339
 1053SOL    HW2 4059   5.743   2.737   3.255
 1054SOL     OW 4060   3.245   4.957   6.177
 1054SOL    HW1 4061   3.149   4.933   6.196
 1054SOL    HW2 4062   3.258   4.962   6.078
 1055SOL     OW 4063   5.102   6.113   6.540
 1055SOL    HW1 4064   5.163   6.053   6.593
 1055SOL    HW2 4065   5.020   6.063   6.515
 1056SOL     OW 4066   3.187   3.773   6.618
 1056SOL    HW1 4067   3.253   3.761   6.543
 1056SOL    HW2 4068   3.209   3.858   6.667
 1057SOL     OW 4069   2.614   1.798   1.115
 1057SOL    HW1 4070   2.570   1.869   1.169
 1057SOL    HW2 4071   2.561   1.781   1.032
 1058SOL     OW 4072   2.525   2.281   2.300
 1058SOL    HW1 4073   2.445   2.237   2.258
 1058SOL    HW2 4074   2.545   2.366   2.251
 1059SOL     OW 4075   2.569   6.879   1.895
 1059SOL    HW1 4076   2.514   6.869   1.978
 1059SOL    HW2 4077   2.665   6.864   1.916
 1060SOL     OW 4078   6.014   6.393   5.157
 1060SOL    HW1 4079   5.923   6.418   5.123
 1060SOL    HW2 4080   6.006   6.364   5.253
 1061SOL     OW 4081   0.016   3.851   6.990
 1061SOL    HW1 4082   6.986   3.781   6.942
 1061SOL    HW2 4083   6.980   3.929   7.010
 1062SOL     OW 4084   3.614   6.510   4.860
 1062SOL    HW1 4085   3.566   6.550   4.939
 1062SOL    HW2 4086   3.712   6.514   4.875
 1063SOL     OW 4087   2.926   0.028   5.864
 1063SOL    HW1 4088   2.964   7.012   5.780
 1063SOL    HW2 4089   2.827   0.016   5.864
 1064SOL     OW 4090   1.917   3.686   0.328
 1064SOL    HW1 4091   1.868   3.704   0.242
 1064SOL    HW2 4092   1.976   3.607   0.316
 1065SOL     OW 4093   4.270   1.178   4.538
 1065SOL    HW1 4094   4.232   1.251   4.482
 1065SOL    HW2 4095   4.339   1.128   4.485
 1066SOL     OW 4096   5.590   6.761   1.741
 1066SOL    HW1 4097   5.676   6.718   1.711
 1066SOL    HW2 4098   5.570   6.839   1.681
 1067SOL     OW 4099   2.699   1.908   0.179
 1067SOL    HW1 4100   2.717   1.996   0.136
 1067SOL    HW2 4101   2.695   1.837   0.109
 1068SOL     OW 4102   6.550   3.356   1.628
 1068SOL    HW1 4103   6.564   3.261   1.600
 1068SOL    HW2 4104   6.528   3.411   1.547
 1069SOL     OW 4105   6.241   3.658   1.796
 1069SOL    HW1 4106   6.188   3.742   1.786
 1069SOL    HW2 4107   6.233   3.623   1.890
 1070SOL     OW 4108   0.922   7.013   1.991
 1070SOL    HW1 4109   0.955   0.041   1.911
 1070SOL    HW2 4110   0.923   6.915   1.969
 1071SOL     OW 4111   0.075   3.153   5.626
 1071SOL    HW1 4112   0.022   3.073   5.654
 1071SOL    HW2 4113   0.143   3.174   5.696
 1072SOL     OW 4114   1.814   1.525   2.064
 1072SOL    HW1 4115   1.864   1.533   2.150
 1072SOL    HW2 4116   1.869   1.473   1.998
 1073SOL     OW 4117   4.790   2.045   3.875
 1073SOL    HW1 4118   4.752   1.954   3.859
 1073SOL    HW2 4119   4.868   2.060   3.814
 1074SOL     OW 4120   2.619   4.516   1.769
 1074SOL    HW1 4121   2.712   4.546   1.790
 1074SOL    HW2 4122   2.564   4.521   1.852
 1075SOL     OW 4123   5.807   3.968   5.501
 1075SOL    HW1 4124   5.860   3.989   5.419
 1075SOL    HW2 4125   5.796   3.869   5.509
 1076SOL     OW 4126   2.202   4.136   4.758
 1076SOL    HW1 4127   2.250   4.223   4.753
 1076SOL    HW2 4128   2.250   4.074   4.820
 1077SOL     OW 4129   0.126   6.712   0.031
 1077SOL    HW1 4130   0.213   6.669   0.053
 1077SOL    HW2 4131   0.142   6.790   6.993
 1078SOL     OW 4132   6.521   6.755   4.319
 1078SOL    HW1 4133   6.536   6.824   4.248
 1078SOL    HW2 4134   6.573   6.673   4.298
 1079SOL     OW 4135   0.930   0.118   2.256
 1079SOL    HW1 4136   0.868   0.083   2.327
 1079SOL    HW2 4137   0.925   0.060   2.175
 1080SOL     OW 4138   2.986   5.830   6.430
 1080SOL    HW1 4139   2.991   5.911   6.372
 1080SOL    HW2 4140   3.041   5.757   6.390
 1081SOL     OW 4141   6.858   5.774   4.266
 1081SOL    HW1 4142   6.850   5.811   4.173
 1081SOL    HW2 4143   6.942   5.809   4.308
 1082SOL     OW 4144   4.783   6.710   6.350
 1082SOL    HW1 4145   4.874   6.725   6.310
 1082SOL    HW2 4146   4.787   6.729   6.448
 1083SOL     OW 4147   5.129   4.071   1.151
 1083SOL    HW1 4148   5.032   4.085   1.174
 1083SOL    HW2 4149   5.153   3.976   1.167
 1084SOL     OW 4150   6.661   0.420   5.444
 1084SOL    HW1 4151   6.601   0.346   5.412
 1084SOL    HW2 4152   6.606   0.493   5.483
 1085SOL     OW 4153   1.280   4.050   4.559
 1085SOL    HW1 4154   1.325   3.962   4.575
 1085SOL    HW2 4155   1.343   4.111   4.512
 1086SOL     OW 4156   5.636   5.347   0.663
 1086SOL    HW1 4157   5.649   5.438   0.700
 1086SOL    HW2 4158   5.654   5.279   0.734
 1087SOL     OW 4159   3.527   0.583   5.374
 1087SOL    HW1 4160   3.559   0.673   5.345
 1087SOL    HW2 4161   3.507   0.527   5.294
 1088SOL     OW 4162   0.097   4.921   3.099
 1088SOL    HW1 4163   0.095   5.015   3.064
 1088SOL    HW2 4164   0.115   4.858   3.024
 1089SOL     OW 4165   6.656   4.306   4.029
 1089SOL    HW1 4166   6.620   4.357   3.950
 1089SOL    HW2 4167   6.716   4.366   4.082
 1090SOL     OW 4168   5.525   1.945   5.113
 1090SOL    HW1 4169   5.510   1.935   5.211
 1090SOL    HW2 4170   5.437   1.954   5.067
 1091SOL     OW 4171   2.322   2.759   2.814
 1091SOL    HW1 4172   2.227   2.746   2.842
 1091SOL    HW2 4173   2.382   2.742   2.893
 1092SOL     OW 4174   0.664   5.576   1.181
 1092SOL    HW1 4175   0.675   5.589   1.280
 1092SOL    HW2 4176   0.709   5.491   1.154
 1093SOL     OW 4177   1.843   0.019   2.811
 1093SOL    HW1 4178   1.900   6.964   2.839
 1093SOL    HW2 4179   1.875   0.053   2.722
 1094SOL     OW 4180   0.827   0.115   2.970
 1094SOL    HW1 4181   0.738   0.158   2.958
 1094SOL    HW2 4182   0.899   0.185   2.965
 1095SOL     OW 4183   5.841   3.154   0.212
 1095SOL    HW1 4184   5.826   3.091   0.135
 1095SOL    HW2 4185   5.753   3.175   0.255
 1096SOL     OW 4186   2.686   5.779   1.630
 1096SOL    HW1 4187   2.741   5.719   1.688
 1096SOL    HW2 4188   2.720   5.775   1.536
 1097SOL     OW 4189   3.510   5.502   4.513
 1097SOL    HW1 4190   3.414   5.488   4.539
 1097SOL    HW2 4191   3.568   5.502   4.594
 1098SOL     OW 4192   6.340   4.920   0.795
 1098SOL    HW1 4193   6.315   4.905   0.890
 1098SOL    HW2 4194   6.397   5.002   0.787
 1099SOL     OW 4195   4.795   0.417   5.548
 1099SOL    HW1 4196   4.838   0.503   5.578
 1099SOL    HW2 4197   4.699   0.418   5.574
 1100SOL     OW 4198   3.496   1.597   4.081
 1100SOL    HW1 4199   3.445   1.548   4.009
 1100SOL    HW2 4200   3.434   1.618   4.157
 1101SOL     OW 4201   6.088   3.196   6.233
 1101SOL    HW1 4202   6.076   3.267   6.162
 1101SOL    HW2 4203   6.185   3.185   6.253
 1102SOL     OW 4204   2.423   1.492   3.804
 1102SOL    HW1 4205   2.504   1.503   3.747
 1102SOL    HW2 4206   2.348   1.546   3.767
 1103SOL     OW 4207   2.098   0.253   6.977
 1103SOL    HW1 4208   2.097   0.256   0.053
 1103SOL    HW2 4209   2.118   0.344   6.940
 1104SOL     OW 4210   0.829   3.140   4.216
 1104SOL    HW1 4211   0.910   3.170   4.165
 1104SOL    HW2 4212   0.813   3.201   4.293
 1105SOL     OW 4213   5.473   0.929   5.670
 1105SOL    HW1 4214   5.448   0.933   5.767
 1105SOL    HW2 4215   5.443   1.014   5.626
 1106SOL     OW 4216   0.166   1.965   0.939
 1106SOL    HW1 4217   0.117   1.983   0.854
 1106SOL    HW2 4218   0.133   1.879   0.979
 1107SOL     OW 4219   0.720   1.306   6.969
 1107SOL    HW1 4220   0.716   1.231   0.012
 1107SOL    HW2 4221   0.643   1.300   6.906
 1108SOL     OW 4222   3.094   6.719   3.908
 1108SOL    HW1 4223   3.160   6.774   3.959
 1108SOL    HW2 4224   3.047   6.656   3.970
 1109SOL     OW 4225   4.597   2.165   4.363
 1109SOL    HW1 4226   4.602   2.178   4.462
 1109SOL    HW2 4227   4.581   2.069   4.343
 1110SOL     OW 4228   2.838   0.691   2.252
 1110SOL    HW1 4229   2.788   0.759   2.306
 1110SOL    HW2 4230   2.918   0.733   2.211
 1111SOL     OW 4231   5.577   4.170   6.364
 1111SOL    HW1 4232   5.670   4.132   6.360
 1111SOL    HW2 4233   5.513   4.100   6.395
 1112SOL     OW 4234   4.937   0.056   2.332
 1112SOL    HW1 4235   4.973   0.130   2.275
 1112SOL    HW2 4236   4.993   0.045   2.413
 1113SOL     OW 4237   5.531   4.784   2.316
 1113SOL    HW1 4238   5.479   4.759   2.398
 1113SOL    HW2 4239   5.472   4.835   2.254
 1114SOL     OW 4240   3.882   3.618   5.127
 1114SOL    HW1 4241   3.834   3.559   5.191
 1114SOL    HW2 4242   3.816   3.662   5.066
 1115SOL     OW 4243   2.958   4.466   6.001
 1115SOL    HW1 4244   2.868   4.483   5.961
 1115SOL    HW2 4245   2.948   4.451   6.100
 1116SOL     OW 4246   4.543   0.105   6.313
 1116SOL    HW1 4247   4.543   0.080   6.216
 1116SOL    HW2 4248   4.601   0.186   6.326
 1117SOL     OW 4249   1.220   2.960   1.448
 1117SOL    HW1 4250   1.281   2.894   1.493
 1117SOL    HW2 4251   1.229   2.951   1.349
 1118SOL     OW 4252   3.532   4.985   0.313
 1118SOL    HW1 4253   3.451   4.928   0.326
 1118SOL    HW2 4254   3.504   5.081   0.308
 1119SOL     OW 4255   2.917   5.115   4.326
 1119SOL    HW1 4256   2.994   5.166   4.366
 1119SOL    HW2 4257   2.896   5.037   4.385
 1120SOL     OW 4258   6.722   4.328   0.589
 1120SOL    HW1 4259   6.705   4.287   0.679
 1120SOL    HW2 4260   6.709   4.259   0.518
 1121SOL     OW 4261   6.824   4.544   4.354
 1121SOL    HW1 4262   6.858   4.470   4.296
 1121SOL    HW2 4263   6.767   4.606   4.299
 1122SOL     OW 4264   5.440   2.728   1.696
 1122SOL    HW1 4265   5.439   2.662   1.622
 1122SOL    HW2 4266   5.388   2.692   1.774
 1123SOL     OW 4267   3.528   1.268   2.817
 1123SOL    HW1 4268   3.505   1.363   2.837
 1123SOL    HW2 4269   3.561   1.224   2.901
 1124SOL     OW 4270   2.207   2.930   4.479
 1124SOL    HW1 4271   2.221   2.832   4.465
 1124SOL    HW2 4272   2.224   2.952   4.575
 1125SOL     OW 4273   1.539   3.885   3.737
 1125SOL    HW1 4274   1.459   3.878   3.796
 1125SOL    HW2 4275   1.512   3.925   3.649
 1126SOL     OW 4276   3.266   5.414   4.758
 1126SOL    HW1 4277   3.354   5.440   4.797
 1126SOL    HW2 4278   3.208   5.495   4.750
 1127SOL     OW 4279   5.948   6.758   2.841
 1127SOL    HW1 4280   5.879   6.814   2.887
 1127SOL    HW2 4281   5.909   6.669   2.820
 1128SOL     OW 4282   5.443   1.279   3.593
 1128SOL    HW1 4283   5.484   1.218   3.525
 1128SOL    HW2 4284   5.383   1.345   3.548
 1129SOL     OW 4285   1.800   0.657   0.589
 1129SOL    HW1 4286   1.723   0.716   0.564
 1129SOL    HW2 4287   1.886   0.705   0.573
 1130SOL     OW 4288   2.126   4.747   2.004
 1130SOL    HW1 4289   2.146   4.650   1.999
 1130SOL    HW2 4290   2.077   4.775   1.921
 1131SOL     OW 4291   1.465   5.540   4.768
 1131SOL    HW1 4292   1.461   5.525   4.670
 1131SOL    HW2 4293   1.416   5.467   4.815
 1132SOL     OW 4294   2.635   0.933   2.204
 1132SOL    HW1 4295   2.579   0.994   2.260
 1132SOL    HW2 4296   2.726   0.972   2.193
 1133SOL     OW 4297   0.814   6.937   4.847
 1133SOL    HW1 4298   0.770   6.928   4.758
 1133SOL    HW2 4299   0.892   6.875   4.852
 1134SOL     OW 4300   3.565   0.014   1.694
 1134SOL    HW1 4301   3.595   6.942   1.696
 1134SOL    HW2 4302   3.629   0.068   1.638
 1135SOL     OW 4303   1.896   5.771   3.688
 1135SOL    HW1 4304   1.972   5.829   3.657
 1135SOL    HW2 4305   1.875   5.793   3.783
 1136SOL     OW 4306   1.993   5.652   1.736
 1136SOL    HW1 4307   2.055   5.574   1.743
 1136SOL    HW2 4308   2.026   5.714   1.665
 1137SOL     OW 4309   0.829   5.421   5.647
 1137SOL    HW1 4310   0.741   5.469   5.643
 1137SOL    HW2 4311   0.903   5.487   5.639
 1138SOL     OW 4312   1.765   2.695   4.409
 1138SOL    HW1 4313   1.860   2.664   4.414
 1138SOL    HW2 4314   1.712   2.631   4.355
 1139SOL     OW 4315   2.670   5.442   4.811
 1139SOL    HW1 4316   2.636   5.535   4.804
 1139SOL    HW2 4317   2.665   5.397   4.721
 1140SOL     OW 4318   1.360   1.422   0.891
 1140SOL    HW1 4319   1.369   1.323   0.882
 1140SOL    HW2 4320   1.439   1.466   0.850
 1141SOL     OW 4321   5.938   5.026   6.243
 1141SOL    HW1 4322   5.880   4.948   6.221
 1141SOL    HW2 4323   5.896   5.078   6.318
 1142SOL     OW 4324   2.498   6.246   3.047
 1142SOL    HW1 4325   2.425   6.295   3.095
 1142SOL    HW2 4326   2.458   6.172   2.992
 1143SOL     OW 4327   1.160   3.952   2.134
 1143SOL    HW1 4328   1.243   4.007   2.123
 1143SOL    HW2 4329   1.166   3.871   2.076
 1144SOL     OW 4330   5.621   4.293   1.395
 1144SOL    HW1 4331   5.583   4.206   1.363
 1144SOL    HW2 4332   5.720   4.283   1.406
 1145SOL     OW 4333   6.759   0.807   1.046
 1145SOL    HW1 4334   6.712   0.885   1.088
 1145SOL    HW2 4335   6.835   0.778   1.104
 1146SOL     OW 4336   0.877   1.143   1.384
 1146SOL    HW1 4337   0.818   1.075   1.428
 1146SOL    HW2 4338   0.971   1.133   1.418
 1147SOL     OW 4339   3.362   6.160   1.545
 1147SOL    HW1 4340   3.276   6.114   1.568
 1147SOL    HW2 4341   3.367   6.174   1.446
 1148SOL     OW 4342   4.700   5.335   3.502
 1148SOL    HW1 4343   4.795   5.312   3.481
 1148SOL    HW2 4344   4.652   5.253   3.534
 1149SOL     OW 4345   4.279   2.960   1.044
 1149SOL    HW1 4346   4.288   3.039   1.106
 1149SOL    HW2 4347   4.313   2.986   0.954
 1150SOL     OW 4348   2.024   4.163   0.208
 1150SOL    HW1 4349   2.099   4.124   0.154
 1150SOL    HW2 4350   1.995   4.097   0.277
 1151SOL     OW 4351   6.372   5.828   4.162
 1151SOL    HW1 4352   6.293   5.865   4.112
 1151SOL    HW2 4353   6.429   5.775   4.099
 1152SOL     OW 4354   3.965   6.569   6.620
 1152SOL    HW1 4355   3.984   6.508   6.697
 1152SOL    HW2 4356   3.906   6.644   6.651
 1153SOL     OW 4357   6.411   0.320   1.252
 1153SOL    HW1 4358   6.491   0.296   1.195
 1153SOL    HW2 4359   6.409   0.261   1.332
 1154SOL     OW 4360   1.836   2.673   1.458
 1154SOL    HW1 4361   1.764   2.737   1.428
 1154SOL    HW2 4362   1.917   2.725   1.485
 1155SOL     OW 4363   2.815   6.484   5.002
 1155SOL    HW1 4364   2.742   6.445   5.057
 1155SOL    HW2 4365   2.878   6.412   4.973
 1156SOL     OW 4366   2.903   2.020   3.880
 1156SOL    HW1 4367   3.003   2.023   3.889
 1156SOL    HW2 4368   2.864   1.976   3.960
 1157SOL     OW 4369   3.846   1.302   6.049
 1157SOL    HW1 4370   3.907   1.231   6.015
 1157SOL    HW2 4371   3.854   1.308   6.149
 1158SOL     OW 4372   6.230   5.809   2.816
 1158SOL    HW1 4373   6.249   5.747   2.740
 1158SOL    HW2 4374   6.171   5.763   2.883
 1159SOL     OW 4375   6.373   5.920   1.514
 1159SOL    HW1 4376   6.443   5.852   1.489
 1159SOL    HW2 4377   6.401   6.010   1.481
 1160SOL     OW 4378   5.729   1.281   0.758
 1160SOL    HW1 4379   5.659   1.311   0.693
 1160SOL    HW2 4380   5.816   1.268   0.711
 1161SOL     OW 4381   0.895   5.009   0.789
 1161SOL    HW1 4382   0.973   5.071   0.784
 1161SOL    HW2 4383   0.873   4.990   0.884
 1162SOL     OW 4384   2.777   2.380   4.665
 1162SOL    HW1 4385   2.793   2.393   4.763
 1162SOL    HW2 4386   2.829   2.301   4.633
 1163SOL     OW 4387   5.951   3.502   1.801
 1163SOL    HW1 4388   5.916   3.423   1.851
 1163SOL    HW2 4389   6.051   3.497   1.796
 1164SOL     OW 4390   4.469   2.187   5.092
 1164SOL    HW1 4391   4.471   2.222   4.998
 1164SOL    HW2 4392   4.462   2.263   5.156
 1165SOL     OW 4393   4.151   6.310   3.318
 1165SOL    HW1 4394   4.225   6.376   3.304
 1165SOL    HW2 4395   4.063   6.358   3.318
 1166SOL     OW 4396   2.783   4.990   6.838
 1166SOL    HW1 4397   2.872   5.027   6.810
 1166SOL    HW2 4398   2.727   4.976   6.757
 1167SOL     OW 4399   5.736   4.807   2.129
 1167SOL    HW1 4400   5.665   4.826   2.198
 1167SOL    HW2 4401   5.709   4.847   2.042
 1168SOL     OW 4402   6.405   1.339   3.639
 1168SOL    HW1 4403   6.431   1.436   3.634
 1168SOL    HW2 4404   6.354   1.323   3.724
 1169SOL     OW 4405   5.631   0.885   5.138
 1169SOL    HW1 4406   5.533   0.902   5.129
 1169SOL    HW2 4407   5.669   0.946   5.208
 1170SOL     OW 4408   5.068   6.412   3.959
 1170SOL    HW1 4409   4.985   6.373   3.997
 1170SOL    HW2 4410   5.121   6.340   3.914
 1171SOL     OW 4411   0.905   0.095   0.845
 1171SOL    HW1 4412   0.828   0.146   0.806
 1171SOL    HW2 4413   0.989   0.122   0.799
 1172SOL     OW 4414   7.000   3.306   6.387
 1172SOL    HW1 4415   0.030   3.365   6.327
 1172SOL    HW2 4416   0.039   3.241   6.433
 1173SOL     OW 4417   3.425   1.541   0.449
 1173SOL    HW1 4418   3.373   1.554   0.365
 1173SOL    HW2 4419   3.521   1.565   0.433
 1174SOL     OW 4420   3.432   2.908   0.591
 1174SOL    HW1 4421   3.494   2.979   0.624
 1174SOL    HW2 4422   3.372   2.946   0.521
 1175SOL     OW 4423   2.975   3.401   3.998
 1175SOL    HW1 4424   3.000   3.315   4.041
 1175SOL    HW2 4425   2.955   3.386   3.901
 1176SOL     OW 4426   5.676   3.789   6.496
 1176SOL    HW1 4427   5.673   3.764   6.399
 1176SOL    HW2 4428   5.584   3.787   6.533
 1177SOL     OW 4429   6.674   2.016   5.320
 1177SOL    HW1 4430   6.624   2.084   5.374
 1177SOL    HW2 4431   6.772   2.023   5.340
 1178SOL     OW 4432   3.405   5.210   0.560
 1178SOL    HW1 4433   3.422   5.112   0.565
 1178SOL    HW2 4434   3.355   5.240   0.641
 1179SOL     OW 4435   2.437   5.751   0.225
 1179SOL    HW1 4436   2.530   5.765   0.261
 1179SOL    HW2 4437   2.380   5.711   0.297
 1180SOL     OW 4438   3.950   6.063   0.964
 1180SOL    HW1 4439   3.910   6.089   0.876
 1180SOL    HW2 4440   3.911   5.976   0.995
 1181SOL     OW 4441   0.598   5.543   0.817
 1181SOL    HW1 4442   0.605   5.643   0.816
 1181SOL    HW2 4443   0.573   5.511   0.726
 1182SOL     OW 4444   4.541   4.803   2.973
 1182SOL    HW1 4445   4.450   4.836   2.996
 1182SOL    HW2 4446   4.608   4.842   3.036
 1183SOL     OW 4447   2.035   3.550   6.199
 1183SOL    HW1 4448   2.117   3.591   6.160
 1183SOL    HW2 4449   1.959   3.615   6.193
 1184SOL     OW 4450   1.437   6.622   5.262
 1184SOL    HW1 4451   1.482   6.649   5.177
 1184SOL    HW2 4452   1.503   6.579   5.323
 1185SOL     OW 4453   6.887   1.385   6.363
 1185SOL    HW1 4454   6.971   1.435   6.385
 1185SOL    HW2 4455   6.884   1.301   6.417
 1186SOL     OW 4456   5.308   6.252   5.136
 1186SOL    HW1 4457   5.257   6.334   5.159
 1186SOL    HW2 4458   5.267   6.173   5.182
 1187SOL     OW 4459   5.982   0.647   5.883
 1187SOL    HW1 4460   6.010   0.705   5.807
 1187SOL    HW2 4461   5.927   0.571   5.849
 1188SOL     OW 4462   2.387   6.588   5.678
 1188SOL    HW1 4463   2.436   6.519   5.731
 1188SOL    HW2 4464   2.403   6.574   5.581
 1189SOL     OW 4465   5.749   3.539   2.988
 1189SOL    HW1 4466   5.677   3.490   2.939
 1189SOL    HW2 4467   5.820   3.475   3.018
 1190SOL     OW 4468   1.757   6.031   2.441
 1190SOL    HW1 4469   1.851   6.059   2.421
 1190SOL    HW2 4470   1.732   5.955   2.381
 1191SOL     OW 4471   4.635   5.643   2.502
 1191SOL    HW1 4472   4.656   5.547   2.523
 1191SOL    HW2 4473   4.720   5.693   2.485
 1192SOL     OW 4474   4.711   6.152   3.819
 1192SOL    HW1 4475   4.618   6.155   3.857
 1192SOL    HW2 4476   4.732   6.059   3.789
 1193SOL     OW 4477   6.845   5.738   3.889
 1193SOL    HW1 4478   6.814   5.816   3.944
 1193SOL    HW2 4479   6.773   5.709   3.827
 1194SOL     OW 4480   4.049   0.796   1.368
 1194SOL    HW1 4481   4.014   0.864   1.304
 1194SOL    HW2 4482   3.974   0.761   1.424
 1195SOL     OW 4483   5.815   1.867   2.851
 1195SOL    HW1 4484   5.740   1.928   2.878
 1195SOL    HW2 4485   5.815   1.856   2.751
 1196SOL     OW 4486   6.352   6.731   4.729
 1196SOL    HW1 4487   6.344   6.721   4.828
 1196SOL    HW2 4488   6.432   6.680   4.697
 1197SOL     OW 4489   2.926   6.177   0.888
 1197SOL    HW1 4490   2.854   6.126   0.843
 1197SOL    HW2 4491   2.887   6.234   0.961
 1198SOL     OW 4492   1.036   1.906   0.606
 1198SOL    HW1 4493   1.132   1.908   0.633
 1198SOL    HW2 4494   1.013   1.815   0.572
 1199SOL     OW 4495   5.031   4.647   2.332
 1199SOL    HW1 4496   5.017   4.744   2.352
 1199SOL    HW2 4497   5.082   4.638   2.247
 1200SOL     OW 4498   2.938   3.726   2.337
 1200SOL    HW1 4499   2.988   3.652   2.382
 1200SOL    HW2 4500   2.850   3.691   2.303
 1201SOL     OW 4501   1.738   1.793   4.477
 1201SOL    HW1 4502   1.707   1.779   4.383
 1201SOL    HW2 4503   1.794   1.876   4.481
 1202SOL     OW 4504   6.845   5.107   6.610
 1202SOL    HW1 4505   6.922   5.061   6.653
 1202SOL    HW2 4506   6.861   5.115   6.511
 1203SOL     OW 4507   4.752   5.841   5.584
 1203SOL    HW1 4508   4.747   5.876   5.678
 1203SOL    HW2 4509   4.683   5.770   5.571
 1204SOL     OW 4510   1.728   0.269   2.266
 1204SOL    HW1 4511   1.720   0.330   2.345
 1204SOL    HW2 4512   1.789   0.310   2.198
 1205SOL     OW 4513   5.329   3.964   1.578
 1205SOL    HW1 4514   5.286   4.048   1.546
 1205SOL    HW2 4515   5.277   3.927   1.655
 1206SOL     OW 4516   3.024   3.246   5.435
 1206SOL    HW1 4517   3.119   3.260   5.462
 1206SOL    HW2 4518   2.978   3.335   5.427
 1207SOL     OW 4519   1.795   6.699   2.126
 1207SOL    HW1 4520   1.782   6.684   2.224
 1207SOL    HW2 4521   1.842   6.620   2.086
 1208SOL     OW 4522   3.267   3.552   6.259
 1208SOL    HW1 4523   3.167   3.558   6.264
 1208SOL    HW2 4524   3.296   3.565   6.164
 1209SOL     OW 4525   4.105   6.976   5.391
 1209SOL    HW1 4526   4.162   6.973   5.474
 1209SOL    HW2 4527   4.119   0.041   5.345
 1210SOL     OW 4528   3.152   1.339   3.037
 1210SOL    HW1 4529   3.145   1.408   2.964
 1210SOL    HW2 4530   3.215   1.267   3.008
 1211SOL     OW 4531   1.038   3.780   0.749
 1211SOL    HW1 4532   1.019   3.878   0.752
 1211SOL    HW2 4533   0.961   3.732   0.705
 1212SOL     OW 4534   0.861   6.387   6.788
 1212SOL    HW1 4535   0.780   6.331   6.771
 1212SOL    HW2 4536   0.943   6.331   6.774
 1213SOL     OW 4537   5.707   2.714   0.833
 1213SOL    HW1 4538   5.677   2.683   0.924
 1213SOL    HW2 4539   5.664   2.802   0.813
 1214SOL     OW 4540   0.562   2.252   1.654
 1214SOL    HW1 4541   0.513   2.171   1.620
 1214SOL    HW2 4542   0.496   2.315   1.695
 1215SOL     OW 4543   0.961   5.397   4.159
 1215SOL    HW1 4544   0.987   5.306   4.188
 1215SOL    HW2 4545   1.042   5.454   4.148
 1216SOL     OW 4546   4.301   0.035   6.584
 1216SOL    HW1 4547   4.255   0.004   6.667
 1216SOL    HW2 4548   4.306   0.134   6.583
 1217SOL     OW 4549   2.755   4.452   0.279
 1217SOL    HW1 4550   2.674   4.416   0.326
 1217SOL    HW2 4551   2.760   4.551   0.293
 1218SOL     OW 4552   1.825   3.883   3.913
 1218SOL    HW1 4553   1.767   3.843   3.842
 1218SOL    HW2 4554   1.856   3.811   3.975
 1219SOL     OW 4555   4.294   6.193   2.457
 1219SOL    HW1 4556   4.378   6.205   2.509
 1219SOL    HW2 4557   4.310   6.127   2.383
 1220SOL     OW 4558   1.533   4.875   2.807
 1220SOL    HW1 4559   1.616   4.878   2.751
 1220SOL    HW2 4560   1.475   4.953   2.785
 1221SOL     OW 4561   6.018   3.729   6.242
 1221SOL    HW1 4562   5.947   3.661   6.224
 1221SOL    HW2 4563   5.996   3.814   6.195
 1222SOL     OW 4564   0.217   5.850   0.014
 1222SOL    HW1 4565   0.173   5.771   0.056
 1222SOL    HW2 4566   0.244   5.915   0.086
 1223SOL     OW 4567   3.836   6.138   0.705
 1223SOL    HW1 4568   3.888   6.176   0.628
 1223SOL    HW2 4569   3.749   6.103   0.671
 1224SOL     OW 4570   2.847   6.609   1.801
 1224SOL    HW1 4571   2.876   6.519   1.833
 1224SOL    HW2 4572   2.876   6.679   1.867
 1225SOL     OW 4573   2.942   4.055   6.637
 1225SOL    HW1 4574   3.000   4.089   6.711
 1225SOL    HW2 4575   2.927   3.957   6.649
 1226SOL     OW 4576   2.140   4.689   1.164
 1226SOL    HW1 4577   2.050   4.691   1.122
 1226SOL    HW2 4578   2.133   4.716   1.260
 1227SOL     OW 4579   0.248   3.645   6.581
 1227SOL    HW1 4580   0.198   3.564   6.611
 1227SOL    HW2 4581   0.196   3.691   6.509
 1228SOL     OW 4582   4.275   1.887   6.066
 1228SOL    HW1 4583   4.305   1.794   6.086
 1228SOL    HW2 4584   4.270   1.901   5.968
 1229SOL     OW 4585   3.485   4.764   6.154
 1229SOL    HW1 4586   3.457   4.679   6.198
 1229SOL    HW2 4587   3.460   4.841   6.212
 1230SOL     OW 4588   4.470   6.489   3.476
 1230SOL    HW1 4589   4.494   6.413   3.536
 1230SOL    HW2 4590   4.512   6.574   3.510
 1231SOL     OW 4591   1.523   3.857   4.288
 1231SOL    HW1 4592   1.509   3.912   4.205
 1231SOL    HW2 4593   1.571   3.773   4.264
 1232SOL     OW 4594   1.788   2.163   4.568
 1232SOL    HW1 4595   1.787   2.093   4.640
 1232SOL    HW2 4596   1.742   2.245   4.601
 1233SOL     OW 4597   0.669   3.568   4.757
 1233SOL    HW1 4598   0.654   3.474   4.787
 1233SOL    HW2 4599   0.639   3.578   4.662
 1234SOL     OW 4600   6.467   4.389   4.537
 1234SOL    HW1 4601   6.494   4.389   4.441
 1234SOL    HW2 4602   6.494   4.475   4.579
 1235SOL     OW 4603   6.761   5.935   4.028
 1235SOL    HW1 4604   6.697   5.948   4.103
 1235SOL    HW2 4605   6.765   6.019   3.973
 1236SOL     OW 4606   5.166   0.474   6.979
 1236SOL    HW1 4607   5.151   0.532   0.036
 1236SOL    HW2 4608   5.230   0.520   6.917
 1237SOL     OW 4609   3.392   5.168   6.651
 1237SOL    HW1 4610   3.362   5.168   6.746
 1237SOL    HW2 4611   3.480   5.122   6.643
 1238SOL     OW 4612   1.518   1.873   1.359
 1238SOL    HW1 4613   1.512   1.973   1.356
 1238SOL    HW2 4614   1.449   1.834   1.298
 1239SOL     OW 4615   6.983   6.080   6.959
 1239SOL    HW1 4616   6.918   6.009   6.933
 1239SOL    HW2 4617   0.052   6.054   6.931
 1240SOL     OW 4618   5.002   6.150   1.773
 1240SOL    HW1 4619   4.973   6.071   1.719
 1240SOL    HW2 4620   5.009   6.231   1.714
 1241SOL     OW 4621   6.489   3.459   3.704
 1241SOL    HW1 4622   6.394   3.477   3.677
 1241SOL    HW2 4623   6.499   3.362   3.727
 1242SOL     OW 4624   2.218   3.775   0.240
 1242SOL    HW1 4625   2.130   3.759   0.196
 1242SOL    HW2 4626   2.220   3.727   0.328
 1243SOL     OW 4627   2.490   5.127   5.340
 1243SOL    HW1 4628   2.498   5.226   5.351
 1243SOL    HW2 4629   2.577   5.089   5.310
 1244SOL     OW 4630   0.931   1.253   3.920
 1244SOL    HW1 4631   0.851   1.312   3.914
 1244SOL    HW2 4632   0.925   1.197   4.003
 1245SOL     OW 4633   3.246   3.549   6.756
 1245SOL    HW1 4634   3.164   3.496   6.778
 1245SOL    HW2 4635   3.222   3.621   6.692
 1246SOL     OW 4636   1.581   6.354   2.297
 1246SOL    HW1 4637   1.673   6.329   2.267
 1246SOL    HW2 4638   1.534   6.272   2.330
 1247SOL     OW 4639   2.040   6.462   6.385
 1247SOL    HW1 4640   2.028   6.509   6.298
 1247SOL    HW2 4641   2.059   6.365   6.369
 1248SOL     OW 4642   2.044   5.461   3.825
 1248SOL    HW1 4643   2.095   5.530   3.773
 1248SOL    HW2 4644   1.946   5.474   3.811
 1249SOL     OW 4645   6.223   3.254   3.161
 1249SOL    HW1 4646   6.304   3.313   3.167
 1249SOL    HW2 4647   6.142   3.311   3.145
 1250SOL     OW 4648   0.961   5.108   4.757
 1250SOL    HW1 4649   1.000   5.022   4.789
 1250SOL    HW2 4650   0.927   5.161   4.835
 1251SOL     OW 4651   3.706   0.555   4.933
 1251SOL    HW1 4652   3.766   0.478   4.954
 1251SOL    HW2 4653   3.727   0.631   4.995
 1252SOL     OW 4654   3.622   4.053   5.993
 1252SOL    HW1 4655   3.667   3.990   6.056
 1252SOL    HW2 4656   3.638   4.023   5.899
 1253SOL     OW 4657   4.033   5.785   2.925
 1253SOL    HW1 4658   4.007   5.789   3.022
 1253SOL    HW2 4659   4.050   5.878   2.892
 1254SOL     OW 4660   6.326   2.217   2.987
 1254SOL    HW1 4661   6.341   2.157   2.908
 1254SOL    HW2 4662   6.229   2.215   3.012
 1255SOL     OW 4663   6.354   6.618   6.572
 1255SOL    HW1 4664   6.397   6.669   6.646
 1255SOL    HW2 4665   6.286   6.676   6.526
 1256SOL     OW 4666   4.273   0.827   3.498
 1256SOL    HW1 4667   4.311   0.916   3.472
 1256SOL    HW2 4668   4.285   0.762   3.423
 1257SOL     OW 4669   6.194   1.263   3.839
 1257SOL    HW1 4670   6.251   1.214   3.906
 1257SOL    HW2 4671   6.170   1.201   3.764
 1258SOL     OW 4672   0.200   6.672   3.296
 1258SOL    HW1 4673   0.237   6.746   3.240
 1258SOL    HW2 4674   0.249   6.587   3.277
 1259SOL     OW 4675   4.362   1.991   4.560
 1259SOL    HW1 4676   4.458   1.993   4.588
 1259SOL    HW2 4677   4.305   1.969   4.638
 1260SOL     OW 4678   1.283   0.730   6.804
 1260SOL    HW1 4679   1.312   0.826   6.796
 1260SOL    HW2 4680   1.287   0.703   6.900
 1261SOL     OW 4681   6.529   4.373   0.960
 1261SOL    HW1 4682   6.610   4.322   0.934
 1261SOL    HW2 4683   6.478   4.322   1.029
 1262SOL     OW 4684   5.493   5.962   1.461
 1262SOL    HW1 4685   5.546   5.877   1.463
 1262SOL    HW2 4686   5.403   5.946   1.501
 1263SOL     OW 4687   1.064   1.936   3.230
 1263SOL    HW1 4688   1.096   1.911   3.139
 1263SOL    HW2 4689   1.085   2.032   3.247
 1264SOL     OW 4690   0.806   2.583   5.316
 1264SOL    HW1 4691   0.768   2.594   5.224
 1264SOL    HW2 4692   0.897   2.623   5.320
 1265SOL     OW 4693   5.912   6.198   4.835
 1265SOL    HW1 4694   6.012   6.190   4.846
 1265SOL    HW2 4695   5.892   6.277   4.777
 1266SOL     OW 4696   1.879   0.716   4.743
 1266SOL    HW1 4697   1.911   0.793   4.797
 1266SOL    HW2 4698   1.815   0.660   4.797
 1267SOL     OW 4699   3.725   6.901   3.227
 1267SOL    HW1 4700   3.776   6.840   3.166
 1267SOL    HW2 4701   3.642   6.854   3.260
 1268SOL     OW 4702   4.298   2.666   5.670
 1268SOL    HW1 4703   4.354   2.619   5.738
 1268SOL    HW2 4704   4.284   2.761   5.697
 1269SOL     OW 4705   6.197   2.125   4.097
 1269SOL    HW1 4706   6.169   2.076   4.180
 1269SOL    HW2 4707   6.146   2.211   4.090
 1270SOL     OW 4708   6.659   5.862   2.541
 1270SOL    HW1 4709   6.628   5.780   2.588
 1270SOL    HW2 4710   6.580   5.919   2.518
 1271SOL     OW 4711   1.545   1.585   0.764
 1271SOL    HW1 4712   1.594   1.644   0.829
 1271SOL    HW2 4713   1.580   1.601   0.672
 1272SOL     OW 4714   6.384   3.902   6.851
 1272SOL    HW1 4715   6.387   3.836   6.776
 1272SOL    HW2 4716   6.371   3.994   6.815
 1273SOL     OW 4717   1.128   4.939   4.887
 1273SOL    HW1 4718   1.077   4.855   4.907
 1273SOL    HW2 4719   1.171   4.973   4.970
 1274SOL     OW 4720   0.298   5.811   2.944
 1274SOL    HW1 4721   0.330   5.833   3.037
 1274SOL    HW2 4722   0.376   5.786   2.887
 1275SOL     OW 4723   2.170   1.267   2.817
 1275SOL    HW1 4724   2.265   1.282   2.792
 1275SOL    HW2 4725   2.110   1.311   2.750
 1276SOL     OW 4726   5.275   4.727   3.899
 1276SOL    HW1 4727   5.180   4.706   3.923
 1276SOL    HW2 4728   5.330   4.644   3.906
 1277SOL     OW 4729   0.738   6.013   0.239
 1277SOL    HW1 4730   0.762   6.054   0.327
 1277SOL    HW2 4731   0.662   5.949   0.252
 1278SOL     OW 4732   1.133   5.664   2.766
 1278SOL    HW1 4733   1.186   5.617   2.837
 1278SOL    HW2 4734   1.190   5.732   2.721
 1279SOL     OW 4735   2.415   2.462   1.055
 1279SOL    HW1 4736   2.366   2.519   1.122
 1279SOL    HW2 4737   2.511   2.454   1.083
 1280SOL     OW 4738   1.851   2.370   3.458
 1280SOL    HW1 4739   1.837   2.359   3.359
 1280SOL    HW2 4740   1.949   2.374   3.477
 1281SOL     OW 4741   4.263   6.282   4.640
 1281SOL    HW1 4742   4.315   6.226   4.575
 1281SOL    HW2 4743   4.316   6.293   4.724
 1282SOL     OW 4744   6.698   2.199   1.234
 1282SOL    HW1 4745   6.690   2.298   1.216
 1282SOL    HW2 4746   6.712   2.184   1.332
 1283SOL     OW 4747   7.008   2.987   5.014
 1283SOL    HW1 4748   6.970   3.069   5.057
 1283SOL    HW2 4749   6.962   2.970   4.927
 1284SOL     OW 4750   4.385   1.800   1.822
 1284SOL    HW1 4751   4.411   1.896   1.829
 1284SOL    HW2 4752   4.324   1.787   1.743
 1285SOL     OW 4753   4.395   1.185   4.909
 1285SOL    HW1 4754   4.313   1.128   4.901
 1285SOL    HW2 4755   4.397   1.250   4.832
 1286SOL     OW 4756   5.595   2.089   1.693
 1286SOL    HW1 4757   5.561   2.177   1.727
 1286SOL    HW2 4758   5.567   2.077   1.598
 1287SOL     OW 4759   6.588   4.637   4.622
 1287SOL    HW1 4760   6.669   4.655   4.679
 1287SOL    HW2 4761   6.588   4.700   4.544
 1288SOL     OW 4762   4.330   3.929   6.941
 1288SOL    HW1 4763   4.301   3.964   0.007
 1288SOL    HW2 4764   4.392   3.995   6.899
 1289SOL     OW 4765   6.952   6.921   1.628
 1289SOL    HW1 4766   6.962   7.008   1.677
 1289SOL    HW2 4767   0.020   6.885   1.607
 1290SOL     OW 4768   2.031   6.941   6.193
 1290SOL    HW1 4769   2.074   6.945   6.103
 1290SOL    HW2 4770   2.024   0.010   6.231
 1291SOL     OW 4771   6.439   5.017   3.346
 1291SOL    HW1 4772   6.446   4.998   3.248
 1291SOL    HW2 4773   6.519   4.980   3.394
 1292SOL     OW 4774   0.953   6.683   1.555
 1292SOL    HW1 4775   1.045   6.698   1.592
 1292SOL    HW2 4776   0.947   6.724   1.464
 1293SOL     OW 4777   3.681   1.562   0.144
 1293SOL    HW1 4778   3.706   1.656   0.168
 1293SOL    HW2 4779   3.686   1.550   0.045
 1294SOL     OW 4780   2.037   3.627   5.119
 1294SOL    HW1 4781   2.030   3.719   5.157
 1294SOL    HW2 4782   1.993   3.562   5.181
 1295SOL     OW 4783   5.973   4.448   0.605
 1295SOL    HW1 4784   6.000   4.498   0.688
 1295SOL    HW2 4785   5.936   4.513   0.538
 1296SOL     OW 4786   5.377   0.099   5.481
 1296SOL    HW1 4787   5.312   0.173   5.496
 1296SOL    HW2 4788   5.339   0.034   5.416
 1297SOL     OW 4789   0.388   0.501   2.364
 1297SOL    HW1 4790   0.403   0.458   2.274
 1297SOL    HW2 4791   0.410   0.598   2.358
 1298SOL     OW 4792   5.192   6.436   2.639
 1298SOL    HW1 4793   5.274   6.491   2.623
 1298SOL    HW2 4794   5.159   6.452   2.732
 1299SOL     OW 4795   0.994   3.475   5.120
 1299SOL    HW1 4796   1.079   3.451   5.073
 1299SOL    HW2 4797   1.015   3.504   5.214
 1300SOL     OW 4798   1.023   4.839   2.006
 1300SOL    HW1 4799   1.063   4.843   1.915
 1300SOL    HW2 4800   1.073   4.773   2.062
 1301SOL     OW 4801   0.687   0.243   0.706
 1301SOL    HW1 4802   0.617   0.180   0.672
 1301SOL    HW2 4803   0.760   0.251   0.638
 1302SOL     OW 4804   5.564   6.946   4.572
 1302SOL    HW1 4805   5.492   6.929   4.640
 1302SOL    HW2 4806   5.651   6.908   4.606
 1303SOL     OW 4807   4.011   6.255   2.164
 1303SOL    HW1 4808   3.950   6.318   2.115
 1303SOL    HW2 4809   3.958   6.176   2.196
 1304SOL     OW 4810   0.666   0.881   0.621
 1304SOL    HW1 4811   0.706   0.813   0.683
 1304SOL    HW2 4812   0.571   0.858   0.602
 1305SOL     OW 4813   5.124   3.661   6.344
 1305SOL    HW1 4814   5.081   3.624   6.262
 1305SOL    HW2 4815   5.135   3.760   6.334
 1306SOL     OW 4816   2.448   5.362   4.218
 1306SOL    HW1 4817   2.532   5.337   4.266
 1306SOL    HW2 4818   2.414   5.283   4.167
 1307SOL     OW 4819   2.749   1.931   3.440
 1307SOL    HW1 4820   2.839   1.890   3.426
 1307SOL    HW2 4821   2.756   2.002   3.510
 1308SOL     OW 4822   0.716   4.532   6.101
 1308SOL    HW1 4823   0.808   4.493   6.095
 1308SOL    HW2 4824   0.705   4.601   6.030
 1309SOL     OW 4825   5.622   4.392   6.698
 1309SOL    HW1 4826   5.676   4.470   6.730
 1309SOL    HW2 4827   5.671   4.307   6.718
 1310SOL     OW 4828   1.195   3.884   3.288
 1310SOL    HW1 4829   1.222   3.815   3.355
 1310SOL    HW2 4830   1.095   3.891   3.285
 1311SOL     OW 4831   6.970   5.534   0.689
 1311SOL    HW1 4832   0.025   5.506   0.745
 1311SOL    HW2 4833   6.943   5.459   0.629
 1312SOL     OW 4834   2.332   1.307   6.157
 1312SOL    HW1 4835   2.307   1.373   6.087
 1312SOL    HW2 4836   2.287   1.219   6.138
 1313SOL     OW 4837   6.294   6.169   2.506
 1313SOL    HW1 4838   6.329   6.228   2.579
 1313SOL    HW2 4839   6.313   6.212   2.417
 1314SOL     OW 4840   2.067   1.533   5.241
 1314SOL    HW1 4841   2.021   1.493   5.320
 1314SOL    HW2 4842   2.149   1.581   5.270
 1315SOL     OW 4843   6.129   1.299   3.460
 1315SOL    HW1 4844   6.182   1.317   3.543
 1315SOL    HW2 4845   6.044   1.252   3.485
 1316SOL     OW 4846   4.412   0.520   5.270
 1316SOL    HW1 4847   4.475   0.518   5.348
 1316SOL    HW2 4848   4.333   0.578   5.291
 1317SOL     OW 4849   2.988   3.483   6.031
 1317SOL    HW1 4850   3.087   3.489   6.045
 1317SOL    HW2 4851   2.943   3.472   6.120
 1318SOL     OW 4852   2.005   2.511   6.198
 1318SOL    HW1 4853   1.990   2.413   6.210
 1318SOL    HW2 4854   1.963   2.561   6.274
 1319SOL     OW 4855   6.763   6.402   1.199
 1319SOL    HW1 4856   6.726   6.423   1.290
 1319SOL    HW2 4857   6.700   6.434   1.129
 1320SOL     OW 4858   3.564   3.184   6.049
 1320SOL    HW1 4859   3.526   3.093   6.068
 1320SOL    HW2 4860   3.584   3.230   6.135
 1321SOL     OW 4861   5.509   2.514   0.396
 1321SOL    HW1 4862   5.535   2.465   0.313
 1321SOL    HW2 4863   5.409   2.524   0.398
 1322SOL     OW 4864   3.419   1.823   0.271
 1322SOL    HW1 4865   3.462   1.912   0.287
 1322SOL    HW2 4866   3.439   1.762   0.348
 1323SOL     OW 4867   4.069   0.158   0.598
 1323SOL    HW1 4868   4.145   0.110   0.641
 1323SOL    HW2 4869   4.094   0.184   0.505
 1324SOL     OW 4870   1.602   3.348   0.078
 1324SOL    HW1 4871   1.600   3.447   0.069
 1324SOL    HW2 4872   1.555   3.307   7.022
 1325SOL     OW 4873   2.593   5.422   5.722
 1325SOL    HW1 4874   2.565   5.336   5.765
 1325SOL    HW2 4875   2.531   5.496   5.751
 1326SOL     OW 4876   4.771   2.867   3.725
 1326SOL    HW1 4877   4.712   2.810   3.667
 1326SOL    HW2 4878   4.791   2.818   3.810
 1327SOL     OW 4879   6.099   5.255   1.518
 1327SOL    HW1 4880   6.086   5.161   1.549
 1327SOL    HW2 4881   6.083   5.318   1.594
 1328SOL     OW 4882   2.132   3.136   4.972
 1328SOL    HW1 4883   2.145   3.221   5.023
 1328SOL    HW2 4884   2.204   3.071   4.998
 1329SOL     OW 4885   1.056   3.201   3.342
 1329SOL    HW1 4886   1.092   3.182   3.250
 1329SOL    HW2 4887   1.115   3.159   3.411
 1330SOL     OW 4888   6.387   3.173   1.452
 1330SOL    HW1 4889   6.414   3.079   1.474
 1330SOL    HW2 4890   6.377   3.183   1.353
 1331SOL     OW 4891   4.492   1.947   3.578
 1331SOL    HW1 4892   4.398   1.967   3.554
 1331SOL    HW2 4893   4.540   1.908   3.500
 1332SOL     OW 4894   1.730   6.146   0.026
 1332SOL    HW1 4895   1.694   6.137   6.956
 1332SOL    HW2 4896   1.778   6.062   0.051
 1333SOL     OW 4897   3.920   3.984   3.221
 1333SOL    HW1 4898   3.904   4.003   3.318
 1333SOL    HW2 4899   3.864   4.046   3.165
 1334SOL     OW 4900   6.887   3.396   2.275
 1334SOL    HW1 4901   6.814   3.447   2.230
 1334SOL    HW2 4902   6.970   3.453   2.277
 1335SOL     OW 4903   1.179   3.458   2.127
 1335SOL    HW1 4904   1.100   3.467   2.187
 1335SOL    HW2 4905   1.197   3.546   2.083
 1336SOL     OW 4906   3.002   0.706   5.280
 1336SOL    HW1 4907   2.926   0.647   5.308
 1336SOL    HW2 4908   3.081   0.649   5.256
 1337SOL     OW 4909   6.667   1.322   3.865
 1337SOL    HW1 4910   6.632   1.277   3.948
 1337SOL    HW2 4911   6.760   1.355   3.883
 1338SOL     OW 4912   6.691   4.030   5.028
 1338SOL    HW1 4913   6.660   3.999   4.939
 1338SOL    HW2 4914   6.647   4.118   5.050
 1339SOL     OW 4915   0.164   0.303   0.144
 1339SOL    HW1 4916   0.098   0.229   0.153
 1339SOL    HW2 4917   0.179   0.345   0.234
 1340SOL     OW 4918   4.218   2.520   1.684
 1340SOL    HW1 4919   4.204   2.445   1.748
 1340SOL    HW2 4920   4.131   2.564   1.664
 1341SOL     OW 4921   4.845   6.881   0.119
 1341SOL    HW1 4922   4.863   6.785   0.141
 1341SOL    HW2 4923   4.875   6.900   0.026
 1342SOL     OW 4924   2.515   6.501   1.230
 1342SOL    HW1 4925   2.422   6.537   1.223
 1342SOL    HW2 4926   2.580   6.576   1.215
 1343SOL     OW 4927   5.790   6.373   3.072
 1343SOL    HW1 4928   5.867   6.353   3.133
 1343SOL    HW2 4929   5.725   6.297   3.075
 1344SOL     OW 4930   0.350   0.474   5.003
 1344SOL    HW1 4931   0.276   0.407   5.000
 1344SOL    HW2 4932   0.427   0.438   5.055
 1345SOL     OW 4933   0.256   5.863   0.606
 1345SOL    HW1 4934   0.215   5.889   0.519
 1345SOL    HW2 4935   0.226   5.927   0.677
 1346SOL     OW 4936   2.959   5.264   5.259
 1346SOL    HW1 4937   2.894   5.339   5.250
 1346SOL    HW2 4938   3.016   5.278   5.339
 1347SOL     OW 4939   1.087   0.194   6.227
 1347SOL    HW1 4940   0.990   0.195   6.249
 1347SOL    HW2 4941   1.140   0.230   6.304
 1348SOL     OW 4942   0.943   6.462   5.632
 1348SOL    HW1 4943   0.891   6.466   5.547
 1348SOL    HW2 4944   0.926   6.544   5.686
 1349SOL     OW 4945   4.903   2.968   4.064
 1349SOL    HW1 4946   4.903   2.877   4.023
 1349SOL    HW2 4947   4.866   3.034   3.998
 1350SOL     OW 4948   3.663   3.865   0.102
 1350SOL    HW1 4949   3.643   3.792   0.037
 1350SOL    HW2 4950   3.601   3.942   0.085
 1351SOL     OW 4951   6.575   2.398   5.702
 1351SOL    HW1 4952   6.589   2.328   5.632
 1351SOL    HW2 4953   6.634   2.476   5.683
 1352SOL     OW 4954   6.977   0.802   2.331
 1352SOL    HW1 4955   0.006   0.873   2.378
 1352SOL    HW2 4956   6.909   0.763   2.393
 1353SOL     OW 4957   0.449   0.801   0.276
 1353SOL    HW1 4958   0.411   0.894   0.273
 1353SOL    HW2 4959   0.537   0.800   0.230
 1354SOL     OW 4960   5.151   5.080   2.342
 1354SOL    HW1 4961   5.145   5.171   2.300
 1354SOL    HW2 4962   5.058   5.045   2.358
 1355SOL     OW 4963   6.376   3.407   5.772
 1355SOL    HW1 4964   6.293   3.390   5.719
 1355SOL    HW2 4965   6.353   3.462   5.853
 1356SOL     OW 4966   3.327   2.944   0.912
 1356SOL    HW1 4967   3.316   2.875   0.841
 1356SOL    HW2 4968   3.422   2.946   0.942
 1357SOL     OW 4969   0.111   3.736   5.513
 1357SOL    HW1 4970   0.167   3.685   5.448
 1357SOL    HW2 4971   0.029   3.770   5.467
 1358SOL     OW 4972   1.498   6.600   6.804
 1358SOL    HW1 4973   1.402   6.608   6.831
 1358SOL    HW2 4974   1.552   6.665   6.856
 1359SOL     OW 4975   6.947   4.267   1.569
 1359SOL    HW1 4976   6.972   4.209   1.647
 1359SOL    HW2 4977   6.850   4.291   1.577
 1360SOL     OW 4978   2.500   2.286   0.335
 1360SOL    HW1 4979   2.404   2.316   0.331
 1360SOL    HW2 4980   2.550   2.345   0.398
 1361SOL     OW 4981   0.257   5.186   5.108
 1361SOL    HW1 4982   0.292   5.159   5.018
 1361SOL    HW2 4983   0.157   5.183   5.106
 1362SOL     OW 4984   3.156   3.069   3.142
 1362SOL    HW1 4985   3.181   3.110   3.055
 1362SOL    HW2 4986   3.071   3.016   3.132
 1363SOL     OW 4987   1.311   5.752   4.885
 1363SOL    HW1 4988   1.272   5.811   4.814
 1363SOL    HW2 4989   1.379   5.691   4.844
 1364SOL     OW 4990   3.509   3.769   1.218
 1364SOL    HW1 4991   3.502   3.719   1.132
 1364SOL    HW2 4992   3.481   3.864   1.204
 1365SOL     OW 4993   0.357   3.420   6.840
 1365SOL    HW1 4994   0.261   3.419   6.868
 1365SOL    HW2 4995   0.362   3.436   6.741
 1366SOL     OW 4996   2.802   0.245   5.444
 1366SOL    HW1 4997   2.892   0.286   5.459
 1366SOL    HW2 4998   2.759   0.225   5.532
 1367SOL     OW 4999   1.954   0.835   2.799
 1367SOL    HW1 5000   1.890   0.787   2.859
 1367SOL    HW2 5001   1.965   0.930   2.831
 1368SOL     OW 5002   5.361   6.963   3.532
 1368SOL    HW1 5003   5.304   6.998   3.606
 1368SOL    HW2 5004   5.350   7.022   3.451
 1369SOL     OW 5005   0.643   0.957   3.499
 1369SOL    HW1 5006   0.574   0.925   3.434
 1369SOL    HW2 5007   0.668   1.051   3.476
 1370SOL     OW 5008   2.914   0.582   1.407
 1370SOL    HW1 5009   2.854   0.519   1.456
 1370SOL    HW2 5010   2.978   0.625   1.472
 1371SOL     OW 5011   4.418   0.634   6.763
 1371SOL    HW1 5012   4.334   0.688   6.756
 1371SOL    HW2 5013   4.395   0.541   6.792
 1372SOL     OW 5014   3.008   1.864   1.600
 1372SOL    HW1 5015   2.964   1.897   1.684
 1372SOL    HW2 5016   3.080   1.927   1.572
 1373SOL     OW 5017   1.404   6.146   0.886
 1373SOL    HW1 5018   1.411   6.134   0.787
 1373SOL    HW2 5019   1.353   6.069   0.925
 1374SOL     OW 5020   5.069   2.771   0.493
 1374SOL    HW1 5021   5.014   2.694   0.525
 1374SOL    HW2 5022   5.061   2.778   0.394
 1375SOL     OW 5023   0.450   3.930   5.507
 1375SOL    HW1 5024   0.470   4.009   5.564
 1375SOL    HW2 5025   0.387   3.957   5.434
 1376SOL     OW 5026   4.674   1.858   2.392
 1376SOL    HW1 5027   4.629   1.870   2.303
 1376SOL    HW2 5028   4.633   1.780   2.439
 1377SOL     OW 5029   0.666   5.572   5.075
 1377SOL    HW1 5030   0.613   5.491   5.098
 1377SOL    HW2 5031   0.608   5.637   5.025
 1378SOL     OW 5032   2.086   2.392   0.012
 1378SOL    HW1 5033   2.061   2.296   0.027
 1378SOL    HW2 5034   2.007   2.449   0.033
 1379SOL     OW 5035   3.896   6.350   1.144
 1379SOL    HW1 5036   3.961   6.275   1.156
 1379SOL    HW2 5037   3.899   6.382   1.049
 1380SOL     OW 5038   6.307   6.630   2.815
 1380SOL    HW1 5039   6.338   6.627   2.910
 1380SOL    HW2 5040   6.252   6.548   2.795
 1381SOL     OW 5041   6.507   0.583   1.407
 1381SOL    HW1 5042   6.496   0.490   1.374
 1381SOL    HW2 5043   6.445   0.644   1.358
 1382SOL     OW 5044   6.620   4.734   6.413
 1382SOL    HW1 5045   6.697   4.676   6.440
 1382SOL    HW2 5046   6.542   4.716   6.473
 1383SOL     OW 5047   2.702   6.895   0.609
 1383SOL    HW1 5048   2.779   6.940   0.654
 1383SOL    HW2 5049   2.646   6.847   0.677
 1384SOL     OW 5050   2.966   1.706   2.102
 1384SOL    HW1 5051   2.954   1.796   2.144
 1384SOL    HW2 5052   2.943   1.635   2.168
 1385SOL     OW 5053   5.761   2.956   2.740
 1385SOL    HW1 5054   5.691   2.912   2.684
 1385SOL    HW2 5055   5.788   3.043   2.699
 1386SOL     OW 5056   2.085   2.607   4.318
 1386SOL    HW1 5057   2.179   2.576   4.309
 1386SOL    HW2 5058   2.046   2.624   4.227
 1387SOL     OW 5059   2.506   0.588   5.165
 1387SOL    HW1 5060   2.520   0.677   5.123
 1387SOL    HW2 5061   2.457   0.528   5.101
 1388SOL     OW 5062   6.320   1.015   5.281
 1388SOL    HW1 5063   6.224   1.026   5.305
 1388SOL    HW2 5064   6.350   0.922   5.305
 1389SOL     OW 5065   6.786   1.117   4.677
 1389SOL    HW1 5066   6.721   1.042   4.665
 1389SOL    HW2 5067   6.776   1.155   4.768
 1390SOL     OW 5068   4.745   2.618   2.235
 1390SOL    HW1 5069   4.753   2.648   2.330
 1390SOL    HW2 5070   4.715   2.694   2.178
 1391SOL     OW 5071   5.708   1.862   4.616
 1391SOL    HW1 5072   5.642   1.929   4.647
 1391SOL    HW2 5073   5.789   1.865   4.674
 1392SOL     OW 5074   4.451   5.883   6.081
 1392SOL    HW1 5075   4.366   5.877   6.029
 1392SOL    HW2 5076   4.449   5.815   6.155
 1393SOL     OW 5077   5.675   0.586   6.448
 1393SOL    HW1 5078   5.604   0.651   6.474
 1393SOL    HW2 5079   5.644   0.532   6.370
 1394SOL     OW 5080   4.376   0.237   4.033
 1394SOL    HW1 5081   4.455   0.294   4.011
 1394SOL    HW2 5082   4.292   0.290   4.019
 1395SOL     OW 5083   1.448   5.195   2.366
 1395SOL    HW1 5084   1.384   5.119   2.354
 1395SOL    HW2 5085   1.451   5.250   2.283
 1396SOL     OW 5086   1.912   1.369   3.581
 1396SOL    HW1 5087   1.960   1.384   3.667
 1396SOL    HW2 5088   1.918   1.451   3.524
 1397SOL     OW 5089   1.061   5.563   4.927
 1397SOL    HW1 5090   1.037   5.526   5.016
 1397SOL    HW2 5091   1.134   5.631   4.938
 1398SOL     OW 5092   1.483   6.504   0.321
 1398SOL    HW1 5093   1.429   6.469   0.245
 1398SOL    HW2 5094   1.513   6.597   0.301
 1399SOL     OW 5095   4.081   0.174   0.309
 1399SOL    HW1 5096   3.986   0.142   0.311
 1399SOL    HW2 5097   4.086   0.261   0.260
 1400SOL     OW 5098   0.299   0.720   5.156
 1400SOL    HW1 5099   0.306   0.630   5.113
 1400SOL    HW2 5100   0.246   0.713   5.240
 1401SOL     OW 5101   5.256   0.282   2.346
 1401SOL    HW1 5102   5.345   0.289   2.390
 1401SOL    HW2 5103   5.185   0.270   2.416
 1402SOL     OW 5104   6.791   4.583   2.625
 1402SOL    HW1 5105   6.779   4.486   2.649
 1402SOL    HW2 5106   6.836   4.630   2.701
 1403SOL     OW 5107   3.225   3.271   6.094
 1403SOL    HW1 5108   3.260   3.309   6.008
 1403SOL    HW2 5109   3.268   3.318   6.171
 1404SOL     OW 5110   4.082   6.452   0.585
 1404SOL    HW1 5111   4.179   6.429   0.588
 1404SOL    HW2 5112   4.068   6.545   0.618
 1405SOL     OW 5113   0.388   3.983   1.071
 1405SOL    HW1 5114   0.483   3.998   1.045
 1405SOL    HW2 5115   0.384   3.931   1.156
 1406SOL     OW 5116   1.650   3.359   0.426
 1406SOL    HW1 5117   1.599   3.279   0.394
 1406SOL    HW2 5118   1.734   3.368   0.373
 1407SOL     OW 5119   0.191   3.134   1.460
 1407SOL    HW1 5120   0.138   3.137   1.545
 1407SOL    HW2 5121   0.286   3.158   1.479
 1408SOL     OW 5122   5.878   6.555   1.161
 1408SOL    HW1 5123   5.787   6.591   1.181
 1408SOL    HW2 5124   5.880   6.457   1.180
 1409SOL     OW 5125   6.562   1.353   5.857
 1409SOL    HW1 5126   6.555   1.394   5.948
 1409SOL    HW2 5127   6.603   1.418   5.794
 1410SOL     OW 5128   3.181   0.621   6.550
 1410SOL    HW1 5129   3.164   0.542   6.492
 1410SOL    HW2 5130   3.270   0.661   6.528
 1411SOL     OW 5131   3.775   4.934   0.150
 1411SOL    HW1 5132   3.703   4.977   0.203
 1411SOL    HW2 5133   3.861   4.983   0.163
 1412SOL     OW 5134   2.505   2.523   6.919
 1412SOL    HW1 5135   2.525   2.438   6.870
 1412SOL    HW2 5136   2.552   2.522   7.007
 1413SOL     OW 5137   1.890   1.675   5.083
 1413SOL    HW1 5138   1.803   1.629   5.067
 1413SOL    HW2 5139   1.949   1.618   5.139
 1414SOL     OW 5140   0.445   4.702   2.794
 1414SOL    HW1 5141   0.427   4.663   2.884
 1414SOL    HW2 5142   0.540   4.732   2.790
 1415SOL     OW 5143   2.854   1.543   4.810
 1415SOL    HW1 5144   2.833   1.587   4.722
 1415SOL    HW2 5145   2.785   1.474   4.830
 1416SOL     OW 5146   4.600   0.515   4.465
 1416SOL    HW1 5147   4.649   0.458   4.531
 1416SOL    HW2 5148   4.617   0.482   4.372
 1417SOL     OW 5149   3.764   3.424   5.298
 1417SOL    HW1 5150   3.670   3.455   5.282
 1417SOL    HW2 5151   3.782   3.343   5.241
 1418SOL     OW 5152   3.850   4.039   5.781
 1418SOL    HW1 5153   3.852   4.024   5.682
 1418SOL    HW2 5154   3.866   4.136   5.800
 1419SOL     OW 5155   1.608   5.875   1.752
 1419SOL    HW1 5156   1.698   5.837   1.775
 1419SOL    HW2 5157   1.595   5.962   1.800
 1420SOL     OW 5158   2.891   6.358   2.672
 1420SOL    HW1 5159   2.980   6.325   2.641
 1420SOL    HW2 5160   2.829   6.280   2.685
 1421SOL     OW 5161   1.446   4.816   6.292
 1421SOL    HW1 5162   1.509   4.753   6.335
 1421SOL    HW2 5163   1.353   4.779   6.296
 1422SOL     OW 5164   2.310   3.234   6.692
 1422SOL    HW1 5165   2.322   3.321   6.741
 1422SOL    HW2 5166   2.285   3.163   6.757
 1423SOL     OW 5167   4.171   1.009   4.883
 1423SOL    HW1 5168   4.091   1.069   4.872
 1423SOL    HW2 5169   4.159   0.952   4.965
 1424SOL     OW 5170   6.548   2.839   0.956
 1424SOL    HW1 5171   6.583   2.870   1.045
 1424SOL    HW2 5172   6.478   2.902   0.924
 1425SOL     OW 5173   5.240   0.727   3.731
 1425SOL    HW1 5174   5.233   0.766   3.823
 1425SOL    HW2 5175   5.277   0.635   3.737
 1426SOL     OW 5176   4.025   1.228   0.303
 1426SOL    HW1 5177   4.065   1.179   0.380
 1426SOL    HW2 5178   4.077   1.207   0.220
 1427SOL     OW 5179   1.788   0.300   3.849
 1427SOL    HW1 5180   1.742   0.331   3.932
 1427SOL    HW2 5181   1.789   0.373   3.781
 1428SOL     OW 5182   1.200   3.160   4.251
 1428SOL    HW1 5183   1.152   3.141   4.166
 1428SOL    HW2 5184   1.235   3.075   4.289
 1429SOL     OW 5185   6.349   0.891   2.292
 1429SOL    HW1 5186   6.402   0.810   2.265
 1429SOL    HW2 5187   6.296   0.923   2.214
 1430SOL     OW 5188   1.979   3.567   4.608
 1430SOL    HW1 5189   2.047   3.639   4.594
 1430SOL    HW2 5190   2.017   3.496   4.667
 1431SOL     OW 5191   2.911   1.490   0.168
 1431SOL    HW1 5192   2.943   1.396   0.183
 1431SOL    HW2 5193   2.955   1.551   0.234
 1432SOL     OW 5194   3.476   0.158   2.216
 1432SOL    HW1 5195   3.463   0.207   2.130
 1432SOL    HW2 5196   3.460   0.220   2.292
 1433SOL     OW 5197   2.553   0.882   4.165
 1433SOL    HW1 5198   2.505   0.934   4.093
 1433SOL    HW2 5199   2.585   0.944   4.236
 1434SOL     OW 5200   5.876   4.080   0.306
 1434SOL    HW1 5201   5.855   4.139   0.384
 1434SOL    HW2 5202   5.945   4.124   0.248
 1435SOL     OW 5203   1.212   0.180   3.643
 1435SOL    HW1 5204   1.308   0.153   3.645
 1435SOL    HW2 5205   1.204   0.276   3.670
 1436SOL     OW 5206   5.454   1.082   0.581
 1436SOL    HW1 5207   5.358   1.069   0.556
 1436SOL    HW2 5208   5.495   1.150   0.520
 1437SOL     OW 5209   3.616   0.771   0.253
 1437SOL    HW1 5210   3.533   0.719   0.236
 1437SOL    HW2 5211   3.609   0.817   0.342
 1438SOL     OW 5212   2.468   0.586   2.761
 1438SOL    HW1 5213   2.527   0.630   2.694
 1438SOL    HW2 5214   2.377   0.630   2.759
 1439SOL     OW 5215   6.981   4.761   0.133
 1439SOL    HW1 5216   6.979   4.698   0.211
 1439SOL    HW2 5217   6.893   4.758   0.085
 1440SOL     OW 5218   3.458   2.990   3.222
 1440SOL    HW1 5219   3.466   2.961   3.318
 1440SOL    HW2 5220   3.369   3.032   3.208
 1441SOL     OW 5221   6.486   2.692   4.456
 1441SOL    HW1 5222   6.459   2.785   4.432
 1441SOL    HW2 5223   6.468   2.631   4.379
 1442SOL     OW 5224   5.465   6.921   6.932
 1442SOL    HW1 5225   5.379   6.966   6.958
 1442SOL    HW2 5226   5.475   6.924   6.832
 1443SOL     OW 5227   0.922   2.823   3.150
 1443SOL    HW1 5228   0.947   2.764   3.073
 1443SOL    HW2 5229   0.990   2.814   3.223
 1444SOL     OW 5230   5.550   0.278   5.565
 1444SOL    HW1 5231   5.471   0.330   5.598
 1444SOL    HW2 5232   5.520   0.211   5.497
 1445SOL     OW 5233   6.427   1.771   0.754
 1445SOL    HW1 5234   6.361   1.739   0.686
 1445SOL    HW2 5235   6.425   1.711   0.834
 1446SOL     OW 5236   3.924   6.961   1.000
 1446SOL    HW1 5237   4.007   6.915   1.032
 1446SOL    HW2 5238   3.888   6.912   0.920
 1447SOL     OW 5239   5.468   1.607   5.014
 1447SOL    HW1 5240   5.408   1.527   5.017
 1447SOL    HW2 5241   5.505   1.624   5.105
 1448SOL     OW 5242   5.351   0.545   6.772
 1448SOL    HW1 5243   5.408   0.494   6.707
 1448SOL    HW2 5244   5.360   0.643   6.753
 1449SOL     OW 5245   4.940   5.722   0.911
 1449SOL    HW1 5246   4.856   5.667   0.918
 1449SOL    HW2 5247   5.001   5.679   0.844
 1450SOL     OW 5248   5.870   2.332   3.543
 1450SOL    HW1 5249   5.879   2.430   3.524
 1450SOL    HW2 5250   5.773   2.308   3.547
 1451SOL     OW 5251   1.768   0.005   2.244
 1451SOL    HW1 5252   1.866   7.019   2.258
 1451SOL    HW2 5253   1.745   0.102   2.232
 1452SOL     OW 5254   4.473   0.552   4.953
 1452SOL    HW1 5255   4.484   0.453   4.949
 1452SOL    HW2 5256   4.471   0.590   4.861
 1453SOL     OW 5257   4.553   4.480   4.004
 1453SOL    HW1 5258   4.501   4.552   4.050
 1453SOL    HW2 5259   4.614   4.436   4.070
 1454SOL     OW 5260   5.137   4.654   1.090
 1454SOL    HW1 5261   5.183   4.603   1.163
 1454SOL    HW2 5262   5.133   4.599   1.007
 1455SOL     OW 5263   2.292   2.193   1.362
 1455SOL    HW1 5264   2.220   2.226   1.301
 1455SOL    HW2 5265   2.369   2.256   1.360
 1456SOL     OW 5266   6.200   5.568   3.839
 1456SOL    HW1 5267   6.186   5.554   3.937
 1456SOL    HW2 5268   6.152   5.651   3.810
 1457SOL     OW 5269   1.604   6.879   3.767
 1457SOL    HW1 5270   1.582   6.845   3.859
 1457SOL    HW2 5271   1.600   6.804   3.702
 1458SOL     OW 5272   0.136   5.355   0.261
 1458SOL    HW1 5273   0.170   5.392   0.174
 1458SOL    HW2 5274   0.056   5.407   0.289
 1459SOL     OW 5275   2.839   0.237   1.093
 1459SOL    HW1 5276   2.793   0.313   1.140
 1459SOL    HW2 5277   2.790   0.152   1.111
 1460SOL     OW 5278   1.133   6.588   0.242
 1460SOL    HW1 5279   1.071   6.538   0.303
 1460SOL    HW2 5280   1.133   6.685   0.266
 1461SOL     OW 5281   4.360   4.983   1.729
 1461SOL    HW1 5282   4.460   4.981   1.737
 1461SOL    HW2 5283   4.334   5.054   1.664
 1462SOL     OW 5284   5.292   0.568   5.392
 1462SOL    HW1 5285   5.329   0.639   5.453
 1462SOL    HW2 5286   5.354   0.558   5.314
 1463SOL     OW 5287   0.513   1.046   5.157
 1463SOL    HW1 5288   0.580   0.981   5.192
 1463SOL    HW2 5289   0.472   1.010   5.073
 1464SOL     OW 5290   0.204   6.874   1.639
 1464SOL    HW1 5291   0.283   6.828   1.600
 1464SOL    HW2 5292   0.235   6.946   1.701
 1465SOL     OW 5293   0.268   0.322   4.585
 1465SOL    HW1 5294   0.295   0.349   4.493
 1465SOL    HW2 5295   0.300   0.391   4.650
 1466SOL     OW 5296   5.144   5.180   4.606
 1466SOL    HW1 5297   5.213   5.220   4.544
 1466SOL    HW2 5298   5.053   5.204   4.574
 1467SOL     OW 5299   5.951   3.930   2.828
 1467SOL    HW1 5300   6.028   3.918   2.765
 1467SOL    HW2 5301   5.985   3.972   2.913
 1468SOL     OW 5302   5.571   6.655   2.851
 1468SOL    HW1 5303   5.596   6.687   2.942
 1468SOL    HW2 5304   5.650   6.613   2.808
 1469SOL     OW 5305   0.217   1.273   2.386
 1469SOL    HW1 5306   0.232   1.227   2.298
 1469SOL    HW2 5307   0.297   1.260   2.444
 1470SOL     OW 5308   0.084   0.943   3.321
 1470SOL    HW1 5309   0.156   1.011   3.306
 1470SOL    HW2 5310   7.018   0.988   3.327
 1471SOL     OW 5311   6.564   0.179   0.854
 1471SOL    HW1 5312   6.533   0.231   0.775
 1471SOL    HW2 5313   6.659   0.152   0.842
 1472SOL     OW 5314   4.316   5.604   5.409
 1472SOL    HW1 5315   4.232   5.555   5.432
 1472SOL    HW2 5316   4.306   5.647   5.319
 1473SOL     OW 5317   6.050   4.108   3.024
 1473SOL    HW1 5318   6.068   4.156   3.110
 1473SOL    HW2 5319   6.125   4.125   2.959
 1474SOL     OW 5320   4.289   5.195   4.171
 1474SOL    HW1 5321   4.367   5.134   4.187
 1474SOL    HW2 5322   4.250   5.176   4.081
 1475SOL     OW 5323   6.543   0.980   3.448
 1475SOL    HW1 5324   6.448   0.958   3.427
 1475SOL    HW2 5325   6.548   1.023   3.539
 1476SOL     OW 5326   6.344   2.066   1.534
 1476SOL    HW1 5327   6.400   2.105   1.461
 1476SOL    HW2 5328   6.324   1.970   1.513
 1477SOL     OW 5329   3.316   6.042   3.649
 1477SOL    HW1 5330   3.243   6.085   3.596
 1477SOL    HW2 5331   3.384   6.003   3.587
 1478SOL     OW 5332   0.090   4.766   1.834
 1478SOL    HW1 5333   0.025   4.782   1.759
 1478SOL    HW2 5334   0.167   4.712   1.800
 1479SOL     OW 5335   0.854   4.582   0.706
 1479SOL    HW1 5336   0.857   4.616   0.800
 1479SOL    HW2 5337   0.945   4.549   0.680
 1480SOL     OW 5338   3.180   0.855   0.160
 1480SOL    HW1 5339   3.248   0.911   0.112
 1480SOL    HW2 5340   3.226   0.798   0.229
 1481SOL     OW 5341   6.742   2.391   6.277
 1481SOL    HW1 5342   6.813   2.421   6.341
 1481SOL    HW2 5343   6.774   2.404   6.183
 1482SOL     OW 5344   5.302   1.462   6.635
 1482SOL    HW1 5345   5.223   1.522   6.648
 1482SOL    HW2 5346   5.339   1.438   6.725
 1483SOL     OW 5347   6.149   2.269   6.857
 1483SOL    HW1 5348   6.098   2.205   6.914
 1483SOL    HW2 5349   6.246   2.264   6.879
 1484SOL     OW 5350   0.273   6.845   2.739
 1484SOL    HW1 5351   0.357   6.793   2.725
 1484SOL    HW2 5352   0.255   6.902   2.659
 1485SOL     OW 5353   5.738   2.515   4.122
 1485SOL    HW1 5354   5.703   2.559   4.205
 1485SOL    HW2 5355   5.676   2.535   4.046
 1486SOL     OW 5356   5.499   2.354   1.732
 1486SOL    HW1 5357   5.520   2.420   1.660
 1486SOL    HW2 5358   5.563   2.366   1.808
 1487SOL     OW 5359   6.432   1.171   5.674
 1487SOL    HW1 5360   6.503   1.149   5.607
 1487SOL    HW2 5361   6.467   1.236   5.741
 1488SOL     OW 5362   4.425   1.922   2.741
 1488SOL    HW1 5363   4.518   1.896   2.712
 1488SOL    HW2 5364   4.393   1.859   2.811
 1489SOL     OW 5365   3.922   4.945   4.658
 1489SOL    HW1 5366   3.898   4.928   4.562
 1489SOL    HW2 5367   3.847   4.915   4.717
 1490SOL     OW 5368   2.168   2.332   1.126
 1490SOL    HW1 5369   2.201   2.416   1.083
 1490SOL    HW2 5370   2.170   2.257   1.060
 1491SOL     OW 5371   6.720   1.854   5.678
 1491SOL    HW1 5372   6.647   1.907   5.722
 1491SOL    HW2 5373   6.805   1.907   5.680
 1492SOL     OW 5374   5.822   2.917   1.487
 1492SOL    HW1 5375   5.898   2.967   1.445
 1492SOL    HW2 5376   5.767   2.980   1.541
 1493SOL     OW 5377   5.683   1.072   5.364
 1493SOL    HW1 5378   5.584   1.088   5.357
 1493SOL    HW2 5379   5.731   1.159   5.371
 1494SOL     OW 5380   5.502   2.351   4.225
 1494SOL    HW1 5381   5.593   2.390   4.215
 1494SOL    HW2 5382   5.454   2.398   4.300
 1495SOL     OW 5383   1.610   2.226   2.896
 1495SOL    HW1 5384   1.580   2.317   2.866
 1495SOL    HW2 5385   1.708   2.228   2.915
 1496SOL     OW 5386   0.799   0.738   3.481
 1496SOL    HW1 5387   0.737   0.695   3.415
 1496SOL    HW2 5388   0.777   0.835   3.490
 1497SOL     OW 5389   5.022   4.200   5.702
 1497SOL    HW1 5390   4.948   4.156   5.754
 1497SOL    HW2 5391   5.101   4.212   5.761
 1498SOL     OW 5392   2.142   5.780   7.001
 1498SOL    HW1 5393   2.170   5.873   6.981
 1498SOL    HW2 5394   2.178   5.718   6.932
 1499SOL     OW 5395   0.500   4.604   4.986
 1499SOL    HW1 5396   0.546   4.519   4.962
 1499SOL    HW2 5397   0.560   4.660   5.044
 1500SOL     OW 5398   4.503   6.893   5.356
 1500SOL    HW1 5399   4.429   6.878   5.291
 1500SOL    HW2 5400   4.538   6.986   5.345
 1501SOL     OW 5401   4.336   0.311   6.694
 1501SOL    HW1 5402   4.287   0.360   6.622
 1501SOL    HW2 5403   4.277   0.304   6.775
 1502SOL     OW 5404   0.605   5.920   6.911
 1502SOL    HW1 5405   0.522   5.932   6.965
 1502SOL    HW2 5406   0.667   5.997   6.927
 1503SOL     OW 5407   3.644   3.870   5.054
 1503SOL    HW1 5408   3.571   3.934   5.033
 1503SOL    HW2 5409   3.655   3.863   5.153
 1504SOL     OW 5410   3.111   6.529   4.273
 1504SOL    HW1 5411   3.157   6.463   4.333
 1504SOL    HW2 5412   3.144   6.621   4.294
 1505SOL     OW 5413   4.780   5.209   2.261
 1505SOL    HW1 5414   4.810   5.264   2.183
 1505SOL    HW2 5415   4.836   5.126   2.267
 1506SOL     OW 5416   0.163   6.404   2.821
 1506SOL    HW1 5417   0.125   6.313   2.803
 1506SOL    HW2 5418   0.151   6.427   2.917
 1507SOL     OW 5419   2.860   1.644   6.394
 1507SOL    HW1 5420   2.767   1.625   6.426
 1507SOL    HW2 5421   2.855   1.688   6.304
 1508SOL     OW 5422   4.338   0.088   0.450
 1508SOL    HW1 5423   4.285   0.143   0.385
 1508SOL    HW2 5424   4.396   0.149   0.505
 1509SOL     OW 5425   5.235   1.742   0.350
 1509SOL    HW1 5426   5.195   1.832   0.334
 1509SOL    HW2 5427   5.203   1.678   0.281
 1510SOL     OW 5428   0.220   2.054   3.338
 1510SOL    HW1 5429   0.243   2.137   3.389
 1510SOL    HW2 5430   0.121   2.047   3.330
 1511SOL     OW 5431   1.747   2.308   0.390
 1511SOL    HW1 5432   1.665   2.358   0.415
 1511SOL    HW2 5433   1.763   2.234   0.456
 1512SOL     OW 5434   5.963   0.562   2.389
 1512SOL    HW1 5435   6.059   0.552   2.360
 1512SOL    HW2 5436   5.960   0.601   2.481
 1513SOL     OW 5437   3.902   1.223   2.306
 1513SOL    HW1 5438   3.898   1.256   2.211
 1513SOL    HW2 5439   3.946   1.133   2.307
 1514SOL     OW 5440   4.898   1.081   6.128
 1514SOL    HW1 5441   4.816   1.123   6.167
 1514SOL    HW2 5442   4.949   1.035   6.200
 1515SOL     OW 5443   6.488   5.414   4.773
 1515SOL    HW1 5444   6.388   5.421   4.767
 1515SOL    HW2 5445   6.522   5.355   4.699
 1516SOL     OW 5446   0.823   0.989   0.951
 1516SOL    HW1 5447   0.840   0.946   1.040
 1516SOL    HW2 5448   0.881   0.945   0.882
 1517SOL     OW 5449   3.810   4.942   3.656
 1517SOL    HW1 5450   3.832   4.961   3.751
 1517SOL    HW2 5451   3.873   4.873   3.619
 1518SOL     OW 5452   1.291   4.644   1.128
 1518SOL    HW1 5453   1.358   4.574   1.155
 1518SOL    HW2 5454   1.202   4.601   1.116
 1519SOL     OW 5455   6.913   3.895   1.450
 1519SOL    HW1 5456   6.921   3.883   1.351
 1519SOL    HW2 5457   6.817   3.892   1.475
 1520SOL     OW 5458   1.528   3.043   2.455
 1520SOL    HW1 5459   1.532   3.139   2.427
 1520SOL    HW2 5460   1.616   3.016   2.495
 1521SOL     OW 5461   2.865   4.337   5.611
 1521SOL    HW1 5462   2.832   4.327   5.517
 1521SOL    HW2 5463   2.948   4.282   5.623
 1522SOL     OW 5464   1.126   2.966   6.472
 1522SOL    HW1 5465   1.059   2.952   6.399
 1522SOL    HW2 5466   1.211   3.001   6.433
 1523SOL     OW 5467   6.930   1.242   0.419
 1523SOL    HW1 5468   6.897   1.294   0.498
 1523SOL    HW2 5469   6.862   1.173   0.394
 1524SOL     OW 5470   6.332   1.255   3.177
 1524SOL    HW1 5471   6.259   1.271   3.243
 1524SOL    HW2 5472   6.299   1.276   3.085
 1525SOL     OW 5473   4.649   1.638   6.120
 1525SOL    HW1 5474   4.694   1.590   6.045
 1525SOL    HW2 5475   4.714   1.698   6.165
 1526SOL     OW 5476   6.706   1.677   0.241
 1526SOL    HW1 5477   6.754   1.733   0.307
 1526SOL    HW2 5478   6.719   1.715   0.149
 1527SOL     OW 5479   2.895   2.084   5.623
 1527SOL    HW1 5480   2.868   1.989   5.607
 1527SOL    HW2 5481   2.825   2.146   5.587
 1528SOL     OW 5482   4.807   5.839   4.102
 1528SOL    HW1 5483   4.859   5.923   4.086
 1528SOL    HW2 5484   4.797   5.789   4.016
 1529SOL     OW 5485   3.360   0.910   5.020
 1529SOL    HW1 5486   3.309   0.824   5.022
 1529SOL    HW2 5487   3.301   0.983   4.984
 1530SOL     OW 5488   3.174   6.982   1.746
 1530SOL    HW1 5489   3.128   6.893   1.743
 1530SOL    HW2 5490   3.217   7.000   1.658
 1531SOL     OW 5491   6.212   0.489   5.859
 1531SOL    HW1 5492   6.134   0.551   5.851
 1531SOL    HW2 5493   6.232   0.450   5.769
 1532SOL     OW 5494   3.193   2.119   5.302
 1532SOL    HW1 5495   3.194   2.194   5.235
 1532SOL    HW2 5496   3.287   2.088   5.318
 1533SOL     OW 5497   5.763   2.613   0.045
 1533SOL    HW1 5498   5.854   2.571   0.047
 1533SOL    HW2 5499   5.736   2.630   6.974
 1534SOL     OW 5500   6.959   6.817   1.901
 1534SOL    HW1 5501   6.915   6.869   1.974
 1534SOL    HW2 5502   6.950   6.866   1.815
 1535SOL     OW 5503   4.851   5.120   3.892
 1535SOL    HW1 5504   4.795   5.037   3.886
 1535SOL    HW2 5505   4.920   5.119   3.819
 1536SOL     OW 5506   3.002   5.563   3.526
 1536SOL    HW1 5507   3.033   5.469   3.508
 1536SOL    HW2 5508   3.064   5.628   3.482
 1537SOL     OW 5509   2.237   5.452   4.560
 1537SOL    HW1 5510   2.166   5.505   4.606
 1537SOL    HW2 5511   2.325   5.499   4.571
 1538SOL     OW 5512   3.201   5.602   6.903
 1538SOL    HW1 5513   3.215   5.508   6.933
 1538SOL    HW2 5514   3.282   5.633   6.852
 1539SOL     OW 5515   3.279   5.209   1.837
 1539SOL    HW1 5516   3.257   5.177   1.929
 1539SOL    HW2 5517   3.260   5.135   1.771
 1540SOL     OW 5518   6.309   0.106   5.535
 1540SOL    HW1 5519   6.287   0.050   5.615
 1540SOL    HW2 5520   6.284   0.056   5.452
 1541SOL     OW 5521   4.642   1.698   0.421
 1541SOL    HW1 5522   4.736   1.729   0.439
 1541SOL    HW2 5523   4.579   1.746   0.482
 1542SOL     OW 5524   0.742   6.305   0.619
 1542SOL    HW1 5525   0.650   6.267   0.631
 1542SOL    HW2 5526   0.800   6.278   0.696
 1543SOL     OW 5527   3.326   4.135   3.950
 1543SOL    HW1 5528   3.350   4.177   4.038
 1543SOL    HW2 5529   3.299   4.206   3.886
 1544SOL     OW 5530   3.543   3.860   2.695
 1544SOL    HW1 5531   3.592   3.801   2.759
 1544SOL    HW2 5532   3.521   3.946   2.741
 1545SOL     OW 5533   6.476   0.491   4.249
 1545SOL    HW1 5534   6.532   0.513   4.170
 1545SOL    HW2 5535   6.468   0.391   4.257
 1546SOL     OW 5536   0.178   6.421   6.332
 1546SOL    HW1 5537   0.270   6.431   6.294
 1546SOL    HW2 5538   0.177   6.449   6.427
 1547SOL     OW 5539   3.833   6.035   6.952
 1547SOL    HW1 5540   3.886   5.979   6.889
 1547SOL    HW2 5541   3.809   6.122   6.908
 1548SOL     OW 5542   6.035   4.685   3.827
 1548SOL    HW1 5543   6.029   4.629   3.909
 1548SOL    HW2 5544   6.077   4.773   3.850
 1549SOL     OW 5545   6.444   1.784   1.176
 1549SOL    HW1 5546   6.525   1.826   1.216
 1549SOL    HW2 5547   6.375   1.853   1.159
 1550SOL     OW 5548   2.465   5.841   2.702
 1550SOL    HW1 5549   2.518   5.795   2.773
 1550SOL    HW2 5550   2.510   5.828   2.614
 1551SOL     OW 5551   0.632   3.761   1.305
 1551SOL    HW1 5552   0.661   3.704   1.381
 1551SOL    HW2 5553   0.650   3.714   1.218
 1552SOL     OW 5554   1.066   6.796   0.844
 1552SOL    HW1 5555   1.110   6.868   0.897
 1552SOL    HW2 5556   0.968   6.815   0.838
 1553SOL     OW 5557   5.720   1.544   5.870
 1553SOL    HW1 5558   5.746   1.636   5.840
 1553SOL    HW2 5559   5.657   1.552   5.948
 1554SOL     OW 5560   2.733   1.971   1.385
 1554SOL    HW1 5561   2.754   2.068   1.382
 1554SOL    HW2 5562   2.817   1.918   1.366
 1555SOL     OW 5563   4.116   0.802   6.170
 1555SOL    HW1 5564   4.093   0.817   6.266
 1555SOL    HW2 5565   4.104   0.706   6.148
 1556SOL     OW 5566   3.899   1.981   0.053
 1556SOL    HW1 5567   3.875   2.058   7.017
 1556SOL    HW2 5568   3.972   2.009   0.115
 1557SOL     OW 5569   1.495   2.866   0.267
 1557SOL    HW1 5570   1.397   2.885   0.270
 1557SOL    HW2 5571   1.533   2.872   0.359
 1558SOL     OW 5572   5.354   3.124   6.408
 1558SOL    HW1 5573   5.401   3.193   6.463
 1558SOL    HW2 5574   5.308   3.169   6.331
 1559SOL     OW 5575   3.215   5.363   2.938
 1559SOL    HW1 5576   3.195   5.384   3.033
 1559SOL    HW2 5577   3.133   5.329   2.893
 1560SOL     OW 5578   3.846   2.127   1.096
 1560SOL    HW1 5579   3.820   2.140   1.192
 1560SOL    HW2 5580   3.789   2.186   1.038
 1561SOL     OW 5581   5.912   6.226   1.152
 1561SOL    HW1 5582   5.856   6.215   1.234
 1561SOL    HW2 5583   5.998   6.176   1.163
 1562SOL     OW 5584   3.174   0.074   2.699
 1562SOL    HW1 5585   3.096   0.094   2.640
 1562SOL    HW2 5586   3.221   7.016   2.666
 1563SOL     OW 5587   2.269   2.288   4.020
 1563SOL    HW1 5588   2.257   2.274   4.119
 1563SOL    HW2 5589   2.346   2.233   3.988
 1564SOL     OW 5590   0.317   0.985   2.888
 1564SOL    HW1 5591   0.289   1.046   2.814
 1564SOL    HW2 5592   0.297   0.890   2.864
 1565SOL     OW 5593   3.946   1.184   4.455
 1565SOL    HW1 5594   3.926   1.093   4.419
 1565SOL    HW2 5595   3.993   1.175   4.543
 1566SOL     OW 5596   5.812   4.250   3.468
 1566SOL    HW1 5597   5.779   4.342   3.485
 1566SOL    HW2 5598   5.883   4.253   3.396
 1567SOL     OW 5599   5.711   0.615   5.122
 1567SOL    HW1 5600   5.695   0.712   5.138
 1567SOL    HW2 5601   5.638   0.578   5.065
 1568SOL     OW 5602   3.162   4.520   1.382
 1568SOL    HW1 5603   3.127   4.534   1.474
 1568SOL    HW2 5604   3.207   4.604   1.350
 1569SOL     OW 5605   2.767   0.844   2.486
 1569SOL    HW1 5606   2.778   0.938   2.453
 1569SOL    HW2 5607   2.766   0.845   2.586
 1570SOL     OW 5608   2.967   6.007   6.051
 1570SOL    HW1 5609   2.995   5.914   6.077
 1570SOL    HW2 5610   3.037   6.047   5.992
 1571SOL     OW 5611   0.347   3.447   3.910
 1571SOL    HW1 5612   0.327   3.523   3.848
 1571SOL    HW2 5613   0.263   3.396   3.928
 1572SOL     OW 5614   3.041   5.489   2.652
 1572SOL    HW1 5615   2.985   5.568   2.626
 1572SOL    HW2 5616   3.131   5.521   2.682
 1573SOL     OW 5617   5.297   5.705   0.089
 1573SOL    HW1 5618   5.313   5.607   0.088
 1573SOL    HW2 5619   5.330   5.746   0.004
 1574SOL     OW 5620   0.727   4.521   3.249
 1574SOL    HW1 5621   0.789   4.443   3.245
 1574SOL    HW2 5622   0.741   4.578   3.168
 1575SOL     OW 5623   6.700   2.762   6.931
 1575SOL    HW1 5624   6.608   2.744   6.896
 1575SOL    HW2 5625   6.694   2.804   7.022
 1576SOL     OW 5626   1.509   6.634   1.279
 1576SOL    HW1 5627   1.514   6.685   1.365
 1576SOL    HW2 5628   1.450   6.555   1.290
 1577SOL     OW 5629   4.018   5.808   5.253
 1577SOL    HW1 5630   3.979   5.828   5.163
 1577SOL    HW2 5631   3.981   5.722   5.287
 1578SOL     OW 5632   4.918   1.397   1.767
 1578SOL    HW1 5633   4.891   1.384   1.672
 1578SOL    HW2 5634   4.984   1.472   1.773
 1579SOL     OW 5635   1.606   2.758   1.711
 1579SOL    HW1 5636   1.584   2.678   1.768
 1579SOL    HW2 5637   1.702   2.753   1.683
 1580SOL     OW 5638   2.856   3.421   2.778
 1580SOL    HW1 5639   2.770   3.472   2.770
 1580SOL    HW2 5640   2.907   3.454   2.857
 1581SOL     OW 5641   6.190   4.449   5.652
 1581SOL    HW1 5642   6.290   4.443   5.654
 1581SOL    HW2 5643   6.159   4.452   5.557
 1582SOL     OW 5644   4.679   5.979   5.195
 1582SOL    HW1 5645   4.610   5.973   5.122
 1582SOL    HW2 5646   4.649   6.045   5.263
 1583SOL     OW 5647   1.014   5.069   5.259
 1583SOL    HW1 5648   1.110   5.086   5.282
 1583SOL    HW2 5649   0.960   5.150   5.280
 1584SOL     OW 5650   6.800   3.959   0.292
 1584SOL    HW1 5651   6.832   3.940   0.385
 1584SOL    HW2 5652   6.793   3.874   0.241
 1585SOL     OW 5653   4.202   6.633   3.522
 1585SOL    HW1 5654   4.130   6.664   3.460
 1585SOL    HW2 5655   4.290   6.633   3.475
 1586SOL     OW 5656   3.560   6.189   3.571
 1586SOL    HW1 5657   3.564   6.209   3.669
 1586SOL    HW2 5658   3.560   6.090   3.556
 1587SOL     OW 5659   2.640   6.792   6.829
 1587SOL    HW1 5660   2.666   6.696   6.823
 1587SOL    HW2 5661   2.677   6.831   6.914
 1588SOL     OW 5662   6.506   1.581   3.770
 1588SOL    HW1 5663   6.520   1.652   3.839
 1588SOL    HW2 5664   6.568   1.504   3.786
 1589SOL     OW 5665   6.522   4.025   3.786
 1589SOL    HW1 5666   6.474   3.957   3.731
 1589SOL    HW2 5667   6.541   3.987   3.877
 1590SOL     OW 5668   6.859   2.218   3.957
 1590SOL    HW1 5669   6.882   2.121   3.951
 1590SOL    HW2 5670   6.942   2.272   3.968
 1591SOL     OW 5671   1.296   6.011   1.365
 1591SOL    HW1 5672   1.262   6.092   1.317
 1591SOL    HW2 5673   1.307   5.935   1.300
 1592SOL     OW 5674   6.877   3.946   6.100
 1592SOL    HW1 5675   6.957   3.886   6.089
 1592SOL    HW2 5676   6.908   4.041   6.110
 1593SOL     OW 5677   3.522   6.522   0.085
 1593SOL    HW1 5678   3.613   6.482   0.070
 1593SOL    HW2 5679   3.532   6.616   0.117
 1594SOL     OW 5680   5.980   0.699   2.611
 1594SOL    HW1 5681   5.973   0.678   2.708
 1594SOL    HW2 5682   6.077   0.697   2.583
 1595SOL     OW 5683   0.427   3.720   0.044
 1595SOL    HW1 5684   0.460   3.733   6.973
 1595SOL    HW2 5685   0.347   3.660   0.042
 1596SOL     OW 5686   4.546   5.123   3.613
 1596SOL    HW1 5687   4.562   5.032   3.573
 1596SOL    HW2 5688   4.500   5.112   3.701
 1597SOL     OW 5689   4.142   6.039   0.199
 1597SOL    HW1 5690   4.142   5.994   0.289
 1597SOL    HW2 5691   4.052   6.031   0.158
 1598SOL     OW 5692   1.340   4.669   6.617
 1598SOL    HW1 5693   1.332   4.672   6.717
 1598SOL    HW2 5694   1.437   4.660   6.592
 1599SOL     OW 5695   4.228   5.617   3.065
 1599SOL    HW1 5696   4.205   5.686   2.996
 1599SOL    HW2 5697   4.326   5.619   3.083
 1600SOL     OW 5698   3.709   0.195   1.982
 1600SOL    HW1 5699   3.662   0.109   2.000
 1600SOL    HW2 5700   3.641   0.269   1.975
 1601SOL     OW 5701   6.633   0.667   5.100
 1601SOL    HW1 5702   6.703   0.596   5.104
 1601SOL    HW2 5703   6.603   0.679   5.005
 1602SOL     OW 5704   4.141   6.032   3.953
 1602SOL    HW1 5705   4.109   6.028   3.859
 1602SOL    HW2 5706   4.240   6.014   3.955
 1603SOL     OW 5707   3.555   5.237   3.321
 1603SOL    HW1 5708   3.574   5.140   3.304
 1603SOL    HW2 5709   3.475   5.265   3.267
 1604SOL     OW 5710   4.239   5.228   2.199
 1604SOL    HW1 5711   4.330   5.237   2.239
 1604SOL    HW2 5712   4.194   5.317   2.197
 1605SOL     OW 5713   5.026   5.226   0.609
 1605SOL    HW1 5714   4.981   5.203   0.523
 1605SOL    HW2 5715   4.966   5.282   0.664
 1606SOL     OW 5716   3.284   5.806   4.702
 1606SOL    HW1 5717   3.276   5.828   4.605
 1606SOL    HW2 5718   3.354   5.736   4.714
 1607SOL     OW 5719   4.599   5.562   3.370
 1607SOL    HW1 5720   4.639   5.478   3.406
 1607SOL    HW2 5721   4.610   5.636   3.437
 1608SOL     OW 5722   5.099   1.698   3.615
 1608SOL    HW1 5723   5.002   1.693   3.640
 1608SOL    HW2 5724   5.153   1.652   3.685
 1609SOL     OW 5725   2.928   6.655   1.047
 1609SOL    HW1 5726   3.011   6.700   1.079
 1609SOL    HW2 5727   2.858   6.724   1.028
 1610SOL     OW 5728   5.541   0.186   1.125
 1610SOL    HW1 5729   5.499   0.095   1.121
 1610SOL    HW2 5730   5.611   0.193   1.055
 1611SOL     OW 5731   1.695   4.597   0.544
 1611SOL    HW1 5732   1.740   4.533   0.606
 1611SOL    HW2 5733   1.618   4.640   0.591
 1612SOL     OW 5734   4.294   0.316   2.466
 1612SOL    HW1 5735   4.293   0.228   2.418
 1612SOL    HW2 5736   4.354   0.379   2.418
 1613SOL     OW 5737   6.366   5.778   2.240
 1613SOL    HW1 5738   6.448   5.816   2.198
 1613SOL    HW2 5739   6.285   5.808   2.189
 1614SOL     OW 5740   6.274   1.259   6.183
 1614SOL    HW1 5741   6.323   1.300   6.260
 1614SOL    HW2 5742   6.324   1.178   6.152
 1615SOL     OW 5743   0.339   3.859   6.720
 1615SOL    HW1 5744   0.426   3.818   6.747
 1615SOL    HW2 5745   0.271   3.787   6.706
 1616SOL     OW 5746   1.182   1.119   4.100
 1616SOL    HW1 5747   1.268   1.084   4.136
 1616SOL    HW2 5748   1.198   1.164   4.012
 1617SOL     OW 5749   6.146   6.563   3.281
 1617SOL    HW1 5750   6.089   6.487   3.314
 1617SOL    HW2 5751   6.196   6.602   3.358
 1618SOL     OW 5752   3.739   5.608   3.565
 1618SOL    HW1 5753   3.713   5.649   3.478
 1618SOL    HW2 5754   3.706   5.514   3.568
 1619SOL     OW 5755   1.536   4.529   0.052
 1619SOL    HW1 5756   1.544   4.554   6.979
 1619SOL    HW2 5757   1.470   4.589   0.096
 1620SOL     OW 5758   3.492   5.525   4.872
 1620SOL    HW1 5759   3.473   5.476   4.957
 1620SOL    HW2 5760   3.591   5.524   4.854
 1621SOL     OW 5761   4.878   6.195   0.495
 1621SOL    HW1 5762   4.904   6.099   0.501
 1621SOL    HW2 5763   4.858   6.219   0.400
 1622SOL     OW 5764   6.797   4.349   4.576
 1622SOL    HW1 5765   6.798   4.374   4.672
 1622SOL    HW2 5766   6.811   4.430   4.519
 1623SOL     OW 5767   6.654   2.046   3.068
 1623SOL    HW1 5768   6.753   2.031   3.064
 1623SOL    HW2 5769   6.636   2.138   3.104
 1624SOL     OW 5770   3.573   2.976   1.068
 1624SOL    HW1 5771   3.575   2.888   1.022
 1624SOL    HW2 5772   3.656   2.988   1.123
 1625SOL     OW 5773   0.413   6.394   1.223
 1625SOL    HW1 5774   0.375   6.302   1.220
 1625SOL    HW2 5775   0.376   6.448   1.147
 1626SOL     OW 5776   2.467   1.783   1.526
 1626SOL    HW1 5777   2.546   1.733   1.563
 1626SOL    HW2 5778   2.452   1.756   1.431
 1627SOL     OW 5779   3.959   1.995   5.451
 1627SOL    HW1 5780   3.908   1.931   5.394
 1627SOL    HW2 5781   3.934   1.982   5.547
 1628SOL     OW 5782   5.621   6.680   1.210
 1628SOL    HW1 5783   5.529   6.699   1.242
 1628SOL    HW2 5784   5.620   6.665   1.111
 1629SOL     OW 5785   1.755   0.492   3.659
 1629SOL    HW1 5786   1.762   0.587   3.687
 1629SOL    HW2 5787   1.816   0.475   3.582
 1630SOL     OW 5788   0.471   3.677   6.394
 1630SOL    HW1 5789   0.505   3.771   6.382
 1630SOL    HW2 5790   0.388   3.678   6.449
 1631SOL     OW 5791   6.721   3.761   0.123
 1631SOL    HW1 5792   6.737   3.668   0.092
 1631SOL    HW2 5793   6.639   3.797   0.078
 1632SOL     OW 5794   6.587   5.816   2.093
 1632SOL    HW1 5795   6.680   5.813   2.129
 1632SOL    HW2 5796   6.580   5.889   2.026
 1633SOL     OW 5797   5.849   3.584   4.749
 1633SOL    HW1 5798   5.912   3.661   4.745
 1633SOL    HW2 5799   5.763   3.613   4.791
 1634SOL     OW 5800   6.569   1.801   5.450
 1634SOL    HW1 5801   6.634   1.819   5.523
 1634SOL    HW2 5802   6.585   1.866   5.375
 1635SOL     OW 5803   3.807   5.950   3.305
 1635SOL    HW1 5804   3.755   6.005   3.240
 1635SOL    HW2 5805   3.804   5.994   3.395
 1636SOL     OW 5806   6.184   5.881   1.317
 1636SOL    HW1 5807   6.255   5.842   1.259
 1636SOL    HW2 5808   6.223   5.906   1.405
 1637SOL     OW 5809   0.573   0.917   2.621
 1637SOL    HW1 5810   0.669   0.933   2.598
 1637SOL    HW2 5811   0.567   0.866   2.706
 1638SOL     OW 5812   5.837   2.231   2.024
 1638SOL    HW1 5813   5.884   2.231   1.935
 1638SOL    HW2 5814   5.899   2.266   2.094
 1639SOL     OW 5815   5.061   2.786   2.249
 1639SOL    HW1 5816   5.081   2.784   2.347
 1639SOL    HW2 5817   5.028   2.696   2.219
 1640SOL     OW 5818   6.106   7.000   6.701
 1640SOL    HW1 5819   6.065   0.065   6.723
 1640SOL    HW2 5820   6.117   6.947   6.785
 1641SOL     OW 5821   6.054   2.220   3.033
 1641SOL    HW1 5822   5.986   2.279   2.990
 1641SOL    HW2 5823   6.026   2.124   3.024
 1642SOL     OW 5824   0.119   2.699   6.325
 1642SOL    HW1 5825   0.068   2.785   6.320
 1642SOL    HW2 5826   0.131   2.673   6.421
 1643SOL     OW 5827   2.051   6.073   3.993
 1643SOL    HW1 5828   2.148   6.094   4.005
 1643SOL    HW2 5829   2.039   5.974   3.987
 1644SOL     OW 5830   5.891   2.714   1.657
 1644SOL    HW1 5831   5.886   2.617   1.633
 1644SOL    HW2 5832   5.872   2.769   1.576
 1645SOL     OW 5833   2.143   0.738   5.860
 1645SOL    HW1 5834   2.125   0.713   5.765
 1645SOL    HW2 5835   2.161   0.655   5.913
 1646SOL     OW 5836   1.484   4.692   0.678
 1646SOL    HW1 5837   1.389   4.723   0.677
 1646SOL    HW2 5838   1.513   4.675   0.772
 1647SOL     OW 5839   5.565   3.149   4.368
 1647SOL    HW1 5840   5.627   3.070   4.368
 1647SOL    HW2 5841   5.594   3.214   4.438
 1648SOL     OW 5842   5.557   6.020   1.204
 1648SOL    HW1 5843   5.525   6.001   1.296
 1648SOL    HW2 5844   5.591   5.936   1.162
 1649SOL     OW 5845   3.673   0.843   2.974
 1649SOL    HW1 5846   3.691   0.921   3.035
 1649SOL    HW2 5847   3.746   0.837   2.906
 1650SOL     OW 5848   2.748   3.921   6.381
 1650SOL    HW1 5849   2.842   3.950   6.368
 1650SOL    HW2 5850   2.745   3.822   6.394
 1651SOL     OW 5851   0.840   2.720   3.626
 1651SOL    HW1 5852   0.900   2.799   3.611
 1651SOL    HW2 5853   0.776   2.741   3.700
 1652SOL     OW 5854   0.439   3.503   1.508
 1652SOL    HW1 5855   0.366   3.502   1.577
 1652SOL    HW2 5856   0.404   3.545   1.425
 1653SOL     OW 5857   0.187   4.761   2.848
 1653SOL    HW1 5858   0.279   4.728   2.826
 1653SOL    HW2 5859   0.170   4.847   2.800
 1654SOL     OW 5860   0.304   3.044   2.332
 1654SOL    HW1 5861   0.317   3.020   2.236
 1654SOL    HW2 5862   0.245   3.124   2.339
 1655SOL     OW 5863   6.861   0.479   5.116
 1655SOL    HW1 5864   6.920   0.549   5.076
 1655SOL    HW2 5865   6.916   0.421   5.177
 1656SOL     OW 5866   2.054   4.462   3.482
 1656SOL    HW1 5867   2.043   4.539   3.418
 1656SOL    HW2 5868   2.090   4.383   3.433
 1657SOL     OW 5869   0.635   6.665   5.617
 1657SOL    HW1 5870   0.720   6.696   5.659
 1657SOL    HW2 5871   0.619   6.569   5.643
 1658SOL     OW 5872   5.768   6.737   5.953
 1658SOL    HW1 5873   5.723   6.650   5.933
 1658SOL    HW2 5874   5.838   6.756   5.884
 1659SOL     OW 5875   4.534   0.019   6.054
 1659SOL    HW1 5876   4.506   0.084   5.983
 1659SOL    HW2 5877   4.498   6.951   6.031
 1660SOL     OW 5878   2.165   0.927   2.385
 1660SOL    HW1 5879   2.187   0.909   2.481
 1660SOL    HW2 5880   2.133   0.843   2.341
 1661SOL     OW 5881   4.980   4.727   2.908
 1661SOL    HW1 5882   4.889   4.712   2.867
 1661SOL    HW2 5883   5.040   4.651   2.883
 1662SOL     OW 5884   0.251   1.763   4.197
 1662SOL    HW1 5885   0.349   1.749   4.183
 1662SOL    HW2 5886   0.208   1.789   4.111
 1663SOL     OW 5887   4.932   4.942   0.174
 1663SOL    HW1 5888   4.879   4.953   0.090
 1663SOL    HW2 5889   5.027   4.923   0.151
 1664SOL     OW 5890   1.230   0.250   5.421
 1664SOL    HW1 5891   1.191   0.172   5.470
 1664SOL    HW2 5892   1.192   0.253   5.329
 1665SOL     OW 5893   3.127   4.164   0.276
 1665SOL    HW1 5894   3.148   4.101   0.351
 1665SOL    HW2 5895   3.204   4.166   0.212
 1666SOL     OW 5896   5.655   6.599   5.672
 1666SOL    HW1 5897   5.721   6.597   5.598
 1666SOL    HW2 5898   5.566   6.629   5.637
 1667SOL     OW 5899   0.107   6.355   1.216
 1667SOL    HW1 5900   0.048   6.278   1.241
 1667SOL    HW2 5901   0.164   6.330   1.138
 1668SOL     OW 5902   5.841   4.284   2.605
 1668SOL    HW1 5903   5.876   4.282   2.699
 1668SOL    HW2 5904   5.743   4.263   2.606
 1669SOL     OW 5905   6.159   3.931   5.551
 1669SOL    HW1 5906   6.240   3.980   5.519
 1669SOL    HW2 5907   6.097   3.995   5.596
 1670SOL     OW 5908   2.289   4.609   6.403
 1670SOL    HW1 5909   2.374   4.560   6.383
 1670SOL    HW2 5910   2.213   4.566   6.354
 1671SOL     OW 5911   6.087   2.109   0.939
 1671SOL    HW1 5912   6.156   2.175   0.970
 1671SOL    HW2 5913   5.997   2.139   0.968
 1672SOL     OW 5914   0.523   3.022   0.634
 1672SOL    HW1 5915   0.464   2.943   0.648
 1672SOL    HW2 5916   0.469   3.106   0.638
 1673SOL     OW 5917   1.458   0.579   4.355
 1673SOL    HW1 5918   1.508   0.495   4.377
 1673SOL    HW2 5919   1.522   0.654   4.344
 1674SOL     OW 5920   4.536   1.901   2.179
 1674SOL    HW1 5921   4.477   1.828   2.144
 1674SOL    HW2 5922   4.479   1.977   2.210
 1675SOL     OW 5923   5.339   0.405   1.766
 1675SOL    HW1 5924   5.263   0.470   1.769
 1675SOL    HW2 5925   5.387   0.414   1.679
 1676SOL     OW 5926   1.282   2.482   2.668
 1676SOL    HW1 5927   1.282   2.382   2.663
 1676SOL    HW2 5928   1.254   2.511   2.759
 1677SOL     OW 5929   3.949   3.106   3.658
 1677SOL    HW1 5930   3.924   3.052   3.738
 1677SOL    HW2 5931   3.986   3.194   3.687
 1678SOL     OW 5932   1.547   0.205   1.194
 1678SOL    HW1 5933   1.580   0.297   1.173
 1678SOL    HW2 5934   1.607   0.137   1.152
 1679SOL     OW 5935   0.531   1.814   6.705
 1679SOL    HW1 5936   0.543   1.769   6.794
 1679SOL    HW2 5937   0.532   1.913   6.718
 1680SOL     OW 5938   5.550   2.685   3.466
 1680SOL    HW1 5939   5.643   2.712   3.490
 1680SOL    HW2 5940   5.524   2.604   3.519
 1681SOL     OW 5941   2.698   6.582   4.554
 1681SOL    HW1 5942   2.795   6.603   4.540
 1681SOL    HW2 5943   2.690   6.506   4.619
 1682SOL     OW 5944   3.544   0.159   4.428
 1682SOL    HW1 5945   3.609   0.186   4.356
 1682SOL    HW2 5946   3.508   0.240   4.473
 1683SOL     OW 5947   6.229   4.432   2.717
 1683SOL    HW1 5948   6.305   4.482   2.759
 1683SOL    HW2 5949   6.145   4.453   2.766
 1684SOL     OW 5950   2.498   4.526   2.063
 1684SOL    HW1 5951   2.586   4.563   2.033
 1684SOL    HW2 5952   2.444   4.600   2.104
 1685SOL     OW 5953   0.213   1.077   5.473
 1685SOL    HW1 5954   0.220   1.118   5.382
 1685SOL    HW2 5955   0.131   1.020   5.478
 1686SOL     OW 5956   4.697   5.447   2.980
 1686SOL    HW1 5957   4.616   5.466   3.035
 1686SOL    HW2 5958   4.730   5.355   3.000
 1687SOL     OW 5959   4.964   4.163   1.472
 1687SOL    HW1 5960   5.061   4.149   1.493
 1687SOL    HW2 5961   4.941   4.259   1.481
 1688SOL     OW 5962   1.225   0.989   2.518
 1688SOL    HW1 5963   1.270   1.064   2.567
 1688SOL    HW2 5964   1.295   0.930   2.476
 1689SOL     OW 5965   4.447   0.688   1.355
 1689SOL    HW1 5966   4.351   0.668   1.375
 1689SOL    HW2 5967   4.501   0.674   1.438
 1690SOL     OW 5968   0.529   4.992   3.498
 1690SOL    HW1 5969   0.486   5.016   3.411
 1690SOL    HW2 5970   0.458   4.971   3.565
 1691SOL     OW 5971   4.419   2.387   5.260
 1691SOL    HW1 5972   4.377   2.355   5.345
 1691SOL    HW2 5973   4.356   2.447   5.211
 1692SOL     OW 5974   4.662   5.029   1.785
 1692SOL    HW1 5975   4.756   5.017   1.754
 1692SOL    HW2 5976   4.630   4.946   1.830
 1693SOL     OW 5977   5.503   0.137   5.158
 1693SOL    HW1 5978   5.517   0.183   5.071
 1693SOL    HW2 5979   5.406   0.139   5.181
 1694SOL     OW 5980   4.765   1.985   5.996
 1694SOL    HW1 5981   4.831   1.932   6.049
 1694SOL    HW2 5982   4.783   1.973   5.899
 1695SOL     OW 5983   4.026   1.013   6.867
 1695SOL    HW1 5984   4.045   1.048   6.775
 1695SOL    HW2 5985   3.933   0.976   6.869
 1696SOL     OW 5986   5.209   6.486   0.623
 1696SOL    HW1 5987   5.282   6.426   0.590
 1696SOL    HW2 5988   5.121   6.440   0.611
 1697SOL     OW 5989   4.996   2.369   1.866
 1697SOL    HW1 5990   4.961   2.278   1.845
 1697SOL    HW2 5991   4.945   2.438   1.813
 1698SOL     OW 5992   4.463   0.971   1.574
 1698SOL    HW1 5993   4.440   0.889   1.627
 1698SOL    HW2 5994   4.512   1.036   1.633
 1699SOL     OW 5995   2.399   0.046   0.223
 1699SOL    HW1 5996   2.434   0.034   0.131
 1699SOL    HW2 5997   2.475   0.058   0.287
 1700SOL     OW 5998   5.380   2.930   2.825
 1700SOL    HW1 5999   5.330   2.882   2.898
 1700SOL    HW2 6000   5.409   2.864   2.756
 1701SOL     OW 6001   0.146   6.046   5.026
 1701SOL    HW1 6002   0.059   5.996   5.029
 1701SOL    HW2 6003   0.132   6.137   4.987
 1702SOL     OW 6004   1.967   2.180   6.537
 1702SOL    HW1 6005   2.016   2.094   6.524
 1702SOL    HW2 6006   1.900   2.170   6.610
 1703SOL     OW 6007   1.816   1.659   1.755
 1703SOL    HW1 6008   1.747   1.684   1.688
 1703SOL    HW2 6009   1.814   1.725   1.830
 1704SOL     OW 6010   3.263   1.627   1.038
 1704SOL    HW1 6011   3.310   1.713   1.053
 1704SOL    HW2 6012   3.185   1.641   0.977
 1705SOL     OW 6013   4.221   2.431   0.520
 1705SOL    HW1 6014   4.313   2.394   0.532
 1705SOL    HW2 6015   4.219   2.525   0.554
 1706SOL     OW 6016   5.817   2.405   6.587
 1706SOL    HW1 6017   5.837   2.412   6.684
 1706SOL    HW2 6018   5.901   2.418   6.535
 1707SOL     OW 6019   4.368   1.673   2.117
 1707SOL    HW1 6020   4.432   1.624   2.176
 1707SOL    HW2 6021   4.384   1.649   2.022
 1708SOL     OW 6022   3.504   4.920   2.196
 1708SOL    HW1 6023   3.575   4.912   2.266
 1708SOL    HW2 6024   3.531   4.868   2.115
 1709SOL     OW 6025   4.535   5.310   0.664
 1709SOL    HW1 6026   4.512   5.229   0.611
 1709SOL    HW2 6027   4.571   5.283   0.753
 1710SOL     OW 6028   5.164   5.012   2.899
 1710SOL    HW1 6029   5.114   4.967   2.973
 1710SOL    HW2 6030   5.261   4.994   2.908
 1711SOL     OW 6031   4.345   5.174   6.913
 1711SOL    HW1 6032   4.342   5.145   7.009
 1711SOL    HW2 6033   4.275   5.242   6.897
 1712SOL     OW 6034   0.625   1.688   1.902
 1712SOL    HW1 6035   0.709   1.674   1.850
 1712SOL    HW2 6036   0.597   1.784   1.896
 1713SOL     OW 6037   3.821   1.357   2.783
 1713SOL    HW1 6038   3.744   1.372   2.720
 1713SOL    HW2 6039   3.786   1.320   2.869
 1714SOL     OW 6040   3.490   3.761   0.279
 1714SOL    HW1 6041   3.469   3.812   0.195
 1714SOL    HW2 6042   3.548   3.682   0.257
 1715SOL     OW 6043   2.388   6.270   2.541
 1715SOL    HW1 6044   2.479   6.281   2.581
 1715SOL    HW2 6045   2.330   6.348   2.567
 1716SOL     OW 6046   4.390   1.072   3.487
 1716SOL    HW1 6047   4.483   1.087   3.518
 1716SOL    HW2 6048   4.338   1.157   3.492
 1717SOL     OW 6049   3.360   6.353   5.122
 1717SOL    HW1 6050   3.427   6.321   5.188
 1717SOL    HW2 6051   3.335   6.278   5.061
 1718SOL     OW 6052   0.917   3.004   1.483
 1718SOL    HW1 6053   0.938   2.910   1.456
 1718SOL    HW2 6054   0.973   3.030   1.562
 1719SOL     OW 6055   0.923   5.518   2.674
 1719SOL    HW1 6056   0.951   5.473   2.589
 1719SOL    HW2 6057   1.000   5.570   2.711
 1720SOL     OW 6058   0.627   3.632   5.631
 1720SOL    HW1 6059   0.685   3.592   5.560
 1720SOL    HW2 6060   0.535   3.594   5.624
 1721SOL     OW 6061   1.336   2.291   0.514
 1721SOL    HW1 6062   1.296   2.377   0.484
 1721SOL    HW2 6063   1.343   2.229   0.436
 1722SOL     OW 6064   2.546   2.548   3.859
 1722SOL    HW1 6065   2.611   2.496   3.915
 1722SOL    HW2 6066   2.538   2.641   3.895
 1723SOL     OW 6067   5.647   4.531   1.055
 1723SOL    HW1 6068   5.631   4.625   1.024
 1723SOL    HW2 6069   5.731   4.497   1.014
 1724SOL     OW 6070   5.764   2.896   1.071
 1724SOL    HW1 6071   5.703   2.937   1.003
 1724SOL    HW2 6072   5.821   2.967   1.112
 1725SOL     OW 6073   1.782   6.419   6.492
 1725SOL    HW1 6074   1.873   6.451   6.467
 1725SOL    HW2 6075   1.770   6.325   6.461
 1726SOL     OW 6076   5.397   4.456   2.610
 1726SOL    HW1 6077   5.328   4.395   2.572
 1726SOL    HW2 6078   5.401   4.540   2.556
 1727SOL     OW 6079   3.150   3.997   3.221
 1727SOL    HW1 6080   3.209   4.032   3.295
 1727SOL    HW2 6081   3.175   4.042   3.135
 1728SOL     OW 6082   5.383   2.626   4.249
 1728SOL    HW1 6083   5.456   2.684   4.215
 1728SOL    HW2 6084   5.409   2.587   4.338
 1729SOL     OW 6085   1.219   2.569   2.943
 1729SOL    HW1 6086   1.274   2.653   2.948
 1729SOL    HW2 6087   1.258   2.500   3.004
 1730SOL     OW 6088   1.895   5.396   4.219
 1730SOL    HW1 6089   1.845   5.472   4.262
 1730SOL    HW2 6090   1.985   5.387   4.262
 1731SOL     OW 6091   6.158   5.083   3.231
 1731SOL    HW1 6092   6.200   5.001   3.270
 1731SOL    HW2 6093   6.072   5.103   3.279
 1732SOL     OW 6094   2.542   3.523   5.588
 1732SOL    HW1 6095   2.555   3.467   5.505
 1732SOL    HW2 6096   2.622   3.581   5.601
 1733SOL     OW 6097   2.012   3.255   6.197
 1733SOL    HW1 6098   2.012   3.355   6.189
 1733SOL    HW2 6099   2.076   3.228   6.269
 1734SOL     OW 6100   6.595   3.210   0.938
 1734SOL    HW1 6101   6.543   3.151   0.876
 1734SOL    HW2 6102   6.531   3.269   0.988
 1735SOL     OW 6103   4.085   5.548   6.202
 1735SOL    HW1 6104   4.038   5.481   6.145
 1735SOL    HW2 6105   4.155   5.595   6.147
 1736SOL     OW 6106   4.995   2.523   0.320
 1736SOL    HW1 6107   4.899   2.520   0.291
 1736SOL    HW2 6108   5.000   2.508   0.419
 1737SOL     OW 6109   4.205   1.937   5.814
 1737SOL    HW1 6110   4.175   1.843   5.826
 1737SOL    HW2 6111   4.184   1.968   5.721
 1738SOL     OW 6112   1.899   3.196   4.184
 1738SOL    HW1 6113   1.988   3.218   4.143
 1738SOL    HW2 6114   1.913   3.133   4.261
 1739SOL     OW 6115   6.054   0.521   3.458
 1739SOL    HW1 6116   6.075   0.487   3.366
 1739SOL    HW2 6117   5.980   0.467   3.497
 1740SOL     OW 6118   6.132   3.390   4.880
 1740SOL    HW1 6119   6.221   3.417   4.918
 1740SOL    HW2 6120   6.066   3.381   4.954
 1741SOL     OW 6121   6.968   1.877   4.918
 1741SOL    HW1 6122   6.970   1.905   4.822
 1741SOL    HW2 6123   6.885   1.824   4.935
 1742SOL     OW 6124   6.500   6.086   6.266
 1742SOL    HW1 6125   6.511   6.113   6.171
 1742SOL    HW2 6126   6.583   6.040   6.298
 1743SOL     OW 6127   1.588   1.526   2.252
 1743SOL    HW1 6128   1.618   1.481   2.336
 1743SOL    HW2 6129   1.666   1.533   2.189
 1744SOL     OW 6130   3.410   2.058   4.691
 1744SOL    HW1 6131   3.327   2.109   4.671
 1744SOL    HW2 6132   3.446   2.085   4.780
 1745SOL     OW 6133   6.045   6.545   1.383
 1745SOL    HW1 6134   6.008   6.569   1.293
 1745SOL    HW2 6135   6.098   6.621   1.419
 1746SOL     OW 6136   2.667   4.682   3.423
 1746SOL    HW1 6137   2.751   4.710   3.468
 1746SOL    HW2 6138   2.663   4.723   3.331
 1747SOL     OW 6139   4.052   0.415   2.555
 1747SOL    HW1 6140   4.055   0.485   2.626
 1747SOL    HW2 6141   4.144   0.396   2.522
 1748SOL     OW 6142   6.613   2.823   4.878
 1748SOL    HW1 6143   6.520   2.794   4.858
 1748SOL    HW2 6144   6.633   2.909   4.830
 1749SOL     OW 6145   0.902   5.087   1.414
 1749SOL    HW1 6146   0.949   5.011   1.459
 1749SOL    HW2 6147   0.969   5.141   1.362
 1750SOL     OW 6148   3.939   6.994   6.462
 1750SOL    HW1 6149   3.941   6.895   6.467
 1750SOL    HW2 6150   3.988   0.002   6.381
 1751SOL     OW 6151   6.088   3.122   5.102
 1751SOL    HW1 6152   6.186   3.112   5.115
 1751SOL    HW2 6153   6.046   3.031   5.091
 1752SOL     OW 6154   6.545   1.058   2.108
 1752SOL    HW1 6155   6.628   1.007   2.132
 1752SOL    HW2 6156   6.517   1.036   2.015
 1753SOL     OW 6157   5.921   1.081   1.835
 1753SOL    HW1 6158   5.957   0.990   1.851
 1753SOL    HW2 6159   5.821   1.077   1.830
 1754SOL     OW 6160   3.085   5.702   3.825
 1754SOL    HW1 6161   3.008   5.660   3.778
 1754SOL    HW2 6162   3.079   5.683   3.923
 1755SOL     OW 6163   6.154   6.690   4.540
 1755SOL    HW1 6164   6.218   6.708   4.615
 1755SOL    HW2 6165   6.112   6.600   4.553
 1756SOL     OW 6166   4.909   6.108   0.216
 1756SOL    HW1 6167   4.847   6.030   0.206
 1756SOL    HW2 6168   5.001   6.080   0.189
 1757SOL     OW 6169   2.744   5.090   5.251
 1757SOL    HW1 6170   2.820   5.154   5.242
 1757SOL    HW2 6171   2.755   5.016   5.185
 1758SOL     OW 6172   1.851   5.952   4.644
 1758SOL    HW1 6173   1.814   5.985   4.557
 1758SOL    HW2 6174   1.809   6.004   4.719
 1759SOL     OW 6175   1.259   6.072   0.041
 1759SOL    HW1 6176   1.274   6.022   6.979
 1759SOL    HW2 6177   1.327   6.043   0.109
 1760SOL     OW 6178   0.007   1.029   4.641
 1760SOL    HW1 6179   6.938   1.064   4.656
 1760SOL    HW2 6180   0.073   1.084   4.692
 1761SOL     OW 6181   5.612   1.178   2.781
 1761SOL    HW1 6182   5.678   1.140   2.716
 1761SOL    HW2 6183   5.639   1.272   2.804
 1762SOL     OW 6184   1.176   1.560   5.650
 1762SOL    HW1 6185   1.270   1.593   5.648
 1762SOL    HW2 6186   1.113   1.638   5.642
 1763SOL     OW 6187   1.110   4.237   3.885
 1763SOL    HW1 6188   1.017   4.272   3.901
 1763SOL    HW2 6189   1.111   4.138   3.900
 1764SOL     OW 6190   1.416   5.752   3.450
 1764SOL    HW1 6191   1.328   5.711   3.425
 1764SOL    HW2 6192   1.473   5.683   3.494
 1765SOL     OW 6193   5.264   3.402   2.589
 1765SOL    HW1 6194   5.252   3.463   2.668
 1765SOL    HW2 6195   5.175   3.381   2.550
 1766SOL     OW 6196   4.256   4.915   3.719
 1766SOL    HW1 6197   4.265   4.878   3.627
 1766SOL    HW2 6198   4.168   4.887   3.758
 1767SOL     OW 6199   0.281   4.975   2.220
 1767SOL    HW1 6200   0.258   4.883   2.254
 1767SOL    HW2 6201   0.221   4.997   2.143
 1768SOL     OW 6202   5.080   4.929   2.017
 1768SOL    HW1 6203   5.068   4.830   2.010
 1768SOL    HW2 6204   5.092   4.954   2.113
 1769SOL     OW 6205   5.655   0.489   0.513
 1769SOL    HW1 6206   5.648   0.406   0.459
 1769SOL    HW2 6207   5.571   0.503   0.565
 1770SOL     OW 6208   1.735   5.028   0.684
 1770SOL    HW1 6209   1.693   5.008   0.773
 1770SOL    HW2 6210   1.696   5.112   0.647
 1771SOL     OW 6211   2.140   2.940   6.148
 1771SOL    HW1 6212   2.040   2.948   6.143
 1771SOL    HW2 6213   2.167   2.845   6.138
 1772SOL     OW 6214   2.263   4.081   2.696
 1772SOL    HW1 6215   2.218   4.006   2.744
 1772SOL    HW2 6216   2.273   4.058   2.599
 1773SOL     OW 6217   2.443   6.535   6.256
 1773SOL    HW1 6218   2.401   6.466   6.198
 1773SOL    HW2 6219   2.486   6.490   6.335
 1774SOL     OW 6220   5.381   5.897   0.839
 1774SOL    HW1 6221   5.394   5.878   0.742
 1774SOL    HW2 6222   5.288   5.933   0.853
 1775SOL     OW 6223   2.236   5.115   0.531
 1775SOL    HW1 6224   2.282   5.027   0.539
 1775SOL    HW2 6225   2.137   5.102   0.537
 1776SOL     OW 6226   4.686   2.480   5.772
 1776SOL    HW1 6227   4.676   2.552   5.703
 1776SOL    HW2 6228   4.625   2.404   5.750
 1777SOL     OW 6229   4.549   6.505   0.063
 1777SOL    HW1 6230   4.461   6.489   0.107
 1777SOL    HW2 6231   4.622   6.463   0.118
 1778SOL     OW 6232   6.200   0.029   4.199
 1778SOL    HW1 6233   6.235   6.959   4.194
 1778SOL    HW2 6234   6.149   0.041   4.285
 1779SOL     OW 6235   5.531   0.752   3.884
 1779SOL    HW1 6236   5.559   0.718   3.974
 1779SOL    HW2 6237   5.432   0.764   3.883
 1780SOL     OW 6238   2.372   4.877   5.421
 1780SOL    HW1 6239   2.296   4.832   5.373
 1780SOL    HW2 6240   2.374   4.974   5.395
 1781SOL     OW 6241   4.218   0.672   5.338
 1781SOL    HW1 6242   4.130   0.632   5.365
 1781SOL    HW2 6243   4.231   0.759   5.387
 1782SOL     OW 6244   5.931   1.601   2.243
 1782SOL    HW1 6245   6.003   1.664   2.274
 1782SOL    HW2 6246   5.843   1.649   2.242
 1783SOL     OW 6247   1.933   4.106   6.764
 1783SOL    HW1 6248   1.848   4.054   6.755
 1783SOL    HW2 6249   1.918   4.184   6.825
 1784SOL     OW 6250   2.609   6.540   2.008
 1784SOL    HW1 6251   2.566   6.590   2.084
 1784SOL    HW2 6252   2.639   6.605   1.939
 1785SOL     OW 6253   1.225   6.592   4.877
 1785SOL    HW1 6254   1.247   6.501   4.842
 1785SOL    HW2 6255   1.161   6.637   4.814
 1786SOL     OW 6256   0.999   6.495   0.910
 1786SOL    HW1 6257   1.083   6.524   0.956
 1786SOL    HW2 6258   0.996   6.537   0.819
 1787SOL     OW 6259   1.926   3.265   5.917
 1787SOL    HW1 6260   1.990   3.265   5.994
 1787SOL    HW2 6261   1.832   3.269   5.952
 1788SOL     OW 6262   4.531   3.577   0.561
 1788SOL    HW1 6263   4.600   3.510   0.588
 1788SOL    HW2 6264   4.506   3.563   0.465
 1789SOL     OW 6265   6.075   3.765   2.381
 1789SOL    HW1 6266   6.102   3.670   2.398
 1789SOL    HW2 6267   6.106   3.793   2.290
 1790SOL     OW 6268   1.916   1.928   4.678
 1790SOL    HW1 6269   1.837   1.869   4.664
 1790SOL    HW2 6270   1.965   1.900   4.761
 1791SOL     OW 6271   4.968   0.368   3.754
 1791SOL    HW1 6272   4.967   0.465   3.731
 1791SOL    HW2 6273   4.936   0.315   3.676
 1792SOL     OW 6274   0.497   2.155   6.443
 1792SOL    HW1 6275   0.421   2.122   6.499
 1792SOL    HW2 6276   0.582   2.112   6.474
 1793SOL     OW 6277   6.957   0.551   5.729
 1793SOL    HW1 6278   0.027   0.574   5.760
 1793SOL    HW2 6279   6.959   0.532   5.631
 1794SOL     OW 6280   0.932   0.386   6.001
 1794SOL    HW1 6281   0.979   0.403   6.088
 1794SOL    HW2 6282   0.841   0.429   6.004
 1795SOL     OW 6283   5.425   4.370   1.084
 1795SOL    HW1 6284   5.505   4.429   1.096
 1795SOL    HW2 6285   5.452   4.287   1.034
 1796SOL     OW 6286   0.072   7.017   0.229
 1796SOL    HW1 6287   0.008   6.944   0.253
 1796SOL    HW2 6288   0.040   0.040   0.146
 1797SOL     OW 6289   2.269   5.340   5.669
 1797SOL    HW1 6290   2.187   5.288   5.645
 1797SOL    HW2 6291   2.349   5.281   5.661
 1798SOL     OW 6292   2.182   3.921   5.262
 1798SOL    HW1 6293   2.236   3.997   5.297
 1798SOL    HW2 6294   2.200   3.910   5.164
 1799SOL     OW 6295   2.848   1.246   1.236
 1799SOL    HW1 6296   2.779   1.174   1.223
 1799SOL    HW2 6297   2.812   1.333   1.201
 1800SOL     OW 6298   5.659   3.107   5.383
 1800SOL    HW1 6299   5.730   3.176   5.382
 1800SOL    HW2 6300   5.594   3.125   5.309
 1801SOL     OW 6301   0.725   0.267   3.366
 1801SOL    HW1 6302   0.796   0.302   3.305
 1801SOL    HW2 6303   0.664   0.342   3.391
 1802SOL     OW 6304   6.860   5.138   3.858
 1802SOL    HW1 6305   6.824   5.200   3.927
 1802SOL    HW2 6306   6.818   5.158   3.769
 1803SOL     OW 6307   0.482   0.098   3.079
 1803SOL    HW1 6308   0.491   0.059   3.171
 1803SOL    HW2 6309   0.390   0.134   3.067
 1804SOL     OW 6310   2.327   3.126   6.191
 1804SOL    HW1 6311   2.245   3.091   6.146
 1804SOL    HW2 6312   2.337   3.224   6.174
 1805SOL     OW 6313   6.738   4.853   0.837
 1805SOL    HW1 6314   6.788   4.768   0.822
 1805SOL    HW2 6315   6.654   4.834   0.889
 1806SOL     OW 6316   0.075   1.205   0.898
 1806SOL    HW1 6317   0.042   1.124   0.849
 1806SOL    HW2 6318   0.153   1.244   0.849
 1807SOL     OW 6319   0.065   2.563   2.251
 1807SOL    HW1 6320   0.089   2.648   2.299
 1807SOL    HW2 6321   0.149   2.516   2.223
 1808SOL     OW 6322   5.099   1.697   6.522
 1808SOL    HW1 6323   5.140   1.642   6.450
 1808SOL    HW2 6324   5.025   1.646   6.565
 1809SOL     OW 6325   4.984   0.338   5.352
 1809SOL    HW1 6326   4.891   0.369   5.334
 1809SOL    HW2 6327   5.007   0.263   5.290
 1810SOL     OW 6328   0.795   0.307   4.065
 1810SOL    HW1 6329   0.858   0.283   3.991
 1810SOL    HW2 6330   0.733   0.379   4.034
 1811SOL     OW 6331   3.611   6.079   2.039
 1811SOL    HW1 6332   3.624   6.168   1.996
 1811SOL    HW2 6333   3.609   6.008   1.969
 1812SOL     OW 6334   4.759   6.385   6.335
 1812SOL    HW1 6335   4.673   6.362   6.382
 1812SOL    HW2 6336   4.766   6.484   6.324
 1813SOL     OW 6337   4.807   4.042   2.131
 1813SOL    HW1 6338   4.797   4.109   2.058
 1813SOL    HW2 6339   4.728   3.982   2.133
 1814SOL     OW 6340   6.591   5.804   0.635
 1814SOL    HW1 6341   6.531   5.767   0.564
 1814SOL    HW2 6342   6.685   5.777   0.616
 1815SOL     OW 6343   5.740   6.234   1.568
 1815SOL    HW1 6344   5.715   6.329   1.587
 1815SOL    HW2 6345   5.693   6.174   1.633
 1816SOL     OW 6346   4.306   4.749   5.216
 1816SOL    HW1 6347   4.262   4.838   5.230
 1816SOL    HW2 6348   4.261   4.701   5.140
 1817SOL     OW 6349   0.053   2.301   3.632
 1817SOL    HW1 6350   0.024   2.388   3.592
 1817SOL    HW2 6351   0.145   2.277   3.598
 1818SOL     OW 6352   2.574   1.119   0.451
 1818SOL    HW1 6353   2.498   1.138   0.389
 1818SOL    HW2 6354   2.631   1.201   0.461
 1819SOL     OW 6355   2.094   4.277   2.727
 1819SOL    HW1 6356   2.001   4.249   2.749
 1819SOL    HW2 6357   2.154   4.197   2.726
 1820SOL     OW 6358   3.211   0.564   5.185
 1820SOL    HW1 6359   3.208   0.523   5.094
 1820SOL    HW2 6360   3.269   0.509   5.245
 1821SOL     OW 6361   3.546   2.009   2.562
 1821SOL    HW1 6362   3.519   2.024   2.467
 1821SOL    HW2 6363   3.592   1.920   2.570
 1822SOL     OW 6364   0.363   3.865   2.890
 1822SOL    HW1 6365   0.303   3.801   2.939
 1822SOL    HW2 6366   0.429   3.814   2.835
 1823SOL     OW 6367   4.556   6.634   2.396
 1823SOL    HW1 6368   4.516   6.575   2.467
 1823SOL    HW2 6369   4.647   6.664   2.426
 1824SOL     OW 6370   4.329   3.209   1.693
 1824SOL    HW1 6371   4.389   3.153   1.751
 1824SOL    HW2 6372   4.331   3.304   1.724
 1825SOL     OW 6373   1.120   2.654   5.255
 1825SOL    HW1 6374   1.082   2.686   5.168
 1825SOL    HW2 6375   1.124   2.731   5.320
 1826SOL     OW 6376   3.343   2.204   1.358
 1826SOL    HW1 6377   3.287   2.273   1.405
 1826SOL    HW2 6378   3.306   2.113   1.376
 1827SOL     OW 6379   5.697   5.105   0.526
 1827SOL    HW1 6380   5.613   5.054   0.543
 1827SOL    HW2 6381   5.696   5.190   0.580
 1828SOL     OW 6382   1.943   3.443   5.303
 1828SOL    HW1 6383   1.953   3.345   5.290
 1828SOL    HW2 6384   1.940   3.463   5.401
 1829SOL     OW 6385   4.083   0.049   1.989
 1829SOL    HW1 6386   4.057   6.991   2.041
 1829SOL    HW2 6387   4.104   0.022   1.895
 1830SOL     OW 6388   4.734   0.867   6.287
 1830SOL    HW1 6389   4.826   0.852   6.324
 1830SOL    HW2 6390   4.666   0.845   6.358
 1831SOL     OW 6391   3.259   4.695   0.644
 1831SOL    HW1 6392   3.301   4.690   0.735
 1831SOL    HW2 6393   3.160   4.695   0.654
 1832SOL     OW 6394   2.904   3.088   6.730
 1832SOL    HW1 6395   2.811   3.065   6.759
 1832SOL    HW2 6396   2.967   3.072   6.807
 1833SOL     OW 6397   5.446   1.237   0.030
 1833SOL    HW1 6398   5.509   1.161   0.011
 1833SOL    HW2 6399   5.477   1.319   7.005
 1834SOL     OW 6400   0.287   2.938   5.469
 1834SOL    HW1 6401   0.200   2.917   5.514
 1834SOL    HW2 6402   0.345   2.856   5.468
 1835SOL     OW 6403   6.929   6.178   1.220
 1835SOL    HW1 6404   6.870   6.258   1.215
 1835SOL    HW2 6405   6.880   6.102   1.264
 1836SOL     OW 6406   5.305   2.136   2.592
 1836SOL    HW1 6407   5.277   2.150   2.686
 1836SOL    HW2 6408   5.273   2.046   2.561
 1837SOL     OW 6409   3.261   1.861   6.915
 1837SOL    HW1 6410   3.227   1.790   6.977
 1837SOL    HW2 6411   3.215   1.948   6.935
 1838SOL     OW 6412   4.999   0.823   1.270
 1838SOL    HW1 6413   5.080   0.872   1.237
 1838SOL    HW2 6414   4.930   0.819   1.198
 1839SOL     OW 6415   6.694   0.088   0.537
 1839SOL    HW1 6416   6.727   0.132   0.620
 1839SOL    HW2 6417   6.719   7.014   0.538
 1840SOL     OW 6418   4.513   6.407   4.335
 1840SOL    HW1 6419   4.603   6.450   4.326
 1840SOL    HW2 6420   4.460   6.422   4.252
 1841SOL     OW 6421   1.013   1.232   2.083
 1841SOL    HW1 6422   0.922   1.240   2.124
 1841SOL    HW2 6423   1.080   1.209   2.153
 1842SOL     OW 6424   1.141   5.017   1.180
 1842SOL    HW1 6425   1.183   5.104   1.206
 1842SOL    HW2 6426   1.185   4.942   1.229
 1843SOL     OW 6427   2.559   0.884   6.736
 1843SOL    HW1 6428   2.470   0.919   6.705
 1843SOL    HW2 6429   2.599   0.826   6.664
 1844SOL     OW 6430   5.900   2.967   6.533
 1844SOL    HW1 6431   5.895   3.064   6.510
 1844SOL    HW2 6432   5.956   2.920   6.465
 1845SOL     OW 6433   0.588   1.829   2.832
 1845SOL    HW1 6434   0.534   1.905   2.867
 1845SOL    HW2 6435   0.635   1.857   2.748
 1846SOL     OW 6436   2.688   1.636   1.431
 1846SOL    HW1 6437   2.754   1.705   1.401
 1846SOL    HW2 6438   2.713   1.603   1.522
 1847SOL     OW 6439   1.732   5.380   6.108
 1847SOL    HW1 6440   1.761   5.437   6.031
 1847SOL    HW2 6441   1.644   5.338   6.087
 1848SOL     OW 6442   3.702   6.492   3.030
 1848SOL    HW1 6443   3.636   6.430   2.986
 1848SOL    HW2 6444   3.791   6.482   2.986
 1849SOL     OW 6445   4.777   2.851   2.084
 1849SOL    HW1 6446   4.733   2.924   2.032
 1849SOL    HW2 6447   4.817   2.888   2.167
 1850SOL     OW 6448   4.017   1.975   0.450
 1850SOL    HW1 6449   4.082   1.946   0.520
 1850SOL    HW2 6450   4.003   2.073   0.456
 1851SOL     OW 6451   6.980   4.737   4.578
 1851SOL    HW1 6452   6.916   4.699   4.511
 1851SOL    HW2 6453   7.013   4.826   4.547
 1852SOL     OW 6454   0.849   0.624   2.758
 1852SOL    HW1 6455   0.752   0.648   2.759
 1852SOL    HW2 6456   0.898   0.680   2.825
 1853SOL     OW 6457   0.674   2.328   5.863
 1853SOL    HW1 6458   0.687   2.407   5.802
 1853SOL    HW2 6459   0.720   2.344   5.950
 1854SOL     OW 6460   0.581   6.595   3.502
 1854SOL    HW1 6461   0.486   6.578   3.477
 1854SOL    HW2 6462   0.603   6.543   3.585
 1855SOL     OW 6463   5.684   2.897   4.958
 1855SOL    HW1 6464   5.708   2.990   4.988
 1855SOL    HW2 6465   5.658   2.899   4.862
 1856SOL     OW 6466   4.194   3.235   0.219
 1856SOL    HW1 6467   4.259   3.216   0.145
 1856SOL    HW2 6468   4.117   3.288   0.184
 1857SOL     OW 6469   3.843   1.345   6.601
 1857SOL    HW1 6470   3.897   1.413   6.650
 1857SOL    HW2 6471   3.795   1.287   6.666
 1858SOL     OW 6472   5.006   2.641   4.140
 1858SOL    HW1 6473   5.041   2.551   4.114
 1858SOL    HW2 6474   5.080   2.697   4.175
 1859SOL     OW 6475   6.428   0.893   4.225
 1859SOL    HW1 6476   6.371   0.831   4.278
 1859SOL    HW2 6477   6.435   0.981   4.273
 1860SOL     OW 6478   2.269   1.509   5.994
 1860SOL    HW1 6479   2.228   1.492   5.905
 1860SOL    HW2 6480   2.312   1.600   5.994
 1861SOL     OW 6481   6.320   6.465   4.245
 1861SOL    HW1 6482   6.324   6.560   4.214
 1861SOL    HW2 6483   6.402   6.444   4.299
 1862SOL     OW 6484   2.802   5.470   5.264
 1862SOL    HW1 6485   2.719   5.456   5.209
 1862SOL    HW2 6486   2.804   5.564   5.298
 1863SOL     OW 6487   0.058   2.495   1.302
 1863SOL    HW1 6488   0.106   2.446   1.375
 1863SOL    HW2 6489   7.018   2.561   1.342
 1864SOL     OW 6490   3.180   5.937   1.836
 1864SOL    HW1 6491   3.095   5.964   1.881
 1864SOL    HW2 6492   3.257   5.976   1.885
 1865SOL     OW 6493   6.264   3.055   5.931
 1865SOL    HW1 6494   6.314   2.994   5.869
 1865SOL    HW2 6495   6.166   3.033   5.926
 1866SOL     OW 6496   0.876   5.570   3.392
 1866SOL    HW1 6497   0.941   5.613   3.455
 1866SOL    HW2 6498   0.790   5.621   3.393
 1867SOL     OW 6499   0.615   2.308   1.302
 1867SOL    HW1 6500   0.587   2.399   1.332
 1867SOL    HW2 6501   0.676   2.268   1.370
 1868SOL     OW 6502   5.902   3.542   6.654
 1868SOL    HW1 6503   5.893   3.601   6.733
 1868SOL    HW2 6504   5.811   3.518   6.619
 1869SOL     OW 6505   4.942   0.901   4.439
 1869SOL    HW1 6506   4.865   0.900   4.503
 1869SOL    HW2 6507   5.021   0.943   4.482
 1870SOL     OW 6508   6.281   6.743   5.535
 1870SOL    HW1 6509   6.345   6.759   5.459
 1870SOL    HW2 6510   6.312   6.794   5.615
 1871SOL     OW 6511   0.666   6.203   6.721
 1871SOL    HW1 6512   0.638   6.162   6.807
 1871SOL    HW2 6513   0.608   6.167   6.647
 1872SOL     OW 6514   2.998   3.127   1.561
 1872SOL    HW1 6515   3.047   3.168   1.637
 1872SOL    HW2 6516   2.900   3.129   1.580
 1873SOL     OW 6517   6.739   1.023   1.256
 1873SOL    HW1 6518   6.779   0.966   1.327
 1873SOL    HW2 6519   6.640   1.010   1.254
 1874SOL     OW 6520   0.835   5.225   0.604
 1874SOL    HW1 6521   0.797   5.147   0.653
 1874SOL    HW2 6522   0.843   5.203   0.507
 1875SOL     OW 6523   0.381   5.523   1.833
 1875SOL    HW1 6524   0.329   5.471   1.901
 1875SOL    HW2 6525   0.446   5.582   1.880
 1876SOL     OW 6526   0.567   4.873   0.866
 1876SOL    HW1 6527   0.626   4.882   0.947
 1876SOL    HW2 6528   0.493   4.940   0.872
 1877SOL     OW 6529   0.979   1.885   2.122
 1877SOL    HW1 6530   0.904   1.942   2.156
 1877SOL    HW2 6531   0.998   1.908   2.027
 1878SOL     OW 6532   5.242   3.783   3.927
 1878SOL    HW1 6533   5.294   3.868   3.923
 1878SOL    HW2 6534   5.274   3.720   3.856
 1879SOL     OW 6535   5.056   6.359   4.418
 1879SOL    HW1 6536   4.990   6.417   4.465
 1879SOL    HW2 6537   5.148   6.391   4.436
 1880SOL     OW 6538   6.969   1.082   4.139
 1880SOL    HW1 6539   6.981   0.983   4.144
 1880SOL    HW2 6540   0.035   1.127   4.152
 1881SOL     OW 6541   2.022   1.430   3.820
 1881SOL    HW1 6542   2.006   1.523   3.852
 1881SOL    HW2 6543   2.066   1.377   3.892
 1882SOL     OW 6544   1.785   5.352   0.406
 1882SOL    HW1 6545   1.784   5.426   0.339
 1882SOL    HW2 6546   1.736   5.382   0.488
 1883SOL     OW 6547   2.526   2.534   3.105
 1883SOL    HW1 6548   2.491   2.461   3.164
 1883SOL    HW2 6549   2.464   2.613   3.110
 1884SOL     OW 6550   4.202   1.095   0.450
 1884SOL    HW1 6551   4.298   1.107   0.427
 1884SOL    HW2 6552   4.188   1.004   0.490
 1885SOL     OW 6553   0.248   1.508   0.601
 1885SOL    HW1 6554   0.228   1.551   0.514
 1885SOL    HW2 6555   0.182   1.538   0.670
 1886SOL     OW 6556   3.524   2.807   6.341
 1886SOL    HW1 6557   3.507   2.823   6.244
 1886SOL    HW2 6558   3.623   2.795   6.356
 1887SOL     OW 6559   0.753   6.492   4.906
 1887SOL    HW1 6560   0.814   6.452   4.974
 1887SOL    HW2 6561   0.658   6.468   4.929
 1888SOL     OW 6562   1.964   1.686   5.529
 1888SOL    HW1 6563   1.875   1.730   5.542
 1888SOL    HW2 6564   2.020   1.742   5.468
 1889SOL     OW 6565   2.949   2.749   0.201
 1889SOL    HW1 6566   2.945   2.732   0.300
 1889SOL    HW2 6567   2.963   2.662   0.153
 1890SOL     OW 6568   6.257   6.069   0.035
 1890SOL    HW1 6569   6.344   6.064   7.008
 1890SOL    HW2 6570   6.190   6.117   7.002
 1891SOL     OW 6571   5.220   3.445   6.816
 1891SOL    HW1 6572   5.297   3.478   6.761
 1891SOL    HW2 6573   5.178   3.366   6.773
 1892SOL     OW 6574   4.239   0.070   2.247
 1892SOL    HW1 6575   4.335   0.043   2.257
 1892SOL    HW2 6576   4.213   0.067   2.150
 1893SOL     OW 6577   3.002   1.562   5.318
 1893SOL    HW1 6578   2.969   1.604   5.234
 1893SOL    HW2 6579   2.966   1.469   5.325
 1894SOL     OW 6580   4.944   3.898   1.404
 1894SOL    HW1 6581   4.939   3.995   1.431
 1894SOL    HW2 6582   4.873   3.879   1.336
 1895SOL     OW 6583   4.561   6.711   3.611
 1895SOL    HW1 6584   4.575   6.807   3.590
 1895SOL    HW2 6585   4.504   6.703   3.693
 1896SOL     OW 6586   6.321   1.754   5.835
 1896SOL    HW1 6587   6.358   1.661   5.832
 1896SOL    HW2 6588   6.300   1.784   5.742
 1897SOL     OW 6589   5.613   5.081   3.499
 1897SOL    HW1 6590   5.597   4.982   3.506
 1897SOL    HW2 6591   5.530   5.130   3.526
 1898SOL     OW 6592   6.054   6.684   6.795
 1898SOL    HW1 6593   5.996   6.657   6.871
 1898SOL    HW2 6594   6.123   6.750   6.827
 1899SOL     OW 6595   1.675   2.365   3.169
 1899SOL    HW1 6596   1.724   2.452   3.174
 1899SOL    HW2 6597   1.741   2.290   3.174
 1900SOL     OW 6598   2.551   6.556   2.316
 1900SOL    HW1 6599   2.596   6.540   2.403
 1900SOL    HW2 6600   2.477   6.490   2.303
 1901SOL     OW 6601   1.317   1.131   6.246
 1901SOL    HW1 6602   1.271   1.175   6.323
 1901SOL    HW2 6603   1.361   1.200   6.189
 1902SOL     OW 6604   1.601   2.486   5.309
 1902SOL    HW1 6605   1.650   2.565   5.346
 1902SOL    HW2 6606   1.662   2.407   5.307
 1903SOL     OW 6607   6.909   4.350   4.171
 1903SOL    HW1 6608   6.998   4.374   4.133
 1903SOL    HW2 6609   6.920   4.275   4.236
 1904SOL     OW 6610   0.350   0.468   4.327
 1904SOL    HW1 6611   0.340   0.551   4.382
 1904SOL    HW2 6612   0.410   0.487   4.249
 1905SOL     OW 6613   6.741   2.858   4.517
 1905SOL    HW1 6614   6.648   2.894   4.510
 1905SOL    HW2 6615   6.738   2.758   4.521
 1906SOL     OW 6616   2.855   6.113   6.519
 1906SOL    HW1 6617   2.893   6.115   6.427
 1906SOL    HW2 6618   2.909   6.051   6.576
 1907SOL     OW 6619   4.241   6.352   3.719
 1907SOL    HW1 6620   4.338   6.329   3.723
 1907SOL    HW2 6621   4.230   6.447   3.690
 1908SOL     OW 6622   5.053   7.002   6.656
 1908SOL    HW1 6623   4.976   7.015   6.593
 1908SOL    HW2 6624   5.117   0.055   6.647
 1909SOL     OW 6625   4.313   4.948   4.623
 1909SOL    HW1 6626   4.358   4.892   4.693
 1909SOL    HW2 6627   4.375   5.021   4.594
 1910SOL     OW 6628   5.242   3.422   4.731
 1910SOL    HW1 6629   5.223   3.506   4.681
 1910SOL    HW2 6630   5.170   3.406   4.799
 1911SOL     OW 6631   0.022   3.452   5.563
 1911SOL    HW1 6632   0.025   3.353   5.574
 1911SOL    HW2 6633   0.084   3.480   5.489
 1912SOL     OW 6634   2.641   5.896   3.221
 1912SOL    HW1 6635   2.559   5.846   3.195
 1912SOL    HW2 6636   2.711   5.832   3.252
 1913SOL     OW 6637   1.224   4.285   5.304
 1913SOL    HW1 6638   1.179   4.202   5.337
 1913SOL    HW2 6639   1.259   4.268   5.211
 1914SOL     OW 6640   4.686   1.502   5.807
 1914SOL    HW1 6641   4.742   1.453   5.873
 1914SOL    HW2 6642   4.644   1.436   5.744
 1915SOL     OW 6643   3.544   0.839   5.283
 1915SOL    HW1 6644   3.471   0.873   5.223
 1915SOL    HW2 6645   3.601   0.916   5.313
 1916SOL     OW 6646   4.292   6.667   2.399
 1916SOL    HW1 6647   4.229   6.611   2.346
 1916SOL    HW2 6648   4.383   6.663   2.358
 1917SOL     OW 6649   3.200   2.971   4.285
 1917SOL    HW1 6650   3.283   2.998   4.236
 1917SOL    HW2 6651   3.215   2.882   4.329
 1918SOL     OW 6652   6.371   6.239   4.670
 1918SOL    HW1 6653   6.457   6.281   4.698
 1918SOL    HW2 6654   6.321   6.209   4.751
 1919SOL     OW 6655   6.666   6.990   1.818
 1919SOL    HW1 6656   6.582   0.010   1.850
 1919SOL    HW2 6657   6.649   6.943   1.731
 1920SOL     OW 6658   6.574   6.021   4.210
 1920SOL    HW1 6659   6.563   6.066   4.299
 1920SOL    HW2 6660   6.488   5.977   4.184
 1921SOL     OW 6661   1.310   6.977   6.477
 1921SOL    HW1 6662   1.253   6.935   6.548
 1921SOL    HW2 6663   1.404   6.945   6.487
 1922SOL     OW 6664   3.635   4.200   0.916
 1922SOL    HW1 6665   3.544   4.162   0.898
 1922SOL    HW2 6666   3.626   4.296   0.942
 1923SOL     OW 6667   2.034   3.009   0.870
 1923SOL    HW1 6668   2.000   3.059   0.949
 1923SOL    HW2 6669   2.132   2.994   0.879
 1924SOL     OW 6670   1.019   3.910   1.882
 1924SOL    HW1 6671   0.927   3.872   1.884
 1924SOL    HW2 6672   1.025   3.984   1.950
 1925SOL     OW 6673   3.643   4.154   0.417
 1925SOL    HW1 6674   3.593   4.071   0.443
 1925SOL    HW2 6675   3.700   4.183   0.493
 1926SOL     OW 6676   0.889   0.382   3.196
 1926SOL    HW1 6677   0.927   0.448   3.262
 1926SOL    HW2 6678   0.958   0.360   3.127
 1927SOL     OW 6679   4.177   3.762   0.505
 1927SOL    HW1 6680   4.169   3.860   0.486
 1927SOL    HW2 6681   4.245   3.748   0.577
 1928SOL     OW 6682   0.368   5.277   5.706
 1928SOL    HW1 6683   0.375   5.184   5.671
 1928SOL    HW2 6684   0.276   5.293   5.740
 1929SOL     OW 6685   1.933   6.555   3.190
 1929SOL    HW1 6686   1.839   6.527   3.173
 1929SOL    HW2 6687   1.936   6.651   3.216
 1930SOL     OW 6688   6.385   4.884   0.196
 1930SOL    HW1 6689   6.467   4.887   0.254
 1930SOL    HW2 6690   6.393   4.809   0.131
 1931SOL     OW 6691   0.408   1.977   5.540
 1931SOL    HW1 6692   0.342   2.050   5.521
 1931SOL    HW2 6693   0.501   2.013   5.531
 1932SOL     OW 6694   6.069   2.822   2.342
 1932SOL    HW1 6695   6.130   2.806   2.420
 1932SOL    HW2 6696   6.017   2.905   2.357
 1933SOL     OW 6697   2.345   4.629   0.940
 1933SOL    HW1 6698   2.343   4.725   0.915
 1933SOL    HW2 6699   2.282   4.612   1.016
 1934SOL     OW 6700   0.257   5.744   4.396
 1934SOL    HW1 6701   0.347   5.703   4.409
 1934SOL    HW2 6702   0.202   5.730   4.478
 1935SOL     OW 6703   2.352   0.960   3.744
 1935SOL    HW1 6704   2.272   0.925   3.696
 1935SOL    HW2 6705   2.424   0.890   3.745
 1936SOL     OW 6706   6.882   6.103   5.463
 1936SOL    HW1 6707   6.791   6.137   5.485
 1936SOL    HW2 6708   6.924   6.162   5.394
 1937SOL     OW 6709   4.455   0.743   3.044
 1937SOL    HW1 6710   4.480   0.794   2.962
 1937SOL    HW2 6711   4.439   0.647   3.019
 1938SOL     OW 6712   4.903   0.635   4.115
 1938SOL    HW1 6713   4.907   0.648   4.016
 1938SOL    HW2 6714   4.845   0.706   4.155
 1939SOL     OW 6715   2.574   0.441   3.526
 1939SOL    HW1 6716   2.584   0.349   3.487
 1939SOL    HW2 6717   2.626   0.446   3.611
 1940SOL     OW 6718   6.396   5.297   6.528
 1940SOL    HW1 6719   6.408   5.326   6.433
 1940SOL    HW2 6720   6.299   5.299   6.551
 1941SOL     OW 6721   5.231   5.132   2.627
 1941SOL    HW1 6722   5.231   5.097   2.534
 1941SOL    HW2 6723   5.154   5.092   2.677
 1942SOL     OW 6724   6.257   4.771   2.959
 1942SOL    HW1 6725   6.178   4.770   3.021
 1942SOL    HW2 6726   6.332   4.821   3.001
 1943SOL     OW 6727   3.101   5.766   2.469
 1943SOL    HW1 6728   3.022   5.717   2.504
 1943SOL    HW2 6729   3.101   5.764   2.369
 1944SOL     OW 6730   6.862   6.994   2.102
 1944SOL    HW1 6731   6.853   0.071   2.105
 1944SOL    HW2 6732   6.942   6.966   2.155
 1945SOL     OW 6733   3.153   4.904   4.018
 1945SOL    HW1 6734   3.094   4.984   4.026
 1945SOL    HW2 6735   3.178   4.872   4.109
 1946SOL     OW 6736   1.984   0.136   0.349
 1946SOL    HW1 6737   2.076   0.168   0.326
 1946SOL    HW2 6738   1.981   0.037   0.340
 1947SOL     OW 6739   5.185   6.767   3.714
 1947SOL    HW1 6740   5.271   6.729   3.748
 1947SOL    HW2 6741   5.109   6.729   3.768
 1948SOL     OW 6742   6.384   4.138   5.873
 1948SOL    HW1 6743   6.376   4.047   5.914
 1948SOL    HW2 6744   6.481   4.159   5.858
 1949SOL     OW 6745   5.278   4.129   6.432
 1949SOL    HW1 6746   5.351   4.154   6.496
 1949SOL    HW2 6747   5.200   4.190   6.445
 1950SOL     OW 6748   2.660   4.825   1.173
 1950SOL    HW1 6749   2.747   4.858   1.209
 1950SOL    HW2 6750   2.597   4.809   1.249
 1951SOL     OW 6751   6.827   2.499   6.858
 1951SOL    HW1 6752   6.763   2.428   6.828
 1951SOL    HW2 6753   6.777   2.572   6.903
 1952SOL     OW 6754   3.916   2.585   5.613
 1952SOL    HW1 6755   3.982   2.629   5.675
 1952SOL    HW2 6756   3.950   2.592   5.519
 1953SOL     OW 6757   0.300   3.204   5.043
 1953SOL    HW1 6758   0.268   3.152   5.122
 1953SOL    HW2 6759   0.373   3.266   5.071
 1954SOL     OW 6760   2.473   2.065   3.714
 1954SOL    HW1 6761   2.398   2.002   3.695
 1954SOL    HW2 6762   2.461   2.105   3.805
 1955SOL     OW 6763   6.332   5.734   1.771
 1955SOL    HW1 6764   6.399   5.780   1.713
 1955SOL    HW2 6765   6.374   5.651   1.810
 1956SOL     OW 6766   5.650   6.534   2.339
 1956SOL    HW1 6767   5.639   6.470   2.415
 1956SOL    HW2 6768   5.639   6.486   2.253
 1957SOL     OW 6769   0.959   6.537   5.933
 1957SOL    HW1 6770   1.047   6.511   5.893
 1957SOL    HW2 6771   0.973   6.570   6.027
 1958SOL     OW 6772   4.879   3.196   5.897
 1958SOL    HW1 6773   4.904   3.165   5.988
 1958SOL    HW2 6774   4.871   3.117   5.836
 1959SOL     OW 6775   2.176   2.379   6.487
 1959SOL    HW1 6776   2.200   2.419   6.576
 1959SOL    HW2 6777   2.110   2.306   6.501
 1960SOL     OW 6778   4.991   6.899   2.089
 1960SOL    HW1 6779   4.962   6.943   2.173
 1960SOL    HW2 6780   5.040   6.814   2.111
 1961SOL     OW 6781   5.806   4.976   4.691
 1961SOL    HW1 6782   5.835   4.948   4.782
 1961SOL    HW2 6783   5.852   5.061   4.666
 1962SOL     OW 6784   6.707   6.744   3.041
 1962SOL    HW1 6785   6.758   6.827   3.020
 1962SOL    HW2 6786   6.645   6.761   3.118
 1963SOL     OW 6787   2.003   0.162   3.003
 1963SOL    HW1 6788   1.927   0.119   2.954
 1963SOL    HW2 6789   2.083   0.103   3.000
 1964SOL     OW 6790   5.567   4.257   2.296
 1964SOL    HW1 6791   5.595   4.352   2.303
 1964SOL    HW2 6792   5.582   4.224   2.203
 1965SOL     OW 6793   2.502   5.468   3.895
 1965SOL    HW1 6794   2.415   5.429   3.925
 1965SOL    HW2 6795   2.577   5.409   3.926
 1966SOL     OW 6796   6.672   5.670   6.236
 1966SOL    HW1 6797   6.756   5.686   6.289
 1966SOL    HW2 6798   6.665   5.737   6.163
 1967SOL     OW 6799   5.130   3.581   4.521
 1967SOL    HW1 6800   5.139   3.486   4.489
 1967SOL    HW2 6801   5.033   3.604   4.529
 1968SOL     OW 6802   3.660   5.227   5.557
 1968SOL    HW1 6803   3.662   5.252   5.460
 1968SOL    HW2 6804   3.627   5.133   5.566
 1969SOL     OW 6805   6.523   2.346   2.000
 1969SOL    HW1 6806   6.432   2.308   2.008
 1969SOL    HW2 6807   6.536   2.417   2.070
 1970SOL     OW 6808   1.560   6.760   3.996
 1970SOL    HW1 6809   1.577   6.816   4.076
 1970SOL    HW2 6810   1.571   6.663   4.020
 1971SOL     OW 6811   0.273   0.348   6.309
 1971SOL    HW1 6812   0.188   0.348   6.257
 1971SOL    HW2 6813   0.350   0.330   6.248
 1972SOL     OW 6814   1.213   4.806   4.093
 1972SOL    HW1 6815   1.213   4.772   4.187
 1972SOL    HW2 6816   1.270   4.747   4.036
 1973SOL     OW 6817   2.499   3.009   0.024
 1973SOL    HW1 6818   2.500   3.019   0.124
 1973SOL    HW2 6819   2.564   3.073   7.007
 1974SOL     OW 6820   5.892   0.517   4.390
 1974SOL    HW1 6821   5.894   0.617   4.396
 1974SOL    HW2 6822   5.934   0.487   4.305
 1975SOL     OW 6823   2.847   1.105   3.837
 1975SOL    HW1 6824   2.823   1.192   3.882
 1975SOL    HW2 6825   2.776   1.082   3.770
 1976SOL     OW 6826   6.689   4.606   0.305
 1976SOL    HW1 6827   6.622   4.676   0.331
 1976SOL    HW2 6828   6.748   4.586   0.382
 1977SOL     OW 6829   2.299   2.683   4.585
 1977SOL    HW1 6830   2.291   2.701   4.683
 1977SOL    HW2 6831   2.213   2.647   4.550
 1978SOL     OW 6832   6.679   1.568   5.032
 1978SOL    HW1 6833   6.637   1.573   5.123
 1978SOL    HW2 6834   6.778   1.580   5.041
 1979SOL     OW 6835   6.016   4.737   3.102
 1979SOL    HW1 6836   5.984   4.653   3.145
 1979SOL    HW2 6837   5.948   4.769   3.035
 1980SOL     OW 6838   4.327   0.489   1.571
 1980SOL    HW1 6839   4.333   0.452   1.664
 1980SOL    HW2 6840   4.348   0.417   1.505
 1981SOL     OW 6841   4.676   3.212   1.630
 1981SOL    HW1 6842   4.687   3.155   1.712
 1981SOL    HW2 6843   4.580   3.237   1.620
 1982SOL     OW 6844   5.989   0.078   5.173
 1982SOL    HW1 6845   5.894   0.078   5.204
 1982SOL    HW2 6846   6.008   7.016   5.123
 1983SOL     OW 6847   0.669   4.195   2.504
 1983SOL    HW1 6848   0.690   4.286   2.539
 1983SOL    HW2 6849   0.718   4.181   2.417
 1984SOL     OW 6850   4.291   0.902   5.526
 1984SOL    HW1 6851   4.294   0.971   5.454
 1984SOL    HW2 6852   4.256   0.942   5.610
 1985SOL     OW 6853   1.507   7.022   1.402
 1985SOL    HW1 6854   1.410   7.002   1.416
 1985SOL    HW2 6855   1.517   0.078   1.341
 1986SOL     OW 6856   1.016   2.094   6.404
 1986SOL    HW1 6857   1.061   2.050   6.483
 1986SOL    HW2 6858   1.054   2.186   6.392
 1987SOL     OW 6859   2.535   3.586   0.066
 1987SOL    HW1 6860   2.503   3.600   6.996
 1987SOL    HW2 6861   2.633   3.607   0.070
 1988SOL     OW 6862   4.938   3.110   0.156
 1988SOL    HW1 6863   4.914   3.127   0.060
 1988SOL    HW2 6864   5.030   3.146   0.174
 1989SOL     OW 6865   2.580   0.353   4.409
 1989SOL    HW1 6866   2.671   0.357   4.452
 1989SOL    HW2 6867   2.520   0.421   4.451
 1990SOL     OW 6868   2.222   1.299   2.529
 1990SOL    HW1 6869   2.150   1.346   2.478
 1990SOL    HW2 6870   2.310   1.319   2.488
 1991SOL     OW 6871   3.831   5.183   4.363
 1991SOL    HW1 6872   3.912   5.211   4.312
 1991SOL    HW2 6873   3.805   5.090   4.335
 1992SOL     OW 6874   2.163   6.789   5.716
 1992SOL    HW1 6875   2.189   6.868   5.660
 1992SOL    HW2 6876   2.236   6.721   5.714
 1993SOL     OW 6877   3.336   3.178   4.736
 1993SOL    HW1 6878   3.422   3.150   4.694
 1993SOL    HW2 6879   3.310   3.268   4.703
 1994SOL     OW 6880   5.905   2.667   2.540
 1994SOL    HW1 6881   5.960   2.650   2.622
 1994SOL    HW2 6882   5.964   2.664   2.459
 1995SOL     OW 6883   4.846   2.849   1.085
 1995SOL    HW1 6884   4.871   2.783   1.156
 1995SOL    HW2 6885   4.846   2.804   0.996
 1996SOL     OW 6886   2.990   4.000   6.364
 1996SOL    HW1 6887   3.022   4.084   6.320
 1996SOL    HW2 6888   2.961   4.020   6.458
 1997SOL     OW 6889   5.156   0.563   4.085
 1997SOL    HW1 6890   5.166   0.522   3.995
 1997SOL    HW2 6891   5.065   0.540   4.122
 1998SOL     OW 6892   3.095   4.862   4.985
 1998SOL    HW1 6893   3.014   4.918   4.970
 1998SOL    HW2 6894   3.077   4.795   5.057
 1999SOL     OW 6895   1.706   1.095   2.353
 1999SOL    HW1 6896   1.802   1.087   2.381
 1999SOL    HW2 6897   1.700   1.154   2.273
 2000SOL     OW 6898   4.165   2.330   4.544
 2000SOL    HW1 6899   4.070   2.338   4.516
 2000SOL    HW2 6900   4.169   2.297   4.638
 2001SOL     OW 6901   2.820   3.156   0.542
 2001SOL    HW1 6902   2.760   3.185   0.468
 2001SOL    HW2 6903   2.900   3.216   0.546
 2002SOL     OW 6904   1.880   4.922   5.098
 2002SOL    HW1 6905   1.944   4.956   5.167
 2002SOL    HW2 6906   1.920   4.845   5.050
 2003SOL     OW 6907   6.298   5.259   3.365
 2003SOL    HW1 6908   6.240   5.197   3.312
 2003SOL    HW2 6909   6.344   5.209   3.438
 2004SOL     OW 6910   3.185   0.384   6.056
 2004SOL    HW1 6911   3.178   0.461   5.992
 2004SOL    HW2 6912   3.248   0.409   6.130
 2005SOL     OW 6913   3.079   6.735   5.442
 2005SOL    HW1 6914   3.013   6.763   5.372
 2005SOL    HW2 6915   3.152   6.682   5.399
 2006SOL     OW 6916   4.236   5.422   3.798
 2006SOL    HW1 6917   4.258   5.361   3.874
 2006SOL    HW2 6918   4.319   5.469   3.768
 2007SOL     OW 6919   6.055   5.097   0.138
 2007SOL    HW1 6920   6.135   5.153   0.155
 2007SOL    HW2 6921   6.057   5.016   0.196
 2008SOL     OW 6922   0.280   6.081   3.753
 2008SOL    HW1 6923   0.198   6.067   3.808
 2008SOL    HW2 6924   0.359   6.093   3.813
 2009SOL     OW 6925   0.738   0.168   1.291
 2009SOL    HW1 6926   0.796   0.094   1.325
 2009SOL    HW2 6927   0.642   0.137   1.289
 2010SOL     OW 6928   1.424   0.194   0.878
 2010SOL    HW1 6929   1.457   0.264   0.942
 2010SOL    HW2 6930   1.463   0.211   0.788
 2011SOL     OW 6931   6.858   2.925   5.258
 2011SOL    HW1 6932   6.768   2.924   5.216
 2011SOL    HW2 6933   6.927   2.950   5.189
 2012SOL     OW 6934   0.498   4.042   1.427
 2012SOL    HW1 6935   0.563   4.063   1.500
 2012SOL    HW2 6936   0.536   3.970   1.368
 2013SOL     OW 6937   4.303   1.261   2.235
 2013SOL    HW1 6938   4.400   1.247   2.215
 2013SOL    HW2 6939   4.280   1.217   2.322
 2014SOL     OW 6940   2.735   5.464   3.458
 2014SOL    HW1 6941   2.823   5.477   3.505
 2014SOL    HW2 6942   2.661   5.492   3.519
 2015SOL     OW 6943   3.317   6.882   6.783
 2015SOL    HW1 6944   3.282   6.928   6.702
 2015SOL    HW2 6945   3.314   6.783   6.768
 2016SOL     OW 6946   6.494   5.340   3.670
 2016SOL    HW1 6947   6.430   5.267   3.646
 2016SOL    HW2 6948   6.452   5.428   3.649
 2017SOL     OW 6949   2.756   5.981   2.031
 2017SOL    HW1 6950   2.835   6.025   1.988
 2017SOL    HW2 6951   2.674   6.035   2.013
 2018SOL     OW 6952   0.630   4.688   6.295
 2018SOL    HW1 6953   0.667   4.661   6.384
 2018SOL    HW2 6954   0.655   4.620   6.226
 2019SOL     OW 6955   5.817   1.847   2.547
 2019SOL    HW1 6956   5.783   1.916   2.482
 2019SOL    HW2 6957   5.760   1.766   2.543
 2020SOL     OW 6958   2.424   5.746   3.118
 2020SOL    HW1 6959   2.329   5.759   3.148
 2020SOL    HW2 6960   2.448   5.649   3.123
 2021SOL     OW 6961   1.203   6.976   1.495
 2021SOL    HW1 6962   1.217   0.050   1.476
 2021SOL    HW2 6963   1.193   6.926   1.409
 2022SOL     OW 6964   2.686   4.142   0.851
 2022SOL    HW1 6965   2.717   4.180   0.938
 2022SOL    HW2 6966   2.684   4.214   0.782
 2023SOL     OW 6967   6.485   1.152   6.057
 2023SOL    HW1 6968   6.484   1.212   5.977
 2023SOL    HW2 6969   6.579   1.119   6.073
 2024SOL     OW 6970   6.369   0.565   3.564
 2024SOL    HW1 6971   6.298   0.592   3.499
 2024SOL    HW2 6972   6.400   0.645   3.615
 2025SOL     OW 6973   0.055   0.791   0.932
 2025SOL    HW1 6974   0.028   0.873   0.883
 2025SOL    HW2 6975   0.048   0.712   0.872
 2026SOL     OW 6976   1.330   1.220   4.948
 2026SOL    HW1 6977   1.323   1.187   4.854
 2026SOL    HW2 6978   1.297   1.314   4.953
 2027SOL     OW 6979   0.151   1.825   2.607
 2027SOL    HW1 6980   0.080   1.844   2.675
 2027SOL    HW2 6981   0.237   1.868   2.636
 2028SOL     OW 6982   4.305   3.568   6.335
 2028SOL    HW1 6983   4.225   3.599   6.284
 2028SOL    HW2 6984   4.276   3.512   6.412
 2029SOL     OW 6985   1.847   0.402   0.360
 2029SOL    HW1 6986   1.757   0.438   0.386
 2029SOL    HW2 6987   1.853   0.306   0.386
 2030SOL     OW 6988   0.842   1.027   2.953
 2030SOL    HW1 6989   0.748   1.029   2.919
 2030SOL    HW2 6990   0.903   1.067   2.885
 2031SOL     OW 6991   4.958   0.017   2.825
 2031SOL    HW1 6992   5.014   7.020   2.905
 2031SOL    HW2 6993   4.863   0.031   2.853
 2032SOL     OW 6994   5.216   6.836   1.498
 2032SOL    HW1 6995   5.172   6.798   1.579
 2032SOL    HW2 6996   5.155   6.904   1.456
 2033SOL     OW 6997   6.317   4.860   6.884
 2033SOL    HW1 6998   6.394   4.825   6.938
 2033SOL    HW2 6999   6.351   4.895   6.797
 2034SOL     OW 7000   2.360   6.713   3.194
 2034SOL    HW1 7001   2.406   6.783   3.247
 2034SOL    HW2 7002   2.356   6.628   3.247
 2035SOL     OW 7003   1.098   3.372   1.839
 2035SOL    HW1 7004   1.161   3.425   1.782
 2035SOL    HW2 7005   1.127   3.377   1.934
 2036SOL     OW 7006   1.842   4.832   0.529
 2036SOL    HW1 7007   1.798   4.742   0.537
 2036SOL    HW2 7008   1.809   4.892   0.601
 2037SOL     OW 7009   0.049   0.940   6.201
 2037SOL    HW1 7010   0.139   0.971   6.231
 2037SOL    HW2 7011   0.053   0.843   6.177
 2038SOL     OW 7012   0.469   0.693   4.557
 2038SOL    HW1 7013   0.549   0.741   4.593
 2038SOL    HW2 7014   0.452   0.611   4.611
 2039SOL     OW 7015   1.239   5.871   2.357
 2039SOL    HW1 7016   1.259   5.907   2.266
 2039SOL    HW2 7017   1.142   5.883   2.378
 2040SOL     OW 7018   3.806   3.511   4.580
 2040SOL    HW1 7019   3.800   3.483   4.676
 2040SOL    HW2 7020   3.900   3.540   4.560
 2041SOL     OW 7021   6.002   4.160   6.438
 2041SOL    HW1 7022   6.028   4.091   6.505
 2041SOL    HW2 7023   5.985   4.247   6.485
 2042SOL     OW 7024   3.873   5.857   0.143
 2042SOL    HW1 7025   3.846   5.915   0.066
 2042SOL    HW2 7026   3.959   5.811   0.122
 2043SOL     OW 7027   4.710   4.567   2.313
 2043SOL    HW1 7028   4.693   4.469   2.319
 2043SOL    HW2 7029   4.806   4.585   2.336
 2044SOL     OW 7030   6.334   0.670   1.861
 2044SOL    HW1 7031   6.397   0.735   1.905
 2044SOL    HW2 7032   6.333   0.687   1.762
 2045SOL     OW 7033   1.454   5.295   6.128
 2045SOL    HW1 7034   1.365   5.267   6.091
 2045SOL    HW2 7035   1.488   5.224   6.189
 2046SOL     OW 7036   6.138   0.566   4.536
 2046SOL    HW1 7037   6.075   0.506   4.487
 2046SOL    HW2 7038   6.229   0.524   4.541
 2047SOL     OW 7039   5.772   2.205   0.313
 2047SOL    HW1 7040   5.748   2.257   0.232
 2047SOL    HW2 7041   5.711   2.231   0.388
 2048SOL     OW 7042   4.331   0.291   5.487
 2048SOL    HW1 7043   4.282   0.352   5.549
 2048SOL    HW2 7044   4.424   0.325   5.473
 2049SOL     OW 7045   5.129   6.885   0.494
 2049SOL    HW1 7046   5.153   6.819   0.423
 2049SOL    HW2 7047   5.209   6.907   0.549
 2050SOL     OW 7048   5.571   2.109   3.892
 2050SOL    HW1 7049   5.573   2.026   3.836
 2050SOL    HW2 7050   5.547   2.085   3.986
 2051SOL     OW 7051   1.928   5.136   0.445
 2051SOL    HW1 7052   1.867   5.078   0.499
 2051SOL    HW2 7053   1.877   5.214   0.407
 2052SOL     OW 7054   1.179   3.342   0.680
 2052SOL    HW1 7055   1.178   3.372   0.775
 2052SOL    HW2 7056   1.273   3.339   0.646
 2053SOL     OW 7057   5.283   0.567   0.327
 2053SOL    HW1 7058   5.373   0.602   0.352
 2053SOL    HW2 7059   5.254   0.609   0.241
 2054SOL     OW 7060   6.536   2.960   1.256
 2054SOL    HW1 7061   6.499   3.047   1.221
 2054SOL    HW2 7062   6.619   2.979   1.309
 2055SOL     OW 7063   6.447   2.668   3.852
 2055SOL    HW1 7064   6.370   2.610   3.876
 2055SOL    HW2 7065   6.518   2.614   3.807
 2056SOL     OW 7066   1.246   0.847   3.050
 2056SOL    HW1 7067   1.324   0.785   3.062
 2056SOL    HW2 7068   1.279   0.938   3.024
 2057SOL     OW 7069   0.065   2.248   4.359
 2057SOL    HW1 7070   0.091   2.278   4.267
 2057SOL    HW2 7071   7.016   2.307   4.394
 2058SOL     OW 7072   0.201   2.527   1.955
 2058SOL    HW1 7073   0.254   2.534   2.039
 2058SOL    HW2 7074   0.162   2.616   1.932
 2059SOL     OW 7075   1.742   1.550   6.758
 2059SOL    HW1 7076   1.776   1.519   6.669
 2059SOL    HW2 7077   1.710   1.471   6.811
 2060SOL     OW 7078   0.526   5.716   2.193
 2060SOL    HW1 7079   0.432   5.748   2.199
 2060SOL    HW2 7080   0.570   5.722   2.282
 2061SOL     OW 7081   6.706   1.326   1.847
 2061SOL    HW1 7082   6.784   1.297   1.902
 2061SOL    HW2 7083   6.689   1.424   1.863
 2062SOL     OW 7084   3.978   0.987   3.339
 2062SOL    HW1 7085   4.066   0.965   3.297
 2062SOL    HW2 7086   3.963   0.927   3.418
 2063SOL     OW 7087   2.458   2.239   0.038
 2063SOL    HW1 7088   2.393   2.238   6.986
 2063SOL    HW2 7089   2.411   2.265   0.122
 2064SOL     OW 7090   0.355   2.346   0.186
 2064SOL    HW1 7091   0.443   2.315   0.221
 2064SOL    HW2 7092   0.367   2.433   0.139
 2065SOL     OW 7093   6.574   2.534   2.181
 2065SOL    HW1 7094   6.579   2.562   2.277
 2065SOL    HW2 7095   6.645   2.581   2.129
 2066SOL     OW 7096   1.939   6.507   4.325
 2066SOL    HW1 7097   1.934   6.606   4.332
 2066SOL    HW2 7098   1.885   6.465   4.398
 2067SOL     OW 7099   6.922   7.003   1.069
 2067SOL    HW1 7100   6.902   6.982   1.165
 2067SOL    HW2 7101   7.020   6.990   1.052
 2068SOL     OW 7102   1.889   1.357   4.817
 2068SOL    HW1 7103   1.827   1.312   4.881
 2068SOL    HW2 7104   1.879   1.316   4.727
 2069SOL     OW 7105   0.252   1.596   2.165
 2069SOL    HW1 7106   0.208   1.654   2.234
 2069SOL    HW2 7107   0.186   1.529   2.131
 2070SOL     OW 7108   0.508   1.263   2.826
 2070SOL    HW1 7109   0.429   1.322   2.817
 2070SOL    HW2 7110   0.583   1.313   2.869
 2071SOL     OW 7111   0.981   6.514   4.446
 2071SOL    HW1 7112   0.940   6.557   4.527
 2071SOL    HW2 7113   1.077   6.492   4.466
 2072SOL     OW 7114   5.074   5.468   1.986
 2072SOL    HW1 7115   5.072   5.527   1.906
 2072SOL    HW2 7116   5.163   5.425   1.995
 2073SOL     OW 7117   2.536   6.854   6.020
 2073SOL    HW1 7118   2.438   6.854   6.040
 2073SOL    HW2 7119   2.555   6.789   5.946
 2074SOL     OW 7120   5.504   1.376   2.257
 2074SOL    HW1 7121   5.476   1.470   2.277
 2074SOL    HW2 7122   5.456   1.344   2.175
 2075SOL     OW 7123   4.708   3.409   5.966
 2075SOL    HW1 7124   4.775   3.336   5.955
 2075SOL    HW2 7125   4.625   3.373   6.008
 2076SOL     OW 7126   4.746   0.485   1.138
 2076SOL    HW1 7127   4.663   0.539   1.123
 2076SOL    HW2 7128   4.817   0.544   1.178
 2077SOL     OW 7129   5.459   1.468   3.207
 2077SOL    HW1 7130   5.420   1.512   3.288
 2077SOL    HW2 7131   5.556   1.448   3.223
 2078SOL     OW 7132   3.671   5.389   5.330
 2078SOL    HW1 7133   3.764   5.423   5.318
 2078SOL    HW2 7134   3.608   5.465   5.346
 2079SOL     OW 7135   5.936   1.286   4.092
 2079SOL    HW1 7136   5.887   1.372   4.109
 2079SOL    HW2 7137   6.031   1.295   4.123
 2080SOL     OW 7138   2.885   2.313   4.261
 2080SOL    HW1 7139   2.956   2.288   4.196
 2080SOL    HW2 7140   2.904   2.272   4.350
 2081SOL     OW 7141   0.481   6.601   5.127
 2081SOL    HW1 7142   0.544   6.675   5.104
 2081SOL    HW2 7143   0.395   6.639   5.161
 2082SOL     OW 7144   5.123   0.439   1.080
 2082SOL    HW1 7145   5.036   0.401   1.051
 2082SOL    HW2 7146   5.135   0.529   1.039
 2083SOL     OW 7147   3.172   5.318   5.458
 2083SOL    HW1 7148   3.223   5.291   5.539
 2083SOL    HW2 7149   3.150   5.416   5.463
 2084SOL     OW 7150   6.990   3.311   3.061
 2084SOL    HW1 7151   0.011   3.261   3.135
 2084SOL    HW2 7152   6.896   3.334   3.087
 2085SOL     OW 7153   5.883   6.915   6.327
 2085SOL    HW1 7154   5.848   6.898   6.419
 2085SOL    HW2 7155   5.954   6.985   6.331
 2086SOL     OW 7156   2.834   4.869   0.539
 2086SOL    HW1 7157   2.751   4.875   0.595
 2086SOL    HW2 7158   2.897   4.804   0.582
 2087SOL     OW 7159   5.135   6.834   3.422
 2087SOL    HW1 7160   5.159   6.827   3.519
 2087SOL    HW2 7161   5.036   6.817   3.412
 2088SOL     OW 7162   3.128   6.871   0.482
 2088SOL    HW1 7163   3.211   6.855   0.535
 2088SOL    HW2 7164   3.141   6.837   0.389
 2089SOL     OW 7165   3.260   0.025   6.572
 2089SOL    HW1 7166   3.294   0.113   6.540
 2089SOL    HW2 7167   3.182   7.020   6.515
 2090SOL     OW 7168   3.529   3.515   3.992
 2090SOL    HW1 7169   3.478   3.596   3.961
 2090SOL    HW2 7170   3.615   3.545   4.035
 2091SOL     OW 7171   2.319   4.788   0.638
 2091SOL    HW1 7172   2.382   4.753   0.569
 2091SOL    HW2 7173   2.228   4.799   0.598
 2092SOL     OW 7174   6.250   5.921   0.957
 2092SOL    HW1 7175   6.259   6.015   0.923
 2092SOL    HW2 7176   6.321   5.903   1.025
 2093SOL     OW 7177   1.215   2.301   1.505
 2093SOL    HW1 7178   1.197   2.203   1.500
 2093SOL    HW2 7179   1.136   2.351   1.469
 2094SOL     OW 7180   5.955   0.164   2.203
 2094SOL    HW1 7181   5.938   0.074   2.242
 2094SOL    HW2 7182   5.907   0.171   2.115
 2095SOL     OW 7183   6.888   4.835   4.995
 2095SOL    HW1 7184   6.906   4.832   5.094
 2095SOL    HW2 7185   6.890   4.930   4.963
 2096SOL     OW 7186   4.773   4.132   3.088
 2096SOL    HW1 7187   4.703   4.176   3.032
 2096SOL    HW2 7188   4.788   4.038   3.056
 2097SOL     OW 7189   0.207   2.327   6.977
 2097SOL    HW1 7190   0.275   2.314   0.027
 2097SOL    HW2 7191   0.132   2.384   7.012
 2098SOL     OW 7192   4.491   0.699   4.289
 2098SOL    HW1 7193   4.461   0.794   4.293
 2098SOL    HW2 7194   4.561   0.683   4.359
 2099SOL     OW 7195   2.890   1.888   4.113
 2099SOL    HW1 7196   2.843   1.811   4.071
 2099SOL    HW2 7197   2.981   1.859   4.143
 2100SOL     OW 7198   3.954   4.251   6.801
 2100SOL    HW1 7199   3.966   4.322   6.871
 2100SOL    HW2 7200   3.951   4.294   6.711
 2101SOL     OW 7201   0.413   0.263   3.328
 2101SOL    HW1 7202   0.427   0.344   3.272
 2101SOL    HW2 7203   0.322   0.225   3.311
 2102SOL     OW 7204   0.100   4.964   2.014
 2102SOL    HW1 7205   0.086   4.884   1.956
 2102SOL    HW2 7206   0.057   5.044   1.972
 2103SOL     OW 7207   2.914   3.786   6.628
 2103SOL    HW1 7208   3.012   3.768   6.617
 2103SOL    HW2 7209   2.863   3.731   6.562
 2104SOL     OW 7210   1.268   3.749   5.274
 2104SOL    HW1 7211   1.349   3.756   5.333
 2104SOL    HW2 7212   1.287   3.796   5.188
 2105SOL     OW 7213   6.080   5.554   1.356
 2105SOL    HW1 7214   6.004   5.501   1.394
 2105SOL    HW2 7215   6.117   5.614   1.427
 2106SOL     OW 7216   5.209   5.466   6.910
 2106SOL    HW1 7217   5.155   5.437   6.989
 2106SOL    HW2 7218   5.304   5.436   6.921
 2107SOL     OW 7219   3.947   4.335   6.533
 2107SOL    HW1 7220   3.898   4.299   6.453
 2107SOL    HW2 7221   3.989   4.423   6.510
 2108SOL     OW 7222   5.033   5.108   5.845
 2108SOL    HW1 7223   5.087   5.192   5.833
 2108SOL    HW2 7224   5.067   5.038   5.783
 2109SOL     OW 7225   5.790   0.376   2.853
 2109SOL    HW1 7226   5.863   0.320   2.814
 2109SOL    HW2 7227   5.766   0.340   2.944
 2110SOL     OW 7228   2.266   5.172   5.983
 2110SOL    HW1 7229   2.350   5.225   5.992
 2110SOL    HW2 7230   2.270   5.117   5.899
 2111SOL     OW 7231   1.630   2.762   0.075
 2111SOL    HW1 7232   1.613   2.666   0.053
 2111SOL    HW2 7233   1.583   2.785   0.160
 2112SOL     OW 7234   4.670   3.223   1.347
 2112SOL    HW1 7235   4.719   3.199   1.431
 2112SOL    HW2 7236   4.582   3.263   1.371
 2113SOL     OW 7237   6.791   1.065   3.095
 2113SOL    HW1 7238   6.793   1.016   3.183
 2113SOL    HW2 7239   6.700   1.056   3.054
 2114SOL     OW 7240   1.858   4.267   6.980
 2114SOL    HW1 7241   1.912   4.254   0.040
 2114SOL    HW2 7242   1.813   4.356   6.984
 2115SOL     OW 7243   2.803   4.732   2.543
 2115SOL    HW1 7244   2.740   4.699   2.472
 2115SOL    HW2 7245   2.881   4.776   2.500
 2116SOL     OW 7246   6.962   4.128   3.424
 2116SOL    HW1 7247   6.924   4.063   3.357
 2116SOL    HW2 7248   6.934   4.100   3.516
 2117SOL     OW 7249   0.115   4.741   1.083
 2117SOL    HW1 7250   0.068   4.809   1.029
 2117SOL    HW2 7251   0.204   4.777   1.112
 2118SOL     OW 7252   6.574   3.815   2.445
 2118SOL    HW1 7253   6.668   3.794   2.473
 2118SOL    HW2 7254   6.550   3.761   2.364
 2119SOL     OW 7255   2.465   5.798   1.224
 2119SOL    HW1 7256   2.562   5.822   1.236
 2119SOL    HW2 7257   2.408   5.878   1.241
 2120SOL     OW 7258   6.994   5.172   2.321
 2120SOL    HW1 7259   6.922   5.217   2.375
 2120SOL    HW2 7260   6.986   5.201   2.226
 2121SOL     OW 7261   0.692   4.949   4.764
 2121SOL    HW1 7262   0.610   4.896   4.741
 2121SOL    HW2 7263   0.665   5.029   4.818
 2122SOL     OW 7264   4.690   4.125   5.163
 2122SOL    HW1 7265   4.732   4.211   5.194
 2122SOL    HW2 7266   4.617   4.098   5.226
 2123SOL     OW 7267   6.160   4.785   3.329
 2123SOL    HW1 7268   6.203   4.706   3.373
 2123SOL    HW2 7269   6.109   4.755   3.249
 2124SOL     OW 7270   2.639   1.438   1.054
 2124SOL    HW1 7271   2.695   1.519   1.034
 2124SOL    HW2 7272   2.584   1.455   1.135
 2125SOL     OW 7273   3.188   6.825   0.913
 2125SOL    HW1 7274   3.131   6.755   0.870
 2125SOL    HW2 7275   3.145   6.914   0.902
 2126SOL     OW 7276   2.733   0.725   1.294
 2126SOL    HW1 7277   2.810   0.676   1.334
 2126SOL    HW2 7278   2.707   0.801   1.354
 2127SOL     OW 7279   5.255   3.216   5.542
 2127SOL    HW1 7280   5.180   3.191   5.480
 2127SOL    HW2 7281   5.217   3.254   5.626
 2128SOL     OW 7282   0.705   5.253   4.080
 2128SOL    HW1 7283   0.743   5.245   4.172
 2128SOL    HW2 7284   0.608   5.276   4.086
 2129SOL     OW 7285   4.002   1.722   5.856
 2129SOL    HW1 7286   3.973   1.806   5.901
 2129SOL    HW2 7287   3.975   1.726   5.759
 2130SOL     OW 7288   4.183   6.143   3.124
 2130SOL    HW1 7289   4.166   6.205   3.201
 2130SOL    HW2 7290   4.279   6.116   3.123
 2131SOL     OW 7291   6.416   2.292   6.902
 2131SOL    HW1 7292   6.422   2.383   6.944
 2131SOL    HW2 7293   6.423   2.222   6.972
 2132SOL     OW 7294   2.346   3.144   0.671
 2132SOL    HW1 7295   2.300   3.213   0.614
 2132SOL    HW2 7296   2.432   3.182   0.706
 2133SOL     OW 7297   2.940   3.070   5.752
 2133SOL    HW1 7298   2.850   3.109   5.767
 2133SOL    HW2 7299   2.936   3.005   5.676
 2134SOL     OW 7300   1.138   6.884   1.241
 2134SOL    HW1 7301   1.112   6.961   1.183
 2134SOL    HW2 7302   1.224   6.845   1.209
 2135SOL     OW 7303   0.258   3.746   4.054
 2135SOL    HW1 7304   0.304   3.823   4.099
 2135SOL    HW2 7305   0.278   3.662   4.104
 2136SOL     OW 7306   2.350   5.075   1.519
 2136SOL    HW1 7307   2.317   5.133   1.594
 2136SOL    HW2 7308   2.383   5.132   1.445
 2137SOL     OW 7309   2.207   5.474   4.288
 2137SOL    HW1 7310   2.216   5.498   4.384
 2137SOL    HW2 7311   2.292   5.432   4.256
 2138SOL     OW 7312   5.061   1.663   1.761
 2138SOL    HW1 7313   4.980   1.676   1.705
 2138SOL    HW2 7314   5.132   1.728   1.732
 2139SOL     OW 7315   2.720   0.781   5.514
 2139SOL    HW1 7316   2.698   0.718   5.440
 2139SOL    HW2 7317   2.818   0.776   5.534
 2140SOL     OW 7318   2.338   0.839   4.934
 2140SOL    HW1 7319   2.320   0.932   4.967
 2140SOL    HW2 7320   2.435   0.820   4.941
 2141SOL     OW 7321   6.237   4.370   2.455
 2141SOL    HW1 7322   6.218   4.384   2.552
 2141SOL    HW2 7323   6.311   4.432   2.427
 2142SOL     OW 7324   1.664   1.888   2.863
 2142SOL    HW1 7325   1.639   1.938   2.780
 2142SOL    HW2 7326   1.629   1.936   2.943
 2143SOL     OW 7327   1.543   4.905   0.088
 2143SOL    HW1 7328   1.513   4.825   0.139
 2143SOL    HW2 7329   1.628   4.939   0.127
 2144SOL     OW 7330   5.716   5.384   4.052
 2144SOL    HW1 7331   5.753   5.308   3.999
 2144SOL    HW2 7332   5.725   5.365   4.150
 2145SOL     OW 7333   3.921   0.132   3.647
 2145SOL    HW1 7334   3.824   0.114   3.658
 2145SOL    HW2 7335   3.946   0.215   3.697
 2146SOL     OW 7336   2.061   2.883   0.478
 2146SOL    HW1 7337   2.120   2.836   0.543
 2146SOL    HW2 7338   2.106   2.888   0.389
 2147SOL     OW 7339   5.825   0.789   4.261
 2147SOL    HW1 7340   5.740   0.736   4.257
 2147SOL    HW2 7341   5.809   0.880   4.223
 2148SOL     OW 7342   0.576   3.455   6.504
 2148SOL    HW1 7343   0.596   3.483   6.598
 2148SOL    HW2 7344   0.543   3.533   6.452
 2149SOL     OW 7345   0.498   0.075   0.229
 2149SOL    HW1 7346   0.549   0.106   0.149
 2149SOL    HW2 7347   0.487   0.152   0.292
 2150SOL     OW 7348   1.883   3.364   1.314
 2150SOL    HW1 7349   1.982   3.378   1.315
 2150SOL    HW2 7350   1.843   3.410   1.235
 2151SOL     OW 7351   1.454   5.999   0.275
 2151SOL    HW1 7352   1.523   6.057   0.232
 2151SOL    HW2 7353   1.461   6.006   0.374
 2152SOL     OW 7354   4.538   5.690   4.498
 2152SOL    HW1 7355   4.608   5.761   4.491
 2152SOL    HW2 7356   4.463   5.710   4.435
 2153SOL     OW 7357   4.307   1.524   3.347
 2153SOL    HW1 7358   4.373   1.474   3.291
 2153SOL    HW2 7359   4.327   1.622   3.342
 2154SOL     OW 7360   3.086   0.212   3.376
 2154SOL    HW1 7361   3.146   0.147   3.422
 2154SOL    HW2 7362   3.141   0.279   3.327
 2155SOL     OW 7363   4.718   0.287   0.755
 2155SOL    HW1 7364   4.643   0.330   0.804
 2155SOL    HW2 7365   4.794   0.272   0.817
 2156SOL     OW 7366   5.452   1.651   4.736
 2156SOL    HW1 7367   5.469   1.621   4.830
 2156SOL    HW2 7368   5.529   1.706   4.704
 2157SOL     OW 7369   3.127   5.973   3.942
 2157SOL    HW1 7370   3.035   6.008   3.926
 2157SOL    HW2 7371   3.150   5.905   3.872
 2158SOL     OW 7372   3.523   0.385   0.064
 2158SOL    HW1 7373   3.464   0.463   0.085
 2158SOL    HW2 7374   3.480   0.301   0.098
 2159SOL     OW 7375   0.694   0.904   5.482
 2159SOL    HW1 7376   0.622   0.839   5.506
 2159SOL    HW2 7377   0.653   0.990   5.450
 2160SOL     OW 7378   6.005   6.685   0.304
 2160SOL    HW1 7379   6.038   6.601   0.260
 2160SOL    HW2 7380   6.082   6.729   0.352
 2161SOL     OW 7381   1.153   2.686   1.852
 2161SOL    HW1 7382   1.070   2.701   1.800
 2161SOL    HW2 7383   1.168   2.763   1.914
 2162SOL     OW 7384   0.938   6.985   1.629
 2162SOL    HW1 7385   0.877   6.952   1.557
 2162SOL    HW2 7386   1.033   6.971   1.601
 2163SOL     OW 7387   1.926   3.342   2.701
 2163SOL    HW1 7388   2.002   3.278   2.714
 2163SOL    HW2 7389   1.844   3.291   2.673
 2164SOL     OW 7390   1.934   2.861   2.766
 2164SOL    HW1 7391   2.007   2.796   2.788
 2164SOL    HW2 7392   1.965   2.954   2.786
 2165SOL     OW 7393   6.795   1.767   3.753
 2165SOL    HW1 7394   6.749   1.814   3.678
 2165SOL    HW2 7395   6.848   1.690   3.717
 2166SOL     OW 7396   6.771   4.330   2.774
 2166SOL    HW1 7397   6.859   4.319   2.820
 2166SOL    HW2 7398   6.701   4.357   2.841
 2167SOL     OW 7399   2.452   1.795   3.495
 2167SOL    HW1 7400   2.509   1.864   3.539
 2167SOL    HW2 7401   2.426   1.826   3.404
 2168SOL     OW 7402   1.567   2.024   3.100
 2168SOL    HW1 7403   1.567   2.104   3.040
 2168SOL    HW2 7404   1.476   2.013   3.141
 2169SOL     OW 7405   0.866   6.947   1.358
 2169SOL    HW1 7406   0.791   6.904   1.308
 2169SOL    HW2 7407   0.953   6.916   1.320
 2170SOL     OW 7408   1.176   3.859   5.694
 2170SOL    HW1 7409   1.216   3.938   5.742
 2170SOL    HW2 7410   1.114   3.892   5.623
 2171SOL     OW 7411   0.655   5.291   1.773
 2171SOL    HW1 7412   0.728   5.296   1.841
 2171SOL    HW2 7413   0.567   5.309   1.817
 2172SOL     OW 7414   1.274   1.390   4.529
 2172SOL    HW1 7415   1.206   1.338   4.477
 2172SOL    HW2 7416   1.311   1.463   4.471
 2173SOL     OW 7417   6.385   0.346   5.115
 2173SOL    HW1 7418   6.315   0.309   5.055
 2173SOL    HW2 7419   6.362   0.441   5.139
 2174SOL     OW 7420   6.484   6.613   5.909
 2174SOL    HW1 7421   6.479   6.691   5.847
 2174SOL    HW2 7422   6.442   6.637   5.997
 2175SOL     OW 7423   2.574   3.952   5.317
 2175SOL    HW1 7424   2.512   3.999   5.254
 2175SOL    HW2 7425   2.527   3.934   5.404
 2176SOL     OW 7426   5.511   2.530   1.520
 2176SOL    HW1 7427   5.592   2.565   1.472
 2176SOL    HW2 7428   5.435   2.521   1.455
 2177SOL     OW 7429   0.394   0.340   3.966
 2177SOL    HW1 7430   0.443   0.267   3.919
 2177SOL    HW2 7431   0.451   0.422   3.968
 2178SOL     OW 7432   0.593   2.010   2.529
 2178SOL    HW1 7433   0.500   2.023   2.562
 2178SOL    HW2 7434   0.592   1.978   2.435
 2179SOL     OW 7435   1.357   3.898   6.139
 2179SOL    HW1 7436   1.269   3.940   6.120
 2179SOL    HW2 7437   1.357   3.803   6.105
 2180SOL     OW 7438   0.804   6.379   2.527
 2180SOL    HW1 7439   0.893   6.399   2.486
 2180SOL    HW2 7440   0.802   6.412   2.621
 2181SOL     OW 7441   3.443   4.998   4.299
 2181SOL    HW1 7442   3.348   4.969   4.286
 2181SOL    HW2 7443   3.447   5.097   4.305
 2182SOL     OW 7444   0.184   5.665   2.220
 2182SOL    HW1 7445   0.207   5.757   2.251
 2182SOL    HW2 7446   0.121   5.670   2.143
 2183SOL     OW 7447   3.511   2.827   6.717
 2183SOL    HW1 7448   3.496   2.735   6.680
 2183SOL    HW2 7449   3.441   2.847   6.786
 2184SOL     OW 7450   6.432   1.330   6.732
 2184SOL    HW1 7451   6.520   1.341   6.777
 2184SOL    HW2 7452   6.393   1.420   6.712
 2185SOL     OW 7453   0.670   6.910   6.707
 2185SOL    HW1 7454   0.734   6.846   6.749
 2185SOL    HW2 7455   0.711   6.948   6.623
 2186SOL     OW 7456   6.852   4.416   5.592
 2186SOL    HW1 7457   6.927   4.478   5.613
 2186SOL    HW2 7458   6.888   4.327   5.563
 2187SOL     OW 7459   0.655   5.804   3.009
 2187SOL    HW1 7460   0.750   5.783   2.986
 2187SOL    HW2 7461   0.596   5.779   2.932
 2188SOL     OW 7462   2.498   0.094   0.856
 2188SOL    HW1 7463   2.508   0.175   0.799
 2188SOL    HW2 7464   2.426   0.109   0.924
 2189SOL     OW 7465   2.311   1.297   1.599
 2189SOL    HW1 7466   2.260   1.377   1.567
 2189SOL    HW2 7467   2.399   1.326   1.636
 2190SOL     OW 7468   6.369   3.990   2.347
 2190SOL    HW1 7469   6.311   3.916   2.313
 2190SOL    HW2 7470   6.455   3.951   2.381
 2191SOL     OW 7471   2.895   0.236   0.040
 2191SOL    HW1 7472   2.906   0.333   0.020
 2191SOL    HW2 7473   2.870   0.187   6.980
 2192SOL     OW 7474   4.823   1.685   1.096
 2192SOL    HW1 7475   4.823   1.682   0.996
 2192SOL    HW2 7476   4.898   1.628   1.131
 2193SOL     OW 7477   1.562   6.450   6.145
 2193SOL    HW1 7478   1.512   6.536   6.130
 2193SOL    HW2 7479   1.659   6.463   6.125
 2194SOL     OW 7480   1.137   3.702   6.072
 2194SOL    HW1 7481   1.060   3.683   6.011
 2194SOL    HW2 7482   1.222   3.695   6.020
 2195SOL     OW 7483   0.501   3.684   5.897
 2195SOL    HW1 7484   0.593   3.680   5.858
 2195SOL    HW2 7485   0.434   3.692   5.822
 2196SOL     OW 7486   2.784   0.460   6.002
 2196SOL    HW1 7487   2.737   0.426   6.083
 2196SOL    HW2 7488   2.745   0.548   5.975
 2197SOL     OW 7489   2.859   5.384   5.720
 2197SOL    HW1 7490   2.873   5.285   5.717
 2197SOL    HW2 7491   2.770   5.406   5.680
 2198SOL     OW 7492   0.434   0.386   6.789
 2198SOL    HW1 7493   0.394   0.364   6.877
 2198SOL    HW2 7494   0.531   0.361   6.789
 2199SOL     OW 7495   4.187   6.528   4.801
 2199SOL    HW1 7496   4.131   6.471   4.861
 2199SOL    HW2 7497   4.270   6.556   4.850
 2200SOL     OW 7498   2.508   2.166   3.965
 2200SOL    HW1 7499   2.482   2.121   4.050
 2200SOL    HW2 7500   2.586   2.226   3.981
 2201SOL     OW 7501   6.390   4.278   3.817
 2201SOL    HW1 7502   6.430   4.191   3.788
 2201SOL    HW2 7503   6.291   4.270   3.820
 2202SOL     OW 7504   3.584   6.432   2.361
 2202SOL    HW1 7505   3.674   6.445   2.320
 2202SOL    HW2 7506   3.527   6.375   2.300
 2203SOL     OW 7507   1.918   3.423   0.548
 2203SOL    HW1 7508   1.942   3.335   0.588
 2203SOL    HW2 7509   1.824   3.446   0.574
 2204SOL     OW 7510   5.377   3.471   0.935
 2204SOL    HW1 7511   5.390   3.500   0.840
 2204SOL    HW2 7512   5.280   3.470   0.957
 2205SOL     OW 7513   0.677   4.663   0.300
 2205SOL    HW1 7514   0.690   4.564   0.305
 2205SOL    HW2 7515   0.741   4.708   0.363
 2206SOL     OW 7516   3.050   2.167   6.123
 2206SOL    HW1 7517   3.134   2.222   6.120
 2206SOL    HW2 7518   3.006   2.169   6.034
 2207SOL     OW 7519   4.909   6.381   1.158
 2207SOL    HW1 7520   4.968   6.412   1.233
 2207SOL    HW2 7521   4.824   6.346   1.196
 2208SOL     OW 7522   0.161   5.763   3.875
 2208SOL    HW1 7523   0.169   5.703   3.795
 2208SOL    HW2 7524   0.139   5.856   3.844
 2209SOL     OW 7525   2.986   5.686   4.117
 2209SOL    HW1 7526   2.976   5.699   4.216
 2209SOL    HW2 7527   2.924   5.748   4.069
 2210SOL     OW 7528   4.700   0.021   0.696
 2210SOL    HW1 7529   4.797   0.002   0.692
 2210SOL    HW2 7530   4.686   0.119   0.714
 2211SOL     OW 7531   6.678   1.432   1.056
 2211SOL    HW1 7532   6.731   1.505   1.013
 2211SOL    HW2 7533   6.709   1.344   1.022
 2212SOL     OW 7534   2.583   6.048   6.807
 2212SOL    HW1 7535   2.519   6.121   6.782
 2212SOL    HW2 7536   2.566   5.968   6.750
 2213SOL     OW 7537   3.638   1.972   4.525
 2213SOL    HW1 7538   3.562   1.993   4.586
 2213SOL    HW2 7539   3.722   2.013   4.562
 2214SOL     OW 7540   4.393   3.596   6.824
 2214SOL    HW1 7541   4.475   3.540   6.839
 2214SOL    HW2 7542   4.418   3.677   6.770
 2215SOL     OW 7543   4.610   0.028   6.821
 2215SOL    HW1 7544   4.551   0.014   6.901
 2215SOL    HW2 7545   4.582   6.989   6.748
 2216SOL     OW 7546   0.577   6.680   6.403
 2216SOL    HW1 7547   0.488   6.683   6.448
 2216SOL    HW2 7548   0.645   6.641   6.465
 2217SOL     OW 7549   3.661   0.527   3.663
 2217SOL    HW1 7550   3.617   0.586   3.730
 2217SOL    HW2 7551   3.761   0.534   3.672
 2218SOL     OW 7552   0.716   5.838   5.863
 2218SOL    HW1 7553   0.708   5.925   5.816
 2218SOL    HW2 7554   0.747   5.853   5.957
 2219SOL     OW 7555   5.902   0.891   0.518
 2219SOL    HW1 7556   5.806   0.892   0.545
 2219SOL    HW2 7557   5.940   0.983   0.527
 2220SOL     OW 7558   0.956   5.971   5.519
 2220SOL    HW1 7559   0.898   5.907   5.570
 2220SOL    HW2 7560   1.037   5.923   5.485
 2221SOL     OW 7561   6.444   1.193   4.210
 2221SOL    HW1 7562   6.540   1.219   4.207
 2221SOL    HW2 7563   6.403   1.223   4.296
 2222SOL     OW 7564   4.752   6.332   1.918
 2222SOL    HW1 7565   4.829   6.381   1.959
 2222SOL    HW2 7566   4.696   6.292   1.991
 2223SOL     OW 7567   0.042   5.894   5.433
 2223SOL    HW1 7568   7.013   5.978   5.438
 2223SOL    HW2 7569   0.133   5.913   5.396
 2224SOL     OW 7570   5.634   4.143   0.794
 2224SOL    HW1 7571   5.579   4.103   0.867
 2224SOL    HW2 7572   5.730   4.117   0.806
 2225SOL     OW 7573   0.450   6.516   2.813
 2225SOL    HW1 7574   0.452   6.466   2.900
 2225SOL    HW2 7575   0.363   6.564   2.804
 2226SOL     OW 7576   2.225   5.340   0.708
 2226SOL    HW1 7577   2.198   5.275   0.636
 2226SOL    HW2 7578   2.262   5.290   0.786
 2227SOL     OW 7579   3.929   2.210   1.859
 2227SOL    HW1 7580   3.895   2.259   1.779
 2227SOL    HW2 7581   3.853   2.187   1.920
 2228SOL     OW 7582   5.355   4.747   6.957
 2228SOL    HW1 7583   5.449   4.734   6.989
 2228SOL    HW2 7584   5.335   4.680   6.886
 2229SOL     OW 7585   3.807   3.443   3.962
 2229SOL    HW1 7586   3.752   3.363   3.936
 2229SOL    HW2 7587   3.881   3.413   4.023
 2230SOL     OW 7588   5.614   0.082   0.718
 2230SOL    HW1 7589   5.676   0.105   0.644
 2230SOL    HW2 7590   5.628   7.010   0.745
 2231SOL     OW 7591   1.414   0.189   6.988
 2231SOL    HW1 7592   1.435   0.168   6.893
 2231SOL    HW2 7593   1.352   0.268   6.992
 2232SOL     OW 7594   1.127   0.907   5.519
 2232SOL    HW1 7595   1.183   0.983   5.551
 2232SOL    HW2 7596   1.137   0.829   5.581
 2233SOL     OW 7597   2.885   4.002   0.483
 2233SOL    HW1 7598   2.911   3.976   0.576
 2233SOL    HW2 7599   2.915   4.095   0.464
 2234SOL     OW 7600   4.567   1.546   1.392
 2234SOL    HW1 7601   4.567   1.631   1.445
 2234SOL    HW2 7602   4.568   1.569   1.294
 2235SOL     OW 7603   1.546   1.537   3.126
 2235SOL    HW1 7604   1.642   1.566   3.129
 2235SOL    HW2 7605   1.505   1.550   3.216
 2236SOL     OW 7606   1.891   4.164   5.258
 2236SOL    HW1 7607   1.843   4.251   5.267
 2236SOL    HW2 7608   1.843   4.106   5.192
 2237SOL     OW 7609   6.789   5.251   5.605
 2237SOL    HW1 7610   6.814   5.316   5.533
 2237SOL    HW2 7611   6.864   5.185   5.617
 2238SOL     OW 7612   5.382   4.408   2.052
 2238SOL    HW1 7613   5.475   4.370   2.047
 2238SOL    HW2 7614   5.339   4.404   1.962
 2239SOL     OW 7615   4.028   6.784   3.336
 2239SOL    HW1 7616   3.957   6.771   3.406
 2239SOL    HW2 7617   3.997   6.747   3.249
 2240SOL     OW 7618   5.008   5.292   3.404
 2240SOL    HW1 7619   5.078   5.223   3.385
 2240SOL    HW2 7620   4.964   5.320   3.319
 2241SOL     OW 7621   0.488   0.685   1.655
 2241SOL    HW1 7622   0.527   0.751   1.591
 2241SOL    HW2 7623   0.554   0.612   1.672
 2242SOL     OW 7624   4.881   3.238   3.494
 2242SOL    HW1 7625   4.906   3.330   3.464
 2242SOL    HW2 7626   4.790   3.216   3.459
 2243SOL     OW 7627   1.425   6.128   0.597
 2243SOL    HW1 7628   1.450   6.225   0.590
 2243SOL    HW2 7629   1.326   6.118   0.587
 2244SOL     OW 7630   2.891   0.103   0.264
 2244SOL    HW1 7631   2.821   0.041   0.299
 2244SOL    HW2 7632   2.854   0.152   0.185
 2245SOL     OW 7633   0.401   0.282   0.006
 2245SOL    HW1 7634   0.439   0.190   7.015
 2245SOL    HW2 7635   0.323   0.276   0.069
 2246SOL     OW 7636   2.315   0.942   5.259
 2246SOL    HW1 7637   2.347   0.976   5.171
 2246SOL    HW2 7638   2.331   1.012   5.329
 2247SOL     OW 7639   3.082   3.928   2.579
 2247SOL    HW1 7640   2.984   3.937   2.600
 2247SOL    HW2 7641   3.106   3.831   2.573
 2248SOL     OW 7642   5.158   3.932   5.239
 2248SOL    HW1 7643   5.104   3.859   5.198
 2248SOL    HW2 7644   5.156   4.013   5.180
 2249SOL     OW 7645   1.786   6.498   4.088
 2249SOL    HW1 7646   1.781   6.556   4.007
 2249SOL    HW2 7647   1.863   6.528   4.145
 2250SOL     OW 7648   4.299   4.319   6.394
 2250SOL    HW1 7649   4.373   4.385   6.382
 2250SOL    HW2 7650   4.213   4.368   6.408
 2251SOL     OW 7651   5.566   6.861   5.445
 2251SOL    HW1 7652   5.513   6.921   5.504
 2251SOL    HW2 7653   5.662   6.863   5.472
 2252SOL     OW 7654   4.271   1.394   2.798
 2252SOL    HW1 7655   4.246   1.486   2.829
 2252SOL    HW2 7656   4.193   1.352   2.751
 2253SOL     OW 7657   0.413   3.561   0.610
 2253SOL    HW1 7658   0.441   3.571   0.514
 2253SOL    HW2 7659   0.477   3.611   0.669
 2254SOL     OW 7660   3.538   3.258   2.897
 2254SOL    HW1 7661   3.618   3.245   2.838
 2254SOL    HW2 7662   3.502   3.169   2.924
 2255SOL     OW 7663   3.177   3.817   5.992
 2255SOL    HW1 7664   3.228   3.890   6.037
 2255SOL    HW2 7665   3.086   3.809   6.034
 2256SOL     OW 7666   4.835   6.708   1.926
 2256SOL    HW1 7667   4.885   6.626   1.954
 2256SOL    HW2 7668   4.869   6.787   1.977
 2257SOL     OW 7669   0.534   1.275   4.928
 2257SOL    HW1 7670   0.457   1.213   4.944
 2257SOL    HW2 7671   0.567   1.311   5.016
 2258SOL     OW 7672   2.831   5.998   3.795
 2258SOL    HW1 7673   2.810   5.968   3.702
 2258SOL    HW2 7674   2.810   6.096   3.804
 2259SOL     OW 7675   6.201   2.106   4.560
 2259SOL    HW1 7676   6.293   2.145   4.558
 2259SOL    HW2 7677   6.192   2.040   4.485
 2260SOL     OW 7678   1.192   3.680   1.539
 2260SOL    HW1 7679   1.242   3.622   1.474
 2260SOL    HW2 7680   1.101   3.698   1.503
 2261SOL     OW 7681   5.871   3.941   6.642
 2261SOL    HW1 7682   5.962   3.899   6.642
 2261SOL    HW2 7683   5.808   3.884   6.588
 2262SOL     OW 7684   6.472   6.921   4.544
 2262SOL    HW1 7685   6.490   6.864   4.463
 2262SOL    HW2 7686   6.423   6.867   4.612
 2263SOL     OW 7687   1.517   4.737   6.884
 2263SOL    HW1 7688   1.563   4.811   6.934
 2263SOL    HW2 7689   1.425   4.723   6.922
 2264SOL     OW 7690   1.908   0.156   5.677
 2264SOL    HW1 7691   1.891   0.059   5.694
 2264SOL    HW2 7692   1.833   0.210   5.715
 2265SOL     OW 7693   0.492   6.275   4.461
 2265SOL    HW1 7694   0.498   6.350   4.396
 2265SOL    HW2 7695   0.465   6.191   4.414
 2266SOL     OW 7696   4.594   1.860   6.660
 2266SOL    HW1 7697   4.559   1.770   6.687
 2266SOL    HW2 7698   4.563   1.880   6.567
 2267SOL     OW 7699   4.847   3.086   4.306
 2267SOL    HW1 7700   4.827   3.182   4.283
 2267SOL    HW2 7701   4.852   3.032   4.223
 2268SOL     OW 7702   0.009   5.026   5.895
 2268SOL    HW1 7703   6.962   5.080   5.943
 2268SOL    HW2 7704   0.013   4.935   5.935
 2269SOL     OW 7705   2.107   2.774   5.150
 2269SOL    HW1 7706   2.052   2.799   5.230
 2269SOL    HW2 7707   2.204   2.782   5.172
 2270SOL     OW 7708   4.938   1.771   6.093
 2270SOL    HW1 7709   4.951   1.769   6.192
 2270SOL    HW2 7710   5.010   1.827   6.051
 2271SOL     OW 7711   5.291   4.956   5.873
 2271SOL    HW1 7712   5.308   4.862   5.902
 2271SOL    HW2 7713   5.230   4.955   5.793
 2272SOL     OW 7714   5.564   1.024   5.944
 2272SOL    HW1 7715   5.490   1.090   5.956
 2272SOL    HW2 7716   5.647   1.058   5.988
 2273SOL     OW 7717   1.629   2.890   2.006
 2273SOL    HW1 7718   1.606   2.840   1.922
 2273SOL    HW2 7719   1.727   2.882   2.023
 2274SOL     OW 7720   0.493   0.950   6.596
 2274SOL    HW1 7721   0.403   0.926   6.558
 2274SOL    HW2 7722   0.495   0.926   6.693
 2275SOL     OW 7723   5.698   4.947   2.456
 2275SOL    HW1 7724   5.643   4.873   2.416
 2275SOL    HW2 7725   5.637   5.009   2.505
 2276SOL     OW 7726   1.307   1.916   1.153
 2276SOL    HW1 7727   1.348   2.004   1.128
 2276SOL    HW2 7728   1.208   1.923   1.153
 2277SOL     OW 7729   3.637   3.986   3.398
 2277SOL    HW1 7730   3.610   3.915   3.334
 2277SOL    HW2 7731   3.728   3.965   3.435
 2278SOL     OW 7732   0.816   2.117   4.022
 2278SOL    HW1 7733   0.717   2.106   4.007
 2278SOL    HW2 7734   0.854   2.029   4.050
 2279SOL     OW 7735   0.633   6.220   5.315
 2279SOL    HW1 7736   0.665   6.129   5.341
 2279SOL    HW2 7737   0.624   6.278   5.396
 2280SOL     OW 7738   5.010   1.600   4.922
 2280SOL    HW1 7739   5.067   1.587   4.841
 2280SOL    HW2 7740   4.941   1.528   4.927
 2281SOL     OW 7741   5.297   6.805   2.869
 2281SOL    HW1 7742   5.227   6.815   2.940
 2281SOL    HW2 7743   5.299   6.710   2.837
 2282SOL     OW 7744   4.285   5.998   5.816
 2282SOL    HW1 7745   4.239   5.975   5.730
 2282SOL    HW2 7746   4.372   6.043   5.796
 2283SOL     OW 7747   0.690   0.746   3.880
 2283SOL    HW1 7748   0.756   0.773   3.950
 2283SOL    HW2 7749   0.735   0.686   3.813
 2284SOL     OW 7750   1.490   3.016   6.704
 2284SOL    HW1 7751   1.505   3.084   6.632
 2284SOL    HW2 7752   1.441   2.938   6.667
 2285SOL     OW 7753   1.218   4.219   6.531
 2285SOL    HW1 7754   1.143   4.154   6.544
 2285SOL    HW2 7755   1.273   4.191   6.452
 2286SOL     OW 7756   4.570   5.955   4.219
 2286SOL    HW1 7757   4.608   6.027   4.277
 2286SOL    HW2 7758   4.645   5.900   4.182
 2287SOL     OW 7759   2.046   0.824   3.332
 2287SOL    HW1 7760   2.121   0.886   3.353
 2287SOL    HW2 7761   2.079   0.730   3.333
 2288SOL     OW 7762   0.131   6.435   3.097
 2288SOL    HW1 7763   0.222   6.397   3.116
 2288SOL    HW2 7764   0.068   6.409   3.169
 2289SOL     OW 7765   1.324   5.825   1.864
 2289SOL    HW1 7766   1.279   5.861   1.783
 2289SOL    HW2 7767   1.312   5.889   1.940
 2290SOL     OW 7768   1.070   5.238   0.806
 2290SOL    HW1 7769   1.097   5.302   0.878
 2290SOL    HW2 7770   0.988   5.272   0.760
 2291SOL     OW 7771   2.892   2.161   6.345
 2291SOL    HW1 7772   2.809   2.212   6.322
 2291SOL    HW2 7773   2.954   2.162   6.266
 2292SOL     OW 7774   1.412   1.044   4.484
 2292SOL    HW1 7775   1.383   1.139   4.474
 2292SOL    HW2 7776   1.335   0.989   4.518
 2293SOL     OW 7777   5.395   5.209   2.055
 2293SOL    HW1 7778   5.359   5.291   2.010
 2293SOL    HW2 7779   5.435   5.234   2.143
 2294SOL     OW 7780   4.548   6.453   6.812
 2294SOL    HW1 7781   4.544   6.357   6.784
 2294SOL    HW2 7782   4.551   6.458   6.912
 2295SOL     OW 7783   0.017   2.068   1.467
 2295SOL    HW1 7784   0.056   2.048   1.377
 2295SOL    HW2 7785   0.032   2.165   1.488
 2296SOL     OW 7786   2.955   6.859   6.957
 2296SOL    HW1 7787   2.968   6.800   6.877
 2296SOL    HW2 7788   2.876   6.828   7.009
 2297SOL     OW 7789   3.850   5.007   5.771
 2297SOL    HW1 7790   3.869   5.068   5.695
 2297SOL    HW2 7791   3.755   5.019   5.801
 2298SOL     OW 7792   3.637   2.520   0.789
 2298SOL    HW1 7793   3.634   2.526   0.689
 2298SOL    HW2 7794   3.616   2.426   0.818
 2299SOL     OW 7795   5.043   5.715   6.888
 2299SOL    HW1 7796   5.110   5.640   6.885
 2299SOL    HW2 7797   4.977   5.704   6.813
 2300SOL     OW 7798   1.903   5.258   0.954
 2300SOL    HW1 7799   1.943   5.326   0.892
 2300SOL    HW2 7800   1.940   5.272   1.046
 2301SOL     OW 7801   4.067   3.153   2.482
 2301SOL    HW1 7802   4.157   3.135   2.442
 2301SOL    HW2 7803   4.051   3.087   2.556
 2302SOL     OW 7804   3.493   5.748   2.791
 2302SOL    HW1 7805   3.469   5.841   2.763
 2302SOL    HW2 7806   3.582   5.723   2.752
 2303SOL     OW 7807   1.483   2.206   4.446
 2303SOL    HW1 7808   1.515   2.290   4.490
 2303SOL    HW2 7809   1.479   2.220   4.347
 2304SOL     OW 7810   2.110   1.104   3.622
 2304SOL    HW1 7811   2.090   1.027   3.682
 2304SOL    HW2 7812   2.026   1.155   3.604
 2305SOL     OW 7813   3.192   5.257   2.571
 2305SOL    HW1 7814   3.176   5.338   2.627
 2305SOL    HW2 7815   3.206   5.177   2.630
 2306SOL     OW 7816   1.596   4.121   1.549
 2306SOL    HW1 7817   1.595   4.025   1.520
 2306SOL    HW2 7818   1.507   4.145   1.586
 2307SOL     OW 7819   0.624   2.444   3.159
 2307SOL    HW1 7820   0.615   2.526   3.216
 2307SOL    HW2 7821   0.586   2.462   3.068
 2308SOL     OW 7822   0.116   6.939   6.895
 2308SOL    HW1 7823   0.045   6.914   6.829
 2308SOL    HW2 7824   0.163   7.022   6.864
 2309SOL     OW 7825   3.851   5.927   6.271
 2309SOL    HW1 7826   3.875   5.864   6.345
 2309SOL    HW2 7827   3.900   5.900   6.188
 2310SOL     OW 7828   5.144   1.139   1.857
 2310SOL    HW1 7829   5.121   1.126   1.761
 2310SOL    HW2 7830   5.072   1.192   1.902
 2311SOL     OW 7831   2.757   0.000   3.040
 2311SOL    HW1 7832   2.683   0.052   2.996
 2311SOL    HW2 7833   2.844   0.026   2.998
 2312SOL     OW 7834   3.924   0.337   3.348
 2312SOL    HW1 7835   4.021   0.312   3.351
 2312SOL    HW2 7836   3.870   0.258   3.318
 2313SOL     OW 7837   4.983   4.082   2.319
 2313SOL    HW1 7838   5.048   4.135   2.264
 2313SOL    HW2 7839   4.908   4.050   2.260
 2314SOL     OW 7840   6.213   6.976   3.858
 2314SOL    HW1 7841   6.235   6.893   3.806
 2314SOL    HW2 7842   6.191   0.027   3.795
 2315SOL     OW 7843   4.359   4.527   5.813
 2315SOL    HW1 7844   4.374   4.473   5.895
 2315SOL    HW2 7845   4.263   4.554   5.807
 2316SOL     OW 7846   2.992   1.091   5.967
 2316SOL    HW1 7847   3.082   1.060   5.995
 2316SOL    HW2 7848   3.000   1.179   5.920
 2317SOL     OW 7849   6.361   6.173   3.993
 2317SOL    HW1 7850   6.409   6.252   3.954
 2317SOL    HW2 7851   6.314   6.201   4.077
 2318SOL     OW 7852   1.936   4.450   5.065
 2318SOL    HW1 7853   1.960   4.400   4.981
 2318SOL    HW2 7854   2.019   4.468   5.118
 2319SOL     OW 7855   2.063   4.985   4.752
 2319SOL    HW1 7856   2.119   5.044   4.695
 2319SOL    HW2 7857   2.002   5.040   4.809
 2320SOL     OW 7858   1.300   3.150   5.327
 2320SOL    HW1 7859   1.271   3.180   5.419
 2320SOL    HW2 7860   1.388   3.192   5.305
 2321SOL     OW 7861   2.789   5.147   6.044
 2321SOL    HW1 7862   2.828   5.086   6.113
 2321SOL    HW2 7863   2.850   5.225   6.030
 2322SOL     OW 7864   2.112   3.707   2.445
 2322SOL    HW1 7865   2.117   3.633   2.379
 2322SOL    HW2 7866   2.086   3.670   2.535
 2323SOL     OW 7867   2.476   4.888   1.799
 2323SOL    HW1 7868   2.548   4.835   1.843
 2323SOL    HW2 7869   2.517   4.961   1.744
 2324SOL     OW 7870   0.963   5.326   2.142
 2324SOL    HW1 7871   0.942   5.345   2.046
 2324SOL    HW2 7872   0.948   5.229   2.160
 2325SOL     OW 7873   6.858   4.952   1.692
 2325SOL    HW1 7874   6.798   4.872   1.690
 2325SOL    HW2 7875   6.903   4.962   1.603
 2326SOL     OW 7876   0.972   7.009   6.978
 2326SOL    HW1 7877   1.012   0.049   6.911
 2326SOL    HW2 7878   1.037   6.995   0.030
 2327SOL     OW 7879   6.759   0.304   2.418
 2327SOL    HW1 7880   6.823   0.343   2.485
 2327SOL    HW2 7881   6.683   0.366   2.404
 2328SOL     OW 7882   1.474   1.936   2.243
 2328SOL    HW1 7883   1.456   1.851   2.293
 2328SOL    HW2 7884   1.551   1.923   2.181
 2329SOL     OW 7885   1.122   5.021   3.932
 2329SOL    HW1 7886   1.170   4.968   4.002
 2329SOL    HW2 7887   1.028   5.036   3.962
 2330SOL     OW 7888   6.695   3.217   0.516
 2330SOL    HW1 7889   6.790   3.248   0.515
 2330SOL    HW2 7890   6.641   3.277   0.575
 2331SOL     OW 7891   3.464   6.026   0.054
 2331SOL    HW1 7892   3.473   6.030   6.978
 2331SOL    HW2 7893   3.543   6.069   0.097
 2332SOL     OW 7894   5.830   0.026   5.766
 2332SOL    HW1 7895   5.878   0.093   5.708
 2332SOL    HW2 7896   5.896   6.985   5.804
 2333SOL     OW 7897   6.893   4.943   2.896
 2333SOL    HW1 7898   6.876   5.029   2.945
 2333SOL    HW2 7899   6.877   4.957   2.799
 2334SOL     OW 7900   2.456   1.224   6.382
 2334SOL    HW1 7901   2.454   1.129   6.414
 2334SOL    HW2 7902   2.385   1.236   6.312
 2335SOL     OW 7903   6.172   1.981   4.320
 2335SOL    HW1 7904   6.267   1.963   4.295
 2335SOL    HW2 7905   6.113   1.911   4.279
 2336SOL     OW 7906   2.492   1.521   3.527
 2336SOL    HW1 7907   2.413   1.471   3.492
 2336SOL    HW2 7908   2.477   1.619   3.517
 2337SOL     OW 7909   4.250   1.745   1.148
 2337SOL    HW1 7910   4.221   1.841   1.138
 2337SOL    HW2 7911   4.299   1.717   1.065
 2338SOL     OW 7912   0.662   3.386   4.144
 2338SOL    HW1 7913   0.709   3.353   4.226
 2338SOL    HW2 7914   0.641   3.483   4.155
 2339SOL     OW 7915   3.170   3.486   2.767
 2339SOL    HW1 7916   3.165   3.456   2.672
 2339SOL    HW2 7917   3.253   3.450   2.809
 2340SOL     OW 7918   0.673   4.973   6.587
 2340SOL    HW1 7919   0.579   4.940   6.599
 2340SOL    HW2 7920   0.730   4.936   6.660
 2341SOL     OW 7921   2.364   4.403   3.101
 2341SOL    HW1 7922   2.317   4.333   3.048
 2341SOL    HW2 7923   2.378   4.369   3.194
 2342SOL     OW 7924   2.958   6.604   4.497
 2342SOL    HW1 7925   2.985   6.580   4.404
 2342SOL    HW2 7926   3.032   6.656   4.541
 2343SOL     OW 7927   2.246   6.309   3.142
 2343SOL    HW1 7928   2.174   6.296   3.074
 2343SOL    HW2 7929   2.253   6.228   3.200
 2344SOL     OW 7930   6.750   5.144   0.797
 2344SOL    HW1 7931   6.734   5.144   0.698
 2344SOL    HW2 7932   6.724   5.054   0.834
 2345SOL     OW 7933   2.566   5.717   4.772
 2345SOL    HW1 7934   2.480   5.769   4.775
 2345SOL    HW2 7935   2.632   5.760   4.835
 2346SOL     OW 7936   4.056   3.282   6.094
 2346SOL    HW1 7937   3.978   3.340   6.117
 2346SOL    HW2 7938   4.061   3.270   5.995
 2347SOL     OW 7939   1.474   2.335   1.537
 2347SOL    HW1 7940   1.478   2.313   1.634
 2347SOL    HW2 7941   1.380   2.326   1.504
 2348SOL     OW 7942   1.692   6.469   3.097
 2348SOL    HW1 7943   1.593   6.473   3.085
 2348SOL    HW2 7944   1.718   6.380   3.135
 2349SOL     OW 7945   0.715   3.886   6.594
 2349SOL    HW1 7946   0.676   3.871   6.685
 2349SOL    HW2 7947   0.764   3.804   6.565
 2350SOL     OW 7948   5.719   4.172   5.680
 2350SOL    HW1 7949   5.784   4.210   5.746
 2350SOL    HW2 7950   5.765   4.105   5.622
 2351SOL     OW 7951   2.992   4.825   2.907
 2351SOL    HW1 7952   2.909   4.777   2.880
 2351SOL    HW2 7953   3.019   4.888   2.834
 2352SOL     OW 7954   6.673   3.082   3.436
 2352SOL    HW1 7955   6.614   3.027   3.377
 2352SOL    HW2 7956   6.646   3.179   3.429
 2353SOL     OW 7957   4.152   5.021   5.495
 2353SOL    HW1 7958   4.088   5.092   5.522
 2353SOL    HW2 7959   4.124   4.982   5.407
 2354SOL     OW 7960   2.642   2.407   4.283
 2354SOL    HW1 7961   2.628   2.483   4.347
 2354SOL    HW2 7962   2.737   2.376   4.290
 2355SOL     OW 7963   2.312   6.122   4.886
 2355SOL    HW1 7964   2.325   6.031   4.849
 2355SOL    HW2 7965   2.278   6.183   4.814
 2356SOL     OW 7966   0.795   2.816   7.003
 2356SOL    HW1 7967   0.833   2.812   6.911
 2356SOL    HW2 7968   0.841   2.888   0.032
 2357SOL     OW 7969   3.317   1.269   1.636
 2357SOL    HW1 7970   3.374   1.204   1.686
 2357SOL    HW2 7971   3.320   1.358   1.681
 2358SOL     OW 7972   2.577   4.917   5.832
 2358SOL    HW1 7973   2.575   4.936   5.930
 2358SOL    HW2 7974   2.663   4.870   5.809
 2359SOL     OW 7975   1.520   7.017   5.390
 2359SOL    HW1 7976   1.523   7.022   5.291
 2359SOL    HW2 7977   1.582   0.061   5.430
 2360SOL     OW 7978   6.749   3.523   1.011
 2360SOL    HW1 7979   6.744   3.468   0.927
 2360SOL    HW2 7980   6.826   3.492   1.066
 2361SOL     OW 7981   2.899   1.202   6.193
 2361SOL    HW1 7982   2.955   1.150   6.258
 2361SOL    HW2 7983   2.928   1.182   6.100
 2362SOL     OW 7984   3.366   4.919   3.575
 2362SOL    HW1 7985   3.452   4.922   3.526
 2362SOL    HW2 7986   3.378   4.868   3.661
 2363SOL     OW 7987   3.806   2.133   3.162
 2363SOL    HW1 7988   3.761   2.218   3.190
 2363SOL    HW2 7989   3.776   2.109   3.069
 2364SOL     OW 7990   0.896   2.757   1.695
 2364SOL    HW1 7991   0.890   2.775   1.597
 2364SOL    HW2 7992   0.839   2.823   1.745
 2365SOL     OW 7993   5.918   2.013   6.749
 2365SOL    HW1 7994   5.863   1.965   6.681
 2365SOL    HW2 7995   6.014   1.987   6.738
 2366SOL     OW 7996   3.655   5.422   0.658
 2366SOL    HW1 7997   3.677   5.396   0.564
 2366SOL    HW2 7998   3.637   5.340   0.712
 2367SOL     OW 7999   2.373   2.909   0.524
 2367SOL    HW1 8000   2.313   2.843   0.569
 2367SOL    HW2 8001   2.364   2.998   0.568
 2368SOL     OW 8002   5.574   0.481   3.806
 2368SOL    HW1 8003   5.543   0.576   3.808
 2368SOL    HW2 8004   5.643   0.467   3.877
 2369SOL     OW 8005   1.952   6.934   4.051
 2369SOL    HW1 8006   2.025   6.984   4.099
 2369SOL    HW2 8007   1.958   6.953   3.953
 2370SOL     OW 8008   5.897   2.738   6.691
 2370SOL    HW1 8009   5.820   2.724   6.752
 2370SOL    HW2 8010   5.883   2.822   6.638
 2371SOL     OW 8011   2.273   0.014   1.964
 2371SOL    HW1 8012   2.210   0.041   1.891
 2371SOL    HW2 8013   2.221   7.000   2.041
 2372SOL     OW 8014   0.133   2.813   2.338
 2372SOL    HW1 8015   0.085   2.830   2.252
 2372SOL    HW2 8016   0.182   2.896   2.366
 2373SOL     OW 8017   1.923   3.570   5.569
 2373SOL    HW1 8018   1.957   3.648   5.517
 2373SOL    HW2 8019   1.991   3.541   5.636
 2374SOL     OW 8020   6.354   2.130   5.285
 2374SOL    HW1 8021   6.319   2.040   5.260
 2374SOL    HW2 8022   6.408   2.168   5.210
 2375SOL     OW 8023   3.369   5.550   5.845
 2375SOL    HW1 8024   3.274   5.519   5.834
 2375SOL    HW2 8025   3.430   5.471   5.842
 2376SOL     OW 8026   6.054   3.957   3.610
 2376SOL    HW1 8027   5.967   3.998   3.582
 2376SOL    HW2 8028   6.085   3.894   3.539
 2377SOL     OW 8029   3.284   3.509   3.689
 2377SOL    HW1 8030   3.198   3.541   3.650
 2377SOL    HW2 8031   3.290   3.537   3.785
 2378SOL     OW 8032   4.933   2.155   0.209
 2378SOL    HW1 8033   4.843   2.135   0.171
 2378SOL    HW2 8034   4.948   2.253   0.210
 2379SOL     OW 8035   6.483   1.043   0.546
 2379SOL    HW1 8036   6.511   1.092   0.463
 2379SOL    HW2 8037   6.481   1.107   0.623
 2380SOL     OW 8038   6.695   2.709   0.463
 2380SOL    HW1 8039   6.720   2.761   0.545
 2380SOL    HW2 8040   6.636   2.633   0.489
 2381SOL     OW 8041   2.096   5.937   3.594
 2381SOL    HW1 8042   2.103   5.883   3.510
 2381SOL    HW2 8043   2.183   5.984   3.611
 2382SOL     OW 8044   1.578   3.127   4.402
 2382SOL    HW1 8045   1.526   3.210   4.383
 2382SOL    HW2 8046   1.639   3.143   4.480
 2383SOL     OW 8047   6.677   6.189   0.933
 2383SOL    HW1 8048   6.642   6.283   0.933
 2383SOL    HW2 8049   6.627   6.135   1.001
 2384SOL     OW 8050   5.060   2.105   2.049
 2384SOL    HW1 8051   5.082   2.038   2.119
 2384SOL    HW2 8052   5.110   2.190   2.066
 2385SOL     OW 8053   0.172   0.865   6.778
 2385SOL    HW1 8054   0.138   0.921   6.854
 2385SOL    HW2 8055   0.237   0.797   6.813
 2386SOL     OW 8056   5.007   5.735   4.537
 2386SOL    HW1 8057   4.975   5.645   4.507
 2386SOL    HW2 8058   5.107   5.737   4.538
 2387SOL     OW 8059   1.633   1.066   4.240
 2387SOL    HW1 8060   1.596   1.118   4.318
 2387SOL    HW2 8061   1.730   1.087   4.229
 2388SOL     OW 8062   6.559   2.953   3.857
 2388SOL    HW1 8063   6.638   2.970   3.798
 2388SOL    HW2 8064   6.537   2.855   3.856
 2389SOL     OW 8065   4.399   4.495   3.522
 2389SOL    HW1 8066   4.457   4.426   3.478
 2389SOL    HW2 8067   4.429   4.508   3.617
 2390SOL     OW 8068   4.001   3.897   2.866
 2390SOL    HW1 8069   3.924   3.953   2.835
 2390SOL    HW2 8070   3.991   3.879   2.964
 2391SOL     OW 8071   4.883   4.611   6.270
 2391SOL    HW1 8072   4.965   4.628   6.214
 2391SOL    HW2 8073   4.884   4.517   6.303
 2392SOL     OW 8074   2.507   6.928   6.618
 2392SOL    HW1 8075   2.549   6.880   6.694
 2392SOL    HW2 8076   2.531   6.884   6.532
 2393SOL     OW 8077   4.524   4.498   6.405
 2393SOL    HW1 8078   4.621   4.524   6.396
 2393SOL    HW2 8079   4.505   4.474   6.501
 2394SOL     OW 8080   0.017   4.179   4.934
 2394SOL    HW1 8081   0.107   4.159   4.973
 2394SOL    HW2 8082   6.983   4.223   5.004
 2395SOL     OW 8083   4.836   6.665   5.947
 2395SOL    HW1 8084   4.874   6.616   5.869
 2395SOL    HW2 8085   4.904   6.671   6.019
 2396SOL     OW 8086   4.003   5.340   1.143
 2396SOL    HW1 8087   4.054   5.270   1.192
 2396SOL    HW2 8088   3.957   5.300   1.064
 2397SOL     OW 8089   0.301   4.357   4.284
 2397SOL    HW1 8090   0.398   4.379   4.289
 2397SOL    HW2 8091   0.256   4.387   4.369
 2398SOL     OW 8092   5.051   4.265   6.496
 2398SOL    HW1 8093   5.013   4.233   6.410
 2398SOL    HW2 8094   4.978   4.303   6.553
 2399SOL     OW 8095   4.293   1.212   1.207
 2399SOL    HW1 8096   4.284   1.125   1.255
 2399SOL    HW2 8097   4.292   1.287   1.274
 2400SOL     OW 8098   2.401   4.327   0.654
 2400SOL    HW1 8099   2.422   4.230   0.654
 2400SOL    HW2 8100   2.445   4.370   0.733
 2401SOL     OW 8101   5.964   6.198   6.137
 2401SOL    HW1 8102   6.036   6.265   6.119
 2401SOL    HW2 8103   5.879   6.246   6.160
 2402SOL     OW 8104   1.027   6.946   4.072
 2402SOL    HW1 8105   0.995   6.852   4.066
 2402SOL    HW2 8106   1.124   6.951   4.047
 2403SOL     OW 8107   0.934   2.859   5.406
 2403SOL    HW1 8108   0.994   2.916   5.350
 2403SOL    HW2 8109   0.954   2.877   5.503
 2404SOL     OW 8110   2.217   0.878   1.088
 2404SOL    HW1 8111   2.192   0.921   1.001
 2404SOL    HW2 8112   2.307   0.836   1.080
 2405SOL     OW 8113   3.313   4.073   2.566
 2405SOL    HW1 8114   3.318   4.089   2.468
 2405SOL    HW2 8115   3.230   4.021   2.587
 2406SOL     OW 8116   4.108   1.431   0.874
 2406SOL    HW1 8117   4.193   1.465   0.835
 2406SOL    HW2 8118   4.032   1.455   0.813
 2407SOL     OW 8119   5.478   1.817   3.460
 2407SOL    HW1 8120   5.433   1.900   3.491
 2407SOL    HW2 8121   5.411   1.757   3.416
 2408SOL     OW 8122   4.567   4.548   2.061
 2408SOL    HW1 8123   4.629   4.542   2.140
 2408SOL    HW2 8124   4.560   4.458   2.018
 2409SOL     OW 8125   2.348   3.789   1.255
 2409SOL    HW1 8126   2.436   3.826   1.224
 2409SOL    HW2 8127   2.279   3.862   1.252
 2410SOL     OW 8128   3.884   3.120   4.065
 2410SOL    HW1 8129   3.971   3.161   4.038
 2410SOL    HW2 8130   3.898   3.068   4.149
 2411SOL     OW 8131   5.199   6.642   4.941
 2411SOL    HW1 8132   5.280   6.612   4.892
 2411SOL    HW2 8133   5.148   6.562   4.974
 2412SOL     OW 8134   5.184   3.821   1.187
 2412SOL    HW1 8135   5.270   3.801   1.140
 2412SOL    HW2 8136   5.188   3.783   1.280
 2413SOL     OW 8137   5.506   0.305   1.984
 2413SOL    HW1 8138   5.452   0.361   1.921
 2413SOL    HW2 8139   5.535   0.362   2.062
 2414SOL     OW 8140   4.922   3.704   3.704
 2414SOL    HW1 8141   4.963   3.643   3.772
 2414SOL    HW2 8142   4.931   3.799   3.736
 2415SOL     OW 8143   5.728   1.422   2.847
 2415SOL    HW1 8144   5.672   1.497   2.883
 2415SOL    HW2 8145   5.813   1.459   2.809
 2416SOL     OW 8146   5.245   1.846   6.126
 2416SOL    HW1 8147   5.344   1.850   6.136
 2416SOL    HW2 8148   5.219   1.763   6.076
 2417SOL     OW 8149   2.943   3.386   4.863
 2417SOL    HW1 8150   2.981   3.296   4.842
 2417SOL    HW2 8151   2.844   3.385   4.848
 2418SOL     OW 8152   3.302   3.278   3.889
 2418SOL    HW1 8153   3.326   3.290   3.793
 2418SOL    HW2 8154   3.283   3.367   3.930
 2419SOL     OW 8155   0.520   6.759   2.980
 2419SOL    HW1 8156   0.423   6.769   2.956
 2419SOL    HW2 8157   0.555   6.848   3.011
 2420SOL     OW 8158   2.731   0.125   1.492
 2420SOL    HW1 8159   2.660   0.160   1.431
 2420SOL    HW2 8160   2.689   0.095   1.577
 2421SOL     OW 8161   1.464   2.605   4.757
 2421SOL    HW1 8162   1.391   2.630   4.821
 2421SOL    HW2 8163   1.504   2.518   4.785
 2422SOL     OW 8164   5.069   2.419   1.070
 2422SOL    HW1 8165   4.972   2.444   1.077
 2422SOL    HW2 8166   5.120   2.496   1.031
 2423SOL     OW 8167   2.623   5.867   2.474
 2423SOL    HW1 8168   2.612   5.790   2.412
 2423SOL    HW2 8169   2.702   5.922   2.444
 2424SOL     OW 8170   5.854   1.299   0.068
 2424SOL    HW1 8171   5.852   1.388   0.021
 2424SOL    HW2 8172   5.949   1.272   0.084
 2425SOL     OW 8173   6.019   6.719   4.065
 2425SOL    HW1 8174   5.992   6.638   4.118
 2425SOL    HW2 8175   6.077   6.778   4.121
 2426SOL     OW 8176   2.550   4.629   4.515
 2426SOL    HW1 8177   2.496   4.598   4.592
 2426SOL    HW2 8178   2.553   4.558   4.445
 2427SOL     OW 8179   6.182   6.196   4.888
 2427SOL    HW1 8180   6.191   6.290   4.922
 2427SOL    HW2 8181   6.212   6.132   4.959
 2428SOL     OW 8182   0.857   0.337   1.508
 2428SOL    HW1 8183   0.929   0.398   1.476
 2428SOL    HW2 8184   0.832   0.273   1.436
 2429SOL     OW 8185   5.259   5.928   1.655
 2429SOL    HW1 8186   5.220   5.858   1.595
 2429SOL    HW2 8187   5.253   5.898   1.750
 2430SOL     OW 8188   5.684   0.851   2.494
 2430SOL    HW1 8189   5.672   0.949   2.514
 2430SOL    HW2 8190   5.777   0.824   2.519
 2431SOL     OW 8191   4.154   0.711   2.106
 2431SOL    HW1 8192   4.149   0.624   2.156
 2431SOL    HW2 8193   4.084   0.712   2.034
 2432SOL     OW 8194   3.811   6.129   2.401
 2432SOL    HW1 8195   3.813   6.057   2.469
 2432SOL    HW2 8196   3.840   6.215   2.443
 2433SOL     OW 8197   4.113   0.405   6.871
 2433SOL    HW1 8198   4.069   0.494   6.860
 2433SOL    HW2 8199   4.043   0.334   6.880
 2434SOL     OW 8200   3.654   1.910   6.142
 2434SOL    HW1 8201   3.682   1.977   6.212
 2434SOL    HW2 8202   3.674   1.818   6.174
 2435SOL     OW 8203   5.910   5.649   4.742
 2435SOL    HW1 8204   5.835   5.682   4.685
 2435SOL    HW2 8205   5.940   5.722   4.804
 2436SOL     OW 8206   2.809   5.493   0.100
 2436SOL    HW1 8207   2.710   5.482   0.098
 2436SOL    HW2 8208   2.841   5.494   0.194
 2437SOL     OW 8209   6.971   6.482   5.997
 2437SOL    HW1 8210   6.887   6.437   6.027
 2437SOL    HW2 8211   7.008   6.537   6.073
 2438SOL     OW 8212   3.257   2.065   0.821
 2438SOL    HW1 8213   3.185   2.082   0.888
 2438SOL    HW2 8214   3.249   1.971   0.788
 2439SOL     OW 8215   5.855   4.019   5.220
 2439SOL    HW1 8216   5.921   3.987   5.153
 2439SOL    HW2 8217   5.803   4.095   5.182
 2440SOL     OW 8218   5.637   5.177   6.061
 2440SOL    HW1 8219   5.674   5.269   6.051
 2440SOL    HW2 8220   5.586   5.153   5.978
 2441SOL     OW 8221   6.007   2.429   0.937
 2441SOL    HW1 8222   6.097   2.385   0.935
 2441SOL    HW2 8223   6.012   2.516   0.888
 2442SOL     OW 8224   0.383   3.735   4.596
 2442SOL    HW1 8225   0.322   3.656   4.603
 2442SOL    HW2 8226   0.362   3.800   4.669
 2443SOL     OW 8227   2.541   4.578   6.046
 2443SOL    HW1 8228   2.442   4.566   6.052
 2443SOL    HW2 8229   2.577   4.520   5.973
 2444SOL     OW 8230   2.785   3.641   5.606
 2444SOL    HW1 8231   2.810   3.641   5.510
 2444SOL    HW2 8232   2.867   3.625   5.662
 2445SOL     OW 8233   1.121   0.745   0.983
 2445SOL    HW1 8234   1.202   0.741   1.042
 2445SOL    HW2 8235   1.046   0.693   1.025
 2446SOL     OW 8236   6.096   4.554   5.898
 2446SOL    HW1 8237   6.130   4.506   5.817
 2446SOL    HW2 8238   6.022   4.616   5.872
 2447SOL     OW 8239   0.481   1.475   6.658
 2447SOL    HW1 8240   0.495   1.377   6.646
 2447SOL    HW2 8241   0.494   1.521   6.570
 2448SOL     OW 8242   1.303   6.850   4.242
 2448SOL    HW1 8243   1.291   6.751   4.234
 2448SOL    HW2 8244   1.308   6.891   4.151
 2449SOL     OW 8245   0.135   3.205   5.373
 2449SOL    HW1 8246   0.161   3.118   5.329
 2449SOL    HW2 8247   0.101   3.187   5.465
 2450SOL     OW 8248   2.152   3.645   2.944
 2450SOL    HW1 8249   2.101   3.566   2.976
 2450SOL    HW2 8250   2.181   3.700   3.022
 2451SOL     OW 8251   2.524   6.349   3.921
 2451SOL    HW1 8252   2.453   6.281   3.940
 2451SOL    HW2 8253   2.573   6.372   4.005
 2452SOL     OW 8254   1.226   2.161   4.117
 2452SOL    HW1 8255   1.253   2.122   4.029
 2452SOL    HW2 8256   1.307   2.193   4.165
 2453SOL     OW 8257   0.414   3.771   2.033
 2453SOL    HW1 8258   0.486   3.761   2.101
 2453SOL    HW2 8259   0.357   3.850   2.056
 2454SOL     OW 8260   2.724   0.838   1.954
 2454SOL    HW1 8261   2.786   0.776   2.003
 2454SOL    HW2 8262   2.651   0.867   2.015
 2455SOL     OW 8263   5.535   5.866   0.229
 2455SOL    HW1 8264   5.480   5.821   0.159
 2455SOL    HW2 8265   5.623   5.820   0.239
 2456SOL     OW 8266   4.005   6.586   1.261
 2456SOL    HW1 8267   3.924   6.638   1.233
 2456SOL    HW2 8268   3.995   6.491   1.232
 2457SOL     OW 8269   5.624   6.494   1.566
 2457SOL    HW1 8270   5.552   6.484   1.497
 2457SOL    HW2 8271   5.690   6.562   1.534
 2458SOL     OW 8272   0.645   5.707   3.437
 2458SOL    HW1 8273   0.667   5.804   3.452
 2458SOL    HW2 8274   0.612   5.667   3.522
 2459SOL     OW 8275   2.490   0.301   0.648
 2459SOL    HW1 8276   2.535   0.312   0.559
 2459SOL    HW2 8277   2.494   0.388   0.697
 2460SOL     OW 8278   3.336   5.390   1.464
 2460SOL    HW1 8279   3.326   5.481   1.423
 2460SOL    HW2 8280   3.419   5.346   1.428
 2461SOL     OW 8281   5.797   1.364   3.180
 2461SOL    HW1 8282   5.844   1.376   3.093
 2461SOL    HW2 8283   5.793   1.452   3.228
 2462SOL     OW 8284   1.970   4.344   6.515
 2462SOL    HW1 8285   1.964   4.268   6.451
 2462SOL    HW2 8286   2.065   4.368   6.530
 2463SOL     OW 8287   6.648   1.728   3.985
 2463SOL    HW1 8288   6.696   1.745   3.899
 2463SOL    HW2 8289   6.695   1.656   4.037
 2464SOL     OW 8290   1.427   3.236   1.194
 2464SOL    HW1 8291   1.516   3.200   1.221
 2464SOL    HW2 8292   1.358   3.165   1.204
 2465SOL     OW 8293   6.359   5.738   3.201
 2465SOL    HW1 8294   6.374   5.805   3.274
 2465SOL    HW2 8295   6.444   5.722   3.152
 2466SOL     OW 8296   3.419   1.277   2.343
 2466SOL    HW1 8297   3.395   1.186   2.377
 2466SOL    HW2 8298   3.426   1.274   2.243
 2467SOL     OW 8299   6.743   1.242   5.551
 2467SOL    HW1 8300   6.713   1.174   5.484
 2467SOL    HW2 8301   6.684   1.322   5.546
 2468SOL     OW 8302   0.220   3.663   0.346
 2468SOL    HW1 8303   0.314   3.629   0.336
 2468SOL    HW2 8304   0.222   3.763   0.349
 2469SOL     OW 8305   2.499   3.198   5.633
 2469SOL    HW1 8306   2.516   3.202   5.535
 2469SOL    HW2 8307   2.578   3.235   5.682
 2470SOL     OW 8308   5.634   2.765   0.406
 2470SOL    HW1 8309   5.586   2.677   0.409
 2470SOL    HW2 8310   5.601   2.818   0.327
 2471SOL     OW 8311   0.514   0.423   3.590
 2471SOL    HW1 8312   0.442   0.361   3.557
 2471SOL    HW2 8313   0.472   0.504   3.630
 2472SOL     OW 8314   5.288   1.523   3.022
 2472SOL    HW1 8315   5.360   1.479   3.076
 2472SOL    HW2 8316   5.237   1.586   3.079
 2473SOL     OW 8317   0.421   6.743   5.446
 2473SOL    HW1 8318   0.504   6.696   5.476
 2473SOL    HW2 8319   0.355   6.676   5.412
 2474SOL     OW 8320   5.537   5.610   4.721
 2474SOL    HW1 8321   5.547   5.529   4.778
 2474SOL    HW2 8322   5.578   5.689   4.766
 2475SOL     OW 8323   4.051   2.420   6.761
 2475SOL    HW1 8324   4.140   2.460   6.739
 2475SOL    HW2 8325   4.033   2.343   6.700
 2476SOL     OW 8326   0.578   2.054   3.546
 2476SOL    HW1 8327   0.565   1.955   3.560
 2476SOL    HW2 8328   0.630   2.091   3.622
 2477SOL     OW 8329   4.230   4.891   1.973
 2477SOL    HW1 8330   4.278   4.911   1.888
 2477SOL    HW2 8331   4.274   4.814   2.019
 2478SOL     OW 8332   6.665   0.134   3.006
 2478SOL    HW1 8333   6.628   0.146   3.098
 2478SOL    HW2 8334   6.595   0.091   2.948
 2479SOL     OW 8335   0.647   3.432   0.178
 2479SOL    HW1 8336   0.609   3.359   0.120
 2479SOL    HW2 8337   0.708   3.489   0.123
 2480SOL     OW 8338   0.920   4.078   1.671
 2480SOL    HW1 8339   0.946   4.172   1.695
 2480SOL    HW2 8340   0.966   4.014   1.732
 2481SOL     OW 8341   4.490   5.304   2.702
 2481SOL    HW1 8342   4.515   5.228   2.642
 2481SOL    HW2 8343   4.408   5.349   2.665
 2482SOL     OW 8344   4.755   2.752   4.293
 2482SOL    HW1 8345   4.819   2.823   4.265
 2482SOL    HW2 8346   4.806   2.668   4.314
 2483SOL     OW 8347   0.760   2.022   6.556
 2483SOL    HW1 8348   0.844   2.070   6.532
 2483SOL    HW2 8349   0.757   2.009   6.655
 2484SOL     OW 8350   3.348   2.023   6.204
 2484SOL    HW1 8351   3.260   2.001   6.160
 2484SOL    HW2 8352   3.404   2.076   6.140
 2485SOL     OW 8353   1.111   6.202   1.700
 2485SOL    HW1 8354   1.030   6.234   1.650
 2485SOL    HW2 8355   1.192   6.249   1.666
 2486SOL     OW 8356   1.078   5.202   3.086
 2486SOL    HW1 8357   1.139   5.208   3.164
 2486SOL    HW2 8358   1.008   5.133   3.103
 2487SOL     OW 8359   3.135   0.928   1.120
 2487SOL    HW1 8360   3.168   0.836   1.095
 2487SOL    HW2 8361   3.123   0.933   1.219
 2488SOL     OW 8362   3.573   6.433   6.361
 2488SOL    HW1 8363   3.665   6.465   6.383
 2488SOL    HW2 8364   3.506   6.495   6.402
 2489SOL     OW 8365   6.680   5.597   4.364
 2489SOL    HW1 8366   6.752   5.663   4.343
 2489SOL    HW2 8367   6.604   5.644   4.409
 2490SOL     OW 8368   5.341   3.485   1.318
 2490SOL    HW1 8369   5.265   3.540   1.355
 2490SOL    HW2 8370   5.306   3.396   1.289
 2491SOL     OW 8371   0.820   4.625   3.035
 2491SOL    HW1 8372   0.798   4.715   2.999
 2491SOL    HW2 8373   0.919   4.610   3.032
 2492SOL     OW 8374   4.470   2.787   6.080
 2492SOL    HW1 8375   4.516   2.766   6.167
 2492SOL    HW2 8376   4.488   2.882   6.055
 2493SOL     OW 8377   6.263   1.654   4.262
 2493SOL    HW1 8378   6.336   1.722   4.276
 2493SOL    HW2 8379   6.280   1.605   4.176
 2494SOL     OW 8380   4.218   4.405   1.470
 2494SOL    HW1 8381   4.161   4.358   1.403
 2494SOL    HW2 8382   4.309   4.421   1.432
 2495SOL     OW 8383   6.290   0.814   3.974
 2495SOL    HW1 8384   6.191   0.807   3.978
 2495SOL    HW2 8385   6.328   0.807   4.066
 2496SOL     OW 8386   1.656   5.677   6.624
 2496SOL    HW1 8387   1.571   5.631   6.651
 2496SOL    HW2 8388   1.688   5.735   6.699
 2497SOL     OW 8389   5.462   1.702   6.625
 2497SOL    HW1 8390   5.386   1.638   6.630
 2497SOL    HW2 8391   5.548   1.651   6.629
 2498SOL     OW 8392   0.999   3.765   5.030
 2498SOL    HW1 8393   1.037   3.680   4.993
 2498SOL    HW2 8394   0.946   3.745   5.113
 2499SOL     OW 8395   6.091   0.239   5.904
 2499SOL    HW1 8396   6.101   0.222   6.002
 2499SOL    HW2 8397   6.118   0.332   5.883
 2500SOL     OW 8398   4.636   3.836   6.380
 2500SOL    HW1 8399   4.566   3.809   6.314
 2500SOL    HW2 8400   4.660   3.757   6.437
 2501SOL     OW 8401   6.301   4.683   0.681
 2501SOL    HW1 8402   6.342   4.685   0.590
 2501SOL    HW2 8403   6.324   4.768   0.730
 2502SOL     OW 8404   1.894   6.478   2.880
 2502SOL    HW1 8405   1.983   6.523   2.882
 2502SOL    HW2 8406   1.822   6.547   2.868
 2503SOL     OW 8407   4.723   6.510   4.728
 2503SOL    HW1 8408   4.739   6.571   4.806
 2503SOL    HW2 8409   4.786   6.533   4.654
 2504SOL     OW 8410   2.060   4.244   3.303
 2504SOL    HW1 8411   1.970   4.216   3.334
 2504SOL    HW2 8412   2.055   4.272   3.207
 2505SOL     OW 8413   4.735   4.873   3.942
 2505SOL    HW1 8414   4.756   4.827   3.855
 2505SOL    HW2 8415   4.744   4.808   4.017
 2506SOL     OW 8416   0.228   1.689   1.039
 2506SOL    HW1 8417   0.280   1.730   1.114
 2506SOL    HW2 8418   0.227   1.589   1.050
 2507SOL     OW 8419   6.178   6.134   1.173
 2507SOL    HW1 8420   6.204   6.150   1.078
 2507SOL    HW2 8421   6.224   6.051   1.207
 2508SOL     OW 8422   2.583   2.673   1.645
 2508SOL    HW1 8423   2.617   2.602   1.707
 2508SOL    HW2 8424   2.484   2.678   1.651
 2509SOL     OW 8425   4.795   1.556   3.281
 2509SOL    HW1 8426   4.833   1.469   3.311
 2509SOL    HW2 8427   4.836   1.583   3.194
 2510SOL     OW 8428   3.969   5.761   1.022
 2510SOL    HW1 8429   3.934   5.684   1.074
 2510SOL    HW2 8430   4.030   5.728   0.949
 2511SOL     OW 8431   0.852   6.381   3.893
 2511SOL    HW1 8432   0.931   6.336   3.936
 2511SOL    HW2 8433   0.790   6.415   3.964
 2512SOL     OW 8434   5.283   3.180   4.305
 2512SOL    HW1 8435   5.280   3.244   4.229
 2512SOL    HW2 8436   5.374   3.179   4.345
 2513SOL     OW 8437   0.248   4.828   1.597
 2513SOL    HW1 8438   0.238   4.896   1.525
 2513SOL    HW2 8439   0.264   4.875   1.684
 2514SOL     OW 8440   1.036   1.517   4.125
 2514SOL    HW1 8441   1.133   1.525   4.103
 2514SOL    HW2 8442   0.981   1.536   4.044
 2515SOL     OW 8443   1.112   4.814   0.227
 2515SOL    HW1 8444   1.078   4.805   0.320
 2515SOL    HW2 8445   1.107   4.910   0.199
 2516SOL     OW 8446   5.059   6.156   4.783
 2516SOL    HW1 8447   4.988   6.216   4.819
 2516SOL    HW2 8448   5.027   6.113   4.698
 2517SOL     OW 8449   2.495   5.417   0.631
 2517SOL    HW1 8450   2.532   5.495   0.580
 2517SOL    HW2 8451   2.396   5.425   0.636
 2518SOL     OW 8452   2.523   2.594   6.091
 2518SOL    HW1 8453   2.592   2.530   6.125
 2518SOL    HW2 8454   2.501   2.661   6.162
 2519SOL     OW 8455   4.950   4.202   4.716
 2519SOL    HW1 8456   4.914   4.152   4.795
 2519SOL    HW2 8457   4.902   4.290   4.708
 2520SOL     OW 8458   2.672   5.252   2.121
 2520SOL    HW1 8459   2.669   5.313   2.041
 2520SOL    HW2 8460   2.692   5.305   2.202
 2521SOL     OW 8461   6.046   6.723   6.095
 2521SOL    HW1 8462   5.977   6.780   6.141
 2521SOL    HW2 8463   6.013   6.700   6.003
 2522SOL     OW 8464   0.974   3.120   4.915
 2522SOL    HW1 8465   0.944   3.149   5.006
 2522SOL    HW2 8466   1.073   3.111   4.914
 2523SOL     OW 8467   6.998   2.932   5.999
 2523SOL    HW1 8468   0.036   2.867   6.043
 2523SOL    HW2 8469   6.923   2.955   6.061
 2524SOL     OW 8470   0.673   0.159   4.779
 2524SOL    HW1 8471   0.732   0.087   4.815
 2524SOL    HW2 8472   0.597   0.118   4.728
 2525SOL     OW 8473   1.590   4.529   3.296
 2525SOL    HW1 8474   1.664   4.493   3.354
 2525SOL    HW2 8475   1.618   4.618   3.259
 2526SOL     OW 8476   0.357   2.221   5.365
 2526SOL    HW1 8477   0.363   2.154   5.291
 2526SOL    HW2 8478   0.429   2.290   5.353
 2527SOL     OW 8479   5.707   6.909   3.466
 2527SOL    HW1 8480   5.660   6.856   3.395
 2527SOL    HW2 8481   5.665   6.891   3.555
 2528SOL     OW 8482   5.988   5.329   0.655
 2528SOL    HW1 8483   6.015   5.236   0.631
 2528SOL    HW2 8484   6.045   5.395   0.606
 2529SOL     OW 8485   5.236   3.892   4.789
 2529SOL    HW1 8486   5.145   3.871   4.826
 2529SOL    HW2 8487   5.297   3.917   4.865
 2530SOL     OW 8488   1.242   6.857   3.682
 2530SOL    HW1 8489   1.142   6.867   3.683
 2530SOL    HW2 8490   1.280   6.911   3.607
 2531SOL     OW 8491   5.100   1.320   0.785
 2531SOL    HW1 8492   5.146   1.396   0.740
 2531SOL    HW2 8493   5.169   1.261   0.828
 2532SOL     OW 8494   1.242   4.137   5.737
 2532SOL    HW1 8495   1.330   4.183   5.724
 2532SOL    HW2 8496   1.168   4.201   5.720
 2533SOL     OW 8497   5.817   6.603   5.054
 2533SOL    HW1 8498   5.763   6.574   5.133
 2533SOL    HW2 8499   5.755   6.634   4.981
 2534SOL     OW 8500   6.574   2.099   3.384
 2534SOL    HW1 8501   6.475   2.091   3.372
 2534SOL    HW2 8502   6.596   2.188   3.424
 2535SOL     OW 8503   1.904   1.454   2.838
 2535SOL    HW1 8504   1.892   1.401   2.753
 2535SOL    HW2 8505   1.905   1.391   2.916
 2536SOL     OW 8506   6.836   0.845   3.923
 2536SOL    HW1 8507   6.771   0.834   3.997
 2536SOL    HW2 8508   6.885   0.932   3.933
 2537SOL     OW 8509   4.215   5.307   1.897
 2537SOL    HW1 8510   4.175   5.223   1.933
 2537SOL    HW2 8511   4.306   5.320   1.937
 2538SOL     OW 8512   1.533   4.470   5.105
 2538SOL    HW1 8513   1.499   4.548   5.158
 2538SOL    HW2 8514   1.576   4.502   5.021
 2539SOL     OW 8515   2.290   0.919   6.016
 2539SOL    HW1 8516   2.251   0.852   5.953
 2539SOL    HW2 8517   2.328   0.995   5.964
 2540SOL     OW 8518   5.767   2.152   2.369
 2540SOL    HW1 8519   5.750   2.115   2.278
 2540SOL    HW2 8520   5.688   2.135   2.428
 2541SOL     OW 8521   0.640   0.001   5.629
 2541SOL    HW1 8522   0.701   0.053   5.569
 2541SOL    HW2 8523   0.677   6.933   5.644
 2542SOL     OW 8524   3.693   1.481   3.697
 2542SOL    HW1 8525   3.660   1.386   3.697
 2542SOL    HW2 8526   3.726   1.505   3.788
 2543SOL     OW 8527   0.284   2.142   4.486
 2543SOL    HW1 8528   0.344   2.206   4.438
 2543SOL    HW2 8529   0.190   2.176   4.482
 2544SOL     OW 8530   6.548   6.061   2.221
 2544SOL    HW1 8531   6.557   6.148   2.171
 2544SOL    HW2 8532   6.624   6.052   2.285
 2545SOL     OW 8533   6.446   1.646   7.023
 2545SOL    HW1 8534   6.532   1.682   6.986
 2545SOL    HW2 8535   6.369   1.690   6.977
 2546SOL     OW 8536   6.413   4.158   2.550
 2546SOL    HW1 8537   6.415   4.254   2.524
 2546SOL    HW2 8538   6.388   4.102   2.471
 2547SOL     OW 8539   5.446   4.074   1.029
 2547SOL    HW1 8540   5.459   4.090   1.126
 2547SOL    HW2 8541   5.350   4.051   1.011
 2548SOL     OW 8542   6.450   6.912   5.696
 2548SOL    HW1 8543   6.541   6.912   5.654
 2548SOL    HW2 8544   6.426   7.005   5.723
 2549SOL     OW 8545   2.612   3.281   0.337
 2549SOL    HW1 8546   2.673   3.292   0.258
 2549SOL    HW2 8547   2.558   3.365   0.348
 2550SOL     OW 8548   4.374   6.230   0.226
 2550SOL    HW1 8549   4.358   6.323   0.194
 2550SOL    HW2 8550   4.286   6.184   0.240
 2551SOL     OW 8551   3.465   4.979   0.830
 2551SOL    HW1 8552   3.417   5.042   0.891
 2551SOL    HW2 8553   3.432   4.886   0.843
 2552SOL     OW 8554   2.301   5.135   1.930
 2552SOL    HW1 8555   2.284   5.115   2.026
 2552SOL    HW2 8556   2.218   5.116   1.877
 2553SOL     OW 8557   4.596   1.175   0.176
 2553SOL    HW1 8558   4.654   1.113   0.123
 2553SOL    HW2 8559   4.510   1.191   0.128
 2554SOL     OW 8560   1.384   5.609   1.196
 2554SOL    HW1 8561   1.285   5.623   1.200
 2554SOL    HW2 8562   1.404   5.511   1.192
 2555SOL     OW 8563   5.969   6.891   4.530
 2555SOL    HW1 8564   5.898   6.888   4.601
 2555SOL    HW2 8565   6.030   6.813   4.541
 2556SOL     OW 8566   3.450   6.567   0.457
 2556SOL    HW1 8567   3.410   6.516   0.380
 2556SOL    HW2 8568   3.543   6.533   0.473
 2557SOL     OW 8569   3.033   0.303   6.689
 2557SOL    HW1 8570   3.056   0.295   6.592
 2557SOL    HW2 8571   3.053   0.217   6.735
 2558SOL     OW 8572   4.943   2.747   1.516
 2558SOL    HW1 8573   4.916   2.782   1.605
 2558SOL    HW2 8574   4.992   2.819   1.466
 2559SOL     OW 8575   0.711   4.925   3.777
 2559SOL    HW1 8576   0.729   5.011   3.729
 2559SOL    HW2 8577   0.700   4.851   3.711
 2560SOL     OW 8578   4.795   2.356   3.025
 2560SOL    HW1 8579   4.754   2.439   3.063
 2560SOL    HW2 8580   4.723   2.291   3.001
 2561SOL     OW 8581   3.933   0.008   4.451
 2561SOL    HW1 8582   3.848   6.983   4.430
 2561SOL    HW2 8583   3.982   0.029   4.366
 2562SOL     OW 8584   2.093   6.788   4.409
 2562SOL    HW1 8585   2.012   6.794   4.351
 2562SOL    HW2 8586   2.172   6.762   4.354
 2563SOL     OW 8587   3.584   2.525   6.411
 2563SOL    HW1 8588   3.544   2.610   6.376
 2563SOL    HW2 8589   3.514   2.454   6.414
 2564SOL     OW 8590   1.376   1.792   6.954
 2564SOL    HW1 8591   1.432   1.753   6.881
 2564SOL    HW2 8592   1.285   1.815   6.918
 2565SOL     OW 8593   1.192   1.249   0.396
 2565SOL    HW1 8594   1.258   1.177   0.418
 2565SOL    HW2 8595   1.220   1.335   0.439
 2566SOL     OW 8596   3.060   0.858   1.447
 2566SOL    HW1 8597   2.986   0.855   1.379
 2566SOL    HW2 8598   3.020   0.866   1.538
 2567SOL     OW 8599   1.629   0.683   6.863
 2567SOL    HW1 8600   1.613   0.669   6.765
 2567SOL    HW2 8601   1.598   0.774   6.889
 2568SOL     OW 8602   2.048   5.684   0.501
 2568SOL    HW1 8603   1.978   5.617   0.526
 2568SOL    HW2 8604   2.007   5.757   0.447
 2569SOL     OW 8605   2.007   0.130   1.240
 2569SOL    HW1 8606   1.968   0.126   1.148
 2569SOL    HW2 8607   1.938   0.104   1.307
 2570SOL     OW 8608   0.646   6.211   4.658
 2570SOL    HW1 8609   0.581   6.232   4.586
 2570SOL    HW2 8610   0.677   6.296   4.701
 2571SOL     OW 8611   3.270   3.751   4.135
 2571SOL    HW1 8612   3.177   3.773   4.164
 2571SOL    HW2 8613   3.335   3.792   4.198
 2572SOL     OW 8614   1.763   5.051   2.416
 2572SOL    HW1 8615   1.838   5.108   2.383
 2572SOL    HW2 8616   1.676   5.092   2.390
 2573SOL     OW 8617   0.176   1.877   4.462
 2573SOL    HW1 8618   0.223   1.963   4.481
 2573SOL    HW2 8619   0.178   1.860   4.363
 2574SOL     OW 8620   0.669   4.154   2.130
 2574SOL    HW1 8621   0.592   4.175   2.069
 2574SOL    HW2 8622   0.678   4.055   2.139
 2575SOL     OW 8623   5.816   3.558   6.166
 2575SOL    HW1 8624   5.786   3.479   6.220
 2575SOL    HW2 8625   5.744   3.628   6.167
 2576SOL     OW 8626   2.101   0.009   3.516
 2576SOL    HW1 8627   2.046   0.034   3.595
 2576SOL    HW2 8628   2.080   6.939   3.488
 2577SOL     OW 8629   2.385   5.998   1.675
 2577SOL    HW1 8630   2.392   5.907   1.634
 2577SOL    HW2 8631   2.423   6.066   1.612
 2578SOL     OW 8632   4.651   2.515   3.928
 2578SOL    HW1 8633   4.564   2.509   3.879
 2578SOL    HW2 8634   4.653   2.445   4.000
 2579SOL     OW 8635   6.782   1.455   6.121
 2579SOL    HW1 8636   6.831   1.442   6.207
 2579SOL    HW2 8637   6.755   1.551   6.111
 2580SOL     OW 8638   1.528   1.979   6.078
 2580SOL    HW1 8639   1.479   2.019   6.001
 2580SOL    HW2 8640   1.618   2.021   6.085
 2581SOL     OW 8641   6.164   0.241   4.627
 2581SOL    HW1 8642   6.231   0.311   4.602
 2581SOL    HW2 8643   6.205   0.176   4.690
 2582SOL     OW 8644   0.434   5.174   2.805
 2582SOL    HW1 8645   0.423   5.230   2.723
 2582SOL    HW2 8646   0.532   5.160   2.822
 2583SOL     OW 8647   2.006   1.165   6.718
 2583SOL    HW1 8648   1.949   1.093   6.678
 2583SOL    HW2 8649   2.089   1.176   6.664
 2584SOL     OW 8650   5.307   0.031   2.535
 2584SOL    HW1 8651   5.363   0.075   2.605
 2584SOL    HW2 8652   5.360   0.026   2.450
 2585SOL     OW 8653   4.335   1.260   1.642
 2585SOL    HW1 8654   4.335   1.293   1.547
 2585SOL    HW2 8655   4.363   1.333   1.703
 2586SOL     OW 8656   6.736   1.675   4.600
 2586SOL    HW1 8657   6.822   1.656   4.554
 2586SOL    HW2 8658   6.669   1.709   4.534
 2587SOL     OW 8659   6.802   6.399   2.487
 2587SOL    HW1 8660   6.774   6.382   2.393
 2587SOL    HW2 8661   6.734   6.362   2.550
 2588SOL     OW 8662   5.151   0.618   1.756
 2588SOL    HW1 8663   5.064   0.607   1.805
 2588SOL    HW2 8664   5.138   0.681   1.680
 2589SOL     OW 8665   5.737   6.132   0.570
 2589SOL    HW1 8666   5.813   6.092   0.518
 2589SOL    HW2 8667   5.650   6.109   0.525
 2590SOL     OW 8668   3.968   6.860   2.837
 2590SOL    HW1 8669   3.914   6.939   2.808
 2590SOL    HW2 8670   4.030   6.834   2.763
 2591SOL     OW 8671   5.897   0.429   1.717
 2591SOL    HW1 8672   5.839   0.469   1.645
 2591SOL    HW2 8673   5.979   0.390   1.676
 2592SOL     OW 8674   3.171   5.001   1.697
 2592SOL    HW1 8675   3.199   4.936   1.768
 2592SOL    HW2 8676   3.072   4.998   1.686
 2593SOL     OW 8677   3.082   6.913   2.264
 2593SOL    HW1 8678   3.035   6.977   2.325
 2593SOL    HW2 8679   3.162   6.958   2.224
 2594SOL     OW 8680   1.425   6.713   6.191
 2594SOL    HW1 8681   1.395   6.805   6.215
 2594SOL    HW2 8682   1.503   6.687   6.248
 2595SOL     OW 8683   6.326   3.129   4.132
 2595SOL    HW1 8684   6.292   3.035   4.138
 2595SOL    HW2 8685   6.360   3.157   4.221
 2596SOL     OW 8686   4.375   2.278   1.639
 2596SOL    HW1 8687   4.400   2.357   1.583
 2596SOL    HW2 8688   4.308   2.306   1.708
 2597SOL     OW 8689   1.906   2.445   6.657
 2597SOL    HW1 8690   1.926   2.356   6.615
 2597SOL    HW2 8691   1.828   2.436   6.718
 2598SOL     OW 8692   5.671   2.503   2.699
 2598SOL    HW1 8693   5.699   2.598   2.712
 2598SOL    HW2 8694   5.734   2.458   2.635
 2599SOL     OW 8695   4.249   4.193   6.649
 2599SOL    HW1 8696   4.256   4.228   6.556
 2599SOL    HW2 8697   4.152   4.183   6.673
 2600SOL     OW 8698   6.790   3.443   3.461
 2600SOL    HW1 8699   6.883   3.443   3.498
 2600SOL    HW2 8700   6.788   3.498   3.377
 2601SOL     OW 8701   3.677   2.956   5.418
 2601SOL    HW1 8702   3.621   2.876   5.397
 2601SOL    HW2 8703   3.661   3.027   5.350
 2602SOL     OW 8704   5.919   5.707   5.578
 2602SOL    HW1 8705   6.009   5.664   5.579
 2602SOL    HW2 8706   5.909   5.760   5.494
 2603SOL     OW 8707   2.532   2.923   0.293
 2603SOL    HW1 8708   2.532   2.826   0.268
 2603SOL    HW2 8709   2.495   2.933   0.385
 2604SOL     OW 8710   5.674   1.165   1.301
 2604SOL    HW1 8711   5.682   1.072   1.266
 2604SOL    HW2 8712   5.626   1.163   1.389
 2605SOL     OW 8713   4.990   3.997   3.721
 2605SOL    HW1 8714   4.895   4.004   3.751
 2605SOL    HW2 8715   5.049   4.049   3.783
 2606SOL     OW 8716   0.055   4.546   1.293
 2606SOL    HW1 8717   0.073   4.618   1.226
 2606SOL    HW2 8718   0.022   4.587   1.378
 2607SOL     OW 8719   0.529   2.150   4.843
 2607SOL    HW1 8720   0.508   2.157   4.941
 2607SOL    HW2 8721   0.600   2.216   4.819
 2608SOL     OW 8722   5.046   0.252   0.556
 2608SOL    HW1 8723   5.060   0.330   0.618
 2608SOL    HW2 8724   5.127   0.240   0.499
 2609SOL     OW 8725   0.433   2.525   4.083
 2609SOL    HW1 8726   0.343   2.531   4.126
 2609SOL    HW2 8727   0.425   2.546   3.986
 2610SOL     OW 8728   5.657   5.794   4.844
 2610SOL    HW1 8729   5.577   5.823   4.895
 2610SOL    HW2 8730   5.702   5.875   4.804
 2611SOL     OW 8731   2.901   6.318   1.936
 2611SOL    HW1 8732   2.987   6.351   1.976
 2611SOL    HW2 8733   2.829   6.321   2.004
 2612SOL     OW 8734   6.101   6.846   4.845
 2612SOL    HW1 8735   6.011   6.833   4.888
 2612SOL    HW2 8736   6.099   6.810   4.752
 2613SOL     OW 8737   3.891   0.994   1.314
 2613SOL    HW1 8738   3.889   1.066   1.383
 2613SOL    HW2 8739   3.890   1.036   1.223
 2614SOL     OW 8740   0.118   6.055   6.291
 2614SOL    HW1 8741   0.165   6.082   6.375
 2614SOL    HW2 8742   0.081   6.136   6.246
 2615SOL     OW 8743   5.554   5.154   1.818
 2615SOL    HW1 8744   5.516   5.218   1.885
 2615SOL    HW2 8745   5.635   5.194   1.776
 2616SOL     OW 8746   4.156   3.372   2.618
 2616SOL    HW1 8747   4.155   3.441   2.546
 2616SOL    HW2 8748   4.122   3.285   2.581
 2617SOL     OW 8749   3.806   0.393   1.445
 2617SOL    HW1 8750   3.906   0.389   1.445
 2617SOL    HW2 8751   3.776   0.488   1.439
 2618SOL     OW 8752   1.057   0.442   0.340
 2618SOL    HW1 8753   1.062   0.486   0.430
 2618SOL    HW2 8754   0.987   0.487   0.285
 2619SOL     OW 8755   5.240   1.293   1.154
 2619SOL    HW1 8756   5.297   1.327   1.080
 2619SOL    HW2 8757   5.227   1.194   1.143
 2620SOL     OW 8758   1.662   4.442   4.852
 2620SOL    HW1 8759   1.748   4.441   4.802
 2620SOL    HW2 8760   1.599   4.375   4.812
 2621SOL     OW 8761   1.361   4.352   3.900
 2621SOL    HW1 8762   1.278   4.309   3.936
 2621SOL    HW2 8763   1.368   4.335   3.802
 2622SOL     OW 8764   2.595   3.128   6.050
 2622SOL    HW1 8765   2.510   3.160   6.091
 2622SOL    HW2 8766   2.594   3.029   6.043
 2623SOL     OW 8767   3.232   1.035   6.085
 2623SOL    HW1 8768   3.246   0.949   6.134
 2623SOL    HW2 8769   3.235   1.111   6.150
 2624SOL     OW 8770   6.644   2.237   4.211
 2624SOL    HW1 8771   6.643   2.162   4.144
 2624SOL    HW2 8772   6.703   2.212   4.288
 2625SOL     OW 8773   4.874   0.765   5.144
 2625SOL    HW1 8774   4.783   0.722   5.152
 2625SOL    HW2 8775   4.932   0.733   5.219
 2626SOL     OW 8776   2.497   0.099   2.132
 2626SOL    HW1 8777   2.588   0.059   2.140
 2626SOL    HW2 8778   2.465   0.092   2.038
 2627SOL     OW 8779   0.113   0.566   4.462
 2627SOL    HW1 8780   0.082   0.642   4.520
 2627SOL    HW2 8781   0.114   0.595   4.367
 2628SOL     OW 8782   3.193   5.855   5.541
 2628SOL    HW1 8783   3.131   5.786   5.505
 2628SOL    HW2 8784   3.278   5.811   5.571
 2629SOL     OW 8785   3.180   4.136   1.344
 2629SOL    HW1 8786   3.104   4.179   1.393
 2629SOL    HW2 8787   3.251   4.109   1.409
 2630SOL     OW 8788   2.923   2.193   2.369
 2630SOL    HW1 8789   2.925   2.251   2.287
 2630SOL    HW2 8790   2.843   2.217   2.424
 2631SOL     OW 8791   4.544   6.801   4.610
 2631SOL    HW1 8792   4.502   6.834   4.694
 2631SOL    HW2 8793   4.519   6.705   4.595
 2632SOL     OW 8794   5.683   1.635   1.090
 2632SOL    HW1 8795   5.593   1.669   1.063
 2632SOL    HW2 8796   5.682   1.535   1.087
 2633SOL     OW 8797   6.961   2.926   6.324
 2633SOL    HW1 8798   6.925   3.014   6.356
 2633SOL    HW2 8799   6.885   2.868   6.295
 2634SOL     OW 8800   3.028   5.376   1.209
 2634SOL    HW1 8801   2.944   5.337   1.171
 2634SOL    HW2 8802   3.102   5.309   1.203
 2635SOL     OW 8803   5.426   4.582   3.451
 2635SOL    HW1 8804   5.328   4.574   3.468
 2635SOL    HW2 8805   5.443   4.659   3.390
 2636SOL     OW 8806   5.932   0.501   4.959
 2636SOL    HW1 8807   5.852   0.522   5.016
 2636SOL    HW2 8808   5.995   0.579   4.960
 2637SOL     OW 8809   4.983   6.759   2.720
 2637SOL    HW1 8810   5.061   6.763   2.657
 2637SOL    HW2 8811   4.964   6.851   2.755
 2638SOL     OW 8812   5.799   5.556   1.238
 2638SOL    HW1 8813   5.813   5.505   1.323
 2638SOL    HW2 8814   5.867   5.629   1.230
 2639SOL     OW 8815   6.690   6.434   0.138
 2639SOL    HW1 8816   6.615   6.412   0.076
 2639SOL    HW2 8817   6.748   6.354   0.150
 2640SOL     OW 8818   6.248   0.037   6.500
 2640SOL    HW1 8819   6.312   0.112   6.512
 2640SOL    HW2 8820   6.205   0.015   6.588
 2641SOL     OW 8821   5.891   5.344   0.144
 2641SOL    HW1 8822   5.818   5.343   0.213
 2641SOL    HW2 8823   5.927   5.252   0.132
 2642SOL     OW 8824   6.560   7.020   3.351
 2642SOL    HW1 8825   6.588   0.013   3.446
 2642SOL    HW2 8826   6.533   0.083   3.309
 2643SOL     OW 8827   1.000   0.777   2.603
 2643SOL    HW1 8828   0.947   0.702   2.644
 2643SOL    HW2 8829   1.024   0.843   2.674
 2644SOL     OW 8830   0.485   5.487   6.156
 2644SOL    HW1 8831   0.432   5.422   6.101
 2644SOL    HW2 8832   0.503   5.447   6.247
 2645SOL     OW 8833   6.221   5.308   5.488
 2645SOL    HW1 8834   6.296   5.288   5.551
 2645SOL    HW2 8835   6.153   5.365   5.533
 2646SOL     OW 8836   6.509   6.103   6.899
 2646SOL    HW1 8837   6.552   6.063   6.979
 2646SOL    HW2 8838   6.520   6.042   6.820
 2647SOL     OW 8839   3.729   2.777   0.643
 2647SOL    HW1 8840   3.721   2.694   0.698
 2647SOL    HW2 8841   3.676   2.765   0.558
 2648SOL     OW 8842   3.031   0.755   2.543
 2648SOL    HW1 8843   3.049   0.805   2.628
 2648SOL    HW2 8844   2.933   0.760   2.522
 2649SOL     OW 8845   3.650   2.536   5.632
 2649SOL    HW1 8846   3.624   2.472   5.705
 2649SOL    HW2 8847   3.741   2.572   5.651
 2650SOL     OW 8848   0.284   6.200   1.699
 2650SOL    HW1 8849   0.352   6.237   1.636
 2650SOL    HW2 8850   0.328   6.177   1.786
 2651SOL     OW 8851   0.798   0.165   3.629
 2651SOL    HW1 8852   0.731   0.199   3.695
 2651SOL    HW2 8853   0.781   0.208   3.540
 2652SOL     OW 8854   3.184   3.539   2.476
 2652SOL    HW1 8855   3.251   3.468   2.454
 2652SOL    HW2 8856   3.231   3.622   2.506
 2653SOL     OW 8857   6.768   5.559   6.552
 2653SOL    HW1 8858   6.785   5.531   6.457
 2653SOL    HW2 8859   6.746   5.478   6.606
 2654SOL     OW 8860   5.338   2.236   6.424
 2654SOL    HW1 8861   5.261   2.180   6.395
 2654SOL    HW2 8862   5.353   2.309   6.358
 2655SOL     OW 8863   5.150   5.458   4.991
 2655SOL    HW1 8864   5.175   5.463   4.894
 2655SOL    HW2 8865   5.142   5.551   5.028
 2656SOL     OW 8866   5.687   3.486   3.748
 2656SOL    HW1 8867   5.762   3.471   3.814
 2656SOL    HW2 8868   5.708   3.566   3.692
 2657SOL     OW 8869   2.493   2.597   5.659
 2657SOL    HW1 8870   2.592   2.580   5.666
 2657SOL    HW2 8871   2.476   2.661   5.584
 2658SOL     OW 8872   5.677   4.522   5.781
 2658SOL    HW1 8873   5.774   4.498   5.782
 2658SOL    HW2 8874   5.665   4.610   5.735
 2659SOL     OW 8875   6.755   2.338   3.057
 2659SOL    HW1 8876   6.677   2.362   3.000
 2659SOL    HW2 8877   6.840   2.348   3.005
 2660SOL     OW 8878   6.316   2.047   3.414
 2660SOL    HW1 8879   6.238   2.102   3.445
 2660SOL    HW2 8880   6.289   1.993   3.335
 2661SOL     OW 8881   4.609   6.197   1.492
 2661SOL    HW1 8882   4.687   6.138   1.516
 2661SOL    HW2 8883   4.596   6.265   1.564
 2662SOL     OW 8884   3.353   6.647   3.679
 2662SOL    HW1 8885   3.398   6.651   3.768
 2662SOL    HW2 8886   3.367   6.557   3.639
 2663SOL     OW 8887   0.823   4.432   2.862
 2663SOL    HW1 8888   0.917   4.402   2.874
 2663SOL    HW2 8889   0.808   4.516   2.914
 2664SOL     OW 8890   4.101   3.602   1.904
 2664SOL    HW1 8891   4.094   3.615   2.003
 2664SOL    HW2 8892   4.139   3.684   1.862
 2665SOL     OW 8893   4.110   0.846   4.450
 2665SOL    HW1 8894   4.148   0.754   4.440
 2665SOL    HW2 8895   4.011   0.840   4.459
 2666SOL     OW 8896   5.583   6.114   1.745
 2666SOL    HW1 8897   5.554   6.090   1.838
 2666SOL    HW2 8898   5.550   6.045   1.681
 2667SOL     OW 8899   1.372   5.207   4.152
 2667SOL    HW1 8900   1.423   5.124   4.178
 2667SOL    HW2 8901   1.274   5.186   4.149
 2668SOL     OW 8902   0.158   2.461   5.856
 2668SOL    HW1 8903   0.123   2.502   5.940
 2668SOL    HW2 8904   0.226   2.522   5.815
 2669SOL     OW 8905   4.111   5.124   5.889
 2669SOL    HW1 8906   4.153   5.097   5.975
 2669SOL    HW2 8907   4.057   5.048   5.852
 2670SOL     OW 8908   1.503   0.354   6.476
 2670SOL    HW1 8909   1.486   0.405   6.392
 2670SOL    HW2 8910   1.602   0.351   6.493
 2671SOL     OW 8911   3.212   3.943   5.752
 2671SOL    HW1 8912   3.300   3.910   5.717
 2671SOL    HW2 8913   3.190   3.896   5.837
 2672SOL     OW 8914   0.698   4.393   0.329
 2672SOL    HW1 8915   0.664   4.299   0.324
 2672SOL    HW2 8916   0.674   4.433   0.417
 2673SOL     OW 8917   5.029   2.120   3.740
 2673SOL    HW1 8918   5.030   2.219   3.732
 2673SOL    HW2 8919   5.073   2.079   3.660
 2674SOL     OW 8920   4.897   5.469   5.626
 2674SOL    HW1 8921   4.894   5.540   5.696
 2674SOL    HW2 8922   4.986   5.471   5.580
 2675SOL     OW 8923   0.335   3.708   5.660
 2675SOL    HW1 8924   0.241   3.705   5.627
 2675SOL    HW2 8925   0.385   3.781   5.613
 2676SOL     OW 8926   4.126   0.446   2.192
 2676SOL    HW1 8927   4.120   0.416   2.097
 2676SOL    HW2 8928   4.074   0.384   2.251
 2677SOL     OW 8929   2.682   4.716   2.310
 2677SOL    HW1 8930   2.708   4.627   2.272
 2677SOL    HW2 8931   2.681   4.783   2.236
 2678SOL     OW 8932   0.132   5.294   6.433
 2678SOL    HW1 8933   0.182   5.208   6.443
 2678SOL    HW2 8934   0.034   5.276   6.433
 2679SOL     OW 8935   2.535   4.478   0.841
 2679SOL    HW1 8936   2.579   4.436   0.920
 2679SOL    HW2 8937   2.454   4.529   0.871
 2680SOL     OW 8938   0.914   2.085   1.690
 2680SOL    HW1 8939   0.951   1.997   1.718
 2680SOL    HW2 8940   0.848   2.117   1.758
 2681SOL     OW 8941   1.276   1.486   2.627
 2681SOL    HW1 8942   1.218   1.470   2.548
 2681SOL    HW2 8943   1.361   1.529   2.598
 2682SOL     OW 8944   6.394   2.446   3.523
 2682SOL    HW1 8945   6.458   2.400   3.585
 2682SOL    HW2 8946   6.398   2.402   3.433
 2683SOL     OW 8947   1.475   0.311   1.620
 2683SOL    HW1 8948   1.440   0.312   1.526
 2683SOL    HW2 8949   1.398   0.307   1.684
 2684SOL     OW 8950   2.746   6.103   3.093
 2684SOL    HW1 8951   2.674   6.162   3.059
 2684SOL    HW2 8952   2.705   6.028   3.147
 2685SOL     OW 8953   5.234   5.804   5.450
 2685SOL    HW1 8954   5.137   5.787   5.431
 2685SOL    HW2 8955   5.242   5.863   5.531
 2686SOL     OW 8956   1.347   2.736   4.264
 2686SOL    HW1 8957   1.439   2.700   4.247
 2686SOL    HW2 8958   1.354   2.822   4.314
 2687SOL     OW 8959   4.969   5.586   3.001
 2687SOL    HW1 8960   4.911   5.575   2.920
 2687SOL    HW2 8961   4.912   5.610   3.080
 2688SOL     OW 8962   3.702   5.071   6.344
 2688SOL    HW1 8963   3.603   5.084   6.350
 2688SOL    HW2 8964   3.730   5.001   6.409
 2689SOL     OW 8965   6.881   2.885   4.162
 2689SOL    HW1 8966   6.782   2.891   4.178
 2689SOL    HW2 8967   6.924   2.973   4.185
 2690SOL     OW 8968   2.961   3.547   3.370
 2690SOL    HW1 8969   2.955   3.644   3.348
 2690SOL    HW2 8970   2.910   3.494   3.303
 2691SOL     OW 8971   1.243   5.965   1.642
 2691SOL    HW1 8972   1.180   6.028   1.689
 2691SOL    HW2 8973   1.262   6.000   1.550
 2692SOL     OW 8974   6.780   6.046   2.988
 2692SOL    HW1 8975   6.778   6.028   2.890
 2692SOL    HW2 8976   6.809   6.140   3.004
 2693SOL     OW 8977   1.815   3.854   3.333
 2693SOL    HW1 8978   1.769   3.809   3.409
 2693SOL    HW2 8979   1.894   3.799   3.305
 2694SOL     OW 8980   2.606   0.174   3.481
 2694SOL    HW1 8981   2.621   0.101   3.548
 2694SOL    HW2 8982   2.666   0.159   3.402
 2695SOL     OW 8983   3.792   2.094   2.678
 2695SOL    HW1 8984   3.696   2.067   2.671
 2695SOL    HW2 8985   3.838   2.076   2.591
 2696SOL     OW 8986   3.974   3.761   5.385
 2696SOL    HW1 8987   4.018   3.835   5.334
 2696SOL    HW2 8988   3.943   3.691   5.320
 2697SOL     OW 8989   2.515   2.546   4.524
 2697SOL    HW1 8990   2.431   2.596   4.545
 2697SOL    HW2 8991   2.574   2.544   4.604
 2698SOL     OW 8992   2.116   3.478   6.991
 2698SOL    HW1 8993   2.083   3.554   0.024
 2698SOL    HW2 8994   2.178   3.421   0.022
 2699SOL     OW 8995   4.013   5.671   1.725
 2699SOL    HW1 8996   4.005   5.701   1.630
 2699SOL    HW2 8997   3.925   5.634   1.756
 2700SOL     OW 8998   1.788   3.571   3.039
 2700SOL    HW1 8999   1.807   3.481   2.999
 2700SOL    HW2 9000   1.727   3.622   2.978
 2701SOL     OW 9001   3.432   6.724   6.151
 2701SOL    HW1 9002   3.413   6.689   6.243
 2701SOL    HW2 9003   3.473   6.814   6.158
 2702SOL     OW 9004   0.246   0.272   2.741
 2702SOL    HW1 9005   0.193   0.187   2.740
 2702SOL    HW2 9006   0.341   0.251   2.766
 2703SOL     OW 9007   2.058   1.550   2.624
 2703SOL    HW1 9008   1.980   1.512   2.672
 2703SOL    HW2 9009   2.048   1.649   2.617
 2704SOL     OW 9010   1.829   5.810   0.346
 2704SOL    HW1 9011   1.828   5.813   0.246
 2704SOL    HW2 9012   1.808   5.900   0.383
 2705SOL     OW 9013   0.397   4.881   3.050
 2705SOL    HW1 9014   0.418   4.883   2.953
 2705SOL    HW2 9015   0.338   4.958   3.073
 2706SOL     OW 9016   6.704   1.971   1.837
 2706SOL    HW1 9017   6.639   1.915   1.888
 2706SOL    HW2 9018   6.655   2.031   1.775
 2707SOL     OW 9019   2.323   1.504   5.696
 2707SOL    HW1 9020   2.318   1.598   5.730
 2707SOL    HW2 9021   2.416   1.470   5.706
 2708SOL     OW 9022   1.928   2.719   0.954
 2708SOL    HW1 9023   1.969   2.759   0.872
 2708SOL    HW2 9024   1.999   2.709   1.024
 2709SOL     OW 9025   4.709   6.514   1.536
 2709SOL    HW1 9026   4.697   6.512   1.437
 2709SOL    HW2 9027   4.619   6.522   1.580
 2710SOL     OW 9028   5.447   3.787   2.225
 2710SOL    HW1 9029   5.374   3.754   2.165
 2710SOL    HW2 9030   5.532   3.792   2.173
 2711SOL     OW 9031   1.252   0.235   1.806
 2711SOL    HW1 9032   1.278   0.183   1.887
 2711SOL    HW2 9033   1.154   0.223   1.789
 2712SOL     OW 9034   3.346   4.723   0.901
 2712SOL    HW1 9035   3.249   4.729   0.924
 2712SOL    HW2 9036   3.400   4.732   0.984
 2713SOL     OW 9037   2.205   2.961   4.740
 2713SOL    HW1 9038   2.281   2.915   4.784
 2713SOL    HW2 9039   2.163   3.025   4.805
 2714SOL     OW 9040   5.179   6.905   5.305
 2714SOL    HW1 9041   5.090   6.943   5.330
 2714SOL    HW2 9042   5.180   6.807   5.323
 2715SOL     OW 9043   6.909   0.748   0.099
 2715SOL    HW1 9044   6.939   0.776   0.190
 2715SOL    HW2 9045   6.912   0.648   0.092
 2716SOL     OW 9046   0.525   6.715   2.603
 2716SOL    HW1 9047   0.562   6.629   2.639
 2716SOL    HW2 9048   0.576   6.792   2.642
 2717SOL     OW 9049   1.316   0.439   2.854
 2717SOL    HW1 9050   1.398   0.486   2.823
 2717SOL    HW2 9051   1.286   0.477   2.941
 2718SOL     OW 9052   1.472   4.511   3.600
 2718SOL    HW1 9053   1.473   4.546   3.693
 2718SOL    HW2 9054   1.561   4.528   3.557
 2719SOL     OW 9055   3.986   5.114   1.984
 2719SOL    HW1 9056   3.900   5.164   1.974
 2719SOL    HW2 9057   3.984   5.033   1.926
 2720SOL     OW 9058   1.152   5.591   4.189
 2720SOL    HW1 9059   1.163   5.655   4.113
 2720SOL    HW2 9060   1.129   5.642   4.272
 2721SOL     OW 9061   4.396   0.354   4.387
 2721SOL    HW1 9062   4.459   0.406   4.329
 2721SOL    HW2 9063   4.424   0.258   4.388
 2722SOL     OW 9064   1.600   5.684   1.419
 2722SOL    HW1 9065   1.561   5.675   1.511
 2722SOL    HW2 9066   1.528   5.669   1.352
 2723SOL     OW 9067   1.138   1.352   5.123
 2723SOL    HW1 9068   1.118   1.254   5.124
 2723SOL    HW2 9069   1.062   1.402   5.164
 2724SOL     OW 9070   3.123   5.590   6.348
 2724SOL    HW1 9071   3.176   5.619   6.269
 2724SOL    HW2 9072   3.045   5.535   6.318
 2725SOL     OW 9073   3.372   5.031   3.031
 2725SOL    HW1 9074   3.430   4.950   3.028
 2725SOL    HW2 9075   3.277   5.005   3.047
 2726SOL     OW 9076   5.154   5.820   1.905
 2726SOL    HW1 9077   5.094   5.779   1.838
 2726SOL    HW2 9078   5.104   5.890   1.956
 2727SOL     OW 9079   2.354   5.414   3.286
 2727SOL    HW1 9080   2.273   5.443   3.234
 2727SOL    HW2 9081   2.326   5.388   3.379
 2728SOL     OW 9082   3.582   0.334   5.971
 2728SOL    HW1 9083   3.577   0.377   5.881
 2728SOL    HW2 9084   3.497   0.283   5.989
 2729SOL     OW 9085   6.083   4.934   2.756
 2729SOL    HW1 9086   6.106   5.003   2.824
 2729SOL    HW2 9087   6.113   4.844   2.788
 2730SOL     OW 9088   1.768   4.644   1.369
 2730SOL    HW1 9089   1.772   4.607   1.276
 2730SOL    HW2 9090   1.833   4.596   1.428
 2731SOL     OW 9091   2.968   3.781   1.599
 2731SOL    HW1 9092   2.966   3.694   1.649
 2731SOL    HW2 9093   2.971   3.856   1.665
 2732SOL     OW 9094   5.470   2.237   3.046
 2732SOL    HW1 9095   5.531   2.283   3.111
 2732SOL    HW2 9096   5.402   2.185   3.096
 2733SOL     OW 9097   1.601   0.791   5.669
 2733SOL    HW1 9098   1.697   0.775   5.692
 2733SOL    HW2 9099   1.543   0.730   5.723
 2734SOL     OW 9100   2.342   6.138   3.930
 2734SOL    HW1 9101   2.371   6.123   3.835
 2734SOL    HW2 9102   2.368   6.060   3.986
 2735SOL     OW 9103   2.166   4.465   1.992
 2735SOL    HW1 9104   2.248   4.440   2.042
 2735SOL    HW2 9105   2.154   4.404   1.913
 2736SOL     OW 9106   4.181   0.212   5.832
 2736SOL    HW1 9107   4.184   0.135   5.767
 2736SOL    HW2 9108   4.254   0.201   5.899
 2737SOL     OW 9109   4.290   3.494   5.915
 2737SOL    HW1 9110   4.337   3.578   5.941
 2737SOL    HW2 9111   4.216   3.516   5.851
 2738SOL     OW 9112   5.527   4.913   3.885
 2738SOL    HW1 9113   5.545   4.822   3.923
 2738SOL    HW2 9114   5.443   4.949   3.925
 2739SOL     OW 9115   5.850   3.614   0.954
 2739SOL    HW1 9116   5.787   3.562   0.897
 2739SOL    HW2 9117   5.864   3.566   1.041
 2740SOL     OW 9118   5.849   2.301   2.863
 2740SOL    HW1 9119   5.783   2.376   2.856
 2740SOL    HW2 9120   5.910   2.303   2.784
 2741SOL     OW 9121   1.175   2.715   6.053
 2741SOL    HW1 9122   1.125   2.652   6.113
 2741SOL    HW2 9123   1.121   2.734   5.971
 2742SOL     OW 9124   2.045   6.637   6.181
 2742SOL    HW1 9125   2.124   6.602   6.130
 2742SOL    HW2 9126   2.049   6.736   6.186
 2743SOL     OW 9127   5.200   4.864   0.674
 2743SOL    HW1 9128   5.238   4.934   0.735
 2743SOL    HW2 9129   5.242   4.776   0.695
 2744SOL     OW 9130   4.043   1.109   6.607
 2744SOL    HW1 9131   4.135   1.104   6.569
 2744SOL    HW2 9132   4.002   1.197   6.583
 2745SOL     OW 9133   2.020   5.767   1.093
 2745SOL    HW1 9134   2.091   5.705   1.058
 2745SOL    HW2 9135   2.057   5.860   1.099
 2746SOL     OW 9136   1.687   1.876   6.427
 2746SOL    HW1 9137   1.713   1.814   6.501
 2746SOL    HW2 9138   1.668   1.823   6.345
 2747SOL     OW 9139   5.409   5.802   3.851
 2747SOL    HW1 9140   5.446   5.893   3.865
 2747SOL    HW2 9141   5.446   5.739   3.919
 2748SOL     OW 9142   3.955   1.628   4.135
 2748SOL    HW1 9143   3.928   1.551   4.077
 2748SOL    HW2 9144   3.915   1.618   4.226
 2749SOL     OW 9145   4.520   5.306   4.314
 2749SOL    HW1 9146   4.536   5.394   4.268
 2749SOL    HW2 9147   4.443   5.260   4.270
 2750SOL     OW 9148   1.044   5.704   1.834
 2750SOL    HW1 9149   1.081   5.747   1.917
 2750SOL    HW2 9150   1.116   5.701   1.764
 2751SOL     OW 9151   0.856   6.776   6.850
 2751SOL    HW1 9152   0.877   6.846   6.918
 2751SOL    HW2 9153   0.938   6.723   6.831
 2752SOL     OW 9154   6.278   6.028   5.075
 2752SOL    HW1 9155   6.358   6.081   5.106
 2752SOL    HW2 9156   6.206   6.032   5.144
 2753SOL     OW 9157   2.700   5.837   4.968
 2753SOL    HW1 9158   2.796   5.860   4.957
 2753SOL    HW2 9159   2.662   5.887   5.046
 2754SOL     OW 9160   1.059   6.205   4.587
 2754SOL    HW1 9161   1.060   6.132   4.655
 2754SOL    HW2 9162   0.976   6.199   4.532
 2755SOL     OW 9163   3.857   5.991   2.180
 2755SOL    HW1 9164   3.840   6.049   2.259
 2755SOL    HW2 9165   3.770   5.959   2.143
 2756SOL     OW 9166   0.490   2.780   5.359
 2756SOL    HW1 9167   0.459   2.709   5.295
 2756SOL    HW2 9168   0.564   2.832   5.317
 2757SOL     OW 9169   4.296   3.335   6.979
 2757SOL    HW1 9170   4.255   3.425   6.996
 2757SOL    HW2 9171   4.381   3.326   0.008
 2758SOL     OW 9172   0.204   6.459   2.029
 2758SOL    HW1 9173   0.195   6.534   1.963
 2758SOL    HW2 9174   0.301   6.436   2.040
 2759SOL     OW 9175   3.370   3.368   5.789
 2759SOL    HW1 9176   3.294   3.321   5.743
 2759SOL    HW2 9177   3.438   3.301   5.817
 2760SOL     OW 9178   5.979   5.914   2.747
 2760SOL    HW1 9179   6.064   5.862   2.746
 2760SOL    HW2 9180   5.986   5.992   2.684
 2761SOL     OW 9181   1.201   2.675   3.576
 2761SOL    HW1 9182   1.300   2.676   3.588
 2761SOL    HW2 9183   1.160   2.751   3.627
 2762SOL     OW 9184   3.195   2.230   0.520
 2762SOL    HW1 9185   3.231   2.145   0.482
 2762SOL    HW2 9186   3.097   2.235   0.502
 2763SOL     OW 9187   6.586   1.978   4.047
 2763SOL    HW1 9188   6.584   1.879   4.032
 2763SOL    HW2 9189   6.673   2.015   4.012
 2764SOL     OW 9190   0.752   2.920   2.927
 2764SOL    HW1 9191   0.802   2.893   3.010
 2764SOL    HW2 9192   0.804   2.990   2.878
 2765SOL     OW 9193   6.205   6.773   6.403
 2765SOL    HW1 9194   6.119   6.750   6.358
 2765SOL    HW2 9195   6.200   6.866   6.440
 2766SOL     OW 9196   4.632   7.022   0.211
 2766SOL    HW1 9197   4.713   6.979   0.171
 2766SOL    HW2 9198   4.659   0.052   0.291
 2767SOL     OW 9199   0.342   5.057   6.455
 2767SOL    HW1 9200   0.417   5.043   6.390
 2767SOL    HW2 9201   0.284   4.976   6.455
 2768SOL     OW 9202   3.631   6.771   1.700
 2768SOL    HW1 9203   3.721   6.813   1.712
 2768SOL    HW2 9204   3.623   6.736   1.606
 2769SOL     OW 9205   0.508   4.581   5.827
 2769SOL    HW1 9206   0.571   4.604   5.753
 2769SOL    HW2 9207   0.469   4.665   5.865
 2770SOL     OW 9208   2.731   6.054   0.770
 2770SOL    HW1 9209   2.725   6.071   0.672
 2770SOL    HW2 9210   2.649   6.006   0.801
 2771SOL     OW 9211   4.798   0.346   5.004
 2771SOL    HW1 9212   4.842   0.415   4.948
 2771SOL    HW2 9213   4.817   0.255   4.966
 2772SOL     OW 9214   4.646   0.832   3.846
 2772SOL    HW1 9215   4.598   0.761   3.899
 2772SOL    HW2 9216   4.647   0.806   3.750
 2773SOL     OW 9217   5.813   2.632   5.011
 2773SOL    HW1 9218   5.771   2.721   4.990
 2773SOL    HW2 9219   5.837   2.629   5.108
 2774SOL     OW 9220   5.874   2.085   4.413
 2774SOL    HW1 9221   5.964   2.097   4.372
 2774SOL    HW2 9222   5.809   2.056   4.342
 2775SOL     OW 9223   0.118   3.313   3.988
 2775SOL    HW1 9224   0.128   3.329   4.086
 2775SOL    HW2 9225   0.051   3.376   3.950
 2776SOL     OW 9226   4.884   5.143   6.112
 2776SOL    HW1 9227   4.868   5.213   6.043
 2776SOL    HW2 9228   4.941   5.070   6.072
 2777SOL     OW 9229   2.604   2.353   6.660
 2777SOL    HW1 9230   2.620   2.268   6.610
 2777SOL    HW2 9231   2.692   2.394   6.685
 2778SOL     OW 9232   2.561   0.824   5.993
 2778SOL    HW1 9233   2.470   0.861   6.011
 2778SOL    HW2 9234   2.614   0.821   6.077
 2779SOL     OW 9235   4.597   1.013   1.291
 2779SOL    HW1 9236   4.578   1.063   1.207
 2779SOL    HW2 9237   4.520   1.022   1.354
 2780SOL     OW 9238   0.025   1.343   5.128
 2780SOL    HW1 9239   0.084   1.352   5.209
 2780SOL    HW2 9240   6.954   1.323   5.157
 2781SOL     OW 9241   5.065   1.153   3.521
 2781SOL    HW1 9242   5.078   1.213   3.600
 2781SOL    HW2 9243   5.126   1.075   3.529
 2782SOL     OW 9244   5.375   0.833   6.051
 2782SOL    HW1 9245   5.333   0.748   6.019
 2782SOL    HW2 9246   5.455   0.853   5.995
 2783SOL     OW 9247   5.954   3.607   1.468
 2783SOL    HW1 9248   5.880   3.607   1.535
 2783SOL    HW2 9249   6.009   3.525   1.479
 2784SOL     OW 9250   0.951   3.034   0.906
 2784SOL    HW1 9251   0.882   3.101   0.878
 2784SOL    HW2 9252   0.907   2.946   0.924
 2785SOL     OW 9253   6.084   3.264   2.412
 2785SOL    HW1 9254   6.007   3.275   2.349
 2785SOL    HW2 9255   6.117   3.353   2.442
 2786SOL     OW 9256   0.616   6.098   6.227
 2786SOL    HW1 9257   0.565   6.042   6.293
 2786SOL    HW2 9258   0.645   6.183   6.271
 2787SOL     OW 9259   0.161   5.446   6.749
 2787SOL    HW1 9260   0.185   5.354   6.720
 2787SOL    HW2 9261   0.187   5.512   6.678
 2788SOL     OW 9262   2.809   0.095   6.177
 2788SOL    HW1 9263   2.842   0.060   6.089
 2788SOL    HW2 9264   2.709   0.098   6.176
 2789SOL     OW 9265   0.807   2.058   4.773
 2789SOL    HW1 9266   0.851   2.062   4.862
 2789SOL    HW2 9267   0.769   2.148   4.750
 2790SOL     OW 9268   1.624   5.485   2.241
 2790SOL    HW1 9269   1.580   5.573   2.259
 2790SOL    HW2 9270   1.626   5.431   2.325
 2791SOL     OW 9271   1.029   2.925   3.598
 2791SOL    HW1 9272   1.097   2.977   3.547
 2791SOL    HW2 9273   0.969   2.988   3.648
 2792SOL     OW 9274   3.408   1.792   6.020
 2792SOL    HW1 9275   3.351   1.727   6.070
 2792SOL    HW2 9276   3.471   1.837   6.084
 2793SOL     OW 9277   3.757   3.607   0.582
 2793SOL    HW1 9278   3.674   3.552   0.576
 2793SOL    HW2 9279   3.786   3.633   0.489
 2794SOL     OW 9280   1.057   2.471   0.045
 2794SOL    HW1 9281   1.126   2.538   0.016
 2794SOL    HW2 9282   1.050   2.472   0.144
 2795SOL     OW 9283   1.202   6.242   1.262
 2795SOL    HW1 9284   1.282   6.302   1.257
 2795SOL    HW2 9285   1.131   6.284   1.319
 2796SOL     OW 9286   2.004   6.156   6.475
 2796SOL    HW1 9287   2.053   6.071   6.457
 2796SOL    HW2 9288   1.979   6.160   6.572
 2797SOL     OW 9289   5.214   5.104   3.330
 2797SOL    HW1 9290   5.268   5.070   3.407
 2797SOL    HW2 9291   5.267   5.098   3.246
 2798SOL     OW 9292   5.245   1.295   1.429
 2798SOL    HW1 9293   5.248   1.297   1.329
 2798SOL    HW2 9294   5.180   1.224   1.459
 2799SOL     OW 9295   3.721   6.480   4.328
 2799SOL    HW1 9296   3.712   6.413   4.254
 2799SOL    HW2 9297   3.662   6.453   4.404
 2800SOL     OW 9298   5.659   0.391   6.256
 2800SOL    HW1 9299   5.590   0.323   6.280
 2800SOL    HW2 9300   5.632   0.439   6.172
 2801SOL     OW 9301   0.203   4.629   3.991
 2801SOL    HW1 9302   0.243   4.719   4.009
 2801SOL    HW2 9303   0.104   4.635   3.994
 2802SOL     OW 9304   1.695   4.981   5.499
 2802SOL    HW1 9305   1.640   4.954   5.578
 2802SOL    HW2 9306   1.767   5.044   5.528
 2803SOL     OW 9307   3.819   2.440   6.015
 2803SOL    HW1 9308   3.765   2.400   6.089
 2803SOL    HW2 9309   3.913   2.406   6.020
 2804SOL     OW 9310   0.003   2.704   3.786
 2804SOL    HW1 9311   7.011   2.621   3.732
 2804SOL    HW2 9312   6.993   2.691   3.879
 2805SOL     OW 9313   3.206   3.222   0.857
 2805SOL    HW1 9314   3.250   3.142   0.897
 2805SOL    HW2 9315   3.201   3.212   0.758
 2806SOL     OW 9316   0.287   2.808   6.101
 2806SOL    HW1 9317   0.317   2.886   6.155
 2806SOL    HW2 9318   0.260   2.734   6.163
 2807SOL     OW 9319   3.963   1.329   3.652
 2807SOL    HW1 9320   4.042   1.355   3.597
 2807SOL    HW2 9321   3.881   1.376   3.617
 2808SOL     OW 9322   0.437   4.993   5.687
 2808SOL    HW1 9323   0.520   5.050   5.685
 2808SOL    HW2 9324   0.451   4.914   5.628
 2809SOL     OW 9325   0.247   5.376   2.031
 2809SOL    HW1 9326   0.153   5.343   2.038
 2809SOL    HW2 9327   0.301   5.340   2.107
 2810SOL     OW 9328   2.167   6.579   2.910
 2810SOL    HW1 9329   2.199   6.546   2.999
 2810SOL    HW2 9330   2.169   6.679   2.908
 2811SOL     OW 9331   1.110   1.048   0.667
 2811SOL    HW1 9332   1.020   1.081   0.639
 2811SOL    HW2 9333   1.152   1.114   0.730
 2812SOL     OW 9334   1.157   1.568   0.743
 2812SOL    HW1 9335   1.231   1.517   0.787
 2812SOL    HW2 9336   1.132   1.646   0.799
 2813SOL     OW 9337   0.779   3.535   2.074
 2813SOL    HW1 9338   0.686   3.504   2.093
 2813SOL    HW2 9339   0.834   3.528   2.157
 2814SOL     OW 9340   2.849   4.085   7.016
 2814SOL    HW1 9341   2.773   4.046   6.965
 2814SOL    HW2 9342   2.826   4.178   0.022
 2815SOL     OW 9343   0.421   5.049   4.808
 2815SOL    HW1 9344   0.389   5.044   4.713
 2815SOL    HW2 9345   0.414   5.144   4.840
 2816SOL     OW 9346   0.762   5.954   5.207
 2816SOL    HW1 9347   0.729   5.889   5.276
 2816SOL    HW2 9348   0.853   5.926   5.177
 2817SOL     OW 9349   3.210   0.732   2.357
 2817SOL    HW1 9350   3.299   0.776   2.367
 2817SOL    HW2 9351   3.146   0.771   2.423
 2818SOL     OW 9352   2.064   0.575   0.475
 2818SOL    HW1 9353   1.981   0.534   0.513
 2818SOL    HW2 9354   2.116   0.506   0.425
 2819SOL     OW 9355   0.856   0.210   6.654
 2819SOL    HW1 9356   0.884   0.271   6.580
 2819SOL    HW2 9357   0.843   0.118   6.619
 2820SOL     OW 9358   1.809   2.188   0.081
 2820SOL    HW1 9359   1.773   2.230   7.021
 2820SOL    HW2 9360   1.772   2.234   0.161
 2821SOL     OW 9361   3.326   3.573   5.988
 2821SOL    HW1 9362   3.290   3.657   5.947
 2821SOL    HW2 9363   3.337   3.504   5.916
 2822SOL     OW 9364   5.128   2.799   0.167
 2822SOL    HW1 9365   5.050   2.750   0.206
 2822SOL    HW2 9366   5.096   2.855   0.090
 2823SOL     OW 9367   4.792   3.104   1.140
 2823SOL    HW1 9368   4.733   3.136   1.214
 2823SOL    HW2 9369   4.793   3.004   1.139
 2824SOL     OW 9370   0.905   4.268   4.601
 2824SOL    HW1 9371   0.866   4.179   4.575
 2824SOL    HW2 9372   0.832   4.330   4.629
 2825SOL     OW 9373   5.267   1.277   6.412
 2825SOL    HW1 9374   5.347   1.235   6.369
 2825SOL    HW2 9375   5.285   1.290   6.509
 2826SOL     OW 9376   2.437   2.795   6.524
 2826SOL    HW1 9377   2.363   2.741   6.485
 2826SOL    HW2 9378   2.422   2.892   6.503
 2827SOL     OW 9379   6.074   1.629   6.586
 2827SOL    HW1 9380   6.043   1.640   6.491
 2827SOL    HW2 9381   6.052   1.711   6.638
 2828SOL     OW 9382   1.311   3.492   1.189
 2828SOL    HW1 9383   1.366   3.572   1.166
 2828SOL    HW2 9384   1.368   3.410   1.184
 2829SOL     OW 9385   3.386   3.438   2.275
 2829SOL    HW1 9386   3.480   3.412   2.253
 2829SOL    HW2 9387   3.381   3.538   2.284
 2830SOL     OW 9388   3.317   6.087   4.959
 2830SOL    HW1 9389   3.370   6.038   5.028
 2830SOL    HW2 9390   3.252   6.024   4.917
 2831SOL     OW 9391   6.005   1.470   1.593
 2831SOL    HW1 9392   6.002   1.564   1.561
 2831SOL    HW2 9393   5.965   1.410   1.523
 2832SOL     OW 9394   0.685   3.877   2.196
 2832SOL    HW1 9395   0.727   3.840   2.113
 2832SOL    HW2 9396   0.627   3.807   2.238
 2833SOL     OW 9397   1.339   2.868   2.555
 2833SOL    HW1 9398   1.417   2.927   2.535
 2833SOL    HW2 9399   1.258   2.924   2.574
 2834SOL     OW 9400   3.606   6.395   4.579
 2834SOL    HW1 9401   3.607   6.481   4.630
 2834SOL    HW2 9402   3.532   6.337   4.613
 2835SOL     OW 9403   6.353   0.583   6.952
 2835SOL    HW1 9404   6.434   0.609   7.004
 2835SOL    HW2 9405   6.281   0.651   6.967
 2836SOL     OW 9406   3.266   5.952   2.577
 2836SOL    HW1 9407   3.318   5.998   2.505
 2836SOL    HW2 9408   3.208   5.881   2.537
 2837SOL     OW 9409   4.975   4.446   1.487
 2837SOL    HW1 9410   5.070   4.471   1.468
 2837SOL    HW2 9411   4.915   4.491   1.420
 2838SOL     OW 9412   6.384   4.233   6.285
 2838SOL    HW1 9413   6.470   4.282   6.299
 2838SOL    HW2 9414   6.340   4.267   6.201
 2839SOL     OW 9415   6.192   3.557   5.269
 2839SOL    HW1 9416   6.127   3.483   5.287
 2839SOL    HW2 9417   6.186   3.584   5.173
 2840SOL     OW 9418   6.232   6.754   4.269
 2840SOL    HW1 9419   6.329   6.740   4.289
 2840SOL    HW2 9420   6.179   6.753   4.354
 2841SOL     OW 9421   5.377   4.038   2.374
 2841SOL    HW1 9422   5.409   3.953   2.332
 2841SOL    HW2 9423   5.437   4.113   2.347
 2842SOL     OW 9424   0.813   0.540   3.695
 2842SOL    HW1 9425   0.771   0.555   3.606
 2842SOL    HW2 9426   0.913   0.542   3.686
 2843SOL     OW 9427   2.419   2.648   3.436
 2843SOL    HW1 9428   2.356   2.661   3.512
 2843SOL    HW2 9429   2.386   2.572   3.379
 2844SOL     OW 9430   4.791   3.732   0.568
 2844SOL    HW1 9431   4.807   3.762   0.662
 2844SOL    HW2 9432   4.692   3.730   0.550
 2845SOL     OW 9433   2.707   1.703   1.923
 2845SOL    HW1 9434   2.793   1.664   1.954
 2845SOL    HW2 9435   2.671   1.764   1.994
 2846SOL     OW 9436   6.499   6.763   6.752
 2846SOL    HW1 9437   6.531   6.857   6.754
 2846SOL    HW2 9438   6.510   6.722   6.843
 2847SOL     OW 9439   4.757   5.115   1.468
 2847SOL    HW1 9440   4.813   5.163   1.536
 2847SOL    HW2 9441   4.814   5.056   1.412
 2848SOL     OW 9442   0.938   4.141   5.495
 2848SOL    HW1 9443   1.022   4.173   5.538
 2848SOL    HW2 9444   0.960   4.095   5.409
 2849SOL     OW 9445   5.360   0.753   1.911
 2849SOL    HW1 9446   5.281   0.722   1.858
 2849SOL    HW2 9447   5.444   0.723   1.866
 2850SOL     OW 9448   1.233   0.675   2.092
 2850SOL    HW1 9449   1.312   0.617   2.114
 2850SOL    HW2 9450   1.175   0.685   2.173
 2851SOL     OW 9451   3.088   3.458   1.433
 2851SOL    HW1 9452   3.120   3.408   1.514
 2851SOL    HW2 9453   3.100   3.556   1.449
 2852SOL     OW 9454   6.754   4.426   5.848
 2852SOL    HW1 9455   6.696   4.345   5.852
 2852SOL    HW2 9456   6.798   4.432   5.759
 2853SOL     OW 9457   0.268   4.014   5.318
 2853SOL    HW1 9458   0.306   3.993   5.227
 2853SOL    HW2 9459   0.173   4.041   5.308
 2854SOL     OW 9460   3.671   1.011   6.200
 2854SOL    HW1 9461   3.732   0.932   6.206
 2854SOL    HW2 9462   3.711   1.088   6.250
 2855SOL     OW 9463   2.105   1.503   4.765
 2855SOL    HW1 9464   2.014   1.464   4.780
 2855SOL    HW2 9465   2.147   1.461   4.685
 2856SOL     OW 9466   0.539   5.681   3.717
 2856SOL    HW1 9467   0.474   5.742   3.670
 2856SOL    HW2 9468   0.609   5.737   3.762
 2857SOL     OW 9469   6.685   4.169   0.866
 2857SOL    HW1 9470   6.618   4.095   0.875
 2857SOL    HW2 9471   6.770   4.142   0.911
 2858SOL     OW 9472   4.516   4.755   2.350
 2858SOL    HW1 9473   4.584   4.682   2.351
 2858SOL    HW2 9474   4.443   4.734   2.415
 2859SOL     OW 9475   5.350   4.987   1.571
 2859SOL    HW1 9476   5.294   5.053   1.521
 2859SOL    HW2 9477   5.361   5.018   1.665
 2860SOL     OW 9478   1.194   0.126   2.246
 2860SOL    HW1 9479   1.097   0.141   2.225
 2860SOL    HW2 9480   1.203   0.047   2.307
 2861SOL     OW 9481   4.394   4.031   5.692
 2861SOL    HW1 9482   4.456   4.011   5.616
 2861SOL    HW2 9483   4.335   3.951   5.708
 2862SOL     OW 9484   4.576   2.391   6.965
 2862SOL    HW1 9485   4.593   2.292   6.973
 2862SOL    HW2 9486   4.478   2.407   6.966
 2863SOL     OW 9487   5.855   1.739   5.213
 2863SOL    HW1 9488   5.915   1.660   5.194
 2863SOL    HW2 9489   5.823   1.777   5.126
 2864SOL     OW 9490   3.875   4.769   0.476
 2864SOL    HW1 9491   3.897   4.725   0.389
 2864SOL    HW2 9492   3.845   4.699   0.542
 2865SOL     OW 9493   5.689   5.079   5.146
 2865SOL    HW1 9494   5.741   5.090   5.061
 2865SOL    HW2 9495   5.748   5.042   5.217
 2866SOL     OW 9496   3.809   4.256   0.623
 2866SOL    HW1 9497   3.796   4.347   0.662
 2866SOL    HW2 9498   3.816   4.189   0.696
 2867SOL     OW 9499   5.843   6.322   2.585
 2867SOL    HW1 9500   5.813   6.381   2.660
 2867SOL    HW2 9501   5.764   6.289   2.534
 2868SOL     OW 9502   0.563   0.262   6.143
 2868SOL    HW1 9503   0.599   0.355   6.134
 2868SOL    HW2 9504   0.539   0.227   6.053
 2869SOL     OW 9505   6.011   5.126   4.202
 2869SOL    HW1 9506   6.020   5.033   4.237
 2869SOL    HW2 9507   5.926   5.135   4.150
 2870SOL     OW 9508   6.701   1.611   1.842
 2870SOL    HW1 9509   6.660   1.677   1.906
 2870SOL    HW2 9510   6.800   1.625   1.838
 2871SOL     OW 9511   4.636   1.627   2.992
 2871SOL    HW1 9512   4.552   1.682   2.997
 2871SOL    HW2 9513   4.613   1.533   2.966
 2872SOL     OW 9514   2.433   2.112   2.706
 2872SOL    HW1 9515   2.399   2.198   2.667
 2872SOL    HW2 9516   2.488   2.131   2.788
 2873SOL     OW 9517   1.295   0.199   1.391
 2873SOL    HW1 9518   1.272   0.290   1.427
 2873SOL    HW2 9519   1.329   0.209   1.298
 2874SOL     OW 9520   2.131   1.432   3.103
 2874SOL    HW1 9521   2.031   1.428   3.093
 2874SOL    HW2 9522   2.174   1.386   3.026
 2875SOL     OW 9523   2.432   6.449   3.299
 2875SOL    HW1 9524   2.381   6.431   3.384
 2875SOL    HW2 9525   2.389   6.401   3.223
 2876SOL     OW 9526   1.886   6.876   1.756
 2876SOL    HW1 9527   1.823   6.812   1.714
 2876SOL    HW2 9528   1.841   6.923   1.832
 2877SOL     OW 9529   1.591   2.463   6.519
 2877SOL    HW1 9530   1.642   2.403   6.457
 2877SOL    HW2 9531   1.513   2.503   6.471
 2878SOL     OW 9532   3.886   2.999   4.315
 2878SOL    HW1 9533   3.800   2.953   4.338
 2878SOL    HW2 9534   3.945   3.003   4.396
 2879SOL     OW 9535   5.343   4.175   0.395
 2879SOL    HW1 9536   5.247   4.188   0.367
 2879SOL    HW2 9537   5.351   4.191   0.493
 2880SOL     OW 9538   2.288   0.979   3.386
 2880SOL    HW1 9539   2.261   1.007   3.479
 2880SOL    HW2 9540   2.378   0.936   3.389
 2881SOL     OW 9541   5.442   6.370   0.531
 2881SOL    HW1 9542   5.505   6.375   0.453
 2881SOL    HW2 9543   5.494   6.374   0.616
 2882SOL     OW 9544   4.546   6.032   0.087
 2882SOL    HW1 9545   4.602   5.979   0.151
 2882SOL    HW2 9546   4.509   6.112   0.134
 2883SOL     OW 9547   5.838   6.706   3.854
 2883SOL    HW1 9548   5.909   6.717   3.923
 2883SOL    HW2 9549   5.806   6.796   3.825
 2884SOL     OW 9550   5.879   5.634   4.084
 2884SOL    HW1 9551   5.836   5.544   4.095
 2884SOL    HW2 9552   5.978   5.625   4.090
 2885SOL     OW 9553   1.257   2.445   3.310
 2885SOL    HW1 9554   1.314   2.450   3.228
 2885SOL    HW2 9555   1.294   2.507   3.380
 2886SOL     OW 9556   2.509   4.237   5.617
 2886SOL    HW1 9557   2.582   4.257   5.552
 2886SOL    HW2 9558   2.532   4.275   5.707
 2887SOL     OW 9559   0.225   6.081   2.850
 2887SOL    HW1 9560   0.240   5.985   2.874
 2887SOL    HW2 9561   0.308   6.133   2.870
 2888SOL     OW 9562   5.704   0.064   6.587
 2888SOL    HW1 9563   5.655   0.117   6.656
 2888SOL    HW2 9564   5.688   6.990   6.602
 2889SOL     OW 9565   3.829   6.072   3.539
 2889SOL    HW1 9566   3.739   6.114   3.551
 2889SOL    HW2 9567   3.897   6.124   3.590
 2890SOL     OW 9568   0.607   2.144   1.088
 2890SOL    HW1 9569   0.620   2.207   1.165
 2890SOL    HW2 9570   0.624   2.192   1.002
 2891SOL     OW 9571   6.948   1.602   5.027
 2891SOL    HW1 9572   6.955   1.502   5.029
 2891SOL    HW2 9573   7.020   1.640   4.969
 2892SOL     OW 9574   5.084   3.965   2.073
 2892SOL    HW1 9575   4.986   3.970   2.057
 2892SOL    HW2 9576   5.102   3.910   2.154
 2893SOL     OW 9577   6.715   5.576   5.200
 2893SOL    HW1 9578   6.682   5.535   5.115
 2893SOL    HW2 9579   6.646   5.566   5.271
 2894SOL     OW 9580   2.308   5.451   2.220
 2894SOL    HW1 9581   2.351   5.492   2.140
 2894SOL    HW2 9582   2.290   5.522   2.289
 2895SOL     OW 9583   4.699   6.813   5.751
 2895SOL    HW1 9584   4.646   6.791   5.833
 2895SOL    HW2 9585   4.779   6.753   5.746
 2896SOL     OW 9586   5.529   0.213   4.520
 2896SOL    HW1 9587   5.543   0.122   4.561
 2896SOL    HW2 9588   5.606   0.272   4.546
 2897SOL     OW 9589   4.041   5.354   2.876
 2897SOL    HW1 9590   3.969   5.287   2.860
 2897SOL    HW2 9591   4.025   5.400   2.964
 2898SOL     OW 9592   5.421   2.668   2.377
 2898SOL    HW1 9593   5.468   2.688   2.463
 2898SOL    HW2 9594   5.338   2.617   2.396
 2899SOL     OW 9595   0.017   3.674   1.084
 2899SOL    HW1 9596   7.003   3.584   1.058
 2899SOL    HW2 9597   0.115   3.676   1.066
 2900SOL     OW 9598   2.284   3.051   5.719
 2900SOL    HW1 9599   2.341   3.127   5.688
 2900SOL    HW2 9600   2.195   3.086   5.751
 2901SOL     OW 9601   0.930   4.072   3.017
 2901SOL    HW1 9602   0.939   4.031   2.926
 2901SOL    HW2 9603   0.840   4.115   3.026
 2902SOL     OW 9604   6.054   5.808   3.762
 2902SOL    HW1 9605   5.956   5.811   3.744
 2902SOL    HW2 9606   6.074   5.855   3.848
 2903SOL     OW 9607   5.534   4.804   0.245
 2903SOL    HW1 9608   5.560   4.747   0.166
 2903SOL    HW2 9609   5.555   4.900   0.225
 2904SOL     OW 9610   2.072   4.155   5.028
 2904SOL    HW1 9611   2.156   4.101   5.037
 2904SOL    HW2 9612   2.036   4.175   5.119
 2905SOL     OW 9613   1.772   5.973   1.197
 2905SOL    HW1 9614   1.738   6.061   1.164
 2905SOL    HW2 9615   1.710   5.901   1.169
 2906SOL     OW 9616   6.080   5.887   4.536
 2906SOL    HW1 9617   6.077   5.860   4.632
 2906SOL    HW2 9618   5.987   5.885   4.498
 2907SOL     OW 9619   0.355   0.974   4.742
 2907SOL    HW1 9620   0.454   0.979   4.733
 2907SOL    HW2 9621   0.315   1.062   4.717
 2908SOL     OW 9622   4.404   0.095   3.296
 2908SOL    HW1 9623   4.357   0.036   3.230
 2908SOL    HW2 9624   4.431   0.040   3.376
 2909SOL     OW 9625   0.251   6.496   1.462
 2909SOL    HW1 9626   0.191   6.481   1.384
 2909SOL    HW2 9627   0.202   6.475   1.547
 2910SOL     OW 9628   0.473   0.911   4.182
 2910SOL    HW1 9629   0.490   0.823   4.138
 2910SOL    HW2 9630   0.402   0.901   4.252
 2911SOL     OW 9631   6.967   4.171   5.509
 2911SOL    HW1 9632   6.989   4.142   5.416
 2911SOL    HW2 9633   6.905   4.105   5.551
 2912SOL     OW 9634   1.226   1.403   1.470
 2912SOL    HW1 9635   1.236   1.418   1.568
 2912SOL    HW2 9636   1.290   1.462   1.421
 2913SOL     OW 9637   3.006   6.434   3.123
 2913SOL    HW1 9638   3.052   6.523   3.117
 2913SOL    HW2 9639   2.907   6.448   3.122
 2914SOL     OW 9640   4.266   5.449   0.930
 2914SOL    HW1 9641   4.298   5.355   0.946
 2914SOL    HW2 9642   4.280   5.503   1.013
 2915SOL     OW 9643   2.828   0.154   3.307
 2915SOL    HW1 9644   2.811   0.187   3.214
 2915SOL    HW2 9645   2.924   0.170   3.331
 2916SOL     OW 9646   1.984   5.964   6.842
 2916SOL    HW1 9647   2.056   5.977   6.910
 2916SOL    HW2 9648   1.950   6.053   6.812
 2917SOL     OW 9649   2.784   6.840   3.594
 2917SOL    HW1 9650   2.732   6.909   3.644
 2917SOL    HW2 9651   2.777   6.858   3.496
 2918SOL     OW 9652   4.928   3.080   1.557
 2918SOL    HW1 9653   5.010   3.070   1.614
 2918SOL    HW2 9654   4.858   3.129   1.609
 2919SOL     OW 9655   0.586   6.034   5.035
 2919SOL    HW1 9656   0.644   5.994   5.106
 2919SOL    HW2 9657   0.593   6.133   5.039
 2920SOL     OW 9658   2.191   2.718   2.406
 2920SOL    HW1 9659   2.109   2.677   2.364
 2920SOL    HW2 9660   2.258   2.646   2.425
 2921SOL     OW 9661   1.197   6.264   3.857
 2921SOL    HW1 9662   1.182   6.347   3.912
 2921SOL    HW2 9663   1.294   6.237   3.863
 2922SOL     OW 9664   3.926   5.497   4.143
 2922SOL    HW1 9665   3.993   5.475   4.214
 2922SOL    HW2 9666   3.837   5.510   4.185
 2923SOL     OW 9667   6.913   5.324   5.361
 2923SOL    HW1 9668   6.864   5.396   5.313
 2923SOL    HW2 9669   6.956   5.262   5.295
 2924SOL     OW 9670   6.093   1.690   6.316
 2924SOL    HW1 9671   6.183   1.671   6.277
 2924SOL    HW2 9672   6.026   1.703   6.243
 2925SOL     OW 9673   5.805   6.427   4.702
 2925SOL    HW1 9674   5.773   6.399   4.612
 2925SOL    HW2 9675   5.751   6.505   4.734
 2926SOL     OW 9676   6.741   2.528   4.166
 2926SOL    HW1 9677   6.658   2.585   4.168
 2926SOL    HW2 9678   6.714   2.433   4.152
 2927SOL     OW 9679   1.116   1.952   1.864
 2927SOL    HW1 9680   1.215   1.944   1.856
 2927SOL    HW2 9681   1.093   2.038   1.910
 2928SOL     OW 9682   6.276   3.179   0.459
 2928SOL    HW1 9683   6.352   3.159   0.522
 2928SOL    HW2 9684   6.312   3.190   0.366
 2929SOL     OW 9685   2.112   2.075   3.909
 2929SOL    HW1 9686   2.171   2.149   3.942
 2929SOL    HW2 9687   2.025   2.077   3.959
 2930SOL     OW 9688   0.575   4.322   4.252
 2930SOL    HW1 9689   0.659   4.376   4.245
 2930SOL    HW2 9690   0.597   4.232   4.290
 2931SOL     OW 9691   4.903   4.132   5.439
 2931SOL    HW1 9692   4.950   4.154   5.524
 2931SOL    HW2 9693   4.942   4.186   5.364
 2932SOL     OW 9694   6.007   4.909   1.303
 2932SOL    HW1 9695   6.075   4.979   1.282
 2932SOL    HW2 9696   6.053   4.821   1.317
 2933SOL     OW 9697   1.069   6.273   7.013
 2933SOL    HW1 9698   1.162   6.237   7.018
 2933SOL    HW2 9699   1.004   6.198   7.023
 2934SOL     OW 9700   3.797   4.605   0.924
 2934SOL    HW1 9701   3.778   4.552   1.007
 2934SOL    HW2 9702   3.895   4.608   0.908
 2935SOL     OW 9703   1.005   2.561   6.209
 2935SOL    HW1 9704   1.050   2.620   6.276
 2935SOL    HW2 9705   0.916   2.532   6.244
 2936SOL     OW 9706   5.104   6.738   1.710
 2936SOL    HW1 9707   5.008   6.727   1.683
 2936SOL    HW2 9708   5.111   6.810   1.779
 2937SOL     OW 9709   5.223   4.236   2.555
 2937SOL    HW1 9710   5.252   4.183   2.476
 2937SOL    HW2 9711   5.124   4.248   2.552
 2938SOL     OW 9712   0.828   5.961   6.104
 2938SOL    HW1 9713   0.753   5.983   6.166
 2938SOL    HW2 9714   0.887   6.041   6.093
 2939SOL     OW 9715   0.305   5.853   1.606
 2939SOL    HW1 9716   0.363   5.774   1.587
 2939SOL    HW2 9717   0.297   5.910   1.524
 2940SOL     OW 9718   4.450   6.756   3.843
 2940SOL    HW1 9719   4.467   6.793   3.934
 2940SOL    HW2 9720   4.372   6.802   3.802
 2941SOL     OW 9721   2.150   4.569   3.076
 2941SOL    HW1 9722   2.220   4.499   3.087
 2941SOL    HW2 9723   2.191   4.659   3.094
 2942SOL     OW 9724   3.791   1.575   1.023
 2942SOL    HW1 9725   3.845   1.649   1.063
 2942SOL    HW2 9726   3.793   1.496   1.084
 2943SOL     OW 9727   5.628   3.975   2.614
 2943SOL    HW1 9728   5.596   4.065   2.588
 2943SOL    HW2 9729   5.711   3.953   2.563
 2944SOL     OW 9730   2.151   5.705   2.305
 2944SOL    HW1 9731   2.168   5.757   2.389
 2944SOL    HW2 9732   2.061   5.662   2.310
 2945SOL     OW 9733   4.958   4.401   1.022
 2945SOL    HW1 9734   4.899   4.474   1.057
 2945SOL    HW2 9735   4.990   4.426   0.931
 2946SOL     OW 9736   3.617   3.472   4.883
 2946SOL    HW1 9737   3.531   3.480   4.832
 2946SOL    HW2 9738   3.672   3.555   4.869
 2947SOL     OW 9739   6.408   5.866   1.150
 2947SOL    HW1 9740   6.430   5.771   1.171
 2947SOL    HW2 9741   6.489   5.923   1.166
 2948SOL     OW 9742   6.888   3.758   2.483
 2948SOL    HW1 9743   6.928   3.667   2.497
 2948SOL    HW2 9744   6.957   3.818   2.442
 2949SOL     OW 9745   1.754   6.559   0.552
 2949SOL    HW1 9746   1.838   6.560   0.498
 2949SOL    HW2 9747   1.684   6.614   0.507
 2950SOL     OW 9748   6.163   5.616   2.609
 2950SOL    HW1 9749   6.135   5.606   2.514
 2950SOL    HW2 9750   6.087   5.592   2.669
 2951SOL     OW 9751   0.383   1.271   1.491
 2951SOL    HW1 9752   0.461   1.262   1.429
 2951SOL    HW2 9753   0.313   1.328   1.448
 2952SOL     OW 9754   6.988   1.512   5.459
 2952SOL    HW1 9755   6.959   1.450   5.533
 2952SOL    HW2 9756   6.937   1.490   5.376
 2953SOL     OW 9757   1.502   4.892   3.575
 2953SOL    HW1 9758   1.474   4.822   3.640
 2953SOL    HW2 9759   1.602   4.896   3.570
 2954SOL     OW 9760   0.034   4.164   6.383
 2954SOL    HW1 9761   0.111   4.099   6.384
 2954SOL    HW2 9762   6.991   4.137   6.453
 2955SOL     OW 9763   1.413   4.223   6.036
 2955SOL    HW1 9764   1.325   4.227   5.988
 2955SOL    HW2 9765   1.405   4.266   6.125
 2956SOL     OW 9766   5.210   4.681   4.383
 2956SOL    HW1 9767   5.205   4.590   4.342
 2956SOL    HW2 9768   5.177   4.677   4.477
 2957SOL     OW 9769   2.777   5.232   1.177
 2957SOL    HW1 9770   2.698   5.249   1.118
 2957SOL    HW2 9771   2.747   5.225   1.272
 2958SOL     OW 9772   1.963   4.560   2.834
 2958SOL    HW1 9773   2.039   4.572   2.898
 2958SOL    HW2 9774   1.998   4.529   2.746
 2959SOL     OW 9775   0.154   3.776   3.502
 2959SOL    HW1 9776   0.245   3.786   3.461
 2959SOL    HW2 9777   0.151   3.824   3.589
 2960SOL     OW 9778   5.191   7.022   0.940
 2960SOL    HW1 9779   5.218   0.094   0.954
 2960SOL    HW2 9780   5.129   7.016   0.862
 2961SOL     OW 9781   5.880   3.253   1.893
 2961SOL    HW1 9782   5.938   3.171   1.898
 2961SOL    HW2 9783   5.791   3.228   1.855
 2962SOL     OW 9784   6.898   0.527   3.746
 2962SOL    HW1 9785   6.907   0.581   3.663
 2962SOL    HW2 9786   6.805   0.537   3.782
 2963SOL     OW 9787   1.574   0.439   5.016
 2963SOL    HW1 9788   1.604   0.350   4.982
 2963SOL    HW2 9789   1.531   0.490   4.941
 2964SOL     OW 9790   1.725   1.169   6.173
 2964SOL    HW1 9791   1.818   1.198   6.154
 2964SOL    HW2 9792   1.662   1.246   6.157
 2965SOL     OW 9793   6.685   6.900   5.575
 2965SOL    HW1 9794   6.732   6.987   5.590
 2965SOL    HW2 9795   6.740   6.826   5.613
 2966SOL     OW 9796   2.561   6.178   2.044
 2966SOL    HW1 9797   2.631   6.226   2.096
 2966SOL    HW2 9798   2.492   6.243   2.011
 2967SOL     OW 9799   5.502   0.549   4.965
 2967SOL    HW1 9800   5.503   0.503   4.877
 2967SOL    HW2 9801   5.408   0.576   4.988
 2968SOL     OW 9802   0.891   3.859   1.155
 2968SOL    HW1 9803   0.931   3.879   1.245
 2968SOL    HW2 9804   0.929   3.773   1.121
 2969SOL     OW 9805   4.776   3.082   5.179
 2969SOL    HW1 9806   4.717   3.017   5.130
 2969SOL    HW2 9807   4.721   3.132   5.246
 2970SOL     OW 9808   2.440   2.429   5.326
 2970SOL    HW1 9809   2.434   2.399   5.421
 2970SOL    HW2 9810   2.519   2.490   5.315
 2971SOL     OW 9811   5.161   2.898   6.320
 2971SOL    HW1 9812   5.245   2.944   6.292
 2971SOL    HW2 9813   5.103   2.962   6.369
 2972SOL     OW 9814   6.606   5.250   5.914
 2972SOL    HW1 9815   6.624   5.316   5.987
 2972SOL    HW2 9816   6.533   5.284   5.855
 2973SOL     OW 9817   4.527   1.300   4.018
 2973SOL    HW1 9818   4.503   1.395   4.034
 2973SOL    HW2 9819   4.471   1.263   3.944
 2974SOL     OW 9820   4.544   0.006   2.209
 2974SOL    HW1 9821   4.603   7.021   2.290
 2974SOL    HW2 9822   4.542   6.941   2.161
 2975SOL     OW 9823   4.917   3.685   4.660
 2975SOL    HW1 9824   4.891   3.757   4.724
 2975SOL    HW2 9825   4.925   3.598   4.708
 2976SOL     OW 9826   4.127   1.005   2.184
 2976SOL    HW1 9827   4.224   1.020   2.165
 2976SOL    HW2 9828   4.107   0.907   2.175
 2977SOL     OW 9829   1.033   0.548   1.932
 2977SOL    HW1 9830   1.119   0.577   1.975
 2977SOL    HW2 9831   0.992   0.475   1.986
 2978SOL     OW 9832   4.598   5.310   6.881
 2978SOL    HW1 9833   4.608   5.409   6.896
 2978SOL    HW2 9834   4.501   5.285   6.886
 2979SOL     OW 9835   2.893   0.882   4.881
 2979SOL    HW1 9836   2.827   0.902   4.808
 2979SOL    HW2 9837   2.977   0.846   4.841
 2980SOL     OW 9838   2.882   3.535   4.213
 2980SOL    HW1 9839   2.783   3.544   4.217
 2980SOL    HW2 9840   2.907   3.483   4.131
 2981SOL     OW 9841   2.696   0.454   1.245
 2981SOL    HW1 9842   2.704   0.543   1.288
 2981SOL    HW2 9843   2.609   0.412   1.270
 2982SOL     OW 9844   1.990   0.479   0.923
 2982SOL    HW1 9845   2.021   0.531   0.843
 2982SOL    HW2 9846   1.943   0.540   0.986
 2983SOL     OW 9847   6.565   3.197   5.769
 2983SOL    HW1 9848   6.518   3.284   5.782
 2983SOL    HW2 9849   6.662   3.209   5.788
 2984SOL     OW 9850   0.707   5.580   1.467
 2984SOL    HW1 9851   0.770   5.502   1.469
 2984SOL    HW2 9852   0.751   5.660   1.508
 2985SOL     OW 9853   6.332   0.543   6.108
 2985SOL    HW1 9854   6.265   0.501   6.047
 2985SOL    HW2 9855   6.415   0.486   6.110
 2986SOL     OW 9856   3.650   3.395   2.282
 2986SOL    HW1 9857   3.649   3.444   2.370
 2986SOL    HW2 9858   3.743   3.362   2.264
 2987SOL     OW 9859   2.301   5.842   5.158
 2987SOL    HW1 9860   2.395   5.874   5.171
 2987SOL    HW2 9861   2.238   5.908   5.198
 2988SOL     OW 9862   0.188   1.591   6.439
 2988SOL    HW1 9863   0.194   1.512   6.379
 2988SOL    HW2 9864   0.279   1.633   6.447
 2989SOL     OW 9865   5.503   3.433   4.808
 2989SOL    HW1 9866   5.507   3.529   4.834
 2989SOL    HW2 9867   5.410   3.408   4.783
 2990SOL     OW 9868   5.331   2.191   4.603
 2990SOL    HW1 9869   5.293   2.196   4.511
 2990SOL    HW2 9870   5.281   2.254   4.663
 2991SOL     OW 9871   0.031   3.198   0.223
 2991SOL    HW1 9872   0.066   3.104   0.220
 2991SOL    HW2 9873   6.963   3.200   0.181
 2992SOL     OW 9874   0.525   4.097   4.915
 2992SOL    HW1 9875   0.486   4.189   4.907
 2992SOL    HW2 9876   0.611   4.102   4.967
 2993SOL     OW 9877   2.418   4.053   0.566
 2993SOL    HW1 9878   2.482   4.055   0.489
 2993SOL    HW2 9879   2.331   4.013   0.536
 2994SOL     OW 9880   3.329   6.010   5.349
 2994SOL    HW1 9881   3.263   6.050   5.285
 2994SOL    HW2 9882   3.281   5.956   5.418
 2995SOL     OW 9883   4.390   0.306   1.344
 2995SOL    HW1 9884   4.482   0.293   1.307
 2995SOL    HW2 9885   4.323   0.275   1.277
 2996SOL     OW 9886   6.729   0.521   4.088
 2996SOL    HW1 9887   6.705   0.577   4.009
 2996SOL    HW2 9888   6.703   0.426   4.072
 2997SOL     OW 9889   5.298   6.789   4.467
 2997SOL    HW1 9890   5.295   6.887   4.490
 2997SOL    HW2 9891   5.374   6.772   4.405
 2998SOL     OW 9892   3.030   0.647   1.656
 2998SOL    HW1 9893   3.126   0.671   1.670
 2998SOL    HW2 9894   2.990   0.617   1.742
 2999SOL     OW 9895   2.620   4.961   0.931
 2999SOL    HW1 9896   2.621   4.903   1.012
 2999SOL    HW2 9897   2.703   5.017   0.929
 3000SOL     OW 9898   2.660   4.292   5.397
 3000SOL    HW1 9899   2.632   4.356   5.325
 3000SOL    HW2 9900   2.735   4.235   5.364
 3001SOL     OW 9901   5.450   0.712   6.338
 3001SOL    HW1 9902   5.391   0.632   6.351
 3001SOL    HW2 9903   5.433   0.751   6.247
 3002SOL     OW 9904   1.588   2.025   1.729
 3002SOL    HW1 9905   1.549   2.116   1.739
 3002SOL    HW2 9906   1.516   1.956   1.744
 3003SOL     OW 9907   1.649   6.894   0.569
 3003SOL    HW1 9908   1.623   6.817   0.627
 3003SOL    HW2 9909   1.748   6.908   0.574
 3004SOL     OW 9910   2.585   6.555   3.636
 3004SOL    HW1 9911   2.615   6.630   3.576
 3004SOL    HW2 9912   2.516   6.589   3.699
 3005SOL     OW 9913   1.308   2.034   0.709
 3005SOL    HW1 9914   1.404   2.009   0.718
 3005SOL    HW2 9915   1.300   2.123   0.666
 3006SOL     OW 9916   5.135   1.504   6.298
 3006SOL    HW1 9917   5.169   1.415   6.330
 3006SOL    HW2 9918   5.126   1.502   6.198
 3007SOL     OW 9919   6.191   5.525   6.415
 3007SOL    HW1 9920   6.133   5.532   6.334
 3007SOL    HW2 9921   6.280   5.566   6.395
 3008SOL     OW 9922   4.456   3.573   5.609
 3008SOL    HW1 9923   4.533   3.578   5.673
 3008SOL    HW2 9924   4.432   3.665   5.577
 3009SOL     OW 9925   6.670   3.188   2.232
 3009SOL    HW1 9926   6.620   3.159   2.314
 3009SOL    HW2 9927   6.748   3.244   2.259
 3010SOL     OW 9928   4.581   5.629   1.929
 3010SOL    HW1 9929   4.560   5.626   1.832
 3010SOL    HW2 9930   4.531   5.704   1.972
 3011SOL     OW 9931   6.712   0.435   0.484
 3011SOL    HW1 9932   6.792   0.488   0.454
 3011SOL    HW2 9933   6.644   0.432   0.412
 3012SOL     OW 9934   1.849   1.626   4.734
 3012SOL    HW1 9935   1.802   1.567   4.800
 3012SOL    HW2 9936   1.939   1.649   4.769
 3013SOL     OW 9937   6.997   4.881   5.264
 3013SOL    HW1 9938   0.071   4.858   5.267
 3013SOL    HW2 9939   6.947   4.821   5.326
 3014SOL     OW 9940   5.277   0.358   6.190
 3014SOL    HW1 9941   5.330   0.274   6.203
 3014SOL    HW2 9942   5.301   0.424   6.261
 3015SOL     OW 9943   1.368   0.915   6.430
 3015SOL    HW1 9944   1.360   0.994   6.369
 3015SOL    HW2 9945   1.464   0.887   6.436
 3016SOL     OW 9946   2.329   6.793   4.261
 3016SOL    HW1 9947   2.356   6.755   4.173
 3016SOL    HW2 9948   2.388   6.756   4.333
 3017SOL     OW 9949   1.248   5.560   6.925
 3017SOL    HW1 9950   1.185   5.507   6.868
 3017SOL    HW2 9951   1.207   5.577   7.014
 3018SOL     OW 9952   3.490   0.960   1.664
 3018SOL    HW1 9953   3.546   0.973   1.582
 3018SOL    HW2 9954   3.549   0.940   1.742
 3019SOL     OW 9955   1.829   0.556   5.970
 3019SOL    HW1 9956   1.856   0.635   5.915
 3019SOL    HW2 9957   1.734   0.566   5.998
 3020SOL     OW 9958   6.004   4.758   6.889
 3020SOL    HW1 9959   5.971   4.819   6.961
 3020SOL    HW2 9960   5.997   4.804   6.801
 3021SOL     OW 9961   3.905   0.371   4.688
 3021SOL    HW1 9962   3.882   0.312   4.766
 3021SOL    HW2 9963   3.956   0.451   4.721
 3022SOL     OW 9964   4.400   5.924   3.838
 3022SOL    HW1 9965   4.435   5.902   3.747
 3022SOL    HW2 9966   4.355   5.843   3.877
 3023SOL     OW 9967   5.624   4.652   4.300
 3023SOL    HW1 9968   5.552   4.716   4.272
 3023SOL    HW2 9969   5.604   4.561   4.263
 3024SOL     OW 9970   0.173   1.065   0.600
 3024SOL    HW1 9971   0.227   1.145   0.627
 3024SOL    HW2 9972   0.161   1.067   0.501
 3025SOL     OW 9973   4.378   5.627   6.994
 3025SOL    HW1 9974   4.353   5.720   6.968
 3025SOL    HW2 9975   4.475   5.612   6.977
 3026SOL     OW 9976   0.559   0.487   2.064
 3026SOL    HW1 9977   0.622   0.456   2.134
 3026SOL    HW2 9978   0.593   0.572   2.023
 3027SOL     OW 9979   4.097   0.610   0.727
 3027SOL    HW1 9980   4.057   0.625   0.636
 3027SOL    HW2 9981   4.028   0.570   0.787
 3028SOL     OW 9982   3.292   3.360   5.403
 3028SOL    HW1 9983   3.361   3.318   5.462
 3028SOL    HW2 9984   3.301   3.325   5.310
 3029SOL     OW 9985   6.831   3.543   4.758
 3029SOL    HW1 9986   6.818   3.445   4.773
 3029SOL    HW2 9987   6.902   3.558   4.689
 3030SOL     OW 9988   2.449   2.422   6.450
 3030SOL    HW1 9989   2.514   2.397   6.521
 3030SOL    HW2 9990   2.357   2.390   6.476
 3031SOL     OW 9991   1.315   5.576   0.821
 3031SOL    HW1 9992   1.408   5.565   0.856
 3031SOL    HW2 9993   1.254   5.511   0.866
 3032SOL     OW 9994   2.460   6.934   3.306
 3032SOL    HW1 9995   2.549   6.925   3.263
 3032SOL    HW2 9996   2.466   6.907   3.402
 3033SOL     OW 9997   1.194   2.008   5.517
 3033SOL    HW1 9998   1.171   2.088   5.573
 3033SOL    HW2 9999   1.112   1.955   5.499
 3034SOL     OW10000   6.034   3.744   3.147
 3034SOL    HW110001   6.031   3.696   3.059
 3034SOL    HW210002   6.110   3.809   3.147
 3035SOL     OW10003   0.600   3.021   0.336
 3035SOL    HW110004   0.647   3.108   0.351
 3035SOL    HW210005   0.566   2.986   0.424
 3036SOL     OW10006   2.965   1.948   5.275
 3036SOL    HW110007   3.037   2.018   5.283
 3036SOL    HW210008   2.973   1.902   5.186
 3037SOL     OW10009   1.043   5.652   6.562
 3037SOL    HW110010   1.112   5.714   6.600
 3037SOL    HW210011   1.020   5.680   6.469
 3038SOL     OW10012   5.467   4.858   6.060
 3038SOL    HW110013   5.406   4.803   6.003
 3038SOL    HW210014   5.445   4.955   6.048
 3039SOL     OW10015   6.764   3.826   6.337
 3039SOL    HW110016   6.803   3.859   6.423
 3039SOL    HW210017   6.805   3.876   6.261
 3040SOL     OW10018   5.399   5.408   6.350
 3040SOL    HW110019   5.440   5.451   6.269
 3040SOL    HW210020   5.407   5.470   6.428
 3041SOL     OW10021   1.368   4.617   5.663
 3041SOL    HW110022   1.362   4.574   5.753
 3041SOL    HW210023   1.303   4.572   5.601
 3042SOL     OW10024   0.290   4.907   4.056
 3042SOL    HW110025   0.374   4.933   4.105
 3042SOL    HW210026   0.239   4.990   4.033
 3043SOL     OW10027   2.679   5.595   1.207
 3043SOL    HW110028   2.719   5.661   1.270
 3043SOL    HW210029   2.663   5.508   1.255
 3044SOL     OW10030   4.215   3.472   4.839
 3044SOL    HW110031   4.311   3.454   4.859
 3044SOL    HW210032   4.190   3.563   4.873
 3045SOL     OW10033   4.785   1.945   2.009
 3045SOL    HW110034   4.720   1.928   2.083
 3045SOL    HW210035   4.819   2.039   2.014
 3046SOL     OW10036   5.351   6.753   1.283
 3046SOL    HW110037   5.321   6.796   1.369
 3046SOL    HW210038   5.271   6.733   1.227
 3047SOL     OW10039   6.056   1.348   4.442
 3047SOL    HW110040   6.048   1.448   4.442
 3047SOL    HW210041   6.053   1.315   4.348
 3048SOL     OW10042   3.776   4.923   1.221
 3048SOL    HW110043   3.720   4.933   1.303
 3048SOL    HW210044   3.722   4.878   1.150
 3049SOL     OW10045   0.770   2.062   2.200
 3049SOL    HW110046   0.762   2.144   2.256
 3049SOL    HW210047   0.704   1.993   2.231
 3050SOL     OW10048   3.095   2.352   6.419
 3050SOL    HW110049   3.057   2.282   6.359
 3050SOL    HW210050   3.025   2.421   6.439
 3051SOL     OW10051   2.508   5.387   5.452
 3051SOL    HW110052   2.533   5.461   5.389
 3051SOL    HW210053   2.550   5.403   5.541
 3052SOL     OW10054   7.008   0.173   2.706
 3052SOL    HW110055   6.912   0.157   2.683
 3052SOL    HW210056   0.002   0.272   2.711
 3053SOL     OW10057   0.964   4.038   0.459
 3053SOL    HW110058   0.909   3.958   0.484
 3053SOL    HW210059   0.915   4.091   0.390
 3054SOL     OW10060   5.479   0.620   2.882
 3054SOL    HW110061   5.502   0.680   2.959
 3054SOL    HW210062   5.478   0.673   2.797
 3055SOL     OW10063   6.043   6.203   6.937
 3055SOL    HW110064   5.996   6.201   6.849
 3055SOL    HW210065   5.983   6.164   7.007
 3056SOL     OW10066   4.293   1.749   6.498
 3056SOL    HW110067   4.238   1.676   6.457
 3056SOL    HW210068   4.385   1.747   6.458
 3057SOL     OW10069   4.906   3.902   2.988
 3057SOL    HW110070   4.995   3.948   2.986
 3057SOL    HW210071   4.901   3.835   2.915
 3058SOL     OW10072   0.301   4.781   6.167
 3058SOL    HW110073   0.315   4.696   6.218
 3058SOL    HW210074   0.368   4.849   6.195
 3059SOL     OW10075   1.223   2.191   2.706
 3059SOL    HW110076   1.161   2.163   2.779
 3059SOL    HW210077   1.185   2.163   2.617
 3060SOL     OW10078   5.645   4.112   4.002
 3060SOL    HW110079   5.707   4.188   3.983
 3060SOL    HW210080   5.695   4.038   4.046
 3061SOL     OW10081   5.395   0.307   3.669
 3061SOL    HW110082   5.459   0.365   3.719
 3061SOL    HW210083   5.445   0.251   3.603
 3062SOL     OW10084   4.109   4.205   0.715
 3062SOL    HW110085   4.053   4.125   0.695
 3062SOL    HW210086   4.107   4.224   0.814
 3063SOL     OW10087   0.116   4.724   2.292
 3063SOL    HW110088   0.026   4.691   2.320
 3063SOL    HW210089   0.168   4.648   2.251
 3064SOL     OW10090   4.900   2.524   6.977
 3064SOL    HW110091   4.840   2.598   7.008
 3064SOL    HW210092   4.844   2.445   6.950
 3065SOL     OW10093   5.685   1.464   6.438
 3065SOL    HW110094   5.721   1.556   6.423
 3065SOL    HW210095   5.744   1.397   6.393
 3066SOL     OW10096   5.517   0.213   4.873
 3066SOL    HW110097   5.611   0.179   4.875
 3066SOL    HW210098   5.509   0.286   4.806
 3067SOL     OW10099   1.117   2.410   5.436
 3067SOL    HW110100   1.123   2.458   5.524
 3067SOL    HW210101   1.130   2.476   5.362
 3068SOL     OW10102   6.911   0.353   0.646
 3068SOL    HW110103   6.977   0.300   0.594
 3068SOL    HW210104   6.829   0.368   0.591
 3069SOL     OW10105   4.755   6.554   4.298
 3069SOL    HW110106   4.835   6.577   4.353
 3069SOL    HW210107   4.715   6.637   4.260
 3070SOL     OW10108   2.450   0.743   0.625
 3070SOL    HW110109   2.524   0.810   0.612
 3070SOL    HW210110   2.483   0.668   0.682
 3071SOL     OW10111   5.663   4.758   5.649
 3071SOL    HW110112   5.626   4.747   5.557
 3071SOL    HW210113   5.655   4.853   5.677
 3072SOL     OW10114   2.143   6.717   6.744
 3072SOL    HW110115   2.193   6.700   6.659
 3072SOL    HW210116   2.046   6.697   6.731
 3073SOL     OW10117   0.919   5.453   1.848
 3073SOL    HW110118   0.972   5.522   1.799
 3073SOL    HW210119   0.837   5.495   1.887
 3074SOL     OW10120   3.269   2.964   1.658
 3074SOL    HW110121   3.359   2.927   1.634
 3074SOL    HW210122   3.257   2.960   1.757
 3075SOL     OW10123   3.462   4.610   1.187
 3075SOL    HW110124   3.485   4.540   1.120
 3075SOL    HW210125   3.511   4.593   1.273
 3076SOL     OW10126   0.911   0.540   4.859
 3076SOL    HW110127   1.000   0.554   4.902
 3076SOL    HW210128   0.914   0.572   4.764
 3077SOL     OW10129   0.069   3.930   2.028
 3077SOL    HW110130   0.116   3.891   1.949
 3077SOL    HW210131   0.007   3.862   2.067
 3078SOL     OW10132   0.301   3.492   1.742
 3078SOL    HW110133   0.221   3.551   1.736
 3078SOL    HW210134   0.290   3.427   1.818
 3079SOL     OW10135   2.193   3.366   5.078
 3079SOL    HW110136   2.165   3.462   5.073
 3079SOL    HW210137   2.234   3.348   5.167
 3080SOL     OW10138   4.094   4.591   0.896
 3080SOL    HW110139   4.087   4.627   0.803
 3080SOL    HW210140   4.190   4.583   0.922
 3081SOL     OW10141   1.766   3.751   0.103
 3081SOL    HW110142   1.751   3.846   0.076
 3081SOL    HW210143   1.679   3.701   0.102
 3082SOL     OW10144   5.347   5.275   4.996
 3082SOL    HW110145   5.324   5.188   4.952
 3082SOL    HW210146   5.265   5.333   4.999
 3083SOL     OW10147   4.150   5.600   1.936
 3083SOL    HW110148   4.119   5.640   1.850
 3083SOL    HW210149   4.166   5.502   1.924
 3084SOL     OW10150   6.989   4.937   3.561
 3084SOL    HW110151   0.040   4.884   3.601
 3084SOL    HW210152   7.012   5.034   3.563
 3085SOL     OW10153   6.025   5.583   0.368
 3085SOL    HW110154   5.962   5.506   0.359
 3085SOL    HW210155   6.076   5.575   0.454
 3086SOL     OW10156   6.341   6.308   6.319
 3086SOL    HW110157   6.408   6.238   6.292
 3086SOL    HW210158   6.355   6.331   6.415
 3087SOL     OW10159   3.827   0.037   2.235
 3087SOL    HW110160   3.920   0.071   2.250
 3087SOL    HW210161   3.784   0.090   2.162
 3088SOL     OW10162   2.192   3.346   5.568
 3088SOL    HW110163   2.156   3.408   5.637
 3088SOL    HW210164   2.116   3.305   5.517
 3089SOL     OW10165   4.469   4.838   6.116
 3089SOL    HW110166   4.514   4.759   6.075
 3089SOL    HW210167   4.474   4.831   6.216
 3090SOL     OW10168   0.488   2.747   2.187
 3090SOL    HW110169   0.459   2.678   2.254
 3090SOL    HW210170   0.408   2.779   2.137
 3091SOL     OW10171   0.563   3.208   1.295
 3091SOL    HW110172   0.655   3.213   1.333
 3091SOL    HW210173   0.527   3.115   1.305
 3092SOL     OW10174   5.645   1.040   1.810
 3092SOL    HW110175   5.576   1.034   1.881
 3092SOL    HW210176   5.629   0.969   1.742
 3093SOL     OW10177   6.624   5.696   6.813
 3093SOL    HW110178   6.545   5.655   6.768
 3093SOL    HW210179   6.704   5.638   6.798
 3094SOL     OW10180   2.270   1.547   6.882
 3094SOL    HW110181   2.368   1.562   6.869
 3094SOL    HW210182   2.226   1.543   6.792
 3095SOL     OW10183   1.609   4.000   5.783
 3095SOL    HW110184   1.651   4.010   5.874
 3095SOL    HW210185   1.611   3.904   5.756
 3096SOL     OW10186   0.909   2.890   4.286
 3096SOL    HW110187   0.845   2.967   4.287
 3096SOL    HW210188   0.971   2.899   4.208
 3097SOL     OW10189   5.444   3.116   5.190
 3097SOL    HW110190   5.384   3.036   5.193
 3097SOL    HW210191   5.388   3.199   5.186
 3098SOL     OW10192   2.102   3.132   3.300
 3098SOL    HW110193   2.093   3.036   3.326
 3098SOL    HW210194   2.130   3.186   3.379
 3099SOL     OW10195   0.277   6.874   4.519
 3099SOL    HW110196   0.257   6.784   4.480
 3099SOL    HW210197   0.361   6.911   4.478
 3100SOL     OW10198   5.622   4.654   1.819
 3100SOL    HW110199   5.685   4.608   1.882
 3100SOL    HW210200   5.669   4.674   1.734
 3101SOL     OW10201   4.645   0.126   5.231
 3101SOL    HW110202   4.638   0.207   5.174
 3101SOL    HW210203   4.650   0.044   5.173
 3102SOL     OW10204   6.509   4.766   1.925
 3102SOL    HW110205   6.416   4.766   1.888
 3102SOL    HW210206   6.539   4.860   1.942
 3103SOL     OW10207   2.989   1.521   1.331
 3103SOL    HW110208   3.002   1.469   1.416
 3103SOL    HW210209   3.065   1.504   1.269
 3104SOL     OW10210   5.159   2.324   4.768
 3104SOL    HW110211   5.075   2.370   4.739
 3104SOL    HW210212   5.153   2.302   4.865
 3105SOL     OW10213   6.083   3.893   0.363
 3105SOL    HW110214   6.010   3.952   0.326
 3105SOL    HW210215   6.076   3.891   0.463
 3106SOL     OW10216   5.214   1.626   5.977
 3106SOL    HW110217   5.227   1.541   6.028
 3106SOL    HW210218   5.218   1.607   5.879
 3107SOL     OW10219   2.874   1.661   5.063
 3107SOL    HW110220   2.870   1.612   4.975
 3107SOL    HW210221   2.935   1.740   5.054
 3108SOL     OW10222   2.377   4.297   3.364
 3108SOL    HW110223   2.462   4.248   3.381
 3108SOL    HW210224   2.303   4.232   3.350
 3109SOL     OW10225   6.775   6.352   3.595
 3109SOL    HW110226   6.801   6.260   3.568
 3109SOL    HW210227   6.854   6.398   3.637
 3110SOL     OW10228   1.127   5.698   3.406
 3110SOL    HW110229   1.165   5.654   3.325
 3110SOL    HW210230   1.055   5.762   3.379
 3111SOL     OW10231   6.131   4.332   3.771
 3111SOL    HW110232   6.034   4.313   3.759
 3111SOL    HW210233   6.142   4.415   3.827
 3112SOL     OW10234   3.134   1.244   6.621
 3112SOL    HW110235   3.074   1.273   6.546
 3112SOL    HW210236   3.196   1.320   6.645
 3113SOL     OW10237   1.639   6.274   2.870
 3113SOL    HW110238   1.606   6.314   2.785
 3113SOL    HW210239   1.702   6.338   2.914
 3114SOL     OW10240   4.310   1.037   6.475
 3114SOL    HW110241   4.342   0.969   6.409
 3114SOL    HW210242   4.330   1.006   6.568
 3115SOL     OW10243   4.776   5.489   5.375
 3115SOL    HW110244   4.810   5.415   5.316
 3115SOL    HW210245   4.810   5.476   5.468
 3116SOL     OW10246   0.786   0.547   6.926
 3116SOL    HW110247   0.857   0.593   6.872
 3116SOL    HW210248   0.742   0.477   6.871
 3117SOL     OW10249   4.695   0.278   6.905
 3117SOL    HW110250   4.621   0.326   6.858
 3117SOL    HW210251   4.684   0.180   6.893
 3118SOL     OW10252   1.327   1.531   3.349
 3118SOL    HW110253   1.249   1.591   3.334
 3118SOL    HW210254   1.395   1.578   3.405
 3119SOL     OW10255   4.563   5.742   5.244
 3119SOL    HW110256   4.575   5.698   5.333
 3119SOL    HW210257   4.630   5.816   5.234
 3120SOL     OW10258   2.617   6.152   6.348
 3120SOL    HW110259   2.681   6.117   6.416
 3120SOL    HW210260   2.652   6.132   6.256
 3121SOL     OW10261   3.865   1.918   4.257
 3121SOL    HW110262   3.829   1.827   4.238
 3121SOL    HW210263   3.804   1.988   4.220
 3122SOL     OW10264   5.426   5.067   5.219
 3122SOL    HW110265   5.524   5.087   5.212
 3122SOL    HW210266   5.377   5.115   5.147
 3123SOL     OW10267   1.292   1.103   2.975
 3123SOL    HW110268   1.292   1.112   2.876
 3123SOL    HW210269   1.330   1.186   3.016
 3124SOL     OW10270   4.838   0.265   4.732
 3124SOL    HW110271   4.752   0.260   4.682
 3124SOL    HW210272   4.907   0.310   4.676
 3125SOL     OW10273   1.710   1.222   5.219
 3125SOL    HW110274   1.752   1.173   5.295
 3125SOL    HW210275   1.673   1.309   5.252
 3126SOL     OW10276   5.026   5.045   5.412
 3126SOL    HW110277   5.080   5.127   5.393
 3126SOL    HW210278   4.928   5.067   5.407
 3127SOL     OW10279   0.095   0.713   5.360
 3127SOL    HW110280   0.120   0.637   5.420
 3127SOL    HW210281   0.085   0.796   5.416
 3128SOL     OW10282   3.581   0.809   0.528
 3128SOL    HW110283   3.661   0.818   0.587
 3128SOL    HW210284   3.505   0.861   0.567
 3129SOL     OW10285   4.125   3.629   0.281
 3129SOL    HW110286   4.130   3.682   0.365
 3129SOL    HW210287   4.211   3.638   0.231
 3130SOL     OW10288   6.720   5.415   1.716
 3130SOL    HW110289   6.672   5.423   1.628
 3130SOL    HW210290   6.728   5.318   1.740
 3131SOL     OW10291   6.404   4.608   2.816
 3131SOL    HW110292   6.468   4.660   2.760
 3131SOL    HW210293   6.342   4.670   2.864
 3132SOL     OW10294   4.749   4.090   0.422
 3132SOL    HW110295   4.682   4.132   0.484
 3132SOL    HW210296   4.709   4.011   0.378
 3133SOL     OW10297   4.757   0.001   4.300
 3133SOL    HW110298   4.694   0.017   4.224
 3133SOL    HW210299   4.824   0.075   4.305
 3134SOL     OW10300   6.326   5.065   2.535
 3134SOL    HW110301   6.248   5.041   2.594
 3134SOL    HW210302   6.304   5.042   2.440
 3135SOL     OW10303   4.242   5.426   6.878
 3135SOL    HW110304   4.295   5.495   6.927
 3135SOL    HW210305   4.165   5.469   6.830
 3136SOL     OW10306   6.427   0.774   3.718
 3136SOL    HW110307   6.451   0.860   3.673
 3136SOL    HW210308   6.383   0.793   3.805
 3137SOL     OW10309   5.909   6.537   6.977
 3137SOL    HW110310   5.880   6.459   6.921
 3137SOL    HW210311   5.842   6.551   0.027
 3138SOL     OW10312   6.108   6.202   4.568
 3138SOL    HW110313   6.121   6.113   4.525
 3138SOL    HW210314   6.186   6.222   4.628
 3139SOL     OW10315   2.886   4.841   1.602
 3139SOL    HW110316   2.952   4.781   1.647
 3139SOL    HW210317   2.832   4.890   1.670
 3140SOL     OW10318   0.417   6.318   0.165
 3140SOL    HW110319   0.406   6.219   0.175
 3140SOL    HW210320   0.472   6.353   0.240
 3141SOL     OW10321   6.080   1.890   6.493
 3141SOL    HW110322   6.086   1.816   6.425
 3141SOL    HW210323   6.052   1.974   6.447
 3142SOL     OW10324   4.304   0.092   3.582
 3142SOL    HW110325   4.228   0.087   3.518
 3142SOL    HW210326   4.318   0.187   3.611
 3143SOL     OW10327   6.549   1.349   0.659
 3143SOL    HW110328   6.556   1.413   0.582
 3143SOL    HW210329   6.483   1.384   0.726
 3144SOL     OW10330   4.045   3.994   0.409
 3144SOL    HW110331   3.986   3.996   0.490
 3144SOL    HW210332   3.988   4.001   0.327
 3145SOL     OW10333   0.534   5.828   0.286
 3145SOL    HW110334   0.493   5.784   0.366
 3145SOL    HW210335   0.609   5.771   0.252
 3146SOL     OW10336   6.433   1.312   4.696
 3146SOL    HW110337   6.464   1.228   4.740
 3146SOL    HW210338   6.510   1.375   4.685
 3147SOL     OW10339   3.727   6.160   0.165
 3147SOL    HW110340   3.745   6.256   0.148
 3147SOL    HW210341   3.779   6.104   0.100
 3148SOL     OW10342   6.679   4.747   1.661
 3148SOL    HW110343   6.603   4.772   1.600
 3148SOL    HW210344   6.649   4.674   1.722
 3149SOL     OW10345   3.118   2.111   6.948
 3149SOL    HW110346   3.066   2.169   7.011
 3149SOL    HW210347   3.083   2.124   6.855
 3150SOL     OW10348   6.622   6.189   5.579
 3150SOL    HW110349   6.569   6.227   5.654
 3150SOL    HW210350   6.579   6.214   5.492
 3151SOL     OW10351   0.055   0.353   5.269
 3151SOL    HW110352   0.141   0.373   5.318
 3151SOL    HW210353   0.075   0.303   5.185
 3152SOL     OW10354   1.156   3.210   5.817
 3152SOL    HW110355   1.110   3.125   5.840
 3152SOL    HW210356   1.221   3.234   5.890
 3153SOL     OW10357   6.181   5.020   1.623
 3153SOL    HW110358   6.209   4.926   1.606
 3153SOL    HW210359   6.256   5.082   1.602
 3154SOL     OW10360   4.145   1.174   0.073
 3154SOL    HW110361   4.227   1.210   0.029
 3154SOL    HW210362   4.090   1.125   0.007
 3155SOL     OW10363   1.079   4.565   0.092
 3155SOL    HW110364   1.075   4.661   0.120
 3155SOL    HW210365   0.989   4.522   0.106
 3156SOL     OW10366   3.598   4.160   1.838
 3156SOL    HW110367   3.667   4.135   1.906
 3156SOL    HW210368   3.517   4.102   1.850
 3157SOL     OW10369   1.048   1.081   5.164
 3157SOL    HW110370   0.966   1.034   5.195
 3157SOL    HW210371   1.121   1.014   5.149
 3158SOL     OW10372   1.502   1.292   5.802
 3158SOL    HW110373   1.600   1.309   5.789
 3158SOL    HW210374   1.469   1.234   5.727
 3159SOL     OW10375   5.526   0.409   6.605
 3159SOL    HW110376   5.611   0.452   6.576
 3159SOL    HW210377   5.546   0.334   6.669
 3160SOL     OW10378   1.555   0.602   6.069
 3160SOL    HW110379   1.492   0.525   6.072
 3160SOL    HW210380   1.510   0.681   6.027
 3161SOL     OW10381   1.874   2.824   2.086
 3161SOL    HW110382   1.972   2.815   2.103
 3161SOL    HW210383   1.825   2.752   2.135
 3162SOL     OW10384   1.815   5.870   1.458
 3162SOL    HW110385   1.798   5.903   1.365
 3162SOL    HW210386   1.771   5.782   1.471
 3163SOL     OW10387   4.340   4.353   0.663
 3163SOL    HW110388   4.375   4.384   0.752
 3163SOL    HW210389   4.244   4.326   0.672
 3164SOL     OW10390   2.829   6.268   3.771
 3164SOL    HW110391   2.837   6.362   3.804
 3164SOL    HW210392   2.881   6.258   3.686
 3165SOL     OW10393   0.745   6.540   6.567
 3165SOL    HW110394   0.655   6.497   6.573
 3165SOL    HW210395   0.804   6.506   6.640
 3166SOL     OW10396   5.196   1.265   4.767
 3166SOL    HW110397   5.142   1.189   4.804
 3166SOL    HW210398   5.269   1.229   4.710
 3167SOL     OW10399   5.539   2.875   0.633
 3167SOL    HW110400   5.440   2.860   0.637
 3167SOL    HW210401   5.575   2.836   0.548
 3168SOL     OW10402   4.399   1.802   0.606
 3168SOL    HW110403   4.328   1.831   0.670
 3168SOL    HW210404   4.395   1.860   0.524
 3169SOL     OW10405   2.235   4.111   1.991
 3169SOL    HW110406   2.219   4.018   2.021
 3169SOL    HW210407   2.259   4.168   2.070
 3170SOL     OW10408   2.053   3.436   3.825
 3170SOL    HW110409   1.969   3.465   3.871
 3170SOL    HW210410   2.083   3.509   3.763
 3171SOL     OW10411   5.582   1.808   3.716
 3171SOL    HW110412   5.539   1.810   3.625
 3171SOL    HW210413   5.530   1.748   3.776
 3172SOL     OW10414   5.994   3.871   1.428
 3172SOL    HW110415   5.982   3.772   1.432
 3172SOL    HW210416   6.075   3.898   1.480
 3173SOL     OW10417   4.539   3.234   0.090
 3173SOL    HW110418   4.567   3.330   0.084
 3173SOL    HW210419   4.554   3.201   0.184
 3174SOL     OW10420   3.262   3.180   6.424
 3174SOL    HW110421   3.288   3.085   6.437
 3174SOL    HW210422   3.162   3.189   6.428
 3175SOL     OW10423   5.345   0.823   5.207
 3175SOL    HW110424   5.288   0.889   5.158
 3175SOL    HW210425   5.339   0.841   5.306
 3176SOL     OW10426   0.543   4.985   4.131
 3176SOL    HW110427   0.570   5.060   4.069
 3176SOL    HW210428   0.513   5.024   4.218
 3177SOL     OW10429   5.528   3.722   3.439
 3177SOL    HW110430   5.557   3.637   3.396
 3177SOL    HW210431   5.602   3.760   3.494
 3178SOL     OW10432   6.815   1.239   2.077
 3178SOL    HW110433   6.738   1.274   2.131
 3178SOL    HW210434   6.797   1.144   2.050
 3179SOL     OW10435   1.265   2.557   2.066
 3179SOL    HW110436   1.257   2.645   2.113
 3179SOL    HW210437   1.239   2.568   1.971
 3180SOL     OW10438   0.452   5.683   0.560
 3180SOL    HW110439   0.435   5.605   0.500
 3180SOL    HW210440   0.367   5.730   0.579
 3181SOL     OW10441   1.866   6.667   5.033
 3181SOL    HW110442   1.876   6.666   5.133
 3181SOL    HW210443   1.867   6.574   4.998
 3182SOL     OW10444   2.241   1.602   0.994
 3182SOL    HW110445   2.175   1.528   0.993
 3182SOL    HW210446   2.234   1.655   0.909
 3183SOL     OW10447   3.787   3.959   1.036
 3183SOL    HW110448   3.757   3.908   1.116
 3183SOL    HW210449   3.711   3.966   0.971
 3184SOL     OW10450   6.994   1.919   4.663
 3184SOL    HW110451   0.040   1.889   4.597
 3184SOL    HW210452   6.908   1.938   4.615
 3185SOL     OW10453   0.753   5.478   6.559
 3185SOL    HW110454   0.817   5.516   6.626
 3185SOL    HW210455   0.720   5.389   6.591
 3186SOL     OW10456   0.222   2.170   6.524
 3186SOL    HW110457   0.167   2.206   6.599
 3186SOL    HW210458   0.188   2.207   6.437
 3187SOL     OW10459   4.979   6.147   2.733
 3187SOL    HW110460   5.017   6.077   2.672
 3187SOL    HW210461   4.907   6.108   2.790
 3188SOL     OW10462   2.279   5.710   6.770
 3188SOL    HW110463   2.317   5.789   6.722
 3188SOL    HW210464   2.352   5.646   6.792
 3189SOL     OW10465   3.352   1.698   5.624
 3189SOL    HW110466   3.418   1.769   5.650
 3189SOL    HW210467   3.358   1.683   5.525
 3190SOL     OW10468   5.945   6.232   4.050
 3190SOL    HW110469   5.936   6.247   3.951
 3190SOL    HW210470   5.964   6.319   4.095
 3191SOL     OW10471   3.536   5.523   1.171
 3191SOL    HW110472   3.484   5.517   1.086
 3191SOL    HW210473   3.490   5.585   1.234
 3192SOL     OW10474   5.325   1.829   2.829
 3192SOL    HW110475   5.330   1.733   2.800
 3192SOL    HW210476   5.371   1.839   2.918
 3193SOL     OW10477   3.396   0.306   4.952
 3193SOL    HW110478   3.449   0.389   4.937
 3193SOL    HW210479   3.382   0.259   4.864
 3194SOL     OW10480   1.658   0.012   6.793
 3194SOL    HW110481   1.738   0.071   6.782
 3194SOL    HW210482   1.576   0.061   6.763
 3195SOL     OW10483   0.179   1.368   1.107
 3195SOL    HW110484   0.120   1.361   1.026
 3195SOL    HW210485   0.248   1.295   1.103
 3196SOL     OW10486   5.586   0.158   3.531
 3196SOL    HW110487   5.555   0.067   3.560
 3196SOL    HW210488   5.658   0.190   3.592
 3197SOL     OW10489   2.263   0.761   6.411
 3197SOL    HW110490   2.205   0.742   6.489
 3197SOL    HW210491   2.210   0.750   6.326
 3198SOL     OW10492   5.454   2.937   3.473
 3198SOL    HW110493   5.466   2.937   3.572
 3198SOL    HW210494   5.504   2.860   3.433
 3199SOL     OW10495   5.360   4.224   2.856
 3199SOL    HW110496   5.442   4.171   2.874
 3199SOL    HW210497   5.312   4.185   2.777
 3200SOL     OW10498   5.272   3.722   3.307
 3200SOL    HW110499   5.224   3.810   3.313
 3200SOL    HW210500   5.354   3.725   3.365
 3201SOL     OW10501   6.007   4.581   2.281
 3201SOL    HW110502   5.989   4.567   2.379
 3201SOL    HW210503   6.100   4.616   2.269
 3202SOL     OW10504   2.376   3.372   0.014
 3202SOL    HW110505   2.332   3.305   0.074
 3202SOL    HW210506   2.409   3.449   0.069
 3203SOL     OW10507   3.456   6.718   1.266
 3203SOL    HW110508   3.428   6.636   1.215
 3203SOL    HW210509   3.453   6.797   1.204
 3204SOL     OW10510   3.324   1.299   3.762
 3204SOL    HW110511   3.245   1.249   3.727
 3204SOL    HW210512   3.401   1.287   3.698
 3205SOL     OW10513   4.679   3.571   5.749
 3205SOL    HW110514   4.695   3.544   5.844
 3205SOL    HW210515   4.759   3.620   5.714
 3206SOL     OW10516   3.196   3.451   1.175
 3206SOL    HW110517   3.289   3.416   1.177
 3206SOL    HW210518   3.154   3.437   1.265
 3207SOL     OW10519   2.001   5.464   5.765
 3207SOL    HW110520   2.020   5.387   5.825
 3207SOL    HW210521   1.918   5.510   5.795
 3208SOL     OW10522   6.599   4.948   5.933
 3208SOL    HW110523   6.566   4.929   6.025
 3208SOL    HW210524   6.616   5.046   5.923
 3209SOL     OW10525   5.053   5.723   6.538
 3209SOL    HW110526   5.104   5.637   6.535
 3209SOL    HW210527   5.115   5.797   6.561
 3210SOL     OW10528   5.872   5.715   1.768
 3210SOL    HW110529   5.947   5.689   1.828
 3210SOL    HW210530   5.850   5.812   1.782
 3211SOL     OW10531   1.519   5.774   6.359
 3211SOL    HW110532   1.563   5.745   6.444
 3211SOL    HW210533   1.479   5.695   6.313
 3212SOL     OW10534   2.242   0.451   3.089
 3212SOL    HW110535   2.151   0.451   3.047
 3212SOL    HW210536   2.276   0.544   3.094
 3213SOL     OW10537   1.353   0.420   6.126
 3213SOL    HW110538   1.304   0.389   6.045
 3213SOL    HW210539   1.406   0.344   6.165
 3214SOL     OW10540   3.112   0.920   2.731
 3214SOL    HW110541   3.080   1.000   2.681
 3214SOL    HW210542   3.190   0.945   2.789
 3215SOL     OW10543   1.936   3.499   1.552
 3215SOL    HW110544   1.860   3.547   1.595
 3215SOL    HW210545   1.902   3.447   1.473
 3216SOL     OW10546   6.265   4.854   1.056
 3216SOL    HW110547   6.203   4.777   1.075
 3216SOL    HW210548   6.253   4.925   1.126
 3217SOL     OW10549   6.851   5.821   2.135
 3217SOL    HW110550   6.934   5.837   2.082
 3217SOL    HW210551   6.876   5.792   2.227
 3218SOL     OW10552   4.961   1.283   3.096
 3218SOL    HW110553   4.898   1.216   3.058
 3218SOL    HW210554   5.015   1.324   3.023
 3219SOL     OW10555   5.833   1.333   5.384
 3219SOL    HW110556   5.887   1.319   5.467
 3219SOL    HW210557   5.788   1.422   5.389
 3220SOL     OW10558   6.887   4.576   6.050
 3220SOL    HW110559   6.981   4.545   6.036
 3220SOL    HW210560   6.827   4.533   5.983
 3221SOL     OW10561   3.548   1.476   1.289
 3221SOL    HW110562   3.496   1.508   1.367
 3221SOL    HW210563   3.498   1.404   1.242
 3222SOL     OW10564   3.070   1.411   3.393
 3222SOL    HW110565   3.105   1.410   3.300
 3222SOL    HW210566   2.988   1.355   3.399
 3223SOL     OW10567   1.761   6.070   0.416
 3223SOL    HW110568   1.708   6.117   0.345
 3223SOL    HW210569   1.840   6.126   0.441
 3224SOL     OW10570   3.501   2.039   3.497
 3224SOL    HW110571   3.456   2.089   3.423
 3224SOL    HW210572   3.435   2.022   3.570
 3225SOL     OW10573   4.045   1.069   3.734
 3225SOL    HW110574   4.089   1.027   3.654
 3225SOL    HW210575   4.024   1.164   3.715
 3226SOL     OW10576   6.348   0.232   0.257
 3226SOL    HW110577   6.262   0.208   0.213
 3226SOL    HW210578   6.367   0.167   0.330
 3227SOL     OW10579   5.612   4.764   5.009
 3227SOL    HW110580   5.553   4.790   5.084
 3227SOL    HW210581   5.699   4.812   5.016
 3228SOL     OW10582   2.405   4.170   0.201
 3228SOL    HW110583   2.392   4.263   0.237
 3228SOL    HW210584   2.468   4.120   0.260
 3229SOL     OW10585   1.480   1.601   0.148
 3229SOL    HW110586   1.422   1.675   0.114
 3229SOL    HW210587   1.574   1.614   0.117
 3230SOL     OW10588   3.008   6.448   5.654
 3230SOL    HW110589   2.972   6.369   5.705
 3230SOL    HW210590   3.107   6.443   5.651
 3231SOL     OW10591   2.026   1.826   2.386
 3231SOL    HW110592   2.089   1.858   2.315
 3231SOL    HW210593   2.066   1.847   2.476
 3232SOL     OW10594   3.404   5.277   4.354
 3232SOL    HW110595   3.355   5.289   4.268
 3232SOL    HW210596   3.441   5.365   4.384
 3233SOL     OW10597   0.766   1.397   0.551
 3233SOL    HW110598   0.802   1.407   0.643
 3233SOL    HW210599   0.842   1.391   0.486
 3234SOL     OW10600   2.678   2.413   1.170
 3234SOL    HW110601   2.702   2.324   1.208
 3234SOL    HW210602   2.759   2.472   1.168
 3235SOL     OW10603   0.905   6.969   2.747
 3235SOL    HW110604   0.891   7.013   2.836
 3235SOL    HW210605   0.948   0.011   2.685
 3236SOL     OW10606   3.701   1.836   0.177
 3236SOL    HW110607   3.708   1.850   0.276
 3236SOL    HW210608   3.764   1.898   0.130
 3237SOL     OW10609   5.967   2.175   5.707
 3237SOL    HW110610   6.045   2.130   5.664
 3237SOL    HW210611   5.907   2.213   5.636
 3238SOL     OW10612   6.419   4.580   1.629
 3238SOL    HW110613   6.393   4.661   1.682
 3238SOL    HW210614   6.337   4.531   1.600
 3239SOL     OW10615   6.983   6.724   4.366
 3239SOL    HW110616   0.056   6.752   4.364
 3239SOL    HW210617   6.924   6.803   4.354
 3240SOL     OW10618   0.226   0.527   0.309
 3240SOL    HW110619   0.221   0.595   0.236
 3240SOL    HW210620   0.321   0.509   0.333
 3241SOL     OW10621   5.916   2.661   5.870
 3241SOL    HW110622   5.894   2.682   5.965
 3241SOL    HW210623   5.946   2.566   5.864
 3242SOL     OW10624   6.158   4.354   4.207
 3242SOL    HW110625   6.151   4.364   4.306
 3242SOL    HW210626   6.234   4.292   4.185
 3243SOL     OW10627   6.206   4.711   4.487
 3243SOL    HW110628   6.271   4.704   4.562
 3243SOL    HW210629   6.131   4.647   4.502
 3244SOL     OW10630   5.233   0.231   6.762
 3244SOL    HW110631   5.221   0.210   6.859
 3244SOL    HW210632   5.223   0.329   6.748
 3245SOL     OW10633   4.288   1.038   5.249
 3245SOL    HW110634   4.263   0.966   5.185
 3245SOL    HW210635   4.374   1.080   5.220
 3246SOL     OW10636   0.015   0.333   2.994
 3246SOL    HW110637   6.963   0.375   3.044
 3246SOL    HW210638   0.029   0.382   2.908
 3247SOL     OW10639   0.228   4.295   3.592
 3247SOL    HW110640   0.205   4.260   3.501
 3247SOL    HW210641   0.248   4.219   3.653
 3248SOL     OW10642   5.385   2.058   3.509
 3248SOL    HW110643   5.374   2.117   3.589
 3248SOL    HW210644   5.362   2.109   3.427
 3249SOL     OW10645   3.131   3.980   3.835
 3249SOL    HW110646   3.068   3.962   3.911
 3249SOL    HW210647   3.209   4.033   3.868
 3250SOL     OW10648   4.720   5.418   2.702
 3250SOL    HW110649   4.637   5.362   2.705
 3250SOL    HW210650   4.718   5.485   2.775
 3251SOL     OW10651   2.291   2.435   2.902
 3251SOL    HW110652   2.387   2.461   2.889
 3251SOL    HW210653   2.286   2.350   2.954
 3252SOL     OW10654   1.594   0.867   3.256
 3252SOL    HW110655   1.547   0.952   3.278
 3252SOL    HW210656   1.681   0.862   3.305
 3253SOL     OW10657   6.625   3.718   0.396
 3253SOL    HW110658   6.530   3.748   0.397
 3253SOL    HW210659   6.657   3.712   0.302
 3254SOL     OW10660   6.402   6.986   0.912
 3254SOL    HW110661   6.332   6.981   0.983
 3254SOL    HW210662   6.448   0.051   0.916
 3255SOL     OW10663   4.928   5.822   1.338
 3255SOL    HW110664   4.882   5.734   1.353
 3255SOL    HW210665   4.893   5.864   1.255
 3256SOL     OW10666   4.929   2.633   1.268
 3256SOL    HW110667   4.919   2.628   1.368
 3256SOL    HW210668   4.868   2.568   1.225
 3257SOL     OW10669   2.758   1.953   2.938
 3257SOL    HW110670   2.743   1.925   3.032
 3257SOL    HW210671   2.849   1.922   2.908
 3258SOL     OW10672   2.311   5.356   3.557
 3258SOL    HW110673   2.382   5.411   3.600
 3258SOL    HW210674   2.310   5.265   3.599
 3259SOL     OW10675   5.164   4.273   3.703
 3259SOL    HW110676   5.226   4.212   3.653
 3259SOL    HW210677   5.145   4.234   3.793
 3260SOL     OW10678   0.918   4.337   3.224
 3260SOL    HW110679   0.857   4.258   3.228
 3260SOL    HW210680   1.006   4.309   3.187
 3261SOL     OW10681   5.180   0.067   3.731
 3261SOL    HW110682   5.160   0.138   3.664
 3261SOL    HW210683   5.270   0.084   3.771
 3262SOL     OW10684   3.014   1.847   3.387
 3262SOL    HW110685   3.053   1.937   3.405
 3262SOL    HW210686   3.056   1.807   3.306
 3263SOL     OW10687   6.895   1.626   2.251
 3263SOL    HW110688   6.950   1.668   2.323
 3263SOL    HW210689   6.955   1.582   2.184
 3264SOL     OW10690   1.717   4.932   6.560
 3264SOL    HW110691   1.668   5.018   6.547
 3264SOL    HW210692   1.652   4.857   6.571
 3265SOL     OW10693   5.945   5.413   6.207
 3265SOL    HW110694   5.889   5.409   6.290
 3265SOL    HW210695   5.989   5.503   6.202
 3266SOL     OW10696   3.428   5.753   6.788
 3266SOL    HW110697   3.524   5.770   6.768
 3266SOL    HW210698   3.371   5.785   6.712
 3267SOL     OW10699   3.585   6.833   0.133
 3267SOL    HW110700   3.489   6.863   0.131
 3267SOL    HW210701   3.640   6.899   0.184
 3268SOL     OW10702   6.320   5.399   1.518
 3268SOL    HW110703   6.230   5.357   1.503
 3268SOL    HW210704   6.319   5.448   1.605
 3269SOL     OW10705   1.793   4.997   1.742
 3269SOL    HW110706   1.869   4.932   1.737
 3269SOL    HW210707   1.788   5.035   1.834
 3270SOL     OW10708   0.707   2.904   5.262
 3270SOL    HW110709   0.672   2.997   5.250
 3270SOL    HW210710   0.793   2.908   5.314
 3271SOL     OW10711   0.866   2.859   2.240
 3271SOL    HW110712   0.907   2.860   2.331
 3271SOL    HW210713   0.881   2.770   2.196
 3272SOL     OW10714   4.414   6.374   1.089
 3272SOL    HW110715   4.363   6.375   1.003
 3272SOL    HW210716   4.351   6.362   1.166
 3273SOL     OW10717   5.231   2.748   5.990
 3273SOL    HW110718   5.234   2.674   5.923
 3273SOL    HW210719   5.150   2.738   6.048
 3274SOL     OW10720   6.014   0.233   1.098
 3274SOL    HW110721   5.949   0.189   1.160
 3274SOL    HW210722   6.048   0.317   1.141
 3275SOL     OW10723   4.954   0.603   1.970
 3275SOL    HW110724   4.873   0.628   1.916
 3275SOL    HW210725   4.927   0.537   2.041
 3276SOL     OW10726   5.245   0.308   0.370
 3276SOL    HW110727   5.253   0.408   0.374
 3276SOL    HW210728   5.202   0.282   0.283
 3277SOL     OW10729   3.287   1.878   1.814
 3277SOL    HW110730   3.281   1.978   1.810
 3277SOL    HW210731   3.350   1.852   1.886
 3278SOL     OW10732   6.142   0.753   6.967
 3278SOL    HW110733   6.104   0.821   6.905
 3278SOL    HW210734   6.078   0.676   6.976
 3279SOL     OW10735   3.216   0.229   1.731
 3279SOL    HW110736   3.176   0.298   1.671
 3279SOL    HW210737   3.167   0.142   1.719
 3280SOL     OW10738   6.361   3.845   3.644
 3280SOL    HW110739   6.267   3.874   3.625
 3280SOL    HW210740   6.361   3.777   3.717
 3281SOL     OW10741   5.844   3.511   1.213
 3281SOL    HW110742   5.903   3.554   1.281
 3281SOL    HW210743   5.834   3.414   1.235
 3282SOL     OW10744   0.245   5.003   4.566
 3282SOL    HW110745   0.147   5.024   4.571
 3282SOL    HW210746   0.286   5.057   4.492
 3283SOL     OW10747   3.501   1.883   0.843
 3283SOL    HW110748   3.474   1.811   0.780
 3283SOL    HW210749   3.558   1.950   0.795
 3284SOL     OW10750   2.286   5.893   4.442
 3284SOL    HW110751   2.194   5.884   4.481
 3284SOL    HW210752   2.345   5.821   4.478
 3285SOL     OW10753   3.694   2.095   4.890
 3285SOL    HW110754   3.778   2.042   4.889
 3285SOL    HW210755   3.694   2.161   4.814
 3286SOL     OW10756   2.345   2.043   2.390
 3286SOL    HW110757   2.411   1.968   2.397
 3286SOL    HW210758   2.321   2.075   2.481
 3287SOL     OW10759   2.451   0.464   6.988
 3287SOL    HW110760   2.442   0.397   6.914
 3287SOL    HW210761   2.513   0.537   6.959
 3288SOL     OW10762   2.331   6.340   1.988
 3288SOL    HW110763   2.328   6.360   2.086
 3288SOL    HW210764   2.364   6.420   1.938
 3289SOL     OW10765   4.571   1.143   6.449
 3289SOL    HW110766   4.611   1.061   6.490
 3289SOL    HW210767   4.473   1.147   6.469
 3290SOL     OW10768   0.358   5.425   0.498
 3290SOL    HW110769   0.312   5.358   0.557
 3290SOL    HW210770   0.297   5.449   0.422
 3291SOL     OW10771   4.981   0.101   5.198
 3291SOL    HW110772   4.883   0.086   5.213
 3291SOL    HW210773   4.999   0.103   5.100
 3292SOL     OW10774   0.116   1.973   1.209
 3292SOL    HW110775   0.154   1.997   1.120
 3292SOL    HW210776   0.017   1.966   1.202
 3293SOL     OW10777   6.170   5.993   3.601
 3293SOL    HW110778   6.236   5.940   3.547
 3293SOL    HW210779   6.123   5.933   3.666
 3294SOL     OW10780   5.279   2.865   4.798
 3294SOL    HW110781   5.339   2.814   4.860
 3294SOL    HW210782   5.307   2.961   4.795
 3295SOL     OW10783   1.051   2.853   2.712
 3295SOL    HW110784   1.024   2.784   2.645
 3295SOL    HW210785   1.071   2.939   2.665
 3296SOL     OW10786   1.168   0.811   6.199
 3296SOL    HW110787   1.261   0.800   6.165
 3296SOL    HW210788   1.170   0.856   6.289
 3297SOL     OW10789   3.026   1.357   4.851
 3297SOL    HW110790   2.995   1.309   4.933
 3297SOL    HW210791   2.964   1.433   4.832
 3298SOL     OW10792   5.277   3.746   5.856
 3298SOL    HW110793   5.181   3.772   5.870
 3298SOL    HW210794   5.327   3.825   5.822
 3299SOL     OW10795   2.595   4.578   4.078
 3299SOL    HW110796   2.648   4.663   4.080
 3299SOL    HW210797   2.563   4.561   3.985
 3300SOL     OW10798   1.885   6.751   4.226
 3300SOL    HW110799   1.791   6.776   4.251
 3300SOL    HW210800   1.912   6.804   4.145
 3301SOL     OW10801   0.719   1.407   2.914
 3301SOL    HW110802   0.806   1.454   2.897
 3301SOL    HW210803   0.646   1.475   2.920
 3302SOL     OW10804   1.910   4.756   5.432
 3302SOL    HW110805   1.854   4.684   5.474
 3302SOL    HW210806   1.855   4.838   5.419
 3303SOL     OW10807   3.606   2.687   0.352
 3303SOL    HW110808   3.646   2.756   0.292
 3303SOL    HW210809   3.516   2.660   0.318
 3304SOL     OW10810   2.966   5.289   7.023
 3304SOL    HW110811   2.896   5.355   0.026
 3304SOL    HW210812   3.033   5.334   6.963
 3305SOL     OW10813   3.217   2.681   0.837
 3305SOL    HW110814   3.307   2.689   0.881
 3305SOL    HW210815   3.211   2.594   0.788
 3306SOL     OW10816   2.096   0.843   0.154
 3306SOL    HW110817   2.180   0.814   0.201
 3306SOL    HW210818   2.118   0.913   0.086
 3307SOL     OW10819   1.625   6.578   5.499
 3307SOL    HW110820   1.630   6.671   5.536
 3307SOL    HW210821   1.590   6.517   5.570
 3308SOL     OW10822   4.123   4.757   1.297
 3308SOL    HW110823   4.062   4.791   1.225
 3308SOL    HW210824   4.208   4.724   1.256
 3309SOL     OW10825   5.824   3.139   3.205
 3309SOL    HW110826   5.807   3.098   3.294
 3309SOL    HW210827   5.794   3.077   3.133
 3310SOL     OW10828   6.170   4.937   5.906
 3310SOL    HW110829   6.180   4.971   5.813
 3310SOL    HW210830   6.078   4.957   5.939
 3311SOL     OW10831   2.895   3.655   0.320
 3311SOL    HW110832   2.821   3.669   0.386
 3311SOL    HW210833   2.899   3.732   0.257
 3312SOL     OW10834   4.944   2.329   5.873
 3312SOL    HW110835   4.916   2.240   5.839
 3312SOL    HW210836   4.871   2.368   5.929
 3313SOL     OW10837   0.518   0.926   3.729
 3313SOL    HW110838   0.555   0.863   3.797
 3313SOL    HW210839   0.581   0.932   3.651
 3314SOL     OW10840   2.863   5.702   2.628
 3314SOL    HW110841   2.795   5.710   2.700
 3314SOL    HW210842   2.817   5.696   2.539
 3315SOL     OW10843   0.469   5.424   5.176
 3315SOL    HW110844   0.383   5.378   5.196
 3315SOL    HW210845   0.450   5.515   5.139
 3316SOL     OW10846   4.144   2.833   6.590
 3316SOL    HW110847   4.141   2.779   6.674
 3316SOL    HW210848   4.143   2.772   6.511
 3317SOL     OW10849   5.135   2.529   2.424
 3317SOL    HW110850   5.049   2.483   2.405
 3317SOL    HW210851   5.204   2.462   2.453
 3318SOL     OW10852   3.533   2.106   0.677
 3318SOL    HW110853   3.454   2.149   0.722
 3318SOL    HW210854   3.599   2.177   0.651
 3319SOL     OW10855   6.374   5.966   3.344
 3319SOL    HW110856   6.401   6.054   3.384
 3319SOL    HW210857   6.291   5.979   3.290
 3320SOL     OW10858   6.391   6.665   1.593
 3320SOL    HW110859   6.475   6.612   1.585
 3320SOL    HW210860   6.326   6.617   1.653
 3321SOL     OW10861   5.104   1.756   0.651
 3321SOL    HW110862   5.148   1.754   0.561
 3321SOL    HW210863   5.065   1.666   0.671
 3322SOL     OW10864   6.590   3.781   0.747
 3322SOL    HW110865   6.596   3.857   0.812
 3322SOL    HW210866   6.666   3.718   0.762
 3323SOL     OW10867   1.224   2.581   1.453
 3323SOL    HW110868   1.278   2.657   1.490
 3323SOL    HW210869   1.256   2.495   1.492
 3324SOL     OW10870   5.212   6.049   5.842
 3324SOL    HW110871   5.308   6.076   5.842
 3324SOL    HW210872   5.205   5.951   5.864
 3325SOL     OW10873   2.613   4.090   5.889
 3325SOL    HW110874   2.670   4.043   5.822
 3325SOL    HW210875   2.667   4.160   5.935
 3326SOL     OW10876   4.170   1.331   2.004
 3326SOL    HW110877   4.084   1.375   2.029
 3326SOL    HW210878   4.223   1.311   2.086
 3327SOL     OW10879   0.066   5.042   6.771
 3327SOL    HW110880   0.059   5.089   6.859
 3327SOL    HW210881   0.143   5.081   6.720
 3328SOL     OW10882   4.916   2.471   6.547
 3328SOL    HW110883   4.957   2.458   6.456
 3328SOL    HW210884   4.902   2.569   6.562
 3329SOL     OW10885   6.595   5.920   5.595
 3329SOL    HW110886   6.688   5.922   5.632
 3329SOL    HW210887   6.555   6.012   5.602
 3330SOL     OW10888   6.709   3.635   2.863
 3330SOL    HW110889   6.769   3.695   2.811
 3330SOL    HW210890   6.675   3.562   2.803
 3331SOL     OW10891   2.225   3.208   1.055
 3331SOL    HW110892   2.301   3.222   0.991
 3331SOL    HW210893   2.232   3.275   1.129
 3332SOL     OW10894   6.160   4.677   1.388
 3332SOL    HW110895   6.238   4.739   1.399
 3332SOL    HW210896   6.188   4.597   1.335
 3333SOL     OW10897   4.254   5.689   6.022
 3333SOL    HW110898   4.318   5.630   6.072
 3333SOL    HW210899   4.286   5.702   5.929
 3334SOL     OW10900   2.326   4.085   1.731
 3334SOL    HW110901   2.365   4.173   1.704
 3334SOL    HW210902   2.297   4.089   1.826
 3335SOL     OW10903   6.194   4.376   4.480
 3335SOL    HW110904   6.291   4.392   4.494
 3335SOL    HW210905   6.166   4.294   4.532
 3336SOL     OW10906   3.218   5.915   5.813
 3336SOL    HW110907   3.185   5.919   5.718
 3336SOL    HW210908   3.202   6.003   5.857
 3337SOL     OW10909   3.476   1.632   0.725
 3337SOL    HW110910   3.528   1.616   0.641
 3337SOL    HW210911   3.487   1.555   0.787
 3338SOL     OW10912   0.075   4.068   0.572
 3338SOL    HW110913   0.052   4.011   0.651
 3338SOL    HW210914   7.019   4.071   0.510
 3339SOL     OW10915   0.281   5.668   6.067
 3339SOL    HW110916   0.318   5.740   6.008
 3339SOL    HW210917   0.356   5.624   6.116
 3340SOL     OW10918   3.879   6.606   1.857
 3340SOL    HW110919   3.830   6.679   1.905
 3340SOL    HW210920   3.877   6.624   1.759
 3341SOL     OW10921   0.959   0.213   1.752
 3341SOL    HW110922   0.976   0.133   1.693
 3341SOL    HW210923   0.874   0.257   1.723
 3342SOL     OW10924   2.543   6.832   4.031
 3342SOL    HW110925   2.589   6.920   4.019
 3342SOL    HW210926   2.610   6.760   4.042
 3343SOL     OW10927   6.184   2.770   1.293
 3343SOL    HW110928   6.108   2.705   1.285
 3343SOL    HW210929   6.195   2.819   1.207
 3344SOL     OW10930   6.917   3.324   5.256
 3344SOL    HW110931   6.990   3.344   5.322
 3344SOL    HW210932   6.829   3.350   5.296
 3345SOL     OW10933   2.740   3.530   5.899
 3345SOL    HW110934   2.762   3.553   5.804
 3345SOL    HW210935   2.824   3.522   5.952
 3346SOL     OW10936   1.774   5.977   2.127
 3346SOL    HW110937   1.856   5.925   2.151
 3346SOL    HW210938   1.760   5.974   2.028
 3347SOL     OW10939   5.509   4.017   4.805
 3347SOL    HW110940   5.588   3.995   4.748
 3347SOL    HW210941   5.432   4.043   4.747
 3348SOL     OW10942   3.733   2.908   3.290
 3348SOL    HW110943   3.634   2.924   3.296
 3348SOL    HW210944   3.754   2.854   3.209
 3349SOL     OW10945   6.313   3.956   5.043
 3349SOL    HW110946   6.351   3.877   4.995
 3349SOL    HW210947   6.213   3.946   5.050
 3350SOL     OW10948   1.104   1.769   0.896
 3350SOL    HW110949   1.143   1.748   0.986
 3350SOL    HW210950   1.083   1.867   0.891
 3351SOL     OW10951   5.315   1.802   1.755
 3351SOL    HW110952   5.339   1.705   1.758
 3351SOL    HW210953   5.391   1.856   1.790
 3352SOL     OW10954   0.407   3.894   0.589
 3352SOL    HW110955   0.341   3.941   0.531
 3352SOL    HW210956   0.496   3.891   0.542
 3353SOL     OW10957   2.401   6.879   6.289
 3353SOL    HW110958   2.456   6.959   6.267
 3353SOL    HW210959   2.314   6.909   6.328
 3354SOL     OW10960   1.073   1.664   2.758
 3354SOL    HW110961   1.165   1.647   2.722
 3354SOL    HW210962   1.005   1.640   2.689
 3355SOL     OW10963   6.209   1.577   2.569
 3355SOL    HW110964   6.286   1.548   2.626
 3355SOL    HW210965   6.193   1.508   2.498
 3356SOL     OW10966   2.766   3.231   6.228
 3356SOL    HW110967   2.859   3.205   6.203
 3356SOL    HW210968   2.700   3.180   6.173
 3357SOL     OW10969   2.500   5.036   2.086
 3357SOL    HW110970   2.452   5.035   1.998
 3357SOL    HW210971   2.555   5.119   2.092
 3358SOL     OW10972   5.704   4.691   2.981
 3358SOL    HW110973   5.746   4.778   2.953
 3358SOL    HW210974   5.644   4.658   2.908
 3359SOL     OW10975   0.911   0.986   1.642
 3359SOL    HW110976   0.982   0.932   1.686
 3359SOL    HW210977   0.823   0.969   1.687
 3360SOL     OW10978   1.445   0.124   6.682
 3360SOL    HW110979   1.465   0.212   6.639
 3360SOL    HW210980   1.353   0.094   6.656
 3361SOL     OW10981   5.220   6.806   2.524
 3361SOL    HW110982   5.244   6.903   2.515
 3361SOL    HW210983   5.303   6.752   2.537
 3362SOL     OW10984   2.585   1.505   5.415
 3362SOL    HW110985   2.641   1.549   5.485
 3362SOL    HW210986   2.604   1.548   5.326
 3363SOL     OW10987   0.259   0.823   6.517
 3363SOL    HW110988   0.232   0.739   6.471
 3363SOL    HW210989   0.205   0.834   6.600
 3364SOL     OW10990   1.984   4.733   6.397
 3364SOL    HW110991   1.937   4.722   6.310
 3364SOL    HW210992   2.078   4.764   6.381
 3365SOL     OW10993   6.197   2.067   5.636
 3365SOL    HW110994   6.243   2.137   5.582
 3365SOL    HW210995   6.243   1.979   5.623
 3366SOL     OW10996   5.298   1.181   5.643
 3366SOL    HW110997   5.327   1.266   5.686
 3366SOL    HW210998   5.242   1.128   5.707
 3367SOL     OW10999   1.131   0.802   2.324
 3367SOL    HW111000   1.109   0.854   2.407
 3367SOL    HW211001   1.105   0.855   2.243
 3368SOL     OW11002   6.480   6.395   5.759
 3368SOL    HW111003   6.418   6.424   5.687
 3368SOL    HW211004   6.497   6.472   5.821
 3369SOL     OW11005   3.822   6.741   6.407
 3369SOL    HW111006   3.844   6.649   6.377
 3369SOL    HW211007   3.803   6.799   6.327
 3370SOL     OW11008   5.139   0.367   4.986
 3370SOL    HW111009   5.179   0.458   4.981
 3370SOL    HW211010   5.049   0.368   4.942
 3371SOL     OW11011   7.001   5.154   1.822
 3371SOL    HW111012   7.023   5.225   1.756
 3371SOL    HW211013   6.981   5.068   1.773
 3372SOL     OW11014   0.516   1.544   2.264
 3372SOL    HW111015   0.562   1.625   2.301
 3372SOL    HW211016   0.417   1.558   2.264
 3373SOL     OW11017   7.013   2.046   5.400
 3373SOL    HW111018   7.020   2.029   5.302
 3373SOL    HW211019   7.020   1.960   5.449
 3374SOL     OW11020   3.471   5.348   5.096
 3374SOL    HW111021   3.546   5.327   5.159
 3374SOL    HW211022   3.485   5.298   5.010
 3375SOL     OW11023   4.456   4.525   5.431
 3375SOL    HW111024   4.438   4.442   5.483
 3375SOL    HW211025   4.405   4.601   5.471
 3376SOL     OW11026   3.350   3.714   2.270
 3376SOL    HW111027   3.417   3.755   2.331
 3376SOL    HW211028   3.266   3.769   2.270
 3377SOL     OW11029   2.135   6.034   5.261
 3377SOL    HW111030   2.059   6.071   5.314
 3377SOL    HW211031   2.118   6.048   5.164
 3378SOL     OW11032   0.631   1.438   0.900
 3378SOL    HW111033   0.589   1.351   0.875
 3378SOL    HW211034   0.730   1.428   0.902
 3379SOL     OW11035   1.182   4.575   6.402
 3379SOL    HW111036   1.238   4.627   6.466
 3379SOL    HW211037   1.101   4.539   6.450
 3380SOL     OW11038   0.549   4.114   6.076
 3380SOL    HW111039   0.534   4.189   6.141
 3380SOL    HW211040   0.632   4.133   6.022
 3381SOL     OW11041   3.188   2.359   1.011
 3381SOL    HW111042   3.193   2.353   0.911
 3381SOL    HW211043   3.269   2.405   1.046
 3382SOL     OW11044   6.624   6.946   1.086
 3382SOL    HW111045   6.566   6.927   1.007
 3382SOL    HW211046   6.665   0.014   1.076
 3383SOL     OW11047   6.770   4.726   3.081
 3383SOL    HW111048   6.815   4.747   2.995
 3383SOL    HW211049   6.785   4.800   3.146
 3384SOL     OW11050   3.780   3.239   4.519
 3384SOL    HW111051   3.783   3.336   4.543
 3384SOL    HW211052   3.863   3.194   4.551
 3385SOL     OW11053   6.432   3.590   3.021
 3385SOL    HW111054   6.518   3.628   2.988
 3385SOL    HW211055   6.356   3.642   2.984
 3386SOL     OW11056   6.488   4.709   5.116
 3386SOL    HW111057   6.559   4.770   5.081
 3386SOL    HW211058   6.520   4.614   5.109
 3387SOL     OW11059   2.692   2.236   2.528
 3387SOL    HW111060   2.640   2.274   2.452
 3387SOL    HW211061   2.659   2.275   2.614
 3388SOL     OW11062   5.646   3.097   1.844
 3388SOL    HW111063   5.682   3.008   1.816
 3388SOL    HW211064   5.578   3.128   1.778
 3389SOL     OW11065   6.110   4.283   3.229
 3389SOL    HW111066   6.155   4.296   3.317
 3389SOL    HW211067   6.146   4.347   3.163
 3390SOL     OW11068   5.051   2.517   5.209
 3390SOL    HW111069   5.100   2.487   5.291
 3390SOL    HW211070   4.994   2.596   5.232
 3391SOL     OW11071   3.308   1.648   4.301
 3391SOL    HW111072   3.241   1.714   4.333
 3391SOL    HW211073   3.268   1.556   4.300
 3392SOL     OW11074   4.589   6.500   3.943
 3392SOL    HW111075   4.508   6.487   4.000
 3392SOL    HW211076   4.581   6.586   3.893
 3393SOL     OW11077   6.431   0.323   6.954
 3393SOL    HW111078   6.353   0.261   6.952
 3393SOL    HW211079   6.399   0.418   6.963
 3394SOL     OW11080   6.351   2.626   1.774
 3394SOL    HW111081   6.260   2.657   1.799
 3394SOL    HW211082   6.403   2.702   1.735
 3395SOL     OW11083   1.554   3.187   5.237
 3395SOL    HW111084   1.576   3.248   5.161
 3395SOL    HW211085   1.635   3.132   5.260
 3396SOL     OW11086   0.460   3.930   4.141
 3396SOL    HW111087   0.453   3.942   4.042
 3396SOL    HW211088   0.540   3.979   4.175
 3397SOL     OW11089   4.327   6.277   6.124
 3397SOL    HW111090   4.402   6.211   6.131
 3397SOL    HW211091   4.361   6.368   6.145
 3398SOL     OW11092   0.482   6.490   4.035
 3398SOL    HW111093   0.446   6.447   4.117
 3398SOL    HW211094   0.436   6.452   3.954
 3399SOL     OW11095   4.694   4.600   4.306
 3399SOL    HW111096   4.626   4.535   4.273
 3399SOL    HW211097   4.649   4.666   4.368
 3400SOL     OW11098   4.885   2.249   6.894
 3400SOL    HW111099   4.805   2.190   6.898
 3400SOL    HW211100   4.942   2.223   6.815
 3401SOL     OW11101   5.845   4.859   0.108
 3401SOL    HW111102   5.835   4.779   0.167
 3401SOL    HW211103   5.840   4.942   0.163
 3402SOL     OW11104   5.454   5.535   1.662
 3402SOL    HW111105   5.370   5.512   1.612
 3402SOL    HW211106   5.440   5.620   1.712
 3403SOL     OW11107   3.590   1.078   5.462
 3403SOL    HW111108   3.526   1.098   5.387
 3403SOL    HW211109   3.679   1.119   5.442
 3404SOL     OW11110   4.573   0.596   0.504
 3404SOL    HW111111   4.653   0.641   0.543
 3404SOL    HW211112   4.497   0.600   0.570
 3405SOL     OW11113   6.277   3.968   0.213
 3405SOL    HW111114   6.221   4.022   0.151
 3405SOL    HW211115   6.220   3.932   0.287
 3406SOL     OW11116   1.072   4.311   1.792
 3406SOL    HW111117   1.020   4.267   1.865
 3406SOL    HW211118   1.167   4.324   1.821
 3407SOL     OW11119   1.808   5.617   2.568
 3407SOL    HW111120   1.765   5.539   2.615
 3407SOL    HW211121   1.869   5.665   2.631
 3408SOL     OW11122   5.338   4.447   3.010
 3408SOL    HW111123   5.384   4.423   3.095
 3408SOL    HW211124   5.320   4.364   2.957
 3409SOL     OW11125   3.683   0.588   5.598
 3409SOL    HW111126   3.688   0.687   5.583
 3409SOL    HW211127   3.624   0.547   5.528
 3410SOL     OW11128   6.680   6.820   0.106
 3410SOL    HW111129   6.650   6.729   0.075
 3410SOL    HW211130   6.655   6.831   0.202
 3411SOL     OW11131   4.761   2.316   2.217
 3411SOL    HW111132   4.662   2.302   2.207
 3411SOL    HW211133   4.781   2.414   2.209
 3412SOL     OW11134   3.945   4.692   0.180
 3412SOL    HW111135   4.019   4.728   0.123
 3412SOL    HW211136   3.865   4.752   0.173
 3413SOL     OW11137   3.961   2.034   2.470
 3413SOL    HW111138   4.027   2.055   2.542
 3413SOL    HW211139   3.997   2.065   2.382
 3414SOL     OW11140   2.711   2.369   4.966
 3414SOL    HW111141   2.783   2.360   5.034
 3414SOL    HW211142   2.645   2.438   4.996
 3415SOL     OW11143   0.763   5.478   3.895
 3415SOL    HW111144   0.768   5.393   3.948
 3415SOL    HW211145   0.700   5.465   3.818
 3416SOL     OW11146   1.438   5.404   5.613
 3416SOL    HW111147   1.483   5.463   5.679
 3416SOL    HW211148   1.365   5.353   5.659
 3417SOL     OW11149   5.991   0.205   2.754
 3417SOL    HW111150   6.073   0.197   2.811
 3417SOL    HW211151   6.016   0.247   2.667
 3418SOL     OW11152   2.971   1.348   6.447
 3418SOL    HW111153   2.933   1.441   6.452
 3418SOL    HW211154   2.923   1.296   6.377
 3419SOL     OW11155   4.518   4.316   0.426
 3419SOL    HW111156   4.445   4.328   0.494
 3419SOL    HW211157   4.485   4.261   0.350
 3420SOL     OW11158   4.242   2.244   3.691
 3420SOL    HW111159   4.157   2.249   3.639
 3420SOL    HW211160   4.229   2.286   3.780
 3421SOL     OW11161   0.221   5.762   5.026
 3421SOL    HW111162   0.200   5.859   5.014
 3421SOL    HW211163   0.140   5.715   5.062
 3422SOL     OW11164   3.626   1.758   1.258
 3422SOL    HW111165   3.566   1.817   1.203
 3422SOL    HW211166   3.600   1.662   1.244
 3423SOL     OW11167   2.727   0.590   0.992
 3423SOL    HW111168   2.827   0.584   0.992
 3423SOL    HW211169   2.690   0.526   1.059
 3424SOL     OW11170   4.334   1.271   3.052
 3424SOL    HW111171   4.402   1.324   3.103
 3424SOL    HW211172   4.319   1.312   2.962
 3425SOL     OW11173   4.253   4.382   1.748
 3425SOL    HW111174   4.263   4.412   1.653
 3425SOL    HW211175   4.335   4.332   1.776
 3426SOL     OW11176   4.356   3.751   0.737
 3426SOL    HW111177   4.369   3.776   0.833
 3426SOL    HW211178   4.436   3.702   0.704
 3427SOL     OW11179   0.478   1.466   6.933
 3427SOL    HW111180   0.539   1.543   6.955
 3427SOL    HW211181   0.451   1.473   6.837
 3428SOL     OW11182   4.305   4.636   2.660
 3428SOL    HW111183   4.236   4.669   2.723
 3428SOL    HW211184   4.265   4.624   2.569
 3429SOL     OW11185   1.683   2.915   6.871
 3429SOL    HW111186   1.665   2.889   6.966
 3429SOL    HW211187   1.603   2.960   6.833
 3430SOL     OW11188   1.274   6.769   0.013
 3430SOL    HW111189   1.347   6.834   0.032
 3430SOL    HW211190   1.211   6.765   0.090
 3431SOL     OW11191   0.918   5.753   0.796
 3431SOL    HW111192   0.882   5.695   0.723
 3431SOL    HW211193   0.849   5.763   0.868
 3432SOL     OW11194   3.257   1.181   6.333
 3432SOL    HW111195   3.316   1.125   6.391
 3432SOL    HW211196   3.263   1.277   6.363
 3433SOL     OW11197   3.621   1.012   4.621
 3433SOL    HW111198   3.616   0.980   4.716
 3433SOL    HW211199   3.638   1.111   4.620
 3434SOL     OW11200   4.747   2.674   2.486
 3434SOL    HW111201   4.685   2.599   2.510
 3434SOL    HW211202   4.828   2.670   2.544
 3435SOL     OW11203   0.365   0.867   0.664
 3435SOL    HW111204   0.409   0.891   0.751
 3435SOL    HW211205   0.294   0.934   0.643
 3436SOL     OW11206   4.188   6.829   4.372
 3436SOL    HW111207   4.126   6.788   4.439
 3436SOL    HW211208   4.159   6.922   4.352
 3437SOL     OW11209   3.960   0.362   5.906
 3437SOL    HW111210   4.039   0.302   5.893
 3437SOL    HW211211   3.938   0.368   6.003
 3438SOL     OW11212   1.032   2.992   6.029
 3438SOL    HW111213   1.094   2.932   5.980
 3438SOL    HW211214   0.993   2.943   6.107
 3439SOL     OW11215   2.540   5.837   3.660
 3439SOL    HW111216   2.613   5.868   3.599
 3439SOL    HW211217   2.580   5.805   3.746
 3440SOL     OW11218   5.167   3.107   0.643
 3440SOL    HW111219   5.258   3.122   0.682
 3440SOL    HW211220   5.100   3.098   0.717
 3441SOL     OW11221   2.750   0.499   3.747
 3441SOL    HW111222   2.757   0.598   3.729
 3441SOL    HW211223   2.829   0.453   3.706
 3442SOL     OW11224   2.051   4.734   3.767
 3442SOL    HW111225   2.078   4.676   3.844
 3442SOL    HW211226   1.968   4.698   3.725
 3443SOL     OW11227   5.305   1.177   3.202
 3443SOL    HW111228   5.392   1.227   3.197
 3443SOL    HW211229   5.254   1.207   3.282
 3444SOL     OW11230   4.708   5.436   0.171
 3444SOL    HW111231   4.716   5.343   0.208
 3444SOL    HW211232   4.736   5.501   0.242
 3445SOL     OW11233   6.739   4.163   4.405
 3445SOL    HW111234   6.721   4.250   4.451
 3445SOL    HW211235   6.653   4.117   4.386
 3446SOL     OW11236   3.492   0.007   2.954
 3446SOL    HW111237   3.416   0.049   3.004
 3446SOL    HW211238   3.570   0.070   2.953
 3447SOL     OW11239   5.263   5.910   6.658
 3447SOL    HW111240   5.297   5.906   6.751
 3447SOL    HW211241   5.337   5.888   6.594
 3448SOL     OW11242   3.631   2.295   0.968
 3448SOL    HW111243   3.561   2.225   0.982
 3448SOL    HW211244   3.646   2.344   1.053
 3449SOL     OW11245   6.633   6.408   3.193
 3449SOL    HW111246   6.691   6.468   3.248
 3449SOL    HW211247   6.691   6.344   3.141
 3450SOL     OW11248   1.092   1.750   1.670
 3450SOL    HW111249   1.173   1.764   1.613
 3450SOL    HW211250   1.090   1.818   1.743
 3451SOL     OW11251   1.199   5.933   4.716
 3451SOL    HW111252   1.250   6.010   4.752
 3451SOL    HW211253   1.179   5.948   4.619
 3452SOL     OW11254   5.842   1.574   0.547
 3452SOL    HW111255   5.790   1.615   0.622
 3452SOL    HW211256   5.782   1.559   0.469
 3453SOL     OW11257   5.123   5.284   5.215
 3453SOL    HW111258   5.097   5.366   5.162
 3453SOL    HW211259   5.080   5.203   5.174
 3454SOL     OW11260   0.733   0.784   0.170
 3454SOL    HW111261   0.804   0.768   0.102
 3454SOL    HW211262   0.772   0.776   0.262
 3455SOL     OW11263   1.902   2.360   4.322
 3455SOL    HW111264   1.969   2.434   4.326
 3455SOL    HW211265   1.863   2.344   4.412
 3456SOL     OW11266   5.808   7.005   1.770
 3456SOL    HW111267   5.779   6.910   1.783
 3456SOL    HW211268   5.832   7.020   1.675
 3457SOL     OW11269   2.658   5.210   3.382
 3457SOL    HW111270   2.744   5.158   3.379
 3457SOL    HW211271   2.679   5.306   3.403
 3458SOL     OW11272   5.221   6.215   1.043
 3458SOL    HW111273   5.159   6.290   1.017
 3458SOL    HW211274   5.210   6.139   0.979
 3459SOL     OW11275   0.064   5.399   4.018
 3459SOL    HW111276   6.994   5.382   4.049
 3459SOL    HW211277   0.106   5.469   4.076
 3460SOL     OW11278   4.587   3.407   6.308
 3460SOL    HW111279   4.520   3.427   6.379
 3460SOL    HW211280   4.543   3.360   6.232
 3461SOL     OW11281   3.926   6.432   3.354
 3461SOL    HW111282   3.863   6.355   3.362
 3461SOL    HW211283   3.880   6.507   3.305
 3462SOL     OW11284   4.913   3.332   2.874
 3462SOL    HW111285   4.865   3.379   2.800
 3462SOL    HW211286   4.902   3.384   2.959
 3463SOL     OW11287   2.038   2.851   1.465
 3463SOL    HW111288   2.071   2.897   1.383
 3463SOL    HW211289   2.007   2.920   1.531
 3464SOL     OW11290   4.844   2.796   6.718
 3464SOL    HW111291   4.895   2.843   6.646
 3464SOL    HW211292   4.909   2.754   6.783
 3465SOL     OW11293   2.069   3.497   2.242
 3465SOL    HW111294   2.133   3.500   2.165
 3465SOL    HW211295   2.065   3.405   2.280
 3466SOL     OW11296   6.310   5.102   4.195
 3466SOL    HW111297   6.219   5.142   4.196
 3466SOL    HW211298   6.328   5.057   4.283
 3467SOL     OW11299   3.019   2.098   1.000
 3467SOL    HW111300   2.923   2.085   1.025
 3467SOL    HW211301   3.058   2.172   1.056
 3468SOL     OW11302   4.115   1.482   1.140
 3468SOL    HW111303   4.171   1.565   1.146
 3468SOL    HW211304   4.123   1.443   1.049
 3469SOL     OW11305   4.372   6.660   5.455
 3469SOL    HW111306   4.315   6.678   5.535
 3469SOL    HW211307   4.434   6.737   5.440
 3470SOL     OW11308   0.442   3.206   1.572
 3470SOL    HW111309   0.456   3.300   1.541
 3470SOL    HW211310   0.524   3.152   1.554
 3471SOL     OW11311   5.182   3.496   3.429
 3471SOL    HW111312   5.085   3.507   3.454
 3471SOL    HW211313   5.215   3.581   3.388
 3472SOL     OW11314   4.200   1.963   3.742
 3472SOL    HW111315   4.125   1.960   3.808
 3472SOL    HW211316   4.194   2.047   3.688
 3473SOL     OW11317   0.057   3.942   2.340
 3473SOL    HW111318   0.069   3.975   2.246
 3473SOL    HW211319   0.017   4.014   2.396
 3474SOL     OW11320   6.584   5.397   3.919
 3474SOL    HW111321   6.564   5.413   3.822
 3474SOL    HW211322   6.545   5.308   3.946
 3475SOL     OW11323   6.972   3.990   4.312
 3475SOL    HW111324   0.034   4.042   4.319
 3475SOL    HW211325   6.896   4.048   4.339
 3476SOL     OW11326   0.863   1.623   3.625
 3476SOL    HW111327   0.885   1.526   3.637
 3476SOL    HW211328   0.836   1.639   3.530
 3477SOL     OW11329   0.641   4.084   1.672
 3477SOL    HW111330   0.740   4.075   1.659
 3477SOL    HW211331   0.606   4.005   1.721
 3478SOL     OW11332   2.259   0.240   0.370
 3478SOL    HW111333   2.262   0.215   0.467
 3478SOL    HW211334   2.295   0.164   0.316
 3479SOL     OW11335   1.353   3.567   3.964
 3479SOL    HW111336   1.278   3.530   3.907
 3479SOL    HW211337   1.356   3.517   4.051
 3480SOL     OW11338   1.100   5.393   6.767
 3480SOL    HW111339   1.013   5.344   6.767
 3480SOL    HW211340   1.170   5.337   6.723
 3481SOL     OW11341   6.834   0.339   5.846
 3481SOL    HW111342   6.884   0.391   5.778
 3481SOL    HW211343   6.818   0.247   5.813
 3482SOL     OW11344   6.587   3.778   4.826
 3482SOL    HW111345   6.560   3.866   4.787
 3482SOL    HW211346   6.644   3.728   4.761
 3483SOL     OW11347   4.721   2.167   3.569
 3483SOL    HW111348   4.638   2.212   3.535
 3483SOL    HW211349   4.695   2.098   3.637
 3484SOL     OW11350   1.570   3.111   5.710
 3484SOL    HW111351   1.574   3.193   5.767
 3484SOL    HW211352   1.663   3.079   5.691
 3485SOL     OW11353   0.872   2.236   6.167
 3485SOL    HW111354   0.956   2.197   6.205
 3485SOL    HW211355   0.849   2.320   6.217
 3486SOL     OW11356   2.296   0.171   5.157
 3486SOL    HW111357   2.320   0.161   5.060
 3486SOL    HW211358   2.239   0.253   5.169
 3487SOL     OW11359   4.998   0.833   6.385
 3487SOL    HW111360   4.997   0.931   6.366
 3487SOL    HW211361   5.014   0.817   6.482
 3488SOL     OW11362   6.319   0.688   4.360
 3488SOL    HW111363   6.241   0.663   4.418
 3488SOL    HW211364   6.391   0.619   4.369
 3489SOL     OW11365   3.433   0.228   0.509
 3489SOL    HW111366   3.384   0.190   0.588
 3489SOL    HW211367   3.411   0.326   0.500
 3490SOL     OW11368   4.165   5.330   0.621
 3490SOL    HW111369   4.084   5.278   0.596
 3490SOL    HW211370   4.228   5.271   0.672
 3491SOL     OW11371   4.890   4.162   6.973
 3491SOL    HW111372   4.886   4.237   6.908
 3491SOL    HW211373   4.983   4.156   7.011
 3492SOL     OW11374   5.914   4.545   2.528
 3492SOL    HW111375   5.924   4.449   2.554
 3492SOL    HW211376   5.826   4.579   2.562
 3493SOL     OW11377   6.058   3.188   4.424
 3493SOL    HW111378   6.010   3.266   4.465
 3493SOL    HW211379   6.151   3.183   4.460
 3494SOL     OW11380   4.045   1.630   1.830
 3494SOL    HW111381   3.977   1.684   1.780
 3494SOL    HW211382   4.078   1.682   1.909
 3495SOL     OW11383   1.807   3.308   2.118
 3495SOL    HW111384   1.817   3.349   2.209
 3495SOL    HW211385   1.883   3.335   2.060
 3496SOL     OW11386   6.753   5.517   1.064
 3496SOL    HW111387   6.767   5.567   1.149
 3496SOL    HW211388   6.769   5.578   0.986
 3497SOL     OW11389   3.162   0.473   2.601
 3497SOL    HW111390   3.154   0.570   2.580
 3497SOL    HW211391   3.192   0.423   2.520
 3498SOL     OW11392   2.073   1.789   1.601
 3498SOL    HW111393   2.133   1.866   1.581
 3498SOL    HW211394   1.978   1.818   1.595
 3499SOL     OW11395   6.000   5.433   5.589
 3499SOL    HW111396   5.953   5.474   5.666
 3499SOL    HW211397   5.934   5.385   5.530
 3500SOL     OW11398   1.577   2.288   3.734
 3500SOL    HW111399   1.632   2.205   3.726
 3500SOL    HW211400   1.506   2.288   3.664
 3501SOL     OW11401   1.516   6.665   5.812
 3501SOL    HW111402   1.432   6.716   5.793
 3501SOL    HW211403   1.505   6.570   5.783
 3502SOL     OW11404   4.886   3.229   1.924
 3502SOL    HW111405   4.809   3.166   1.923
 3502SOL    HW211406   4.917   3.242   2.019
 3503SOL     OW11407   6.590   5.934   6.711
 3503SOL    HW111408   6.671   5.983   6.679
 3503SOL    HW211409   6.617   5.849   6.756
 3504SOL     OW11410   1.570   0.620   1.387
 3504SOL    HW111411   1.490   0.594   1.441
 3504SOL    HW211412   1.616   0.697   1.431
 3505SOL     OW11413   5.741   5.415   6.035
 3505SOL    HW111414   5.822   5.412   6.093
 3505SOL    HW211415   5.759   5.474   5.956
 3506SOL     OW11416   5.099   4.428   4.595
 3506SOL    HW111417   5.034   4.400   4.524
 3506SOL    HW211418   5.110   4.528   4.592
 3507SOL     OW11419   2.880   6.825   0.388
 3507SOL    HW111420   2.973   6.839   0.423
 3507SOL    HW211421   2.815   6.824   0.465
 3508SOL     OW11422   3.191   2.490   5.355
 3508SOL    HW111423   3.190   2.449   5.263
 3508SOL    HW211424   3.210   2.419   5.423
 3509SOL     OW11425   4.364   5.846   6.598
 3509SOL    HW111426   4.293   5.776   6.599
 3509SOL    HW211427   4.325   5.934   6.625
 3510SOL     OW11428   2.464   0.749   1.102
 3510SOL    HW111429   2.509   0.686   1.038
 3510SOL    HW211430   2.532   0.784   1.167
 3511SOL     OW11431   2.649   4.679   1.535
 3511SOL    HW111432   2.647   4.611   1.608
 3511SOL    HW211433   2.728   4.740   1.547
 3512SOL     OW11434   0.650   4.235   6.615
 3512SOL    HW111435   0.733   4.274   6.657
 3512SOL    HW211436   0.647   4.260   6.518
 3513SOL     OW11437   5.713   1.941   0.391
 3513SOL    HW111438   5.760   2.030   0.385
 3513SOL    HW211439   5.624   1.954   0.434
 3514SOL     OW11440   4.102   1.233   3.267
 3514SOL    HW111441   4.064   1.149   3.305
 3514SOL    HW211442   4.146   1.213   3.180
 3515SOL     OW11443   5.865   5.475   4.347
 3515SOL    HW111444   5.776   5.434   4.369
 3515SOL    HW211445   5.879   5.555   4.405
 3516SOL     OW11446   5.320   0.237   1.005
 3516SOL    HW111447   5.305   0.332   1.034
 3516SOL    HW211448   5.387   0.194   1.065
 3517SOL     OW11449   6.413   0.783   0.558
 3517SOL    HW111450   6.392   0.748   0.467
 3517SOL    HW211451   6.443   0.878   0.551
 3518SOL     OW11452   5.511   1.454   5.496
 3518SOL    HW111453   5.601   1.486   5.468
 3518SOL    HW211454   5.494   1.363   5.458
 3519SOL     OW11455   3.542   0.530   0.492
 3519SOL    HW111456   3.563   0.612   0.546
 3519SOL    HW211457   3.627   0.488   0.461
 3520SOL     OW11458   2.993   6.243   4.936
 3520SOL    HW111459   3.057   6.169   4.958
 3520SOL    HW211460   3.020   6.284   4.849
 3521SOL     OW11461   3.237   2.802   6.841
 3521SOL    HW111462   3.168   2.805   6.768
 3521SOL    HW211463   3.300   2.726   6.825
 3522SOL     OW11464   6.960   5.572   6.877
 3522SOL    HW111465   6.883   5.512   6.900
 3522SOL    HW211466   7.021   5.526   6.813
 3523SOL     OW11467   0.897   5.163   6.272
 3523SOL    HW111468   0.870   5.219   6.194
 3523SOL    HW211469   0.901   5.067   6.245
 3524SOL     OW11470   6.279   0.953   3.539
 3524SOL    HW111471   6.223   0.946   3.621
 3524SOL    HW211472   6.225   0.993   3.465
 3525SOL     OW11473   6.189   4.904   3.567
 3525SOL    HW111474   6.226   4.823   3.612
 3525SOL    HW211475   6.192   4.892   3.468
 3526SOL     OW11476   1.065   6.030   3.393
 3526SOL    HW111477   1.155   6.050   3.430
 3526SOL    HW211478   1.074   5.994   3.300
 3527SOL     OW11479   6.710   2.755   5.946
 3527SOL    HW111480   6.676   2.849   5.950
 3527SOL    HW211481   6.635   2.692   5.965
 3528SOL     OW11482   2.547   6.669   5.042
 3528SOL    HW111483   2.513   6.705   4.955
 3528SOL    HW211484   2.636   6.710   5.062
 3529SOL     OW11485   4.815   5.600   0.383
 3529SOL    HW111486   4.904   5.627   0.346
 3529SOL    HW211487   4.810   5.626   0.479
 3530SOL     OW11488   0.260   6.991   1.886
 3530SOL    HW111489   0.228   6.997   1.981
 3530SOL    HW211490   0.340   0.027   1.874
 3531SOL     OW11491   5.107   1.646   1.379
 3531SOL    HW111492   5.190   1.632   1.433
 3531SOL    HW211493   5.031   1.670   1.439
 3532SOL     OW11494   1.736   0.894   2.111
 3532SOL    HW111495   1.664   0.963   2.120
 3532SOL    HW211496   1.824   0.939   2.097
 3533SOL     OW11497   6.886   1.317   2.725
 3533SOL    HW111498   6.836   1.288   2.643
 3533SOL    HW211499   6.966   1.371   2.697
 3534SOL     OW11500   0.028   1.118   1.480
 3534SOL    HW111501   0.045   1.103   1.383
 3534SOL    HW211502   6.953   1.121   1.497
 3535SOL     OW11503   2.826   5.091   4.733
 3535SOL    HW111504   2.812   4.992   4.727
 3535SOL    HW211505   2.877   5.112   4.817
 3536SOL     OW11506   3.306   2.014   2.365
 3536SOL    HW111507   3.288   1.920   2.335
 3536SOL    HW211508   3.348   2.065   2.291
 3537SOL     OW11509   2.287   5.532   2.539
 3537SOL    HW111510   2.314   5.503   2.631
 3537SOL    HW211511   2.231   5.614   2.545
 3538SOL     OW11512   2.977   5.496   4.635
 3538SOL    HW111513   2.930   5.577   4.600
 3538SOL    HW211514   2.959   5.488   4.733
 3539SOL     OW11515   4.047   3.814   4.789
 3539SOL    HW111516   4.094   3.784   4.871
 3539SOL    HW211517   3.998   3.900   4.808
 3540SOL     OW11518   2.323   1.847   3.814
 3540SOL    HW111519   2.303   1.762   3.765
 3540SOL    HW211520   2.237   1.889   3.843
 3541SOL     OW11521   2.808   3.857   5.251
 3541SOL    HW111522   2.719   3.887   5.283
 3541SOL    HW211523   2.811   3.862   5.151
 3542SOL     OW11524   1.301   4.611   2.394
 3542SOL    HW111525   1.286   4.515   2.418
 3542SOL    HW211526   1.392   4.622   2.352
 3543SOL     OW11527   5.576   2.945   4.673
 3543SOL    HW111528   5.503   3.013   4.668
 3543SOL    HW211529   5.658   2.979   4.626
 3544SOL     OW11530   2.029   4.540   5.972
 3544SOL    HW111531   2.096   4.606   5.939
 3544SOL    HW211532   2.058   4.504   6.061
 3545SOL     OW11533   4.502   5.515   6.473
 3545SOL    HW111534   4.551   5.584   6.527
 3545SOL    HW211535   4.559   5.433   6.467
 3546SOL     OW11536   6.609   5.295   3.305
 3546SOL    HW111537   6.556   5.246   3.374
 3546SOL    HW211538   6.707   5.286   3.326
 3547SOL     OW11539   4.784   5.567   4.538
 3547SOL    HW111540   4.809   5.526   4.450
 3547SOL    HW211541   4.685   5.581   4.541
 3548SOL     OW11542   4.661   2.664   5.575
 3548SOL    HW111543   4.611   2.687   5.492
 3548SOL    HW211544   4.754   2.637   5.551
 3549SOL     OW11545   5.833   4.924   2.903
 3549SOL    HW111546   5.895   4.890   2.832
 3549SOL    HW211547   5.746   4.950   2.862
 3550SOL     OW11548   5.561   1.588   2.542
 3550SOL    HW111549   5.495   1.597   2.617
 3550SOL    HW211550   5.512   1.567   2.457
 3551SOL     OW11551   2.946   6.417   3.541
 3551SOL    HW111552   3.023   6.373   3.496
 3551SOL    HW211553   2.963   6.515   3.549
 3552SOL     OW11554   5.967   5.552   2.766
 3552SOL    HW111555   5.884   5.604   2.785
 3552SOL    HW211556   5.982   5.485   2.839
 3553SOL     OW11557   4.781   1.962   2.668
 3553SOL    HW111558   4.820   1.995   2.754
 3553SOL    HW211559   4.771   1.863   2.671
 3554SOL     OW11560   4.073   5.035   6.667
 3554SOL    HW111561   4.027   5.029   6.756
 3554SOL    HW211562   4.124   5.121   6.662
 3555SOL     OW11563   1.119   3.043   3.098
 3555SOL    HW111564   1.157   2.965   3.049
 3555SOL    HW211565   1.019   3.032   3.106
 3556SOL     OW11566   3.498   1.042   5.984
 3556SOL    HW111567   3.551   1.024   6.067
 3556SOL    HW211568   3.401   1.048   6.007
 3557SOL     OW11569   1.654   0.135   4.500
 3557SOL    HW111570   1.680   0.142   4.596
 3557SOL    HW211571   1.650   0.038   4.473
 3558SOL     OW11572   0.126   5.942   1.389
 3558SOL    HW111573   0.189   6.006   1.345
 3558SOL    HW211574   0.148   5.849   1.359
 3559SOL     OW11575   0.569   0.851   4.933
 3559SOL    HW111576   0.590   0.803   4.848
 3559SOL    HW211577   0.653   0.870   4.983
 3560SOL     OW11578   0.550   5.983   1.296
 3560SOL    HW111579   0.610   6.058   1.271
 3560SOL    HW211580   0.602   5.898   1.300
 3561SOL     OW11581   4.740   5.035   5.438
 3561SOL    HW111582   4.685   4.973   5.495
 3561SOL    HW211583   4.750   5.122   5.485
 3562SOL     OW11584   5.326   0.633   3.207
 3562SOL    HW111585   5.388   0.697   3.162
 3562SOL    HW211586   5.377   0.552   3.236
 3563SOL     OW11587   4.632   1.135   1.749
 3563SOL    HW111588   4.681   1.158   1.665
 3563SOL    HW211589   4.622   1.217   1.806
 3564SOL     OW11590   0.013   5.195   3.565
 3564SOL    HW111591   6.977   5.187   3.645
 3564SOL    HW211592   0.109   5.190   3.593
 3565SOL     OW11593   2.181   0.429   5.270
 3565SOL    HW111594   2.170   0.504   5.204
 3565SOL    HW211595   2.259   0.448   5.329
 3566SOL     OW11596   0.393   3.058   5.679
 3566SOL    HW111597   0.376   2.986   5.746
 3566SOL    HW211598   0.356   3.030   5.590
 3567SOL     OW11599   0.415   3.106   1.005
 3567SOL    HW111600   0.492   3.048   1.034
 3567SOL    HW211601   0.357   3.127   1.084
 3568SOL     OW11602   4.621   4.313   3.468
 3568SOL    HW111603   4.661   4.224   3.491
 3568SOL    HW211604   4.668   4.350   3.388
 3569SOL     OW11605   3.599   4.151   3.948
 3569SOL    HW111606   3.602   4.169   3.850
 3569SOL    HW211607   3.505   4.155   3.980
 3570SOL     OW11608   0.445   1.698   6.455
 3570SOL    HW111609   0.465   1.730   6.547
 3570SOL    HW211610   0.475   1.766   6.389
 3571SOL     OW11611   2.215   6.619   5.095
 3571SOL    HW111612   2.212   6.719   5.083
 3571SOL    HW211613   2.176   6.576   5.014
 3572SOL     OW11614   4.853   4.444   1.746
 3572SOL    HW111615   4.870   4.536   1.779
 3572SOL    HW211616   4.915   4.423   1.671
 3573SOL     OW11617   6.669   3.980   2.894
 3573SOL    HW111618   6.737   3.994   2.822
 3573SOL    HW211619   6.714   3.943   2.975
 3574SOL     OW11620   2.479   2.884   6.115
 3574SOL    HW111621   2.414   2.885   6.040
 3574SOL    HW211622   2.452   2.951   6.184
 3575SOL     OW11623   5.657   6.907   0.095
 3575SOL    HW111624   5.605   6.885   0.177
 3575SOL    HW211625   5.595   6.919   0.017
 3576SOL     OW11626   1.269   2.543   0.440
 3576SOL    HW111627   1.365   2.562   0.458
 3576SOL    HW211628   1.223   2.627   0.411
 3577SOL     OW11629   2.720   2.824   5.885
 3577SOL    HW111630   2.675   2.775   5.959
 3577SOL    HW211631   2.751   2.758   5.816
 3578SOL     OW11632   2.951   2.937   6.032
 3578SOL    HW111633   2.921   2.969   5.942
 3578SOL    HW211634   2.871   2.926   6.092
 3579SOL     OW11635   0.565   2.622   1.791
 3579SOL    HW111636   0.569   2.719   1.818
 3579SOL    HW211637   0.626   2.569   1.850
 3580SOL     OW11638   0.382   4.599   1.493
 3580SOL    HW111639   0.323   4.665   1.539
 3580SOL    HW211640   0.334   4.512   1.484
 3581SOL     OW11641   1.030   0.089   2.557
 3581SOL    HW111642   0.998   0.153   2.486
 3581SOL    HW211643   1.096   0.136   2.616
 3582SOL     OW11644   3.787   4.290   6.092
 3582SOL    HW111645   3.759   4.209   6.040
 3582SOL    HW211646   3.797   4.265   6.188
 3583SOL     OW11647   0.427   4.774   0.289
 3583SOL    HW111648   0.507   4.718   0.266
 3583SOL    HW211649   0.389   4.743   0.376
 3584SOL     OW11650   6.343   4.674   4.754
 3584SOL    HW111651   6.330   4.640   4.847
 3584SOL    HW211652   6.438   4.657   4.725
 3585SOL     OW11653   2.510   1.375   2.852
 3585SOL    HW111654   2.496   1.387   2.950
 3585SOL    HW211655   2.608   1.368   2.834
 3586SOL     OW11656   6.298   2.062   4.880
 3586SOL    HW111657   6.329   1.981   4.829
 3586SOL    HW211658   6.230   2.110   4.826
 3587SOL     OW11659   3.070   6.977   6.359
 3587SOL    HW111660   3.002   6.958   6.288
 3587SOL    HW211661   3.151   7.018   6.317
 3588SOL     OW11662   6.429   4.168   4.130
 3588SOL    HW111663   6.492   4.198   4.059
 3588SOL    HW211664   6.475   4.103   4.190
 3589SOL     OW11665   0.160   6.773   6.546
 3589SOL    HW111666   0.148   6.825   6.462
 3589SOL    HW211667   0.223   6.821   6.607
 3590SOL     OW11668   6.656   4.948   0.543
 3590SOL    HW111669   6.693   4.925   0.633
 3590SOL    HW211670   6.633   5.045   0.539
 3591SOL     OW11671   5.785   1.929   6.179
 3591SOL    HW111672   5.772   2.002   6.247
 3591SOL    HW211673   5.814   1.969   6.092
 3592SOL     OW11674   1.924   6.649   1.492
 3592SOL    HW111675   1.852   6.644   1.562
 3592SOL    HW211676   1.953   6.556   1.469
 3593SOL     OW11677   5.192   3.323   5.809
 3593SOL    HW111678   5.254   3.253   5.846
 3593SOL    HW211679   5.098   3.293   5.821
 3594SOL     OW11680   4.588   4.895   4.833
 3594SOL    HW111681   4.579   4.941   4.921
 3594SOL    HW211682   4.668   4.930   4.785
 3595SOL     OW11683   5.600   6.228   5.187
 3595SOL    HW111684   5.514   6.203   5.142
 3595SOL    HW211685   5.677   6.187   5.138
 3596SOL     OW11686   4.029   2.178   3.536
 3596SOL    HW111687   4.035   2.204   3.440
 3596SOL    HW211688   3.971   2.098   3.546
 3597SOL     OW11689   2.256   3.103   5.356
 3597SOL    HW111690   2.263   3.199   5.331
 3597SOL    HW211691   2.324   3.050   5.305
 3598SOL     OW11692   1.320   5.299   4.818
 3598SOL    HW111693   1.241   5.316   4.760
 3598SOL    HW211694   1.289   5.275   4.910
 3599SOL     OW11695   3.974   1.563   4.633
 3599SOL    HW111696   3.985   1.463   4.629
 3599SOL    HW211697   3.928   1.588   4.718
 3600SOL     OW11698   3.032   3.264   0.379
 3600SOL    HW111699   2.964   3.331   0.409
 3600SOL    HW211700   3.051   3.278   0.282
 3601SOL     OW11701   4.891   1.009   5.264
 3601SOL    HW111702   4.986   1.012   5.296
 3601SOL    HW211703   4.875   0.923   5.216
 3602SOL     OW11704   1.875   1.543   1.163
 3602SOL    HW111705   1.917   1.629   1.194
 3602SOL    HW211706   1.882   1.475   1.237
 3603SOL     OW11707   3.315   1.070   5.627
 3603SOL    HW111708   3.338   0.973   5.613
 3603SOL    HW211709   3.386   1.114   5.682
 3604SOL     OW11710   0.127   0.111   3.651
 3604SOL    HW111711   0.084   0.197   3.624
 3604SOL    HW211712   0.214   0.101   3.604
 3605SOL     OW11713   1.017   5.819   3.667
 3605SOL    HW111714   1.072   5.775   3.596
 3605SOL    HW211715   1.061   5.905   3.695
 3606SOL     OW11716   2.675   6.525   2.557
 3606SOL    HW111717   2.605   6.536   2.627
 3606SOL    HW211718   2.750   6.470   2.593
 3607SOL     OW11719   5.346   2.381   2.515
 3607SOL    HW111720   5.337   2.283   2.529
 3607SOL    HW211721   5.398   2.421   2.590
 3608SOL     OW11722   2.563   2.023   5.449
 3608SOL    HW111723   2.521   2.034   5.359
 3608SOL    HW211724   2.626   1.946   5.447
 3609SOL     OW11725   2.198   0.195   4.688
 3609SOL    HW111726   2.177   0.153   4.599
 3609SOL    HW211727   2.114   0.227   4.730
 3610SOL     OW11728   1.997   0.014   4.922
 3610SOL    HW111729   2.088   0.009   4.962
 3610SOL    HW211730   1.938   0.070   4.981
 3611SOL     OW11731   5.275   5.332   2.841
 3611SOL    HW111732   5.200   5.315   2.905
 3611SOL    HW211733   5.268   5.267   2.765
 3612SOL     OW11734   5.624   1.429   6.918
 3612SOL    HW111735   5.634   1.491   6.840
 3612SOL    HW211736   5.671   1.343   6.897
 3613SOL     OW11737   4.319   5.553   1.166
 3613SOL    HW111738   4.405   5.545   1.217
 3613SOL    HW211739   4.242   5.537   1.228
 3614SOL     OW11740   4.230   5.302   6.275
 3614SOL    HW111741   4.193   5.369   6.211
 3614SOL    HW211742   4.190   5.212   6.256
 3615SOL     OW11743   5.616   2.676   5.899
 3615SOL    HW111744   5.600   2.586   5.939
 3615SOL    HW211745   5.713   2.688   5.880
 3616SOL     OW11746   1.392   1.376   0.047
 3616SOL    HW111747   1.430   1.452   0.099
 3616SOL    HW211748   1.304   1.403   0.009
 3617SOL     OW11749   4.210   6.332   5.886
 3617SOL    HW111750   4.253   6.292   5.967
 3617SOL    HW211751   4.111   6.314   5.889
 3618SOL     OW11752   1.704   4.717   4.874
 3618SOL    HW111753   1.801   4.739   4.867
 3618SOL    HW211754   1.690   4.620   4.856
 3619SOL     OW11755   5.685   3.767   1.190
 3619SOL    HW111756   5.760   3.735   1.131
 3619SOL    HW211757   5.682   3.710   1.272
 3620SOL     OW11758   5.850   5.527   5.164
 3620SOL    HW111759   5.850   5.431   5.190
 3620SOL    HW211760   5.934   5.549   5.115
 3621SOL     OW11761   2.956   3.332   3.737
 3621SOL    HW111762   2.942   3.323   3.638
 3621SOL    HW211763   3.004   3.251   3.771
 3622SOL     OW11764   1.272   5.819   6.582
 3622SOL    HW111765   1.333   5.848   6.656
 3622SOL    HW211766   1.297   5.865   6.497
 3623SOL     OW11767   0.863   4.922   6.190
 3623SOL    HW111768   0.889   4.827   6.176
 3623SOL    HW211769   0.776   4.941   6.143
 3624SOL     OW11770   2.938   1.783   1.363
 3624SOL    HW111771   2.961   1.805   1.458
 3624SOL    HW211772   2.956   1.686   1.347
 3625SOL     OW11773   6.802   2.216   0.739
 3625SOL    HW111774   6.763   2.305   0.716
 3625SOL    HW211775   6.755   2.178   0.819
 3626SOL     OW11776   0.941   2.526   4.728
 3626SOL    HW111777   0.928   2.606   4.785
 3626SOL    HW211778   1.007   2.546   4.656
 3627SOL     OW11779   3.388   2.158   1.867
 3627SOL    HW111780   3.475   2.206   1.854
 3627SOL    HW211781   3.374   2.141   1.964
 3628SOL     OW11782   5.708   1.693   0.772
 3628SOL    HW111783   5.733   1.677   0.867
 3628SOL    HW211784   5.611   1.671   0.759
 3629SOL     OW11785   1.109   1.046   3.802
 3629SOL    HW111786   1.086   0.970   3.741
 3629SOL    HW211787   1.026   1.099   3.821
 3630SOL     OW11788   0.019   2.223   2.473
 3630SOL    HW111789   0.113   2.240   2.504
 3630SOL    HW211790   6.987   2.306   2.486
 3631SOL     OW11791   1.474   6.619   2.258
 3631SOL    HW111792   1.490   6.649   2.352
 3631SOL    HW211793   1.484   6.519   2.253
 3632SOL     OW11794   4.508   3.866   1.150
 3632SOL    HW111795   4.422   3.913   1.127
 3632SOL    HW211796   4.505   3.772   1.116
 3633SOL     OW11797   4.176   3.726   6.570
 3633SOL    HW111798   4.124   3.805   6.539
 3633SOL    HW211799   4.218   3.680   6.492
 3634SOL     OW11800   3.681   5.781   6.737
 3634SOL    HW111801   3.721   5.816   6.652
 3634SOL    HW211802   3.750   5.784   6.809
 3635SOL     OW11803   2.036   6.837   2.091
 3635SOL    HW111804   2.039   6.917   2.151
 3635SOL    HW211805   1.941   6.808   2.078
 3636SOL     OW11806   0.686   4.543   6.546
 3636SOL    HW111807   0.617   4.475   6.570
 3636SOL    HW211808   0.703   4.603   6.625
 3637SOL     OW11809   6.383   3.111   6.839
 3637SOL    HW111810   6.326   3.058   6.902
 3637SOL    HW211811   6.376   3.073   6.747
 3638SOL     OW11812   6.278   4.440   3.067
 3638SOL    HW111813   6.368   4.436   3.109
 3638SOL    HW211814   6.260   4.532   3.035
 3639SOL     OW11815   3.474   3.827   3.936
 3639SOL    HW111816   3.392   3.816   3.992
 3639SOL    HW211817   3.517   3.915   3.957
 3640SOL     OW11818   4.574   2.385   0.677
 3640SOL    HW111819   4.530   2.316   0.620
 3640SOL    HW211820   4.612   2.457   0.619
 3641SOL     OW11821   5.795   3.637   2.527
 3641SOL    HW111822   5.844   3.567   2.579
 3641SOL    HW211823   5.819   3.728   2.562
 3642SOL     OW11824   5.883   3.227   6.400
 3642SOL    HW111825   5.955   3.222   6.332
 3642SOL    HW211826   5.800   3.264   6.358
 3643SOL     OW11827   3.927   5.462   5.292
 3643SOL    HW111828   3.981   5.475   5.209
 3643SOL    HW211829   3.988   5.445   5.370
 3644SOL     OW11830   3.025   0.427   1.195
 3644SOL    HW111831   2.977   0.473   1.269
 3644SOL    HW211832   2.964   0.362   1.150
 3645SOL     OW11833   1.227   4.523   3.492
 3645SOL    HW111834   1.309   4.528   3.549
 3645SOL    HW211835   1.171   4.445   3.521
 3646SOL     OW11836   1.775   4.425   5.273
 3646SOL    HW111837   1.837   4.442   5.197
 3646SOL    HW211838   1.681   4.439   5.243
 3647SOL     OW11839   3.561   6.970   6.269
 3647SOL    HW111840   3.638   6.941   6.212
 3647SOL    HW211841   3.591   6.973   6.365
 3648SOL     OW11842   4.685   5.789   3.530
 3648SOL    HW111843   4.610   5.850   3.554
 3648SOL    HW211844   4.770   5.841   3.522
 3649SOL     OW11845   6.294   2.244   0.334
 3649SOL    HW111846   6.196   2.226   0.327
 3649SOL    HW211847   6.309   2.334   0.375
 3650SOL     OW11848   5.498   5.395   6.915
 3650SOL    HW111849   5.514   5.317   6.854
 3650SOL    HW211850   5.523   5.479   6.869
 3651SOL     OW11851   0.718   1.999   5.548
 3651SOL    HW111852   0.781   2.076   5.539
 3651SOL    HW211853   0.693   1.987   5.644
 3652SOL     OW11854   4.310   1.489   1.818
 3652SOL    HW111855   4.269   1.445   1.898
 3652SOL    HW211856   4.239   1.511   1.751
 3653SOL     OW11857   1.073   1.663   1.259
 3653SOL    HW111858   1.028   1.753   1.262
 3653SOL    HW211859   1.172   1.676   1.260
 3654SOL     OW11860   5.066   6.687   0.755
 3654SOL    HW111861   5.126   6.620   0.711
 3654SOL    HW211862   5.112   6.727   0.834
 3655SOL     OW11863   1.850   1.934   3.787
 3655SOL    HW111864   1.795   1.884   3.721
 3655SOL    HW211865   1.878   2.022   3.748
 3656SOL     OW11866   6.911   6.966   1.362
 3656SOL    HW111867   6.869   0.034   1.360
 3656SOL    HW211868   6.942   6.946   1.455
 3657SOL     OW11869   5.791   5.274   5.462
 3657SOL    HW111870   5.817   5.198   5.402
 3657SOL    HW211871   5.694   5.294   5.449
 3658SOL     OW11872   1.974   4.936   5.861
 3658SOL    HW111873   1.928   4.980   5.785
 3658SOL    HW211874   2.030   4.860   5.828
 3659SOL     OW11875   0.553   1.872   6.248
 3659SOL    HW111876   0.636   1.880   6.193
 3659SOL    HW211877   0.511   1.963   6.259
 3660SOL     OW11878   5.939   5.603   6.492
 3660SOL    HW111879   5.919   5.699   6.512
 3660SOL    HW211880   6.038   5.592   6.480
 3661SOL     OW11881   0.041   1.974   5.157
 3661SOL    HW111882   7.023   1.939   5.073
 3661SOL    HW211883   0.095   1.902   5.200
 3662SOL     OW11884   2.732   1.805   5.409
 3662SOL    HW111885   2.686   1.741   5.347
 3662SOL    HW211886   2.827   1.816   5.382
 3663SOL     OW11887   2.656   2.134   6.528
 3663SOL    HW111888   2.743   2.140   6.478
 3663SOL    HW211889   2.584   2.105   6.466
 3664SOL     OW11890   3.869   1.156   1.797
 3664SOL    HW111891   3.910   1.247   1.788
 3664SOL    HW211892   3.914   1.093   1.734
 3665SOL     OW11893   1.156   5.912   5.924
 3665SOL    HW111894   1.120   5.996   5.964
 3665SOL    HW211895   1.081   5.852   5.898
 3666SOL     OW11896   2.060   2.466   4.794
 3666SOL    HW111897   2.045   2.392   4.730
 3666SOL    HW211898   2.010   2.547   4.764
 3667SOL     OW11899   2.487   0.301   1.418
 3667SOL    HW111900   2.435   0.376   1.460
 3667SOL    HW211901   2.424   0.239   1.372
 3668SOL     OW11902   6.977   0.675   1.167
 3668SOL    HW111903   7.021   0.708   1.250
 3668SOL    HW211904   7.021   0.716   1.087
 3669SOL     OW11905   0.496   1.775   3.562
 3669SOL    HW111906   0.416   1.721   3.537
 3669SOL    HW211907   0.564   1.715   3.604
 3670SOL     OW11908   2.401   6.764   2.108
 3670SOL    HW111909   2.434   6.802   2.194
 3670SOL    HW211910   2.326   6.701   2.126
 3671SOL     OW11911   6.209   0.191   3.737
 3671SOL    HW111912   6.147   0.269   3.729
 3671SOL    HW211913   6.271   0.190   3.658
 3672SOL     OW11914   3.286   6.825   3.201
 3672SOL    HW111915   3.364   6.775   3.164
 3672SOL    HW211916   3.253   6.780   3.284
 3673SOL     OW11917   3.403   6.159   1.220
 3673SOL    HW111918   3.478   6.214   1.182
 3673SOL    HW211919   3.417   6.063   1.195
 3674SOL     OW11920   1.564   4.227   6.859
 3674SOL    HW111921   1.481   4.174   6.843
 3674SOL    HW211922   1.572   4.247   6.957
 3675SOL     OW11923   1.128   0.445   3.688
 3675SOL    HW111924   1.176   0.477   3.606
 3675SOL    HW211925   1.139   0.512   3.761
 3676SOL     OW11926   3.464   2.009   4.111
 3676SOL    HW111927   3.489   2.047   4.022
 3676SOL    HW211928   3.378   1.959   4.103
 3677SOL     OW11929   2.125   0.636   4.318
 3677SOL    HW111930   2.138   0.579   4.399
 3677SOL    HW211931   2.039   0.611   4.273
 3678SOL     OW11932   0.802   0.626   4.238
 3678SOL    HW111933   0.854   0.674   4.167
 3678SOL    HW211934   0.766   0.693   4.303
 3679SOL     OW11935   3.971   0.718   2.381
 3679SOL    HW111936   4.066   0.730   2.352
 3679SOL    HW211937   3.963   0.744   2.478
 3680SOL     OW11938   3.307   1.333   4.452
 3680SOL    HW111939   3.247   1.310   4.375
 3680SOL    HW211940   3.254   1.381   4.522
 3681SOL     OW11941   1.745   6.024   4.408
 3681SOL    HW111942   1.674   6.089   4.381
 3681SOL    HW211943   1.725   5.934   4.367
 3682SOL     OW11944   5.879   1.941   1.700
 3682SOL    HW111945   5.905   1.916   1.793
 3682SOL    HW211946   5.799   2.001   1.702
 3683SOL     OW11947   5.720   1.584   6.689
 3683SOL    HW111948   5.808   1.584   6.737
 3683SOL    HW211949   5.730   1.538   6.601
 3684SOL     OW11950   2.054   6.489   5.639
 3684SOL    HW111951   2.064   6.557   5.712
 3684SOL    HW211952   2.025   6.535   5.555
 3685SOL     OW11953   2.041   6.087   4.994
 3685SOL    HW111954   1.998   6.013   4.942
 3685SOL    HW211955   2.133   6.104   4.957
 3686SOL     OW11956   0.396   4.271   2.255
 3686SOL    HW111957   0.413   4.244   2.160
 3686SOL    HW211958   0.407   4.192   2.315
 3687SOL     OW11959   5.402   4.819   4.268
 3687SOL    HW111960   5.375   4.910   4.235
 3687SOL    HW211961   5.321   4.770   4.300
 3688SOL     OW11962   6.308   2.516   0.386
 3688SOL    HW111963   6.272   2.514   0.479
 3688SOL    HW211964   6.239   2.553   0.324
 3689SOL     OW11965   1.266   6.763   5.692
 3689SOL    HW111966   1.222   6.843   5.653
 3689SOL    HW211967   1.246   6.683   5.636
 3690SOL     OW11968   5.091   5.572   1.736
 3690SOL    HW111969   5.079   5.649   1.673
 3690SOL    HW211970   5.141   5.499   1.690
 3691SOL     OW11971   1.605   2.881   0.523
 3691SOL    HW111972   1.695   2.852   0.555
 3691SOL    HW211973   1.547   2.901   0.602
 3692SOL     OW11974   0.784   3.130   5.662
 3692SOL    HW111975   0.798   3.225   5.688
 3692SOL    HW211976   0.733   3.082   5.735
 3693SOL     OW11977   6.371   1.543   2.072
 3693SOL    HW111978   6.388   1.590   2.158
 3693SOL    HW211979   6.329   1.454   2.089
 3694SOL     OW11980   6.322   6.889   2.712
 3694SOL    HW111981   6.292   6.797   2.740
 3694SOL    HW211982   6.294   6.906   2.618
 3695SOL     OW11983   5.230   3.417   2.894
 3695SOL    HW111984   5.196   3.324   2.877
 3695SOL    HW211985   5.236   3.433   2.992
 3696SOL     OW11986   4.256   0.362   4.631
 3696SOL    HW111987   4.191   0.431   4.663
 3696SOL    HW211988   4.289   0.387   4.540
 3697SOL     OW11989   6.616   6.338   2.667
 3697SOL    HW111990   6.527   6.311   2.704
 3697SOL    HW211991   6.658   6.406   2.728
 3698SOL     OW11992   1.527   6.935   2.628
 3698SOL    HW111993   1.487   6.968   2.714
 3698SOL    HW211994   1.531   7.011   2.562
 3699SOL     OW11995   2.765   2.350   3.375
 3699SOL    HW111996   2.746   2.254   3.395
 3699SOL    HW211997   2.733   2.407   3.450
 3700SOL     OW11998   1.082   5.357   4.589
 3700SOL    HW111999   1.113   5.329   4.498
 3700SOL    HW212000   1.042   5.279   4.636
 3701SOL     OW12001   1.444   0.496   2.121
 3701SOL    HW112002   1.450   0.396   2.116
 3701SOL    HW212003   1.473   0.526   2.212
 3702SOL     OW12004   5.910   4.505   3.179
 3702SOL    HW112005   5.972   4.434   3.212
 3702SOL    HW212006   5.820   4.465   3.161
 3703SOL     OW12007   1.445   1.530   3.667
 3703SOL    HW112008   1.524   1.468   3.670
 3703SOL    HW212009   1.360   1.477   3.670
 3704SOL     OW12010   6.539   1.532   0.443
 3704SOL    HW112011   6.441   1.527   0.421
 3704SOL    HW212012   6.581   1.606   0.390
 3705SOL     OW12013   5.059   4.307   3.289
 3705SOL    HW112014   5.070   4.386   3.228
 3705SOL    HW212015   5.040   4.340   3.382
 3706SOL     OW12016   1.198   4.342   7.013
 3706SOL    HW112017   1.187   4.373   6.918
 3706SOL    HW212018   1.174   4.416   0.052
 3707SOL     OW12019   1.517   5.338   3.503
 3707SOL    HW112020   1.546   5.320   3.597
 3707SOL    HW212021   1.418   5.345   3.500
 3708SOL     OW12022   2.276   5.996   1.265
 3708SOL    HW112023   2.196   5.991   1.206
 3708SOL    HW212024   2.269   6.075   1.326
 3709SOL     OW12025   1.110   1.670   2.221
 3709SOL    HW112026   1.060   1.735   2.164
 3709SOL    HW212027   1.207   1.694   2.220
 3710SOL     OW12028   0.437   4.309   5.365
 3710SOL    HW112029   0.473   4.267   5.449
 3710SOL    HW212030   0.506   4.302   5.293
 3711SOL     OW12031   1.196   5.690   4.448
 3711SOL    HW112032   1.117   5.674   4.507
 3711SOL    HW212033   1.214   5.789   4.442
 3712SOL     OW12034   1.656   5.234   4.534
 3712SOL    HW112035   1.731   5.171   4.554
 3712SOL    HW212036   1.579   5.216   4.596
 3713SOL     OW12037   6.012   0.536   4.016
 3713SOL    HW112038   6.051   0.493   4.097
 3713SOL    HW212039   6.076   0.529   3.940
 3714SOL     OW12040   0.666   4.435   0.591
 3714SOL    HW112041   0.727   4.495   0.643
 3714SOL    HW212042   0.572   4.454   0.616
 3715SOL     OW12043   5.882   5.299   3.813
 3715SOL    HW112044   5.834   5.211   3.821
 3715SOL    HW212045   5.817   5.371   3.790
 3716SOL     OW12046   4.950   5.461   4.763
 3716SOL    HW112047   4.896   5.493   4.685
 3716SOL    HW212048   5.046   5.453   4.737
 3717SOL     OW12049   4.458   0.874   0.935
 3717SOL    HW112050   4.473   0.886   0.836
 3717SOL    HW212051   4.502   0.949   0.984
 3718SOL     OW12052   6.322   6.700   6.104
 3718SOL    HW112053   6.227   6.693   6.133
 3718SOL    HW212054   6.378   6.732   6.179
 3719SOL     OW12055   3.392   3.963   0.085
 3719SOL    HW112056   3.394   4.054   0.126
 3719SOL    HW212057   3.329   3.904   0.137
 3720SOL     OW12058   0.180   3.431   1.239
 3720SOL    HW112059   0.114   3.492   1.283
 3720SOL    HW212060   0.271   3.471   1.245
 3721SOL     OW12061   6.747   6.474   5.665
 3721SOL    HW112062   6.808   6.396   5.680
 3721SOL    HW212063   6.655   6.451   5.698
 3722SOL     OW12064   5.382   6.562   3.097
 3722SOL    HW112065   5.351   6.474   3.134
 3722SOL    HW212066   5.456   6.546   3.032
 3723SOL     OW12067   4.552   3.503   0.291
 3723SOL    HW112068   4.602   3.496   0.204
 3723SOL    HW212069   4.516   3.413   0.315
 3724SOL     OW12070   0.910   4.982   4.499
 3724SOL    HW112071   0.915   5.034   4.584
 3724SOL    HW212072   0.905   4.884   4.521
 3725SOL     OW12073   1.463   5.714   6.948
 3725SOL    HW112074   1.502   5.703   0.017
 3725SOL    HW212075   1.383   5.655   6.939
 3726SOL     OW12076   6.036   3.912   5.023
 3726SOL    HW112077   6.014   3.815   5.015
 3726SOL    HW212078   6.024   3.956   4.934
 3727SOL     OW12079   6.824   3.222   3.971
 3727SOL    HW112080   6.901   3.273   3.933
 3727SOL    HW212081   6.772   3.180   3.896
 3728SOL     OW12082   2.925   2.898   0.553
 3728SOL    HW112083   2.889   2.990   0.562
 3728SOL    HW212084   2.965   2.868   0.639
 3729SOL     OW12085   0.952   0.025   5.953
 3729SOL    HW112086   0.922   0.092   5.885
 3729SOL    HW212087   1.051   0.028   5.961
 3730SOL     OW12088   4.752   5.881   4.490
 3730SOL    HW112089   4.843   5.841   4.488
 3730SOL    HW212090   4.750   5.958   4.554
 3731SOL     OW12091   0.254   2.096   0.174
 3731SOL    HW112092   0.170   2.114   0.123
 3731SOL    HW212093   0.299   2.183   0.196
 3732SOL     OW12094   3.338   2.533   6.708
 3732SOL    HW112095   3.399   2.503   6.634
 3732SOL    HW212096   3.254   2.570   6.669
 3733SOL     OW12097   1.633   0.146   3.316
 3733SOL    HW112098   1.599   0.056   3.287
 3733SOL    HW212099   1.733   0.144   3.319
 3734SOL     OW12100   4.276   6.940   0.660
 3734SOL    HW112101   4.296   6.987   0.574
 3734SOL    HW212102   4.351   6.956   0.725
 3735SOL     OW12103   4.638   6.859   2.896
 3735SOL    HW112104   4.551   6.830   2.855
 3735SOL    HW212105   4.647   6.958   2.889
 3736SOL     OW12106   6.744   0.824   0.508
 3736SOL    HW112107   6.653   0.810   0.468
 3736SOL    HW212108   6.734   0.849   0.605
 3737SOL     OW12109   6.612   2.385   2.564
 3737SOL    HW112110   6.649   2.297   2.533
 3737SOL    HW212111   6.558   2.371   2.646
 3738SOL     OW12112   6.649   6.571   1.446
 3738SOL    HW112113   6.739   6.538   1.476
 3738SOL    HW212114   6.659   6.662   1.405
 3739SOL     OW12115   3.345   3.549   0.381
 3739SOL    HW112116   3.324   3.480   0.312
 3739SOL    HW212117   3.377   3.633   0.336
 3740SOL     OW12118   4.950   5.363   6.596
 3740SOL    HW112119   5.011   5.295   6.639
 3740SOL    HW212120   4.856   5.333   6.605
 3741SOL     OW12121   5.363   2.931   0.274
 3741SOL    HW112122   5.433   2.916   0.205
 3741SOL    HW212123   5.289   2.865   0.262
 3742SOL     OW12124   3.790   5.263   0.964
 3742SOL    HW112125   3.784   5.356   0.927
 3742SOL    HW212126   3.774   5.196   0.892
 3743SOL     OW12127   3.415   3.144   1.235
 3743SOL    HW112128   3.327   3.118   1.273
 3743SOL    HW212129   3.442   3.079   1.164
 3744SOL     OW12130   0.476   6.939   2.126
 3744SOL    HW112131   0.500   6.862   2.067
 3744SOL    HW212132   0.378   6.938   2.144
 3745SOL     OW12133   5.008   3.659   2.234
 3745SOL    HW112134   4.984   3.586   2.170
 3745SOL    HW212135   4.925   3.698   2.275
 3746SOL     OW12136   6.148   0.419   4.214
 3746SOL    HW112137   6.146   0.330   4.169
 3746SOL    HW212138   6.219   0.420   4.285
 3747SOL     OW12139   3.618   6.774   5.710
 3747SOL    HW112140   3.610   6.872   5.697
 3747SOL    HW212141   3.553   6.744   5.780
 3748SOL     OW12142   4.721   1.709   2.748
 3748SOL    HW112143   4.683   1.634   2.694
 3748SOL    HW212144   4.687   1.704   2.842
 3749SOL     OW12145   0.040   6.376   2.231
 3749SOL    HW112146   0.113   6.408   2.172
 3749SOL    HW212147   0.076   6.357   2.323
 3750SOL     OW12148   5.283   4.252   0.645
 3750SOL    HW112149   5.365   4.287   0.690
 3750SOL    HW212150   5.209   4.247   0.712
 3751SOL     OW12151   1.822   3.891   2.428
 3751SOL    HW112152   1.834   3.903   2.526
 3751SOL    HW212153   1.910   3.902   2.382
 3752SOL     OW12154   0.679   6.348   6.305
 3752SOL    HW112155   0.773   6.353   6.340
 3752SOL    HW212156   0.617   6.390   6.371
 3753SOL     OW12157   6.642   0.174   4.891
 3753SOL    HW112158   6.593   0.105   4.944
 3753SOL    HW212159   6.737   0.147   4.880
 3754SOL     OW12160   6.774   6.691   1.750
 3754SOL    HW112161   6.830   6.718   1.828
 3754SOL    HW212162   6.810   6.734   1.667
 3755SOL     OW12163   5.203   2.811   3.032
 3755SOL    HW112164   5.139   2.884   3.058
 3755SOL    HW212165   5.186   2.730   3.087
 3756SOL     OW12166   3.179   0.295   6.447
 3756SOL    HW112167   3.099   0.290   6.387
 3756SOL    HW212168   3.255   0.335   6.397
 3757SOL     OW12169   3.483   5.433   6.630
 3757SOL    HW112170   3.446   5.340   6.636
 3757SOL    HW212171   3.528   5.457   6.716
 3758SOL     OW12172   0.870   0.824   4.073
 3758SOL    HW112173   0.843   0.919   4.089
 3758SOL    HW212174   0.969   0.819   4.063
 3759SOL     OW12175   4.483   4.396   6.958
 3759SOL    HW112176   4.492   4.487   6.919
 3759SOL    HW212177   4.386   4.375   6.970
 3760SOL     OW12178   1.891   2.363   5.159
 3760SOL    HW112179   1.898   2.357   5.258
 3760SOL    HW212180   1.895   2.459   5.131
 3761SOL     OW12181   0.015   6.409   3.613
 3761SOL    HW112182   0.013   6.394   3.712
 3761SOL    HW212183   0.082   6.347   3.571
 3762SOL     OW12184   0.574   3.730   6.831
 3762SOL    HW112185   0.661   3.748   6.877
 3762SOL    HW212186   0.572   3.635   6.801
 3763SOL     OW12187   6.542   3.610   6.006
 3763SOL    HW112188   6.442   3.603   6.014
 3763SOL    HW212189   6.565   3.671   5.931
 3764SOL     OW12190   2.183   6.685   3.526
 3764SOL    HW112191   2.135   6.710   3.442
 3764SOL    HW212192   2.174   6.586   3.541
 3765SOL     OW12193   5.621   1.417   4.533
 3765SOL    HW112194   5.643   1.337   4.589
 3765SOL    HW212195   5.693   1.485   4.543
 3766SOL     OW12196   1.711   0.187   5.470
 3766SOL    HW112197   1.652   0.204   5.548
 3766SOL    HW212198   1.781   0.258   5.465
 3767SOL     OW12199   1.889   4.901   1.438
 3767SOL    HW112200   1.854   4.809   1.450
 3767SOL    HW212201   1.984   4.897   1.406
 3768SOL     OW12202   4.804   6.604   0.784
 3768SOL    HW112203   4.730   6.653   0.738
 3768SOL    HW212204   4.888   6.658   0.778
 3769SOL     OW12205   4.622   6.435   5.059
 3769SOL    HW112206   4.631   6.532   5.039
 3769SOL    HW212207   4.567   6.423   5.141
 3770SOL     OW12208   2.206   1.847   0.191
 3770SOL    HW112209   2.171   1.760   0.157
 3770SOL    HW212210   2.132   1.914   0.193
 3771SOL     OW12211   5.163   1.484   5.733
 3771SOL    HW112212   5.139   1.435   5.649
 3771SOL    HW212213   5.082   1.498   5.789
 3772SOL     OW12214   5.025   1.113   2.643
 3772SOL    HW112215   5.075   1.069   2.717
 3772SOL    HW212216   5.033   1.058   2.560
 3773SOL     OW12217   6.885   3.047   6.690
 3773SOL    HW112218   6.908   2.949   6.684
 3773SOL    HW212219   6.799   3.057   6.741
 3774SOL     OW12220   0.649   1.270   1.946
 3774SOL    HW112221   0.596   1.355   1.937
 3774SOL    HW212222   0.734   1.279   1.895
 3775SOL     OW12223   5.629   3.318   3.558
 3775SOL    HW112224   5.663   3.382   3.627
 3775SOL    HW212225   5.654   3.225   3.584
 3776SOL     OW12226   2.775   3.256   0.102
 3776SOL    HW112227   2.710   3.275   0.029
 3776SOL    HW212228   2.767   3.161   0.131
 3777SOL     OW12229   2.102   4.317   3.721
 3777SOL    HW112230   2.086   4.372   3.639
 3777SOL    HW212231   2.042   4.348   3.795
 3778SOL     OW12232   2.182   6.622   2.131
 3778SOL    HW112233   2.176   6.609   2.230
 3778SOL    HW212234   2.121   6.696   2.103
 3779SOL     OW12235   2.947   5.374   5.984
 3779SOL    HW112236   2.911   5.406   5.896
 3779SOL    HW212237   3.043   5.348   5.974
 3780SOL     OW12238   2.974   0.015   4.613
 3780SOL    HW112239   2.956   7.020   4.710
 3780SOL    HW212240   3.036   0.092   4.605
 3781SOL     OW12241   2.930   5.443   4.923
 3781SOL    HW112242   2.951   5.346   4.930
 3781SOL    HW212243   2.831   5.456   4.922
 3782SOL     OW12244   2.157   2.129   3.378
 3782SOL    HW112245   2.241   2.089   3.342
 3782SOL    HW212246   2.138   2.091   3.469
 3783SOL     OW12247   4.591   5.634   5.502
 3783SOL    HW112248   4.654   5.580   5.446
 3783SOL    HW212249   4.500   5.593   5.498
 3784SOL     OW12250   4.881   1.297   3.360
 3784SOL    HW112251   4.937   1.254   3.430
 3784SOL    HW212252   4.925   1.285   3.271
 3785SOL     OW12253   1.670   1.480   1.464
 3785SOL    HW112254   1.766   1.456   1.449
 3785SOL    HW212255   1.622   1.484   1.376
 3786SOL     OW12256   3.337   5.288   3.191
 3786SOL    HW112257   3.255   5.315   3.241
 3786SOL    HW212258   3.319   5.203   3.141
 3787SOL     OW12259   3.907   1.853   3.895
 3787SOL    HW112260   3.976   1.923   3.914
 3787SOL    HW212261   3.841   1.850   3.970
 3788SOL     OW12262   5.864   3.004   2.322
 3788SOL    HW112263   5.869   3.059   2.238
 3788SOL    HW212264   5.811   2.921   2.304
 3789SOL     OW12265   1.514   5.158   2.813
 3789SOL    HW112266   1.570   5.211   2.877
 3789SOL    HW212267   1.421   5.195   2.812
 3790SOL     OW12268   1.809   3.485   3.955
 3790SOL    HW112269   1.764   3.413   4.007
 3790SOL    HW212270   1.741   3.531   3.897
 3791SOL     OW12271   4.847   0.380   2.116
 3791SOL    HW112272   4.788   0.332   2.052
 3791SOL    HW212273   4.931   0.329   2.130
 3792SOL     OW12274   0.005   6.816   5.376
 3792SOL    HW112275   7.017   6.906   5.334
 3792SOL    HW212276   6.948   6.760   5.354
 3793SOL     OW12277   2.253   0.256   2.706
 3793SOL    HW112278   2.278   0.188   2.774
 3793SOL    HW212279   2.335   0.304   2.675
 3794SOL     OW12280   4.152   6.490   2.255
 3794SOL    HW112281   4.125   6.526   2.166
 3794SOL    HW212282   4.089   6.418   2.282
 3795SOL     OW12283   5.398   6.995   6.643
 3795SOL    HW112284   5.454   6.929   6.593
 3795SOL    HW212285   5.354   0.034   6.578
 3796SOL     OW12286   1.103   2.978   1.913
 3796SOL    HW112287   1.064   3.014   1.829
 3796SOL    HW212288   1.178   3.037   1.944
 3797SOL     OW12289   0.156   5.016   2.749
 3797SOL    HW112290   0.115   5.020   2.658
 3797SOL    HW212291   0.230   5.083   2.756
 3798SOL     OW12292   1.805   4.614   2.410
 3798SOL    HW112293   1.821   4.693   2.469
 3798SOL    HW212294   1.892   4.579   2.375
 3799SOL     OW12295   1.824   6.944   5.381
 3799SOL    HW112296   1.794   6.887   5.458
 3799SOL    HW212297   1.775   0.007   5.384
 3800SOL     OW12298   4.896   3.335   4.608
 3800SOL    HW112299   4.812   3.352   4.556
 3800SOL    HW212300   4.902   3.238   4.630
 3801SOL     OW12301   0.250   6.892   6.115
 3801SOL    HW112302   0.196   6.824   6.065
 3801SOL    HW212303   0.339   6.904   6.070
 3802SOL     OW12304   1.380   2.364   5.148
 3802SOL    HW112305   1.440   2.383   5.071
 3802SOL    HW212306   1.412   2.414   5.229
 3803SOL     OW12307   3.862   1.194   1.045
 3803SOL    HW112308   3.956   1.191   1.012
 3803SOL    HW212309   3.849   1.276   1.100
 3804SOL     OW12310   4.774   2.444   5.403
 3804SOL    HW112311   4.817   2.534   5.406
 3804SOL    HW212312   4.766   2.414   5.308
 3805SOL     OW12313   2.102   4.046   1.534
 3805SOL    HW112314   2.191   4.063   1.575
 3805SOL    HW212315   2.043   3.998   1.600
 3806SOL     OW12316   2.418   1.653   0.657
 3806SOL    HW112317   2.437   1.683   0.564
 3806SOL    HW212318   2.323   1.671   0.679
 3807SOL     OW12319   1.451   6.555   3.413
 3807SOL    HW112320   1.384   6.630   3.413
 3807SOL    HW212321   1.402   6.468   3.417
 3808SOL     OW12322   3.376   0.377   1.344
 3808SOL    HW112323   3.402   0.289   1.383
 3808SOL    HW212324   3.405   0.450   1.406
 3809SOL     OW12325   4.413   0.774   6.280
 3809SOL    HW112326   4.354   0.733   6.212
 3809SOL    HW212327   4.459   0.854   6.241
 3810SOL     OW12328   2.590   3.161   5.377
 3810SOL    HW112329   2.685   3.133   5.361
 3810SOL    HW212330   2.532   3.128   5.302
 3811SOL     OW12331   0.993   5.611   5.956
 3811SOL    HW112332   0.894   5.606   5.953
 3811SOL    HW212333   1.025   5.596   6.050
 3812SOL     OW12334   5.440   1.140   5.009
 3812SOL    HW112335   5.400   1.202   5.076
 3812SOL    HW212336   5.537   1.160   4.997
 3813SOL     OW12337   3.542   4.889   1.426
 3813SOL    HW112338   3.453   4.851   1.400
 3813SOL    HW212339   3.531   4.947   1.507
 3814SOL     OW12340   0.927   6.713   1.933
 3814SOL    HW112341   0.866   6.730   2.011
 3814SOL    HW212342   1.021   6.700   1.967
 3815SOL     OW12343   5.248   2.242   1.576
 3815SOL    HW112344   5.194   2.186   1.638
 3815SOL    HW212345   5.329   2.276   1.623
 3816SOL     OW12346   0.780   6.587   1.072
 3816SOL    HW112347   0.747   6.515   1.133
 3816SOL    HW212348   0.841   6.546   1.004
 3817SOL     OW12349   5.036   1.972   5.430
 3817SOL    HW112350   5.038   1.886   5.481
 3817SOL    HW212351   4.975   1.963   5.351
 3818SOL     OW12352   5.111   5.314   2.219
 3818SOL    HW112353   5.055   5.375   2.275
 3818SOL    HW212354   5.208   5.330   2.240
 3819SOL     OW12355   5.504   4.414   6.449
 3819SOL    HW112356   5.519   4.427   6.546
 3819SOL    HW212357   5.542   4.326   6.420
 3820SOL     OW12358   5.345   6.319   4.181
 3820SOL    HW112359   5.322   6.410   4.145
 3820SOL    HW212360   5.275   6.254   4.153
 3821SOL     OW12361   0.953   4.182   2.009
 3821SOL    HW112362   0.870   4.132   2.033
 3821SOL    HW212363   0.980   4.240   2.085
 3822SOL     OW12364   2.513   5.198   1.757
 3822SOL    HW112365   2.494   5.228   1.663
 3822SOL    HW212366   2.430   5.159   1.797
 3823SOL     OW12367   3.298   2.739   5.358
 3823SOL    HW112368   3.240   2.821   5.357
 3823SOL    HW212369   3.241   2.657   5.354
 3824SOL     OW12370   0.058   2.302   6.717
 3824SOL    HW112371   7.000   2.302   6.776
 3824SOL    HW212372   0.140   2.314   6.773
 3825SOL     OW12373   6.448   6.822   6.296
 3825SOL    HW112374   6.516   6.851   6.364
 3825SOL    HW212375   6.365   6.792   6.342
 3826SOL     OW12376   6.713   2.517   1.549
 3826SOL    HW112377   6.634   2.522   1.611
 3826SOL    HW212378   6.740   2.421   1.536
 3827SOL     OW12379   4.438   3.273   0.342
 3827SOL    HW112380   4.433   3.228   0.431
 3827SOL    HW212381   4.346   3.282   0.303
 3828SOL     OW12382   3.753   1.181   2.521
 3828SOL    HW112383   3.681   1.251   2.519
 3828SOL    HW212384   3.816   1.196   2.445
 3829SOL     OW12385   1.881   5.131   3.525
 3829SOL    HW112386   1.805   5.085   3.479
 3829SOL    HW212387   1.913   5.075   3.601
 3830SOL     OW12388   2.887   0.595   4.736
 3830SOL    HW112389   2.927   0.675   4.781
 3830SOL    HW212390   2.852   0.622   4.646
 3831SOL     OW12391   3.749   1.537   1.945
 3831SOL    HW112392   3.774   1.579   1.858
 3831SOL    HW212393   3.832   1.520   1.999
 3832SOL     OW12394   6.252   0.193   2.867
 3832SOL    HW112395   6.237   0.151   2.956
 3832SOL    HW212396   6.343   0.170   2.834
 3833SOL     OW12397   1.084   4.809   6.746
 3833SOL    HW112398   1.105   4.799   6.649
 3833SOL    HW212399   1.154   4.761   6.800
 3834SOL     OW12400   2.494   2.420   0.786
 3834SOL    HW112401   2.493   2.424   0.886
 3834SOL    HW212402   2.419   2.362   0.754
 3835SOL     OW12403   3.576   5.803   4.965
 3835SOL    HW112404   3.499   5.763   5.015
 3835SOL    HW212405   3.569   5.778   4.868
 3836SOL     OW12406   0.883   3.469   5.962
 3836SOL    HW112407   0.914   3.533   5.892
 3836SOL    HW212408   0.953   3.460   6.034
 3837SOL     OW12409   3.644   3.537   0.200
 3837SOL    HW112410   3.742   3.551   0.185
 3837SOL    HW212411   3.616   3.451   0.158
 3838SOL     OW12412   6.215   3.668   5.514
 3838SOL    HW112413   6.163   3.754   5.517
 3838SOL    HW212414   6.201   3.623   5.426
 3839SOL     OW12415   6.167   6.407   6.116
 3839SOL    HW112416   6.200   6.367   6.202
 3839SOL    HW212417   6.236   6.471   6.081
 3840SOL     OW12418   1.725   0.767   3.700
 3840SOL    HW112419   1.788   0.828   3.749
 3840SOL    HW212420   1.650   0.821   3.662
 3841SOL     OW12421   0.371   3.860   4.846
 3841SOL    HW112422   0.449   3.921   4.863
 3841SOL    HW212423   0.304   3.908   4.790
 3842SOL     OW12424   1.104   5.092   6.717
 3842SOL    HW112425   1.125   5.007   6.766
 3842SOL    HW212426   1.100   5.073   6.618
 3843SOL     OW12427   5.858   4.404   0.930
 3843SOL    HW112428   5.956   4.387   0.935
 3843SOL    HW212429   5.814   4.332   0.877
 3844SOL     OW12430   2.236   4.389   6.587
 3844SOL    HW112431   2.233   4.421   6.682
 3844SOL    HW212432   2.291   4.452   6.532
 3845SOL     OW12433   3.560   3.497   3.721
 3845SOL    HW112434   3.537   3.441   3.801
 3845SOL    HW212435   3.477   3.515   3.668
 3846SOL     OW12436   6.963   4.648   3.380
 3846SOL    HW112437   6.974   4.548   3.376
 3846SOL    HW212438   0.027   4.689   3.407
 3847SOL     OW12439   0.868   0.257   0.478
 3847SOL    HW112440   0.841   0.173   0.431
 3847SOL    HW212441   0.922   0.314   0.417
 3848SOL     OW12442   3.055   4.944   0.348
 3848SOL    HW112443   3.002   4.923   0.430
 3848SOL    HW212444   2.994   4.983   0.278
 3849SOL     OW12445   2.053   2.364   5.913
 3849SOL    HW112446   2.104   2.397   5.992
 3849SOL    HW212447   2.113   2.363   5.833
 3850SOL     OW12448   2.290   3.641   1.670
 3850SOL    HW112449   2.350   3.720   1.683
 3850SOL    HW212450   2.303   3.576   1.745
 3851SOL     OW12451   2.530   2.360   1.418
 3851SOL    HW112452   2.616   2.357   1.469
 3851SOL    HW212453   2.545   2.407   1.331
 3852SOL     OW12454   4.548   0.795   5.452
 3852SOL    HW112455   4.456   0.774   5.484
 3852SOL    HW212456   4.553   0.892   5.427
 3853SOL     OW12457   1.487   2.846   2.264
 3853SOL    HW112458   1.518   2.902   2.342
 3853SOL    HW212459   1.514   2.891   2.179
 3854SOL     OW12460   1.382   2.506   4.526
 3854SOL    HW112461   1.408   2.545   4.614
 3854SOL    HW212462   1.293   2.543   4.499
 3855SOL     OW12463   6.887   2.206   5.588
 3855SOL    HW112464   6.940   2.180   5.508
 3855SOL    HW212465   6.948   2.217   5.667
 3856SOL     OW12466   1.093   6.433   5.328
 3856SOL    HW112467   1.014   6.475   5.372
 3856SOL    HW212468   1.113   6.483   5.243
 3857SOL     OW12469   0.866   6.773   5.717
 3857SOL    HW112470   0.883   6.819   5.804
 3857SOL    HW212471   0.926   6.810   5.647
 3858SOL     OW12472   2.049   5.427   0.143
 3858SOL    HW112473   2.113   5.403   0.216
 3858SOL    HW212474   2.020   5.344   0.095
 3859SOL     OW12475   6.915   2.387   1.995
 3859SOL    HW112476   7.007   2.388   2.034
 3859SOL    HW212477   6.888   2.293   1.974
 3860SOL     OW12478   2.424   6.522   4.783
 3860SOL    HW112479   2.327   6.501   4.771
 3860SOL    HW212480   2.435   6.617   4.811
 3861SOL     OW12481   4.360   4.516   0.895
 3861SOL    HW112482   4.450   4.555   0.876
 3861SOL    HW212483   4.367   4.455   0.975
 3862SOL     OW12484   1.167   4.970   6.052
 3862SOL    HW112485   1.115   4.972   5.966
 3862SOL    HW212486   1.136   4.893   6.107
 3863SOL     OW12487   3.396   2.857   0.126
 3863SOL    HW112488   3.372   2.760   0.132
 3863SOL    HW212489   3.313   2.911   0.106
 3864SOL     OW12490   3.511   1.922   6.761
 3864SOL    HW112491   3.429   1.954   6.713
 3864SOL    HW212492   3.502   1.940   6.859
 3865SOL     OW12493   4.262   0.744   2.532
 3865SOL    HW112494   4.274   0.840   2.504
 3865SOL    HW212495   4.259   0.739   2.632
 3866SOL     OW12496   4.000   6.471   6.179
 3866SOL    HW112497   3.945   6.443   6.257
 3866SOL    HW212498   3.992   6.403   6.106
 3867SOL     OW12499   1.625   3.333   4.091
 3867SOL    HW112500   1.666   3.265   4.152
 3867SOL    HW212501   1.538   3.364   4.129
 3868SOL     OW12502   1.635   5.370   3.028
 3868SOL    HW112503   1.579   5.453   3.019
 3868SOL    HW212504   1.674   5.366   3.120
 3869SOL     OW12505   1.327   2.239   3.559
 3869SOL    HW112506   1.227   2.237   3.565
 3869SOL    HW212507   1.355   2.271   3.468
 3870SOL     OW12508   3.603   4.536   0.374
 3870SOL    HW112509   3.690   4.570   0.412
 3870SOL    HW212510   3.551   4.491   0.446
 3871SOL     OW12511   3.083   1.869   4.330
 3871SOL    HW112512   3.039   1.958   4.338
 3871SOL    HW212513   3.052   1.810   4.405
 3872SOL     OW12514   3.912   3.338   0.675
 3872SOL    HW112515   3.870   3.263   0.726
 3872SOL    HW212516   3.845   3.377   0.612
 3873SOL     OW12517   5.215   4.246   1.867
 3873SOL    HW112518   5.208   4.148   1.888
 3873SOL    HW212519   5.218   4.259   1.768
 3874SOL     OW12520   4.810   6.131   6.261
 3874SOL    HW112521   4.826   6.082   6.346
 3874SOL    HW212522   4.789   6.227   6.282
 3875SOL     OW12523   1.974   3.952   0.403
 3875SOL    HW112524   1.894   3.990   0.449
 3875SOL    HW212525   1.961   3.854   0.389
 3876SOL     OW12526   5.004   4.390   2.459
 3876SOL    HW112527   4.979   4.337   2.378
 3876SOL    HW212528   5.041   4.479   2.430
 3877SOL     OW12529   5.397   1.067   2.680
 3877SOL    HW112530   5.477   1.106   2.725
 3877SOL    HW212531   5.390   1.103   2.586
 3878SOL     OW12532   4.165   5.999   4.819
 3878SOL    HW112533   4.169   5.899   4.827
 3878SOL    HW212534   4.090   6.024   4.759
 3879SOL     OW12535   3.278   5.474   1.052
 3879SOL    HW112536   3.196   5.532   1.049
 3879SOL    HW212537   3.259   5.391   1.105
 3880SOL     OW12538   5.510   2.797   4.083
 3880SOL    HW112539   5.593   2.842   4.050
 3880SOL    HW212540   5.447   2.865   4.120
 3881SOL     OW12541   1.393   4.956   1.516
 3881SOL    HW112542   1.459   5.031   1.507
 3881SOL    HW212543   1.341   4.947   1.431
 3882SOL     OW12544   0.912   6.274   6.425
 3882SOL    HW112545   0.984   6.204   6.424
 3882SOL    HW212546   0.840   6.248   6.490
 3883SOL     OW12547   3.358   1.481   6.351
 3883SOL    HW112548   3.316   1.510   6.264
 3883SOL    HW212549   3.444   1.530   6.365
 3884SOL     OW12550   1.557   4.856   5.725
 3884SOL    HW112551   1.494   4.799   5.673
 3884SOL    HW212552   1.504   4.913   5.789
 3885SOL     OW12553   7.007   1.781   5.482
 3885SOL    HW112554   0.000   1.817   5.574
 3885SOL    HW212555   6.984   1.684   5.488
 3886SOL     OW12556   0.329   5.964   5.445
 3886SOL    HW112557   0.360   5.874   5.476
 3886SOL    HW212558   0.357   5.978   5.350
 3887SOL     OW12559   5.027   3.148   5.417
 3887SOL    HW112560   4.969   3.071   5.390
 3887SOL    HW212561   4.988   3.233   5.383
 3888SOL     OW12562   5.337   2.258   1.950
 3888SOL    HW112563   5.317   2.324   2.022
 3888SOL    HW212564   5.363   2.306   1.867
 3889SOL     OW12565   0.033   5.617   0.134
 3889SOL    HW112566   7.012   5.599   0.222
 3889SOL    HW212567   6.986   5.633   0.064
 3890SOL     OW12568   6.438   3.731   2.669
 3890SOL    HW112569   6.448   3.820   2.713
 3890SOL    HW212570   6.468   3.737   2.573
 3891SOL     OW12571   5.850   5.192   6.443
 3891SOL    HW112572   5.752   5.188   6.424
 3891SOL    HW212573   5.864   5.232   6.534
 3892SOL     OW12574   5.767   5.833   3.727
 3892SOL    HW112575   5.737   5.739   3.743
 3892SOL    HW212576   5.691   5.896   3.745
 3893SOL     OW12577   3.291   6.279   4.245
 3893SOL    HW112578   3.247   6.254   4.331
 3893SOL    HW212579   3.345   6.202   4.211
 3894SOL     OW12580   4.851   5.202   6.908
 3894SOL    HW112581   4.887   5.176   6.818
 3894SOL    HW212582   4.762   5.245   6.896
 3895SOL     OW12583   1.809   2.236   5.916
 3895SOL    HW112584   1.742   2.310   5.915
 3895SOL    HW212585   1.899   2.272   5.891
 3896SOL     OW12586   6.689   2.194   6.504
 3896SOL    HW112587   6.740   2.108   6.496
 3896SOL    HW212588   6.726   2.261   6.440
 3897SOL     OW12589   3.519   6.344   2.863
 3897SOL    HW112590   3.515   6.261   2.807
 3897SOL    HW212591   3.426   6.379   2.878
 3898SOL     OW12592   3.400   3.498   4.678
 3898SOL    HW112593   3.427   3.458   4.591
 3898SOL    HW212594   3.312   3.544   4.668
 3899SOL     OW12595   4.877   1.843   4.825
 3899SOL    HW112596   4.857   1.889   4.911
 3899SOL    HW212597   4.899   1.747   4.842
 3900SOL     OW12598   6.702   2.554   4.569
 3900SOL    HW112599   6.613   2.594   4.548
 3900SOL    HW212600   6.706   2.532   4.667
 3901SOL     OW12601   2.536   5.567   5.209
 3901SOL    HW112602   2.584   5.612   5.134
 3901SOL    HW212603   2.507   5.635   5.276
 3902SOL     OW12604   4.186   4.661   2.401
 3902SOL    HW112605   4.093   4.692   2.381
 3902SOL    HW212606   4.234   4.644   2.316
 3903SOL     OW12607   4.966   2.593   5.752
 3903SOL    HW112608   5.037   2.525   5.769
 3903SOL    HW212609   4.877   2.553   5.769
 3904SOL     OW12610   2.500   5.934   0.896
 3904SOL    HW112611   2.506   5.893   0.987
 3904SOL    HW212612   2.425   5.891   0.845
 3905SOL     OW12613   6.513   0.337   6.195
 3905SOL    HW112614   6.536   0.280   6.116
 3905SOL    HW212615   6.598   0.370   6.237
 3906SOL     OW12616   0.508   5.745   4.655
 3906SOL    HW112617   0.576   5.763   4.585
 3906SOL    HW212618   0.471   5.832   4.688
 3907SOL     OW12619   0.583   1.319   5.210
 3907SOL    HW112620   0.552   1.337   5.303
 3907SOL    HW212621   0.552   1.228   5.182
 3908SOL     OW12622   2.323   0.825   4.311
 3908SOL    HW112623   2.268   0.745   4.291
 3908SOL    HW212624   2.399   0.830   4.246
 3909SOL     OW12625   5.173   2.653   0.994
 3909SOL    HW112626   5.267   2.649   1.027
 3909SOL    HW212627   5.155   2.743   0.954
 3910SOL     OW12628   3.402   1.877   1.089
 3910SOL    HW112629   3.384   1.972   1.117
 3910SOL    HW212630   3.451   1.876   1.002
 3911SOL     OW12631   0.071   0.313   1.435
 3911SOL    HW112632   0.005   0.247   1.472
 3911SOL    HW212633   0.057   0.402   1.478
 3912SOL     OW12634   4.038   3.484   6.938
 3912SOL    HW112635   3.988   3.415   6.886
 3912SOL    HW212636   3.995   3.495   0.005
 3913SOL     OW12637   4.198   5.501   1.405
 3913SOL    HW112638   4.186   5.412   1.449
 3913SOL    HW212639   4.118   5.558   1.424
 3914SOL     OW12640   6.794   1.869   0.410
 3914SOL    HW112641   6.730   1.872   0.487
 3914SOL    HW212642   6.818   1.962   0.383
 3915SOL     OW12643   5.823   0.370   5.564
 3915SOL    HW112644   5.734   0.327   5.581
 3915SOL    HW212645   5.811   0.449   5.503
 3916SOL     OW12646   1.895   2.261   2.882
 3916SOL    HW112647   1.852   2.239   2.794
 3916SOL    HW212648   1.907   2.360   2.889
 3917SOL     OW12649   3.700   4.793   1.638
 3917SOL    HW112650   3.640   4.845   1.577
 3917SOL    HW212651   3.645   4.748   1.709
 3918SOL     OW12652   5.042   0.679   0.111
 3918SOL    HW112653   4.976   0.624   0.060
 3918SOL    HW212654   4.997   0.721   0.190
 3919SOL     OW12655   4.708   6.193   3.517
 3919SOL    HW112656   4.781   6.229   3.575
 3919SOL    HW212657   4.731   6.210   3.421
 3920SOL     OW12658   3.201   1.264   5.404
 3920SOL    HW112659   3.268   1.226   5.468
 3920SOL    HW212660   3.113   1.275   5.451
 3921SOL     OW12661   1.377   3.027   6.359
 3921SOL    HW112662   1.391   3.083   6.440
 3921SOL    HW212663   1.359   3.087   6.280
 3922SOL     OW12664   4.925   3.553   3.470
 3922SOL    HW112665   4.892   3.580   3.379
 3922SOL    HW212666   4.907   3.627   3.535
 3923SOL     OW12667   5.323   1.542   1.579
 3923SOL    HW112668   5.362   1.522   1.669
 3923SOL    HW212669   5.287   1.458   1.539
 3924SOL     OW12670   5.251   5.050   4.260
 3924SOL    HW112671   5.170   5.040   4.317
 3924SOL    HW212672   5.226   5.038   4.164
 3925SOL     OW12673   5.090   5.423   1.248
 3925SOL    HW112674   5.140   5.510   1.255
 3925SOL    HW212675   5.116   5.377   1.162
 3926SOL     OW12676   0.859   5.569   5.265
 3926SOL    HW112677   0.850   5.482   5.313
 3926SOL    HW212678   0.788   5.575   5.194
 3927SOL     OW12679   5.358   1.384   6.009
 3927SOL    HW112680   5.396   1.423   5.925
 3927SOL    HW212681   5.378   1.287   6.013
 3928SOL     OW12682   3.780   5.703   2.664
 3928SOL    HW112683   3.780   5.686   2.566
 3928SOL    HW212684   3.803   5.618   2.713
 3929SOL     OW12685   1.045   1.627   6.031
 3929SOL    HW112686   1.067   1.529   6.025
 3929SOL    HW212687   1.108   1.679   5.974
 3930SOL     OW12688   1.480   4.705   3.809
 3930SOL    HW112689   1.445   4.662   3.892
 3930SOL    HW212690   1.553   4.769   3.833
 3931SOL     OW12691   1.064   1.871   0.188
 3931SOL    HW112692   0.991   1.894   0.252
 3931SOL    HW212693   1.135   1.819   0.236
 3932SOL     OW12694   2.485   4.610   2.983
 3932SOL    HW112695   2.490   4.601   2.883
 3932SOL    HW212696   2.437   4.531   3.021
 3933SOL     OW12697   1.906   6.020   1.668
 3933SOL    HW112698   1.958   5.980   1.743
 3933SOL    HW212699   1.887   5.950   1.599
 3934SOL     OW12700   2.378   6.954   1.115
 3934SOL    HW112701   2.356   6.998   1.202
 3934SOL    HW212702   2.293   6.936   1.065
 3935SOL     OW12703   0.455   3.486   5.209
 3935SOL    HW112704   0.399   3.569   5.207
 3935SOL    HW212705   0.533   3.497   5.147
 3936SOL     OW12706   0.261   4.142   5.062
 3936SOL    HW112707   0.348   4.129   5.015
 3936SOL    HW212708   0.272   4.209   5.135
 3937SOL     OW12709   0.797   6.065   0.516
 3937SOL    HW112710   0.702   6.041   0.538
 3937SOL    HW212711   0.811   6.163   0.530
 3938SOL     OW12712   0.562   3.390   0.802
 3938SOL    HW112713   0.479   3.370   0.751
 3938SOL    HW212714   0.572   3.489   0.811
 3939SOL     OW12715   1.646   6.625   3.598
 3939SOL    HW112716   1.724   6.585   3.550
 3939SOL    HW212717   1.562   6.609   3.545
 3940SOL     OW12718   3.203   5.475   6.573
 3940SOL    HW112719   3.177   5.520   6.487
 3940SOL    HW212720   3.302   5.467   6.578
 3941SOL     OW12721   5.082   5.916   2.598
 3941SOL    HW112722   5.145   5.897   2.674
 3941SOL    HW212723   5.103   5.856   2.521
 3942SOL     OW12724   7.008   6.280   6.228
 3942SOL    HW112725   0.067   6.329   6.257
 3942SOL    HW212726   6.936   6.292   6.296
 3943SOL     OW12727   2.300   3.277   0.265
 3943SOL    HW112728   2.202   3.295   0.272
 3943SOL    HW212729   2.326   3.205   0.329
 3944SOL     OW12730   3.958   3.040   6.492
 3944SOL    HW112731   3.982   3.123   6.442
 3944SOL    HW212732   4.039   3.002   6.536
 3945SOL     OW12733   5.521   0.529   3.491
 3945SOL    HW112734   5.527   0.532   3.392
 3945SOL    HW212735   5.463   0.452   3.519
 3946SOL     OW12736   0.502   3.610   0.303
 3946SOL    HW112737   0.476   3.637   0.210
 3946SOL    HW212738   0.557   3.527   0.299
 3947SOL     OW12739   5.501   6.017   2.018
 3947SOL    HW112740   5.419   6.063   2.053
 3947SOL    HW212741   5.529   5.945   2.082
 3948SOL     OW12742   1.640   2.367   4.969
 3948SOL    HW112743   1.707   2.439   4.988
 3948SOL    HW212744   1.671   2.281   5.010
 3949SOL     OW12745   6.263   0.449   2.545
 3949SOL    HW112746   6.304   0.473   2.633
 3949SOL    HW212747   6.284   0.354   2.523
 3950SOL     OW12748   2.944   4.352   1.630
 3950SOL    HW112749   2.924   4.395   1.542
 3950SOL    HW212750   2.899   4.404   1.703
 3951SOL     OW12751   0.356   2.733   4.705
 3951SOL    HW112752   0.354   2.733   4.605
 3951SOL    HW212753   0.449   2.711   4.737
 3952SOL     OW12754   5.444   3.905   6.884
 3952SOL    HW112755   5.539   3.911   6.913
 3952SOL    HW212756   5.385   3.898   6.964
 3953SOL     OW12757   2.895   3.810   6.123
 3953SOL    HW112758   2.917   3.880   6.191
 3953SOL    HW212759   2.799   3.817   6.098
 3954SOL     OW12760   0.649   3.122   5.063
 3954SOL    HW112761   0.606   3.092   4.978
 3954SOL    HW212762   0.585   3.108   5.139
 3955SOL     OW12763   6.070   3.606   0.320
 3955SOL    HW112764   6.049   3.702   0.339
 3955SOL    HW212765   6.132   3.601   0.241
 3956SOL     OW12766   6.402   3.380   5.275
 3956SOL    HW112767   6.381   3.339   5.364
 3956SOL    HW212768   6.359   3.470   5.269
 3957SOL     OW12769   0.793   2.148   1.936
 3957SOL    HW112770   0.877   2.200   1.948
 3957SOL    HW212771   0.767   2.105   2.022
 3958SOL     OW12772   5.313   6.977   0.678
 3958SOL    HW112773   5.317   0.053   0.667
 3958SOL    HW212774   5.390   6.946   0.734
 3959SOL     OW12775   2.435   5.348   1.493
 3959SOL    HW112776   2.508   5.410   1.463
 3959SOL    HW212777   2.346   5.386   1.466
 3960SOL     OW12778   5.108   3.488   0.972
 3960SOL    HW112779   5.032   3.446   1.022
 3960SOL    HW212780   5.096   3.473   0.874
 3961SOL     OW12781   6.487   0.323   1.779
 3961SOL    HW112782   6.482   0.255   1.852
 3961SOL    HW212783   6.397   0.336   1.738
 3962SOL     OW12784   0.677   6.504   5.932
 3962SOL    HW112785   0.648   6.568   6.004
 3962SOL    HW212786   0.770   6.525   5.904
 3963SOL     OW12787   4.952   4.408   3.537
 3963SOL    HW112788   4.864   4.364   3.516
 3963SOL    HW212789   4.995   4.360   3.614
 3964SOL     OW12790   5.640   6.140   0.155
 3964SOL    HW112791   5.571   6.081   0.196
 3964SOL    HW212792   5.622   6.235   0.180
 3965SOL     OW12793   3.352   3.689   0.975
 3965SOL    HW112794   3.362   3.590   0.990
 3965SOL    HW212795   3.346   3.707   0.877
 3966SOL     OW12796   6.270   4.281   5.353
 3966SOL    HW112797   6.264   4.379   5.374
 3966SOL    HW212798   6.181   4.239   5.366
 3967SOL     OW12799   1.785   6.570   0.042
 3967SOL    HW112800   1.729   6.575   6.982
 3967SOL    HW212801   1.848   6.493   0.036
 3968SOL     OW12802   5.193   2.166   1.134
 3968SOL    HW112803   5.281   2.161   1.181
 3968SOL    HW212804   5.166   2.262   1.124
 3969SOL     OW12805   0.410   5.575   1.052
 3969SOL    HW112806   0.475   5.597   1.126
 3969SOL    HW212807   0.448   5.502   0.996
 3970SOL     OW12808   5.083   4.428   4.075
 3970SOL    HW112809   5.060   4.517   4.035
 3970SOL    HW212810   5.164   4.438   4.133
 3971SOL     OW12811   0.057   6.042   3.914
 3971SOL    HW112812   0.027   6.022   4.008
 3971SOL    HW212813   7.015   6.004   3.849
 3972SOL     OW12814   0.679   0.303   6.837
 3972SOL    HW112815   0.749   0.301   6.766
 3972SOL    HW212816   0.657   0.210   6.865
 3973SOL     OW12817   3.413   2.987   3.496
 3973SOL    HW112818   3.485   2.967   3.563
 3973SOL    HW212819   3.355   3.060   3.531
 3974SOL     OW12820   5.556   1.312   6.629
 3974SOL    HW112821   5.630   1.314   6.697
 3974SOL    HW212822   5.576   1.377   6.556
 3975SOL     OW12823   0.080   6.228   5.346
 3975SOL    HW112824   0.142   6.247   5.422
 3975SOL    HW212825   0.133   6.204   5.265
 3976SOL     OW12826   0.601   2.747   6.792
 3976SOL    HW112827   0.609   2.758   6.891
 3976SOL    HW212828   0.682   2.700   6.757
 3977SOL     OW12829   3.088   5.955   4.842
 3977SOL    HW112830   3.156   5.898   4.798
 3977SOL    HW212831   3.003   5.954   4.789
 3978SOL     OW12832   6.669   3.945   6.744
 3978SOL    HW112833   6.667   3.979   6.838
 3978SOL    HW212834   6.628   3.854   6.741
 3979SOL     OW12835   1.409   6.896   3.226
 3979SOL    HW112836   1.392   6.933   3.317
 3979SOL    HW212837   1.326   6.852   3.191
 3980SOL     OW12838   4.925   4.002   4.021
 3980SOL    HW112839   4.990   3.928   4.004
 3980SOL    HW212840   4.852   3.999   3.952
 3981SOL     OW12841   6.995   1.724   6.112
 3981SOL    HW112842   0.003   1.768   6.196
 3981SOL    HW212843   0.034   1.650   6.089
 3982SOL     OW12844   2.136   3.242   4.043
 3982SOL    HW112845   2.229   3.241   4.008
 3982SOL    HW212846   2.075   3.286   3.977
 3983SOL     OW12847   2.955   6.816   4.219
 3983SOL    HW112848   2.908   6.741   4.171
 3983SOL    HW212849   2.887   6.870   4.268
 3984SOL     OW12850   1.880   6.458   1.771
 3984SOL    HW112851   1.891   6.437   1.868
 3984SOL    HW212852   1.840   6.549   1.761
 3985SOL     OW12853   2.236   3.116   1.671
 3985SOL    HW112854   2.329   3.140   1.642
 3985SOL    HW212855   2.183   3.199   1.687
 3986SOL     OW12856   1.290   2.150   2.210
 3986SOL    HW112857   1.364   2.206   2.173
 3986SOL    HW212858   1.320   2.055   2.218
 3987SOL     OW12859   1.501   4.011   5.540
 3987SOL    HW112860   1.516   4.002   5.639
 3987SOL    HW212861   1.528   4.103   5.510
 3988SOL     OW12862   5.033   0.673   0.491
 3988SOL    HW112863   4.978   0.626   0.560
 3988SOL    HW212864   5.129   0.650   0.504
 3989SOL     OW12865   4.117   1.058   5.672
 3989SOL    HW112866   4.066   1.053   5.758
 3989SOL    HW212867   4.159   1.148   5.663
 3990SOL     OW12868   0.808   1.967   3.292
 3990SOL    HW112869   0.804   1.962   3.392
 3990SOL    HW212870   0.903   1.956   3.261
 3991SOL     OW12871   0.922   1.561   3.889
 3991SOL    HW112872   0.909   1.597   3.796
 3991SOL    HW212873   0.843   1.504   3.913
 3992SOL     OW12874   6.071   3.857   6.910
 3992SOL    HW112875   6.133   3.929   6.878
 3992SOL    HW212876   6.066   3.859   7.010
 3993SOL     OW12877   1.719   0.664   4.001
 3993SOL    HW112878   1.690   0.732   3.934
 3993SOL    HW212879   1.818   0.669   4.014
 3994SOL     OW12880   2.561   2.136   3.043
 3994SOL    HW112881   2.601   2.070   2.979
 3994SOL    HW212882   2.629   2.206   3.064
 3995SOL     OW12883   1.498   3.422   1.968
 3995SOL    HW112884   1.531   3.486   2.037
 3995SOL    HW212885   1.544   3.334   1.980
 3996SOL     OW12886   5.763   6.006   4.661
 3996SOL    HW112887   5.674   6.049   4.646
 3996SOL    HW212888   5.807   6.047   4.741
 3997SOL     OW12889   4.904   3.688   2.738
 3997SOL    HW112890   4.867   3.770   2.695
 3997SOL    HW212891   4.887   3.609   2.678
 3998SOL     OW12892   4.850   2.047   2.944
 3998SOL    HW112893   4.872   2.144   2.950
 3998SOL    HW212894   4.935   1.993   2.944
 3999SOL     OW12895   4.159   3.347   1.153
 3999SOL    HW112896   4.144   3.425   1.214
 3999SOL    HW212897   4.091   3.276   1.173
 4000SOL     OW12898   2.992   5.059   2.469
 4000SOL    HW112899   3.043   5.144   2.459
 4000SOL    HW212900   2.900   5.071   2.433
 4001SOL     OW12901   6.964   5.450   4.318
 4001SOL    HW112902   7.022   5.522   4.280
 4001SOL    HW212903   6.869   5.481   4.320
 4002SOL     OW12904   3.962   3.908   3.936
 4002SOL    HW112905   4.004   3.908   4.027
 4002SOL    HW212906   3.876   3.958   3.939
 4003SOL     OW12907   1.678   0.762   4.973
 4003SOL    HW112908   1.601   0.741   5.033
 4003SOL    HW212909   1.651   0.834   4.909
 4004SOL     OW12910   1.362   3.375   4.197
 4004SOL    HW112911   1.331   3.284   4.226
 4004SOL    HW212912   1.314   3.445   4.248
 4005SOL     OW12913   4.860   3.580   6.991
 4005SOL    HW112914   4.867   3.676   7.018
 4005SOL    HW212915   4.879   3.521   0.046
 4006SOL     OW12916   6.766   5.526   2.216
 4006SOL    HW112917   6.773   5.571   2.127
 4006SOL    HW212918   6.803   5.586   2.287
 4007SOL     OW12919   0.189   0.485   2.008
 4007SOL    HW112920   0.289   0.488   1.996
 4007SOL    HW212921   0.158   0.571   2.047
 4008SOL     OW12922   2.861   0.985   1.019
 4008SOL    HW112923   2.806   0.947   1.093
 4008SOL    HW212924   2.956   0.994   1.048
 4009SOL     OW12925   4.840   2.299   0.749
 4009SOL    HW112926   4.749   2.258   0.755
 4009SOL    HW212927   4.909   2.227   0.757
 4010SOL     OW12928   1.976   5.248   1.285
 4010SOL    HW112929   2.008   5.341   1.265
 4010SOL    HW212930   2.027   5.183   1.227
 4011SOL     OW12931   5.662   6.135   5.742
 4011SOL    HW112932   5.691   6.212   5.799
 4011SOL    HW212933   5.633   6.168   5.652
 4012SOL     OW12934   4.917   6.513   2.801
 4012SOL    HW112935   4.904   6.612   2.789
 4012SOL    HW212936   4.876   6.464   2.725
 4013SOL     OW12937   0.149   1.145   5.919
 4013SOL    HW112938   0.090   1.224   5.903
 4013SOL    HW212939   0.105   1.084   5.986
 4014SOL     OW12940   2.982   5.222   2.148
 4014SOL    HW112941   2.892   5.202   2.185
 4014SOL    HW212942   3.026   5.137   2.117
 4015SOL     OW12943   4.506   5.248   6.371
 4015SOL    HW112944   4.426   5.273   6.317
 4015SOL    HW212945   4.564   5.186   6.318
 4016SOL     OW12946   5.276   5.070   4.845
 4016SOL    HW112947   5.211   5.125   4.793
 4016SOL    HW212948   5.357   5.053   4.790
 4017SOL     OW12949   1.135   4.518   5.974
 4017SOL    HW112950   1.094   4.576   5.903
 4017SOL    HW212951   1.234   4.517   5.963
 4018SOL     OW12952   4.127   5.923   1.220
 4018SOL    HW112953   4.054   5.871   1.176
 4018SOL    HW212954   4.207   5.926   1.161
 4019SOL     OW12955   5.736   3.964   2.232
 4019SOL    HW112956   5.786   3.890   2.276
 4019SOL    HW212957   5.756   4.050   2.279
 4020SOL     OW12958   6.734   5.237   4.534
 4020SOL    HW112959   6.698   5.234   4.441
 4020SOL    HW212960   6.763   5.330   4.556
 4021SOL     OW12961   4.850   4.182   6.021
 4021SOL    HW112962   4.856   4.266   5.966
 4021SOL    HW212963   4.772   4.128   5.990
 4022SOL     OW12964   3.190   6.944   1.448
 4022SOL    HW112965   3.099   6.971   1.477
 4022SOL    HW212966   3.189   6.848   1.419
 4023SOL     OW12967   0.421   1.395   4.130
 4023SOL    HW112968   0.339   1.452   4.138
 4023SOL    HW212969   0.415   1.318   4.193
 4024SOL     OW12970   0.720   6.948   4.578
 4024SOL    HW112971   0.634   6.940   4.527
 4024SOL    HW212972   0.781   7.010   4.529
 4025SOL     OW12973   0.000   5.601   3.328
 4025SOL    HW112974   6.932   5.639   3.316
 4025SOL    HW212975   0.031   5.559   3.242
 4026SOL     OW12976   0.561   0.168   3.796
 4026SOL    HW112977   0.588   0.087   3.847
 4026SOL    HW212978   0.505   0.141   3.718
 4027SOL     OW12979   3.180   4.705   5.615
 4027SOL    HW112980   3.086   4.670   5.610
 4027SOL    HW212981   3.208   4.739   5.525
 4028SOL     OW12982   4.669   0.872   3.539
 4028SOL    HW112983   4.600   0.890   3.468
 4028SOL    HW212984   4.757   0.910   3.511
 4029SOL     OW12985   1.945   6.345   0.041
 4029SOL    HW112986   1.876   6.273   0.037
 4029SOL    HW212987   1.987   6.346   0.132
 4030SOL     OW12988   0.587   1.572   2.687
 4030SOL    HW112989   0.555   1.635   2.758
 4030SOL    HW212990   0.533   1.488   2.691
 4031SOL     OW12991   6.051   6.245   0.266
 4031SOL    HW112992   6.018   6.180   0.197
 4031SOL    HW212993   6.083   6.328   0.221
 4032SOL     OW12994   4.656   0.544   2.511
 4032SOL    HW112995   4.687   0.466   2.457
 4032SOL    HW212996   4.648   0.516   2.607
 4033SOL     OW12997   1.762   2.406   2.486
 4033SOL    HW112998   1.796   2.495   2.516
 4033SOL    HW212999   1.665   2.414   2.460
 4034SOL     OW13000   0.482   3.079   5.279
 4034SOL    HW113001   0.523   3.137   5.349
 4034SOL    HW213002   0.413   3.020   5.320
 4035SOL     OW13003   4.492   2.074   1.838
 4035SOL    HW113004   4.488   2.122   1.750
 4035SOL    HW213005   4.586   2.073   1.872
 4036SOL     OW13006   3.183   5.726   3.408
 4036SOL    HW113007   3.206   5.724   3.311
 4036SOL    HW213008   3.262   5.693   3.461
 4037SOL     OW13009   2.756   1.871   5.884
 4037SOL    HW113010   2.716   1.938   5.821
 4037SOL    HW213011   2.853   1.859   5.863
 4038SOL     OW13012   3.347   4.812   5.910
 4038SOL    HW113013   3.409   4.807   5.989
 4038SOL    HW213014   3.400   4.808   5.826
 4039SOL     OW13015   5.597   5.099   1.194
 4039SOL    HW113016   5.617   5.164   1.121
 4039SOL    HW213017   5.655   5.018   1.185
 4040SOL     OW13018   2.908   6.714   4.902
 4040SOL    HW113019   2.983   6.720   4.969
 4040SOL    HW213020   2.862   6.626   4.911
 4041SOL     OW13021   2.230   6.599   1.241
 4041SOL    HW113022   2.228   6.656   1.323
 4041SOL    HW213023   2.178   6.643   1.168
 4042SOL     OW13024   6.622   1.312   2.867
 4042SOL    HW113025   6.720   1.327   2.863
 4042SOL    HW213026   6.590   1.325   2.961
 4043SOL     OW13027   5.544   3.501   6.101
 4043SOL    HW113028   5.535   3.444   6.019
 4043SOL    HW213029   5.477   3.575   6.098
 4044SOL     OW13030   5.108   4.554   3.148
 4044SOL    HW113031   5.203   4.551   3.116
 4044SOL    HW213032   5.049   4.581   3.072
 4045SOL     OW13033   5.192   1.156   5.264
 4045SOL    HW113034   5.154   1.246   5.241
 4045SOL    HW213035   5.181   1.094   5.186
 4046SOL     OW13036   5.857   1.640   3.207
 4046SOL    HW113037   5.877   1.715   3.271
 4046SOL    HW213038   5.935   1.626   3.147
 4047SOL     OW13039   2.605   3.074   6.687
 4047SOL    HW113040   2.597   3.099   6.590
 4047SOL    HW213041   2.575   2.980   6.700
 4048SOL     OW13042   4.427   2.134   2.274
 4048SOL    HW113043   4.421   2.086   2.361
 4048SOL    HW213044   4.443   2.231   2.290
 4049SOL     OW13045   4.023   4.315   0.480
 4049SOL    HW113046   3.923   4.311   0.482
 4049SOL    HW213047   4.059   4.295   0.572
 4050SOL     OW13048   1.252   5.423   2.440
 4050SOL    HW113049   1.313   5.347   2.418
 4050SOL    HW213050   1.300   5.509   2.424
 4051SOL     OW13051   5.686   1.165   4.644
 4051SOL    HW113052   5.695   1.188   4.741
 4051SOL    HW213053   5.699   1.066   4.632
 4052SOL     OW13054   6.155   1.894   3.229
 4052SOL    HW113055   6.213   1.814   3.218
 4052SOL    HW213056   6.107   1.912   3.143
 4053SOL     OW13057   1.264   5.328   4.398
 4053SOL    HW113058   1.276   5.229   4.408
 4053SOL    HW213059   1.224   5.347   4.308
 4054SOL     OW13060   3.948   3.984   1.406
 4054SOL    HW113061   3.881   3.912   1.385
 4054SOL    HW213062   3.924   4.067   1.356
 4055SOL     OW13063   1.149   4.445   0.338
 4055SOL    HW113064   1.128   4.475   0.245
 4055SOL    HW213065   1.248   4.441   0.351
 4056SOL     OW13066   5.147   3.402   0.669
 4056SOL    HW113067   5.218   3.472   0.677
 4056SOL    HW213068   5.190   3.313   0.653
 4057SOL     OW13069   0.555   4.034   0.057
 4057SOL    HW113070   0.546   3.935   0.045
 4057SOL    HW213071   0.562   4.077   6.990
 4058SOL     OW13072   2.363   0.581   5.411
 4058SOL    HW113073   2.426   0.589   5.334
 4058SOL    HW213074   2.329   0.671   5.435
 4059SOL     OW13075   0.317   1.589   3.514
 4059SOL    HW113076   0.275   1.614   3.427
 4059SOL    HW213077   0.263   1.627   3.589
 4060SOL     OW13078   6.632   6.304   4.820
 4060SOL    HW113079   6.618   6.220   4.871
 4060SOL    HW213080   6.630   6.382   4.883
 4061SOL     OW13081   1.340   5.391   0.568
 4061SOL    HW113082   1.314   5.453   0.641
 4061SOL    HW213083   1.435   5.362   0.581
 4062SOL     OW13084   1.546   2.585   1.172
 4062SOL    HW113085   1.543   2.649   1.095
 4062SOL    HW213086   1.631   2.597   1.223
 4063SOL     OW13087   4.167   0.487   0.207
 4063SOL    HW113088   4.093   0.465   0.144
 4063SOL    HW213089   4.216   0.568   0.175
 4064SOL     OW13090   2.038   1.556   5.806
 4064SOL    HW113091   2.017   1.612   5.886
 4064SOL    HW213092   2.016   1.607   5.723
 4065SOL     OW13093   2.824   6.404   1.005
 4065SOL    HW113094   2.878   6.486   0.991
 4065SOL    HW213095   2.726   6.427   1.002
 4066SOL     OW13096   0.627   3.875   3.537
 4066SOL    HW113097   0.639   3.973   3.517
 4066SOL    HW213098   0.714   3.837   3.569
 4067SOL     OW13099   5.183   4.981   0.412
 4067SOL    HW113100   5.103   5.039   0.427
 4067SOL    HW213101   5.177   4.901   0.471
 4068SOL     OW13102   2.322   2.734   4.881
 4068SOL    HW113103   2.313   2.649   4.933
 4068SOL    HW213104   2.347   2.809   4.943
 4069SOL     OW13105   4.561   6.921   6.496
 4069SOL    HW113106   4.577   6.996   6.431
 4069SOL    HW213107   4.464   6.917   6.519
 4070SOL     OW13108   1.241   3.098   3.533
 4070SOL    HW113109   1.340   3.097   3.517
 4070SOL    HW213110   1.222   3.150   3.617
 4071SOL     OW13111   1.313   0.487   3.504
 4071SOL    HW113112   1.403   0.447   3.521
 4071SOL    HW213113   1.314   0.536   3.417
 4072SOL     OW13114   2.569   5.498   3.136
 4072SOL    HW113115   2.500   5.449   3.189
 4072SOL    HW213116   2.566   5.467   3.040
 4073SOL     OW13117   3.366   4.649   0.232
 4073SOL    HW113118   3.446   4.594   0.256
 4073SOL    HW213119   3.341   4.707   0.309
 4074SOL     OW13120   1.908   5.248   3.049
 4074SOL    HW113121   1.957   5.248   2.961
 4074SOL    HW213122   1.810   5.248   3.032
 4075SOL     OW13123   6.824   1.142   1.039
 4075SOL    HW113124   6.800   1.083   1.116
 4075SOL    HW213125   6.913   1.114   1.002
 4076SOL     OW13126   2.314   4.156   5.405
 4076SOL    HW113127   2.331   4.139   5.308
 4076SOL    HW213128   2.402   4.156   5.454
 4077SOL     OW13129   2.723   0.528   1.810
 4077SOL    HW113130   2.673   0.463   1.867
 4077SOL    HW213131   2.784   0.583   1.868
 4078SOL     OW13132   3.325   4.966   2.594
 4078SOL    HW113133   3.305   4.941   2.499
 4078SOL    HW213134   3.241   4.959   2.648
 4079SOL     OW13135   1.017   2.324   4.011
 4079SOL    HW113136   1.092   2.278   4.058
 4079SOL    HW213137   0.940   2.261   4.001
 4080SOL     OW13138   6.245   1.829   5.144
 4080SOL    HW113139   6.165   1.880   5.110
 4080SOL    HW213140   6.307   1.810   5.067
 4081SOL     OW13141   1.526   3.352   3.824
 4081SOL    HW113142   1.442   3.321   3.867
 4081SOL    HW213143   1.591   3.382   3.894
 4082SOL     OW13144   1.023   3.182   1.130
 4082SOL    HW113145   0.975   3.147   1.049
 4082SOL    HW213146   0.957   3.197   1.204
 4083SOL     OW13147   5.537   2.671   4.609
 4083SOL    HW113148   5.483   2.611   4.668
 4083SOL    HW213149   5.516   2.766   4.632
 4084SOL     OW13150   0.523   1.649   4.156
 4084SOL    HW113151   0.475   1.562   4.154
 4084SOL    HW213152   0.586   1.651   4.234
 4085SOL     OW13153   3.121   6.010   0.751
 4085SOL    HW113154   3.175   5.999   0.835
 4085SOL    HW213155   3.042   6.068   0.769
 4086SOL     OW13156   1.158   5.222   0.466
 4086SOL    HW113157   1.121   5.205   0.557
 4086SOL    HW213158   1.230   5.291   0.472
 4087SOL     OW13159   1.560   1.642   2.618
 4087SOL    HW113160   1.619   1.647   2.698
 4087SOL    HW213161   1.537   1.735   2.588
 4088SOL     OW13162   6.884   1.854   1.116
 4088SOL    HW113163   6.864   1.820   1.208
 4088SOL    HW213164   6.880   1.777   1.051
 4089SOL     OW13165   1.116   1.070   4.804
 4089SOL    HW113166   1.137   1.073   4.902
 4089SOL    HW213167   1.129   0.977   4.770
 4090SOL     OW13168   1.993   4.374   5.734
 4090SOL    HW113169   2.017   4.415   5.821
 4090SOL    HW213170   1.936   4.293   5.750
 4091SOL     OW13171   4.814   5.924   0.581
 4091SOL    HW113172   4.902   5.877   0.591
 4091SOL    HW213173   4.745   5.858   0.551
 4092SOL     OW13174   0.060   2.689   4.633
 4092SOL    HW113175   0.155   2.719   4.626
 4092SOL    HW213176   0.034   2.641   4.549
 4093SOL     OW13177   6.032   0.815   4.019
 4093SOL    HW113178   5.960   0.881   4.041
 4093SOL    HW213179   6.006   0.725   4.052
 4094SOL     OW13180   2.380   4.330   5.134
 4094SOL    HW113181   2.462   4.368   5.178
 4094SOL    HW213182   2.386   4.230   5.134
 4095SOL     OW13183   1.343   3.583   6.655
 4095SOL    HW113184   1.268   3.630   6.701
 4095SOL    HW213185   1.430   3.615   6.693
 4096SOL     OW13186   4.218   4.704   1.606
 4096SOL    HW113187   4.198   4.802   1.604
 4096SOL    HW213188   4.317   4.690   1.605
 4097SOL     OW13189   3.258   3.692   5.078
 4097SOL    HW113190   3.267   3.678   5.177
 4097SOL    HW213191   3.168   3.663   5.048
 4098SOL     OW13192   0.251   2.067   3.067
 4098SOL    HW113193   0.247   2.065   3.167
 4098SOL    HW213194   0.158   2.075   3.030
 4099SOL     OW13195   4.213   6.217   1.895
 4099SOL    HW113196   4.248   6.205   1.988
 4099SOL    HW213197   4.218   6.130   1.846
 4100SOL     OW13198   3.960   5.518   3.426
 4100SOL    HW113199   3.887   5.559   3.480
 4100SOL    HW213200   4.018   5.461   3.485
 4101SOL     OW13201   5.306   1.084   6.123
 4101SOL    HW113202   5.373   1.112   6.192
 4101SOL    HW213203   5.326   0.991   6.093
 4102SOL     OW13204   5.918   1.210   0.540
 4102SOL    HW113205   5.859   1.212   0.459
 4102SOL    HW213206   6.005   1.167   0.516
 4103SOL     OW13207   0.689   0.386   2.343
 4103SOL    HW113208   0.661   0.482   2.347
 4103SOL    HW213209   0.721   0.357   2.433
 4104SOL     OW13210   1.759   4.794   3.226
 4104SOL    HW113211   1.742   4.887   3.260
 4104SOL    HW213212   1.833   4.752   3.278
 4105SOL     OW13213   4.823   4.582   0.127
 4105SOL    HW113214   4.819   4.562   0.029
 4105SOL    HW213215   4.741   4.547   0.172
 4106SOL     OW13216   6.839   3.847   5.163
 4106SOL    HW113217   6.785   3.916   5.114
 4106SOL    HW213218   6.929   3.839   5.120
 4107SOL     OW13219   0.268   0.495   0.994
 4107SOL    HW113220   0.200   0.512   0.923
 4107SOL    HW213221   0.227   0.507   1.084
 4108SOL     OW13222   6.467   3.780   5.628
 4108SOL    HW113223   6.439   3.869   5.592
 4108SOL    HW213224   6.392   3.715   5.618
 4109SOL     OW13225   3.447   5.921   3.860
 4109SOL    HW113226   3.421   5.828   3.884
 4109SOL    HW213227   3.381   5.958   3.794
 4110SOL     OW13228   5.132   3.423   6.108
 4110SOL    HW113229   5.049   3.478   6.118
 4110SOL    HW213230   5.182   3.454   6.027
 4111SOL     OW13231   4.462   3.364   6.573
 4111SOL    HW113232   4.541   3.412   6.611
 4111SOL    HW213233   4.484   3.268   6.559
 4112SOL     OW13234   3.659   1.442   4.243
 4112SOL    HW113235   3.600   1.504   4.295
 4112SOL    HW213236   3.646   1.457   4.145
 4113SOL     OW13237   3.240   5.095   4.521
 4113SOL    HW113238   3.155   5.131   4.558
 4113SOL    HW213239   3.302   5.170   4.498
 4114SOL     OW13240   2.984   1.945   2.278
 4114SOL    HW113241   2.987   2.039   2.312
 4114SOL    HW213242   2.909   1.896   2.323
 4115SOL     OW13243   5.046   4.604   1.839
 4115SOL    HW113244   4.994   4.644   1.914
 4115SOL    HW213245   5.143   4.628   1.849
 4116SOL     OW13246   3.241   1.234   2.071
 4116SOL    HW113247   3.174   1.182   2.019
 4116SOL    HW213248   3.333   1.202   2.048
 4117SOL     OW13249   1.319   5.910   1.023
 4117SOL    HW113250   1.232   5.934   0.982
 4117SOL    HW213251   1.360   5.833   0.973
 4118SOL     OW13252   2.080   6.446   0.649
 4118SOL    HW113253   2.078   6.368   0.711
 4118SOL    HW213254   2.076   6.415   0.555
 4119SOL     OW13255   3.940   0.604   3.724
 4119SOL    HW113256   3.932   0.685   3.782
 4119SOL    HW213257   4.033   0.599   3.685
 4120SOL     OW13258   3.757   0.638   1.711
 4120SOL    HW113259   3.776   0.641   1.613
 4120SOL    HW213260   3.725   0.546   1.736
 4121SOL     OW13261   6.611   2.969   5.110
 4121SOL    HW113262   6.572   3.059   5.090
 4121SOL    HW213263   6.605   2.912   5.028
 4122SOL     OW13264   1.579   5.930   6.127
 4122SOL    HW113265   1.548   5.897   6.216
 4122SOL    HW213266   1.517   6.001   6.094
 4123SOL     OW13267   5.188   3.917   6.284
 4123SOL    HW113268   5.110   3.954   6.233
 4123SOL    HW213269   5.236   3.992   6.330
 4124SOL     OW13270   5.441   0.050   3.797
 4124SOL    HW113271   5.466   0.014   3.887
 4124SOL    HW213272   5.512   0.113   3.765
 4125SOL     OW13273   4.495   1.128   1.049
 4125SOL    HW113274   4.532   1.205   0.996
 4125SOL    HW213275   4.409   1.155   1.092
 4126SOL     OW13276   2.106   4.332   4.408
 4126SOL    HW113277   2.145   4.286   4.488
 4126SOL    HW213278   2.158   4.305   4.326
 4127SOL     OW13279   6.264   3.615   5.971
 4127SOL    HW113280   6.221   3.699   5.937
 4127SOL    HW213281   6.210   3.577   6.046
 4128SOL     OW13282   0.838   2.351   2.730
 4128SOL    HW113283   0.876   2.337   2.821
 4128SOL    HW213284   0.804   2.445   2.723
 4129SOL     OW13285   5.695   2.385   5.869
 4129SOL    HW113286   5.637   2.320   5.818
 4129SOL    HW213287   5.779   2.402   5.817
 4130SOL     OW13288   5.884   4.084   0.807
 4130SOL    HW113289   5.906   3.990   0.833
 4130SOL    HW213290   5.963   4.126   0.763
 4131SOL     OW13291   6.353   4.734   3.720
 4131SOL    HW113292   6.285   4.663   3.736
 4131SOL    HW213293   6.400   4.716   3.634
 4132SOL     OW13294   5.092   2.393   3.724
 4132SOL    HW113295   5.098   2.370   3.627
 4132SOL    HW213296   5.000   2.428   3.744
 4133SOL     OW13297   3.448   1.248   1.101
 4133SOL    HW113298   3.504   1.165   1.096
 4133SOL    HW213299   3.477   1.312   1.030
 4134SOL     OW13300   1.170   1.416   6.889
 4134SOL    HW113301   1.234   1.474   6.839
 4134SOL    HW213302   1.167   1.326   6.847
 4135SOL     OW13303   1.334   0.755   1.579
 4135SOL    HW113304   1.341   0.724   1.674
 4135SOL    HW213305   1.238   0.751   1.550
 4136SOL     OW13306   0.868   2.377   3.253
 4136SOL    HW113307   0.785   2.376   3.198
 4136SOL    HW213308   0.854   2.431   3.336
 4137SOL     OW13309   3.142   4.660   6.157
 4137SOL    HW113310   3.220   4.601   6.136
 4137SOL    HW213311   3.096   4.686   6.072
 4138SOL     OW13312   4.409   4.808   3.254
 4138SOL    HW113313   4.486   4.852   3.300
 4138SOL    HW213314   4.378   4.865   3.178
 4139SOL     OW13315   2.107   1.633   0.061
 4139SOL    HW113316   2.034   1.565   0.062
 4139SOL    HW213317   2.172   1.612   7.011
 4140SOL     OW13318   5.019   1.342   5.187
 4140SOL    HW113319   5.002   1.436   5.218
 4140SOL    HW213320   4.935   1.304   5.148
 4141SOL     OW13321   5.369   5.833   0.564
 4141SOL    HW113322   5.443   5.893   0.535
 4141SOL    HW213323   5.371   5.750   0.508
 4142SOL     OW13324   6.281   3.856   1.494
 4142SOL    HW113325   6.289   3.896   1.585
 4142SOL    HW213326   6.262   3.758   1.501
 4143SOL     OW13327   0.132   2.758   0.907
 4143SOL    HW113328   0.118   2.830   0.975
 4143SOL    HW213329   0.073   2.775   0.828
 4144SOL     OW13330   4.808   0.813   2.766
 4144SOL    HW113331   4.837   0.850   2.854
 4144SOL    HW213332   4.709   0.800   2.767
 4145SOL     OW13333   1.767   6.574   2.405
 4145SOL    HW113334   1.682   6.523   2.416
 4145SOL    HW213335   1.757   6.664   2.449
 4146SOL     OW13336   5.355   6.777   0.152
 4146SOL    HW113337   5.433   6.798   0.211
 4146SOL    HW213338   5.332   6.858   0.098
 4147SOL     OW13339   3.428   1.991   5.362
 4147SOL    HW113340   3.435   1.918   5.294
 4147SOL    HW213341   3.485   1.969   5.441
 4148SOL     OW13342   6.733   0.405   3.392
 4148SOL    HW113343   6.745   0.493   3.437
 4148SOL    HW213344   6.710   0.335   3.460
 4149SOL     OW13345   5.615   3.911   1.980
 4149SOL    HW113346   5.580   3.995   1.937
 4149SOL    HW213347   5.647   3.932   2.072
 4150SOL     OW13348   5.317   0.486   6.433
 4150SOL    HW113349   5.388   0.456   6.497
 4150SOL    HW213350   5.227   0.469   6.472
 4151SOL     OW13351   0.888   4.823   0.555
 4151SOL    HW113352   0.891   4.892   0.628
 4151SOL    HW213353   0.834   4.744   0.587
 4152SOL     OW13354   3.807   4.218   1.527
 4152SOL    HW113355   3.789   4.295   1.588
 4152SOL    HW213356   3.759   4.137   1.561
 4153SOL     OW13357   6.405   4.756   5.900
 4153SOL    HW113358   6.458   4.839   5.882
 4153SOL    HW213359   6.307   4.777   5.897
 4154SOL     OW13360   5.508   2.841   6.083
 4154SOL    HW113361   5.411   2.820   6.095
 4154SOL    HW213362   5.540   2.802   5.997
 4155SOL     OW13363   1.019   3.435   1.446
 4155SOL    HW113364   1.108   3.434   1.492
 4155SOL    HW213365   0.977   3.525   1.457
 4156SOL     OW13366   6.011   6.734   5.407
 4156SOL    HW113367   6.091   6.729   5.467
 4156SOL    HW213368   5.955   6.813   5.432
 4157SOL     OW13369   3.623   0.915   4.859
 4157SOL    HW113370   3.560   0.907   4.936
 4157SOL    HW213371   3.717   0.913   4.893
 4158SOL     OW13372   0.947   6.558   3.628
 4158SOL    HW113373   1.030   6.504   3.646
 4158SOL    HW213374   0.957   6.604   3.541
 4159SOL     OW13375   1.102   2.790   4.995
 4159SOL    HW113376   1.183   2.733   5.009
 4159SOL    HW213377   1.112   2.875   5.046
 4160SOL     OW13378   1.231   1.043   1.056
 4160SOL    HW113379   1.194   1.068   1.145
 4160SOL    HW213380   1.248   0.945   1.053
 4161SOL     OW13381   6.260   1.532   0.386
 4161SOL    HW113382   6.216   1.447   0.414
 4161SOL    HW213383   6.229   1.607   0.444
 4162SOL     OW13384   6.241   7.001   5.324
 4162SOL    HW113385   6.173   0.006   5.257
 4162SOL    HW213386   6.292   6.922   5.290
 4163SOL     OW13387   5.500   1.557   4.083
 4163SOL    HW113388   5.449   1.622   4.139
 4163SOL    HW213389   5.507   1.592   3.990
 4164SOL     OW13390   2.099   0.683   6.178
 4164SOL    HW113391   2.125   0.615   6.109
 4164SOL    HW213392   1.999   0.695   6.176
 4165SOL     OW13393   4.143   6.743   2.651
 4165SOL    HW113394   4.182   6.709   2.566
 4165SOL    HW213395   4.216   6.764   2.716
 4166SOL     OW13396   5.971   2.687   0.846
 4166SOL    HW113397   5.872   2.692   0.834
 4166SOL    HW213398   5.996   2.723   0.936
 4167SOL     OW13399   2.291   2.720   1.658
 4167SOL    HW113400   2.271   2.651   1.588
 4167SOL    HW213401   2.263   2.810   1.625
 4168SOL     OW13402   1.457   5.323   1.124
 4168SOL    HW113403   1.480   5.264   1.202
 4168SOL    HW213404   1.532   5.318   1.057
 4169SOL     OW13405   5.897   3.444   4.515
 4169SOL    HW113406   5.886   3.501   4.597
 4169SOL    HW213407   5.885   3.501   4.434
 4170SOL     OW13408   4.548   2.648   5.324
 4170SOL    HW113409   4.458   2.689   5.337
 4170SOL    HW213410   4.538   2.559   5.279
 4171SOL     OW13411   5.683   3.651   1.689
 4171SOL    HW113412   5.600   3.626   1.738
 4171SOL    HW213413   5.664   3.725   1.625
 4172SOL     OW13414   1.613   1.994   0.180
 4172SOL    HW113415   1.568   1.956   0.099
 4172SOL    HW213416   1.686   2.056   0.151
 4173SOL     OW13417   5.459   3.690   4.930
 4173SOL    HW113418   5.361   3.706   4.927
 4173SOL    HW213419   5.484   3.644   5.015
 4174SOL     OW13420   4.640   1.286   4.371
 4174SOL    HW113421   4.613   1.240   4.286
 4174SOL    HW213422   4.589   1.371   4.380
 4175SOL     OW13423   2.739   0.757   2.735
 4175SOL    HW113424   2.705   0.803   2.818
 4175SOL    HW213425   2.827   0.714   2.755
 4176SOL     OW13426   5.836   6.462   2.829
 4176SOL    HW113427   5.821   6.429   2.923
 4176SOL    HW213428   5.934   6.461   2.809
 4177SOL     OW13429   7.018   6.160   2.797
 4177SOL    HW113430   0.089   6.142   2.828
 4177SOL    HW213431   6.985   6.082   2.744
 4178SOL     OW13432   3.846   2.281   5.639
 4178SOL    HW113433   3.922   2.346   5.635
 4178SOL    HW213434   3.792   2.298   5.721
 4179SOL     OW13435   5.410   3.166   5.929
 4179SOL    HW113436   5.439   3.085   5.878
 4179SOL    HW213437   5.471   3.243   5.906
 4180SOL     OW13438   4.263   3.783   1.699
 4180SOL    HW113439   4.274   3.881   1.712
 4180SOL    HW213440   4.353   3.740   1.692
 4181SOL     OW13441   0.540   0.897   6.852
 4181SOL    HW113442   0.499   0.816   6.892
 4181SOL    HW213443   0.613   0.930   6.912
 4182SOL     OW13444   5.263   0.958   3.075
 4182SOL    HW113445   5.261   1.049   3.114
 4182SOL    HW213446   5.355   0.920   3.081
 4183SOL     OW13447   1.313   1.809   1.530
 4183SOL    HW113448   1.381   1.801   1.457
 4183SOL    HW213449   1.264   1.896   1.521
 4184SOL     OW13450   4.171   5.550   0.319
 4184SOL    HW113451   4.270   5.566   0.325
 4184SOL    HW213452   4.128   5.577   0.406
 4185SOL     OW13453   0.143   0.400   4.005
 4185SOL    HW113454   0.240   0.389   3.983
 4185SOL    HW213455   0.091   0.322   3.969
 4186SOL     OW13456   2.896   3.990   0.757
 4186SOL    HW113457   2.884   3.899   0.796
 4186SOL    HW213458   2.856   4.058   0.819
 4187SOL     OW13459   4.121   3.786   6.867
 4187SOL    HW113460   4.059   3.805   6.944
 4187SOL    HW213461   4.198   3.850   6.869
 4188SOL     OW13462   4.921   6.592   4.525
 4188SOL    HW113463   5.015   6.574   4.554
 4188SOL    HW213464   4.917   6.681   4.480
 4189SOL     OW13465   2.274   2.494   3.837
 4189SOL    HW113466   2.371   2.517   3.823
 4189SOL    HW213467   2.267   2.432   3.915
 4190SOL     OW13468   3.209   0.170   1.140
 4190SOL    HW113469   3.303   0.182   1.173
 4190SOL    HW213470   3.155   0.251   1.164
 4191SOL     OW13471   6.380   1.626   2.342
 4191SOL    HW113472   6.381   1.696   2.413
 4191SOL    HW213473   6.374   1.536   2.385
 4192SOL     OW13474   6.318   1.701   3.160
 4192SOL    HW113475   6.342   1.765   3.087
 4192SOL    HW213476   6.397   1.689   3.220
 4193SOL     OW13477   1.550   6.890   2.117
 4193SOL    HW113478   1.643   6.909   2.150
 4193SOL    HW213479   1.522   6.799   2.148
 4194SOL     OW13480   0.310   0.840   4.407
 4194SOL    HW113481   0.238   0.864   4.472
 4194SOL    HW213482   0.379   0.784   4.454
 4195SOL     OW13483   4.632   0.855   1.812
 4195SOL    HW113484   4.630   0.828   1.908
 4195SOL    HW213485   4.625   0.955   1.806
 4196SOL     OW13486   4.598   2.624   3.610
 4196SOL    HW113487   4.531   2.587   3.674
 4196SOL    HW213488   4.584   2.583   3.520
 4197SOL     OW13489   4.457   4.548   3.774
 4197SOL    HW113490   4.468   4.498   3.860
 4197SOL    HW213491   4.414   4.637   3.792
 4198SOL     OW13492   5.730   3.708   5.612
 4198SOL    HW113493   5.695   3.630   5.562
 4198SOL    HW213494   5.735   3.686   5.710
 4199SOL     OW13495   2.894   4.204   5.339
 4199SOL    HW113496   2.898   4.145   5.258
 4199SOL    HW213497   2.950   4.163   5.412
 4200SOL     OW13498   2.263   0.242   6.482
 4200SOL    HW113499   2.236   0.149   6.506
 4200SOL    HW213500   2.358   0.257   6.512
 4201SOL     OW13501   5.716   6.112   4.222
 4201SOL    HW113502   5.688   6.205   4.201
 4201SOL    HW213503   5.801   6.091   4.175
 4202SOL     OW13504   5.297   4.409   4.245
 4202SOL    HW113505   5.374   4.450   4.197
 4202SOL    HW213506   5.328   4.366   4.330
 4203SOL     OW13507   5.635   5.927   3.413
 4203SOL    HW113508   5.733   5.921   3.430
 4203SOL    HW213509   5.591   5.843   3.445
 4204SOL     OW13510   3.113   3.448   0.920
 4204SOL    HW113511   3.133   3.458   1.017
 4204SOL    HW213512   3.147   3.359   0.888
 4205SOL     OW13513   2.989   5.241   2.880
 4205SOL    HW113514   2.898   5.281   2.871
 4205SOL    HW213515   2.998   5.199   2.970
 4206SOL     OW13516   5.762   6.748   4.267
 4206SOL    HW113517   5.807   6.683   4.206
 4206SOL    HW213518   5.770   6.840   4.230
 4207SOL     OW13519   1.134   0.931   1.309
 4207SOL    HW113520   1.125   1.015   1.362
 4207SOL    HW213521   1.130   0.852   1.370
 4208SOL     OW13522   0.651   3.604   1.103
 4208SOL    HW113523   0.578   3.536   1.091
 4208SOL    HW213524   0.722   3.588   1.035
 4209SOL     OW13525   3.098   0.409   4.982
 4209SOL    HW113526   3.070   0.339   4.916
 4209SOL    HW213527   3.036   0.407   5.060
 4210SOL     OW13528   5.001   2.528   0.602
 4210SOL    HW113529   5.044   2.560   0.687
 4210SOL    HW213530   4.913   2.485   0.623
 4211SOL     OW13531   4.781   4.081   3.531
 4211SOL    HW113532   4.862   4.082   3.590
 4211SOL    HW213533   4.806   4.047   3.440
 4212SOL     OW13534   6.248   6.944   2.416
 4212SOL    HW113535   6.150   6.961   2.407
 4212SOL    HW213536   6.276   6.873   2.352
 4213SOL     OW13537   1.246   0.580   2.483
 4213SOL    HW113538   1.329   0.613   2.439
 4213SOL    HW213539   1.175   0.650   2.476
 4214SOL     OW13540   1.470   3.412   4.518
 4214SOL    HW113541   1.523   3.419   4.602
 4214SOL    HW213542   1.377   3.447   4.534
 4215SOL     OW13543   0.780   5.420   4.851
 4215SOL    HW113544   0.831   5.504   4.871
 4215SOL    HW213545   0.819   5.344   4.903
 4216SOL     OW13546   1.647   3.417   5.560
 4216SOL    HW113547   1.727   3.476   5.568
 4216SOL    HW213548   1.673   3.332   5.514
 4217SOL     OW13549   0.011   0.316   3.449
 4217SOL    HW113550   0.076   0.389   3.426
 4217SOL    HW213551   6.941   0.349   3.432
 4218SOL     OW13552   3.781   6.681   2.590
 4218SOL    HW113553   3.842   6.732   2.650
 4218SOL    HW213554   3.706   6.643   2.644
 4219SOL     OW13555   4.520   6.341   3.704
 4219SOL    HW113556   4.533   6.408   3.778
 4219SOL    HW213557   4.597   6.278   3.702
 4220SOL     OW13558   0.257   3.640   3.008
 4220SOL    HW113559   0.321   3.611   3.078
 4220SOL    HW213560   0.163   3.629   3.041
 4221SOL     OW13561   5.316   5.797   6.000
 4221SOL    HW113562   5.222   5.767   5.982
 4221SOL    HW213563   5.380   5.738   5.951
 4222SOL     OW13564   4.234   2.702   0.225
 4222SOL    HW113565   4.231   2.776   0.157
 4222SOL    HW213566   4.280   2.735   0.308
 4223SOL     OW13567   3.805   4.064   2.738
 4223SOL    HW113568   3.820   4.159   2.712
 4223SOL    HW213569   3.711   4.037   2.717
 4224SOL     OW13570   4.173   2.263   4.802
 4224SOL    HW113571   4.164   2.184   4.862
 4224SOL    HW213572   4.224   2.335   4.848
 4225SOL     OW13573   5.514   0.449   4.685
 4225SOL    HW113574   5.602   0.425   4.644
 4225SOL    HW213575   5.460   0.502   4.620
 4226SOL     OW13576   1.425   1.302   3.467
 4226SOL    HW113577   1.391   1.385   3.423
 4226SOL    HW213578   1.371   1.282   3.548
 4227SOL     OW13579   6.132   4.228   0.330
 4227SOL    HW113580   6.204   4.177   0.375
 4227SOL    HW213581   6.131   4.322   0.364
 4228SOL     OW13582   6.228   5.327   2.181
 4228SOL    HW113583   6.154   5.390   2.201
 4228SOL    HW213584   6.307   5.377   2.145
 4229SOL     OW13585   4.612   4.881   5.638
 4229SOL    HW113586   4.542   4.923   5.695
 4229SOL    HW213587   4.621   4.784   5.661
 4230SOL     OW13588   3.340   0.014   4.481
 4230SOL    HW113589   3.277   0.033   4.406
 4230SOL    HW213590   3.422   0.069   4.471
 4231SOL     OW13591   4.125   6.599   5.604
 4231SOL    HW113592   4.147   6.504   5.581
 4231SOL    HW213593   4.075   6.641   5.529
 4232SOL     OW13594   2.190   3.847   2.066
 4232SOL    HW113595   2.116   3.780   2.055
 4232SOL    HW213596   2.276   3.806   2.036
 4233SOL     OW13597   5.980   6.797   1.028
 4233SOL    HW113598   5.924   6.775   0.948
 4233SOL    HW213599   5.968   6.727   1.098
 4234SOL     OW13600   3.003   4.005   5.578
 4234SOL    HW113601   3.031   3.934   5.512
 4234SOL    HW213602   3.071   4.011   5.651
 4235SOL     OW13603   6.721   3.713   5.568
 4235SOL    HW113604   6.626   3.738   5.586
 4235SOL    HW213605   6.744   3.631   5.621
 4236SOL     OW13606   1.398   3.972   5.078
 4236SOL    HW113607   1.402   3.971   4.978
 4236SOL    HW213608   1.466   4.035   5.114
 4237SOL     OW13609   5.739   4.352   4.515
 4237SOL    HW113610   5.655   4.352   4.570
 4237SOL    HW213611   5.736   4.276   4.450
 4238SOL     OW13612   4.189   5.151   3.920
 4238SOL    HW113613   4.097   5.188   3.931
 4238SOL    HW213614   4.196   5.103   3.833
 4239SOL     OW13615   5.059   5.761   5.724
 4239SOL    HW113616   5.056   5.735   5.820
 4239SOL    HW213617   4.969   5.792   5.694
 4240SOL     OW13618   2.758   4.461   6.246
 4240SOL    HW113619   2.720   4.402   6.318
 4240SOL    HW213620   2.692   4.532   6.222
 4241SOL     OW13621   3.593   0.761   6.934
 4241SOL    HW113622   3.621   0.707   7.014
 4241SOL    HW213623   3.519   0.712   6.886
 4242SOL     OW13624   1.521   0.117   2.462
 4242SOL    HW113625   1.442   0.175   2.443
 4242SOL    HW213626   1.593   0.136   2.394
 4243SOL     OW13627   1.609   2.967   3.346
 4243SOL    HW113628   1.593   3.038   3.415
 4243SOL    HW213629   1.536   2.899   3.351
 4244SOL     OW13630   3.745   5.952   1.617
 4244SOL    HW113631   3.757   5.908   1.528
 4244SOL    HW213632   3.648   5.966   1.634
 4245SOL     OW13633   6.587   3.391   1.896
 4245SOL    HW113634   6.666   3.330   1.895
 4245SOL    HW213635   6.542   3.389   1.807
 4246SOL     OW13636   4.439   2.455   3.756
 4246SOL    HW113637   4.372   2.442   3.828
 4246SOL    HW213638   4.472   2.366   3.723
 4247SOL     OW13639   1.855   4.597   6.581
 4247SOL    HW113640   1.885   4.503   6.565
 4247SOL    HW213641   1.879   4.653   6.501
 4248SOL     OW13642   1.770   0.570   3.187
 4248SOL    HW113643   1.782   0.598   3.092
 4248SOL    HW213644   1.768   0.652   3.246
 4249SOL     OW13645   6.402   6.808   5.225
 4249SOL    HW113646   6.493   6.845   5.241
 4249SOL    HW213647   6.408   6.730   5.161
 4250SOL     OW13648   6.483   5.589   4.101
 4250SOL    HW113649   6.559   5.602   4.165
 4250SOL    HW213650   6.512   5.528   4.027
 4251SOL     OW13651   6.133   2.493   5.499
 4251SOL    HW113652   6.216   2.548   5.498
 4251SOL    HW213653   6.157   2.396   5.488
 4252SOL     OW13654   0.152   6.405   6.936
 4252SOL    HW113655   0.185   6.317   6.971
 4252SOL    HW213656   0.089   6.446   7.002
 4253SOL     OW13657   4.753   5.659   2.825
 4253SOL    HW113658   4.725   5.588   2.890
 4253SOL    HW213659   4.715   5.747   2.853
 4254SOL     OW13660   2.148   3.264   6.443
 4254SOL    HW113661   2.207   3.311   6.508
 4254SOL    HW213662   2.056   3.257   6.481
 4255SOL     OW13663   1.233   3.392   3.471
 4255SOL    HW113664   1.158   3.342   3.427
 4255SOL    HW213665   1.320   3.347   3.451
 4256SOL     OW13666   0.631   6.104   1.619
 4256SOL    HW113667   0.555   6.139   1.564
 4256SOL    HW213668   0.598   6.031   1.680
 4257SOL     OW13669   6.628   6.941   4.152
 4257SOL    HW113670   6.715   6.956   4.104
 4257SOL    HW213671   6.558   7.001   4.113
 4258SOL     OW13672   2.991   5.651   0.727
 4258SOL    HW113673   2.953   5.727   0.674
 4258SOL    HW213674   2.963   5.661   0.823
 4259SOL     OW13675   1.032   0.599   0.568
 4259SOL    HW113676   1.022   0.696   0.589
 4259SOL    HW213677   1.018   0.545   0.652
 4260SOL     OW13678   5.124   1.499   4.663
 4260SOL    HW113679   5.166   1.535   4.580
 4260SOL    HW213680   5.166   1.411   4.685
 4261SOL     OW13681   2.749   6.287   4.315
 4261SOL    HW113682   2.711   6.363   4.262
 4261SOL    HW213683   2.733   6.201   4.266
 4262SOL     OW13684   2.492   4.448   6.434
 4262SOL    HW113685   2.538   4.437   6.521
 4262SOL    HW213686   2.432   4.369   6.418
 4263SOL     OW13687   1.760   1.713   3.620
 4263SOL    HW113688   1.708   1.637   3.660
 4263SOL    HW213689   1.794   1.687   3.530
 4264SOL     OW13690   4.898   1.898   5.218
 4264SOL    HW113691   4.847   1.925   5.136
 4264SOL    HW213692   4.983   1.853   5.191
 4265SOL     OW13693   2.495   0.095   6.198
 4265SOL    HW113694   2.436   0.151   6.256
 4265SOL    HW213695   2.447   0.075   6.112
 4266SOL     OW13696   1.583   5.260   1.817
 4266SOL    HW113697   1.661   5.201   1.796
 4266SOL    HW213698   1.615   5.351   1.842
 4267SOL     OW13699   1.371   4.326   4.808
 4267SOL    HW113700   1.282   4.285   4.789
 4267SOL    HW213701   1.435   4.304   4.734
 4268SOL     OW13702   1.099   3.931   6.650
 4268SOL    HW113703   1.131   3.874   6.574
 4268SOL    HW213704   1.044   4.006   6.614
 4269SOL     OW13705   2.712   1.003   5.276
 4269SOL    HW113706   2.803   0.989   5.237
 4269SOL    HW213707   2.708   0.962   5.367
 4270SOL     OW13708   3.527   3.238   0.218
 4270SOL    HW113709   3.583   3.222   0.300
 4270SOL    HW213710   3.568   3.190   0.140
 4271SOL     OW13711   6.750   1.115   1.557
 4271SOL    HW113712   6.716   1.203   1.521
 4271SOL    HW213713   6.714   1.101   1.649
 4272SOL     OW13714   0.133   1.083   6.576
 4272SOL    HW113715   0.141   1.147   6.653
 4272SOL    HW213716   0.125   0.990   6.612
 4273SOL     OW13717   3.101   6.261   4.482
 4273SOL    HW113718   3.001   6.252   4.481
 4273SOL    HW213719   3.132   6.280   4.575
 4274SOL     OW13720   6.653   1.774   2.218
 4274SOL    HW113721   6.734   1.721   2.243
 4274SOL    HW213722   6.595   1.784   2.299
 4275SOL     OW13723   0.313   2.244   3.553
 4275SOL    HW113724   0.366   2.303   3.492
 4275SOL    HW213725   0.357   2.155   3.560
 4276SOL     OW13726   2.510   6.090   3.365
 4276SOL    HW113727   2.572   6.157   3.406
 4276SOL    HW213728   2.563   6.020   3.317
 4277SOL     OW13729   6.393   5.529   2.894
 4277SOL    HW113730   6.298   5.549   2.918
 4277SOL    HW213731   6.395   5.472   2.811
 4278SOL     OW13732   1.247   6.747   1.650
 4278SOL    HW113733   1.251   6.839   1.611
 4278SOL    HW213734   1.277   6.749   1.745
 4279SOL     OW13735   1.409   1.746   3.824
 4279SOL    HW113736   1.424   1.667   3.765
 4279SOL    HW213737   1.325   1.733   3.877
 4280SOL     OW13738   2.257   6.627   6.473
 4280SOL    HW113739   2.323   6.669   6.411
 4280SOL    HW213740   2.193   6.570   6.422
 4281SOL     OW13741   5.473   6.075   3.240
 4281SOL    HW113742   5.517   6.027   3.316
 4281SOL    HW213743   5.378   6.045   3.232
 4282SOL     OW13744   4.475   5.207   1.531
 4282SOL    HW113745   4.523   5.172   1.451
 4282SOL    HW213746   4.538   5.260   1.587
 4283SOL     OW13747   4.804   1.625   4.197
 4283SOL    HW113748   4.763   1.551   4.250
 4283SOL    HW213749   4.732   1.682   4.157
 4284SOL     OW13750   4.755   5.347   6.297
 4284SOL    HW113751   4.720   5.348   6.203
 4284SOL    HW213752   4.682   5.321   6.360
 4285SOL     OW13753   3.369   1.366   5.955
 4285SOL    HW113754   3.386   1.398   5.862
 4285SOL    HW213755   3.454   1.373   6.008
 4286SOL     OW13756   6.071   0.358   6.581
 4286SOL    HW113757   6.068   0.368   6.482
 4286SOL    HW213758   6.161   0.386   6.615
 4287SOL     OW13759   3.448   0.684   0.846
 4287SOL    HW113760   3.363   0.636   0.827
 4287SOL    HW213761   3.459   0.695   0.944
 4288SOL     OW13762   0.059   5.899   1.983
 4288SOL    HW113763   0.112   5.892   1.899
 4288SOL    HW213764   0.105   5.962   2.046
 4289SOL     OW13765   0.492   4.738   4.731
 4289SOL    HW113766   0.401   4.719   4.696
 4289SOL    HW213767   0.507   4.687   4.816
 4290SOL     OW13768   0.281   1.079   3.171
 4290SOL    HW113769   0.298   1.166   3.217
 4290SOL    HW213770   0.278   1.094   3.072
 4291SOL     OW13771   4.116   4.247   6.044
 4291SOL    HW113772   4.123   4.153   6.077
 4291SOL    HW213773   4.067   4.248   5.957
 4292SOL     OW13774   6.105   1.261   1.763
 4292SOL    HW113775   6.038   1.197   1.801
 4292SOL    HW213776   6.058   1.333   1.712
 4293SOL     OW13777   3.899   2.935   0.239
 4293SOL    HW113778   3.970   2.868   0.260
 4293SOL    HW213779   3.848   2.904   0.159
 4294SOL     OW13780   2.518   1.871   6.692
 4294SOL    HW113781   2.521   1.963   6.653
 4294SOL    HW213782   2.473   1.875   6.782
 4295SOL     OW13783   4.425   5.952   2.838
 4295SOL    HW113784   4.455   5.898   2.759
 4295SOL    HW213785   4.448   6.048   2.823
 4296SOL     OW13786   2.806   6.563   2.878
 4296SOL    HW113787   2.861   6.518   2.808
 4296SOL    HW213788   2.782   6.496   2.949
 4297SOL     OW13789   5.394   5.595   0.410
 4297SOL    HW113790   5.490   5.614   0.429
 4297SOL    HW213791   5.386   5.549   0.322
 4298SOL     OW13792   2.059   0.253   0.767
 4298SOL    HW113793   2.025   0.330   0.820
 4298SOL    HW213794   1.985   0.217   0.710
 4299SOL     OW13795   0.863   2.466   6.777
 4299SOL    HW113796   0.812   2.465   6.863
 4299SOL    HW213797   0.955   2.503   6.793
 4300SOL     OW13798   3.144   0.366   1.512
 4300SOL    HW113799   3.063   0.415   1.478
 4300SOL    HW213800   3.221   0.381   1.450
 4301SOL     OW13801   2.487   6.150   0.242
 4301SOL    HW113802   2.414   6.145   0.174
 4301SOL    HW213803   2.558   6.213   0.210
 4302SOL     OW13804   2.492   5.151   5.697
 4302SOL    HW113805   2.506   5.125   5.601
 4302SOL    HW213806   2.532   5.081   5.756
 4303SOL     OW13807   5.145   5.614   3.347
 4303SOL    HW113808   5.140   5.568   3.258
 4303SOL    HW213809   5.055   5.610   3.391
 4304SOL     OW13810   3.313   3.862   1.638
 4304SOL    HW113811   3.372   3.790   1.674
 4304SOL    HW213812   3.224   3.823   1.613
 4305SOL     OW13813   0.977   6.202   5.699
 4305SOL    HW113814   0.997   6.140   5.623
 4305SOL    HW213815   0.970   6.295   5.665
 4306SOL     OW13816   5.500   4.264   4.957
 4306SOL    HW113817   5.415   4.310   4.931
 4306SOL    HW213818   5.488   4.165   4.949
 4307SOL     OW13819   0.469   0.831   5.793
 4307SOL    HW113820   0.560   0.863   5.816
 4307SOL    HW213821   0.411   0.909   5.769
 4308SOL     OW13822   4.836   5.971   6.460
 4308SOL    HW113823   4.839   5.999   6.556
 4308SOL    HW213824   4.886   5.885   6.449
 4309SOL     OW13825   1.059   1.173   0.166
 4309SOL    HW113826   1.092   1.199   0.257
 4309SOL    HW213827   1.019   1.253   0.121
 4310SOL     OW13828   6.272   2.470   2.801
 4310SOL    HW113829   6.261   2.394   2.865
 4310SOL    HW213830   6.187   2.484   2.750
 4311SOL     OW13831   0.689   6.844   1.706
 4311SOL    HW113832   0.783   6.879   1.701
 4311SOL    HW213833   0.684   6.756   1.660
 4312SOL     OW13834   6.800   4.810   2.171
 4312SOL    HW113835   6.821   4.732   2.230
 4312SOL    HW213836   6.705   4.803   2.141
 4313SOL     OW13837   0.345   3.065   6.235
 4313SOL    HW113838   0.393   3.148   6.263
 4313SOL    HW213839   0.303   3.079   6.145
 4314SOL     OW13840   0.740   1.155   6.070
 4314SOL    HW113841   0.721   1.247   6.104
 4314SOL    HW213842   0.838   1.136   6.079
 4315SOL     OW13843   2.598   0.831   4.971
 4315SOL    HW113844   2.641   0.783   4.894
 4315SOL    HW213845   2.665   0.893   5.012
 4316SOL     OW13846   4.857   6.044   1.500
 4316SOL    HW113847   4.849   5.991   1.584
 4316SOL    HW213848   4.895   5.986   1.427
 4317SOL     OW13849   4.619   0.715   5.722
 4317SOL    HW113850   4.716   0.694   5.727
 4317SOL    HW213851   4.600   0.767   5.639
 4318SOL     OW13852   0.950   6.700   4.093
 4318SOL    HW113853   0.877   6.675   4.030
 4318SOL    HW213854   0.951   6.636   4.170
 4319SOL     OW13855   1.307   4.365   2.479
 4319SOL    HW113856   1.365   4.363   2.560
 4319SOL    HW213857   1.228   4.306   2.494
 4320SOL     OW13858   3.674   0.052   0.494
 4320SOL    HW113859   3.622   6.996   0.527
 4320SOL    HW213860   3.622   0.136   0.509
 4321SOL     OW13861   6.876   6.991   2.948
 4321SOL    HW113862   6.811   0.044   2.945
 4321SOL    HW213863   6.966   0.002   2.977
 4322SOL     OW13864   1.731   2.684   5.014
 4322SOL    HW113865   1.715   2.757   4.947
 4322SOL    HW213866   1.821   2.643   4.999
 4323SOL     OW13867   4.379   4.681   0.316
 4323SOL    HW113868   4.285   4.650   0.331
 4323SOL    HW213869   4.437   4.602   0.295
 4324SOL     OW13870   1.024   4.691   5.797
 4324SOL    HW113871   0.956   4.724   5.862
 4324SOL    HW213872   0.997   4.716   5.704
 4325SOL     OW13873   2.035   0.145   2.589
 4325SOL    HW113874   2.075   0.115   2.503
 4325SOL    HW213875   2.108   0.178   2.650
 4326SOL     OW13876   5.128   2.049   1.780
 4326SOL    HW113877   5.186   1.968   1.785
 4326SOL    HW213878   5.121   2.091   1.871
 4327SOL     OW13879   2.755   5.966   3.538
 4327SOL    HW113880   2.794   5.895   3.479
 4327SOL    HW213881   2.769   6.056   3.496
 4328SOL     OW13882   6.862   0.031   4.060
 4328SOL    HW113883   6.833   0.056   4.152
 4328SOL    HW213884   6.874   0.113   4.005
 4329SOL     OW13885   6.658   2.100   0.044
 4329SOL    HW113886   6.608   2.088   6.981
 4329SOL    HW213887   6.622   2.180   0.092
 4330SOL     OW13888   3.007   5.427   4.200
 4330SOL    HW113889   3.078   5.371   4.156
 4330SOL    HW213890   2.997   5.513   4.150
 4331SOL     OW13891   5.706   1.769   2.244
 4331SOL    HW113892   5.748   1.854   2.211
 4331SOL    HW213893   5.610   1.767   2.217
 4332SOL     OW13894   1.420   5.326   2.139
 4332SOL    HW113895   1.346   5.367   2.085
 4332SOL    HW213896   1.493   5.392   2.151
 4333SOL     OW13897   4.574   2.507   6.238
 4333SOL    HW113898   4.632   2.436   6.199
 4333SOL    HW213899   4.616   2.596   6.225
 4334SOL     OW13900   0.128   2.786   4.257
 4334SOL    HW113901   0.035   2.772   4.290
 4334SOL    HW213902   0.129   2.860   4.190
 4335SOL     OW13903   2.691   3.826   1.566
 4335SOL    HW113904   2.696   3.765   1.487
 4335SOL    HW213905   2.783   3.856   1.590
 4336SOL     OW13906   2.585   5.950   5.215
 4336SOL    HW113907   2.622   5.964   5.307
 4336SOL    HW213908   2.545   6.035   5.182
 4337SOL     OW13909   1.146   5.333   3.880
 4337SOL    HW113910   1.146   5.238   3.850
 4337SOL    HW213911   1.136   5.336   3.980
 4338SOL     OW13912   3.202   2.025   5.665
 4338SOL    HW113913   3.134   2.098   5.666
 4338SOL    HW213914   3.210   1.988   5.572
 4339SOL     OW13915   3.998   4.792   6.148
 4339SOL    HW113916   4.000   4.702   6.191
 4339SOL    HW213917   3.910   4.805   6.102
 4340SOL     OW13918   6.156   4.182   1.719
 4340SOL    HW113919   6.193   4.257   1.665
 4340SOL    HW213920   6.225   4.151   1.785
 4341SOL     OW13921   6.351   6.278   1.795
 4341SOL    HW113922   6.316   6.187   1.773
 4341SOL    HW213923   6.444   6.270   1.832
 4342SOL     OW13924   4.955   3.937   2.562
 4342SOL    HW113925   4.960   3.978   2.471
 4342SOL    HW213926   4.915   4.003   2.626
 4343SOL     OW13927   4.213   6.628   5.860
 4343SOL    HW113928   4.207   6.536   5.898
 4343SOL    HW213929   4.174   6.628   5.768
 4344SOL     OW13930   0.046   3.924   3.054
 4344SOL    HW113931   0.137   3.955   3.083
 4344SOL    HW213932   0.043   3.824   3.054
 4345SOL     OW13933   3.278   3.255   2.601
 4345SOL    HW113934   3.282   3.209   2.512
 4345SOL    HW213935   3.187   3.241   2.641
 4346SOL     OW13936   1.128   3.082   2.543
 4346SOL    HW113937   1.048   3.115   2.593
 4346SOL    HW213938   1.126   3.118   2.449
 4347SOL     OW13939   6.663   5.513   0.236
 4347SOL    HW113940   6.656   5.413   0.240
 4347SOL    HW213941   6.611   5.546   0.157
 4348SOL     OW13942   5.734   4.920   4.429
 4348SOL    HW113943   5.698   4.829   4.410
 4348SOL    HW213944   5.754   4.929   4.527
 4349SOL     OW13945   0.199   3.330   4.311
 4349SOL    HW113946   0.124   3.293   4.366
 4349SOL    HW213947   0.276   3.266   4.312
 4350SOL     OW13948   3.654   1.165   4.254
 4350SOL    HW113949   3.555   1.157   4.247
 4350SOL    HW213950   3.678   1.253   4.295
 4351SOL     OW13951   0.827   5.627   0.589
 4351SOL    HW113952   0.881   5.644   0.507
 4351SOL    HW213953   0.761   5.553   0.570
 4352SOL     OW13954   3.444   5.048   1.609
 4352SOL    HW113955   3.468   5.041   1.706
 4352SOL    HW213956   3.350   5.082   1.600
 4353SOL     OW13957   2.568   2.665   1.325
 4353SOL    HW113958   2.628   2.605   1.378
 4353SOL    HW213959   2.602   2.759   1.329
 4354SOL     OW13960   5.870   6.776   3.243
 4354SOL    HW113961   5.858   6.803   3.338
 4354SOL    HW213962   5.953   6.818   3.206
 4355SOL     OW13963   2.257   5.453   2.828
 4355SOL    HW113964   2.192   5.514   2.874
 4355SOL    HW213965   2.255   5.363   2.871
 4356SOL     OW13966   6.247   2.751   5.481
 4356SOL    HW113967   6.165   2.806   5.470
 4356SOL    HW213968   6.319   2.786   5.421
 4357SOL     OW13969   5.585   0.464   2.175
 4357SOL    HW113970   5.683   0.460   2.197
 4357SOL    HW213971   5.544   0.544   2.219
 4358SOL     OW13972   3.058   0.167   0.495
 4358SOL    HW113973   3.019   0.145   0.406
 4358SOL    HW213974   3.103   0.086   0.533
 4359SOL     OW13975   3.005   1.650   0.892
 4359SOL    HW113976   2.955   1.579   0.841
 4359SOL    HW213977   2.964   1.662   0.982
 4360SOL     OW13978   1.950   4.473   4.553
 4360SOL    HW113979   1.992   4.432   4.472
 4360SOL    HW213980   2.019   4.528   4.600
 4361SOL     OW13981   6.945   1.753   0.617
 4361SOL    HW113982   6.862   1.700   0.637
 4361SOL    HW213983   6.937   1.793   0.526
 4362SOL     OW13984   1.256   5.367   3.441
 4362SOL    HW113985   1.175   5.358   3.500
 4362SOL    HW213986   1.231   5.416   3.357
 4363SOL     OW13987   4.143   1.003   2.612
 4363SOL    HW113988   4.059   0.955   2.637
 4363SOL    HW213989   4.125   1.102   2.608
 4364SOL     OW13990   3.932   3.002   2.662
 4364SOL    HW113991   3.930   2.998   2.762
 4364SOL    HW213992   3.841   2.979   2.626
 4365SOL     OW13993   1.944   1.403   1.477
 4365SOL    HW113994   2.031   1.388   1.429
 4365SOL    HW213995   1.921   1.323   1.532
 4366SOL     OW13996   4.637   6.977   4.983
 4366SOL    HW113997   4.540   6.977   4.959
 4366SOL    HW213998   4.691   6.950   4.903
 4367SOL     OW13999   3.045   5.922   3.245
 4367SOL    HW114000   3.082   5.951   3.333
 4367SOL    HW214001   3.040   6.001   3.183
 4368SOL     OW14002   4.749   4.049   3.813
 4368SOL    HW114003   4.743   4.148   3.830
 4368SOL    HW214004   4.685   4.024   3.740
 4369SOL     OW14005   5.028   3.848   3.443
 4369SOL    HW114006   5.002   3.806   3.530
 4369SOL    HW214007   5.014   3.947   3.448
 4370SOL     OW14008   3.721   4.405   1.736
 4370SOL    HW114009   3.697   4.324   1.790
 4370SOL    HW214010   3.656   4.479   1.756
 4371SOL     OW14011   2.111   0.934   1.708
 4371SOL    HW114012   2.102   0.989   1.626
 4371SOL    HW214013   2.059   0.849   1.697
 4372SOL     OW14014   1.626   3.358   5.000
 4372SOL    HW114015   1.617   3.377   4.902
 4372SOL    HW214016   1.552   3.403   5.050
 4373SOL     OW14017   3.011   1.040   6.397
 4373SOL    HW114018   3.012   0.980   6.477
 4373SOL    HW214019   3.099   1.085   6.387
 4374SOL     OW14020   2.676   0.018   1.165
 4374SOL    HW114021   2.577   0.016   1.157
 4374SOL    HW214022   2.717   7.003   1.082
 4375SOL     OW14023   4.504   1.744   4.971
 4375SOL    HW114024   4.576   1.681   4.942
 4375SOL    HW214025   4.453   1.775   4.890
 4376SOL     OW14026   2.298   6.135   6.634
 4376SOL    HW114027   2.225   6.068   6.646
 4376SOL    HW214028   2.258   6.226   6.623
 4377SOL     OW14029   5.476   0.184   6.295
 4377SOL    HW114030   5.502   0.101   6.245
 4377SOL    HW214031   5.405   0.161   6.363
 4378SOL     OW14032   2.858   5.668   2.043
 4378SOL    HW114033   2.798   5.732   2.092
 4378SOL    HW214034   2.832   5.667   1.946
 4379SOL     OW14035   1.226   0.450   1.451
 4379SOL    HW114036   1.186   0.504   1.377
 4379SOL    HW214037   1.170   0.460   1.533
 4380SOL     OW14038   1.876   5.099   4.590
 4380SOL    HW114039   1.967   5.129   4.562
 4380SOL    HW214040   1.874   5.085   4.689
 4381SOL     OW14041   4.939   6.237   5.404
 4381SOL    HW114042   4.909   6.213   5.312
 4381SOL    HW214043   5.038   6.228   5.411
 4382SOL     OW14044   4.870   3.484   3.100
 4382SOL    HW114045   4.771   3.499   3.103
 4382SOL    HW214046   4.917   3.572   3.098
 4383SOL     OW14047   1.102   1.918   6.932
 4383SOL    HW114048   1.057   2.004   6.906
 4383SOL    HW214049   1.094   1.904   0.008
 4384SOL     OW14050   3.644   6.651   1.458
 4384SOL    HW114051   3.727   6.613   1.419
 4384SOL    HW214052   3.592   6.698   1.386
 4385SOL     OW14053   6.010   1.350   2.144
 4385SOL    HW114054   5.983   1.306   2.058
 4385SOL    HW214055   5.966   1.440   2.150
 4386SOL     OW14056   1.120   3.675   6.769
 4386SOL    HW114057   1.098   3.768   6.737
 4386SOL    HW214058   1.036   3.620   6.770
 4387SOL     OW14059   6.778   3.166   1.909
 4387SOL    HW114060   6.872   3.179   1.879
 4387SOL    HW214061   6.766   3.073   1.943
 4388SOL     OW14062   2.873   1.315   5.339
 4388SOL    HW114063   2.775   1.298   5.347
 4388SOL    HW214064   2.915   1.315   5.430
 4389SOL     OW14065   5.335   2.059   2.143
 4389SOL    HW114066   5.295   2.078   2.232
 4389SOL    HW214067   5.338   2.143   2.089
 4390SOL     OW14068   4.467   2.580   1.638
 4390SOL    HW114069   4.474   2.672   1.599
 4390SOL    HW214070   4.372   2.562   1.665
 4391SOL     OW14071   0.722   5.773   0.975
 4391SOL    HW114072   0.704   5.699   1.040
 4391SOL    HW214073   0.635   5.813   0.945
 4392SOL     OW14074   5.857   3.620   4.310
 4392SOL    HW114075   5.852   3.586   4.216
 4392SOL    HW214076   5.781   3.683   4.327
 4393SOL     OW14077   4.720   5.646   3.924
 4393SOL    HW114078   4.646   5.641   3.857
 4393SOL    HW214079   4.793   5.582   3.897
 4394SOL     OW14080   4.704   0.991   2.295
 4394SOL    HW114081   4.718   1.016   2.391
 4394SOL    HW214082   4.749   0.904   2.276
 4395SOL     OW14083   4.687   2.024   1.469
 4395SOL    HW114084   4.592   2.055   1.479
 4395SOL    HW214085   4.741   2.057   1.546
 4396SOL     OW14086   1.414   0.917   4.154
 4396SOL    HW114087   1.489   0.978   4.180
 4396SOL    HW214088   1.370   0.881   4.236
 4397SOL     OW14089   6.386   0.262   6.466
 4397SOL    HW114090   6.389   0.281   6.368
 4397SOL    HW214091   6.367   0.346   6.516
 4398SOL     OW14092   6.909   4.652   4.001
 4398SOL    HW114093   6.902   4.723   3.931
 4398SOL    HW214094   6.884   4.564   3.960
 4399SOL     OW14095   2.862   1.212   1.506
 4399SOL    HW114096   2.840   1.233   1.411
 4399SOL    HW214097   2.777   1.203   1.558
 4400SOL     OW14098   3.684   5.550   4.295
 4400SOL    HW114099   3.750   5.622   4.317
 4400SOL    HW214100   3.608   5.552   4.359
 4401SOL     OW14101   5.490   6.978   4.048
 4401SOL    HW114102   5.476   6.970   4.147
 4401SOL    HW214103   5.584   6.952   4.025
 4402SOL     OW14104   6.773   0.937   3.336
 4402SOL    HW114105   6.681   0.914   3.366
 4402SOL    HW214106   6.810   1.009   3.393
 4403SOL     OW14107   0.869   6.751   2.608
 4403SOL    HW114108   0.822   6.681   2.662
 4403SOL    HW214109   0.879   6.834   2.662
 4404SOL     OW14110   1.551   4.258   3.478
 4404SOL    HW114111   1.511   4.230   3.390
 4404SOL    HW214112   1.493   4.328   3.519
 4405SOL     OW14113   3.709   4.576   6.181
 4405SOL    HW114114   3.655   4.493   6.167
 4405SOL    HW214115   3.656   4.656   6.152
 4406SOL     OW14116   5.589   3.570   1.360
 4406SOL    HW114117   5.504   3.522   1.341
 4406SOL    HW214118   5.618   3.552   1.454
 4407SOL     OW14119   6.962   6.491   0.116
 4407SOL    HW114120   6.862   6.480   0.113
 4407SOL    HW214121   6.986   6.586   0.096
 4408SOL     OW14122   4.932   6.440   0.606
 4408SOL    HW114123   4.916   6.342   0.593
 4408SOL    HW214124   4.888   6.470   0.690
 4409SOL     OW14125   2.414   1.051   2.359
 4409SOL    HW114126   2.319   1.025   2.342
 4409SOL    HW214127   2.422   1.151   2.358
 4410SOL     OW14128   2.771   5.591   1.793
 4410SOL    HW114129   2.857   5.550   1.762
 4410SOL    HW214130   2.710   5.520   1.827
 4411SOL     OW14131   3.727   3.161   2.503
 4411SOL    HW114132   3.641   3.124   2.468
 4411SOL    HW214133   3.778   3.201   2.427
 4412SOL     OW14134   3.342   1.970   6.471
 4412SOL    HW114135   3.370   1.984   6.376
 4412SOL    HW214136   3.242   1.968   6.476
 4413SOL     OW14137   4.195   5.370   4.653
 4413SOL    HW114138   4.117   5.332   4.703
 4413SOL    HW214139   4.176   5.370   4.555
 4414SOL     OW14140   3.432   5.593   1.917
 4414SOL    HW114141   3.471   5.512   1.874
 4414SOL    HW214142   3.392   5.569   2.005
 4415SOL     OW14143   4.444   2.271   0.895
 4415SOL    HW114144   4.491   2.296   0.811
 4415SOL    HW214145   4.456   2.344   0.963
 4416SOL     OW14146   3.617   1.227   3.629
 4416SOL    HW114147   3.609   1.155   3.560
 4416SOL    HW214148   3.664   1.192   3.709
 4417SOL     OW14149   0.668   0.459   0.901
 4417SOL    HW114150   0.627   0.418   0.982
 4417SOL    HW214151   0.680   0.389   0.830
 4418SOL     OW14152   3.973   0.346   3.792
 4418SOL    HW114153   4.049   0.355   3.857
 4418SOL    HW214154   3.939   0.437   3.769
 4419SOL     OW14155   0.093   5.129   0.386
 4419SOL    HW114156   0.169   5.084   0.435
 4419SOL    HW214157   0.121   5.220   0.357
 4420SOL     OW14158   4.211   0.796   6.733
 4420SOL    HW114159   4.145   0.799   6.657
 4420SOL    HW214160   4.220   0.886   6.773
 4421SOL     OW14161   1.700   1.823   3.233
 4421SOL    HW114162   1.786   1.819   3.182
 4421SOL    HW214163   1.640   1.893   3.194
 4422SOL     OW14164   1.903   3.858   5.706
 4422SOL    HW114165   1.951   3.921   5.646
 4422SOL    HW214166   1.953   3.772   5.710
 4423SOL     OW14167   6.886   1.156   6.537
 4423SOL    HW114168   6.985   1.148   6.534
 4423SOL    HW214169   6.846   1.068   6.562
 4424SOL     OW14170   0.230   6.254   3.540
 4424SOL    HW114171   0.190   6.211   3.459
 4424SOL    HW214172   0.255   6.184   3.606
 4425SOL     OW14173   4.440   4.196   0.205
 4425SOL    HW114174   4.459   4.235   0.116
 4425SOL    HW214175   4.381   4.116   0.195
 4426SOL     OW14176   1.017   0.268   5.146
 4426SOL    HW114177   1.029   0.325   5.227
 4426SOL    HW214178   0.981   0.323   5.071
 4427SOL     OW14179   1.380   6.495   3.106
 4427SOL    HW114180   1.302   6.432   3.108
 4427SOL    HW214181   1.365   6.569   3.171
 4428SOL     OW14182   2.840   5.765   3.360
 4428SOL    HW114183   2.899   5.815   3.296
 4428SOL    HW214184   2.897   5.708   3.420
 4429SOL     OW14185   3.546   0.618   3.035
 4429SOL    HW114186   3.596   0.703   3.020
 4429SOL    HW214187   3.570   0.551   2.965
 4430SOL     OW14188   1.797   0.547   1.630
 4430SOL    HW114189   1.744   0.466   1.656
 4430SOL    HW214190   1.737   0.627   1.631
 4431SOL     OW14191   1.638   2.089   3.397
 4431SOL    HW114192   1.581   2.048   3.326
 4431SOL    HW214193   1.608   2.056   3.487
 4432SOL     OW14194   2.938   3.708   3.899
 4432SOL    HW114195   2.849   3.664   3.910
 4432SOL    HW214196   2.958   3.720   3.802
 4433SOL     OW14197   6.834   0.661   3.508
 4433SOL    HW114198   6.798   0.739   3.559
 4433SOL    HW214199   6.927   0.682   3.477
 4434SOL     OW14200   5.207   2.000   4.289
 4434SOL    HW114201   5.262   2.051   4.223
 4434SOL    HW214202   5.135   2.058   4.326
 4435SOL     OW14203   3.530   3.056   2.322
 4435SOL    HW114204   3.557   3.085   2.230
 4435SOL    HW214205   3.461   2.985   2.317
 4436SOL     OW14206   4.889   0.769   0.312
 4436SOL    HW114207   4.970   0.739   0.363
 4436SOL    HW214208   4.810   0.770   0.374
 4437SOL     OW14209   3.291   0.186   4.699
 4437SOL    HW114210   3.291   0.129   4.616
 4437SOL    HW214211   3.292   0.283   4.672
 4438SOL     OW14212   3.682   3.848   6.172
 4438SOL    HW114213   3.614   3.850   6.246
 4438SOL    HW214214   3.666   3.768   6.114
 4439SOL     OW14215   2.753   5.080   2.333
 4439SOL    HW114216   2.699   5.043   2.257
 4439SOL    HW214217   2.692   5.099   2.410
 4440SOL     OW14218   6.655   0.257   6.500
 4440SOL    HW114219   6.708   0.301   6.427
 4440SOL    HW214220   6.563   0.237   6.465
 4441SOL     OW14221   5.605   2.356   3.568
 4441SOL    HW114222   5.626   2.429   3.633
 4441SOL    HW214223   5.547   2.287   3.612
 4442SOL     OW14224   2.021   6.315   2.350
 4442SOL    HW114225   2.076   6.238   2.384
 4442SOL    HW214226   1.972   6.357   2.425
 4443SOL     OW14227   2.417   1.751   5.976
 4443SOL    HW114228   2.384   1.836   5.936
 4443SOL    HW214229   2.489   1.712   5.919
 4444SOL     OW14230   5.222   0.655   2.586
 4444SOL    HW114231   5.295   0.720   2.610
 4444SOL    HW214232   5.212   0.588   2.660
 4445SOL     OW14233   1.732   1.613   6.321
 4445SOL    HW114234   1.641   1.609   6.281
 4445SOL    HW214235   1.787   1.537   6.287
 4446SOL     OW14236   6.176   5.915   4.037
 4446SOL    HW114237   6.213   6.007   4.023
 4446SOL    HW214238   6.085   5.923   4.080
 4447SOL     OW14239   4.980   3.503   4.876
 4447SOL    HW114240   4.972   3.403   4.878
 4447SOL    HW214241   4.906   3.543   4.931
 4448SOL     OW14242   2.789   2.860   6.262
 4448SOL    HW114243   2.717   2.807   6.306
 4448SOL    HW214244   2.853   2.894   6.330
 4449SOL     OW14245   0.865   1.397   5.198
 4449SOL    HW114246   0.772   1.372   5.226
 4449SOL    HW214247   0.860   1.465   5.125
 4450SOL     OW14248   4.095   3.767   3.222
 4450SOL    HW114249   4.056   3.859   3.217
 4450SOL    HW214250   4.141   3.755   3.310
 4451SOL     OW14251   6.674   4.318   1.599
 4451SOL    HW114252   6.690   4.378   1.677
 4451SOL    HW214253   6.657   4.224   1.632
 4452SOL     OW14254   6.280   4.897   6.165
 4452SOL    HW114255   6.213   4.927   6.233
 4452SOL    HW214256   6.237   4.896   6.075
 4453SOL     OW14257   5.355   2.038   1.408
 4453SOL    HW114258   5.441   2.084   1.428
 4453SOL    HW214259   5.279   2.093   1.443
 4454SOL     OW14260   5.615   3.140   1.344
 4454SOL    HW114261   5.588   3.044   1.334
 4454SOL    HW214262   5.539   3.199   1.316
 4455SOL     OW14263   4.531   1.765   1.541
 4455SOL    HW114264   4.479   1.837   1.495
 4455SOL    HW214265   4.594   1.805   1.607
 4456SOL     OW14266   1.457   5.577   3.041
 4456SOL    HW114267   1.489   5.672   3.041
 4456SOL    HW214268   1.427   5.551   2.949
 4457SOL     OW14269   4.879   1.877   6.800
 4457SOL    HW114270   4.783   1.861   6.777
 4457SOL    HW214271   4.923   1.929   6.727
 4458SOL     OW14272   3.779   1.928   6.645
 4458SOL    HW114273   3.849   1.908   6.714
 4458SOL    HW214274   3.689   1.911   6.684
 4459SOL     OW14275   5.274   6.075   5.556
 4459SOL    HW114276   5.306   6.161   5.515
 4459SOL    HW214277   5.245   6.093   5.650
 4460SOL     OW14278   1.490   1.641   6.139
 4460SOL    HW114279   1.462   1.721   6.086
 4460SOL    HW214280   1.425   1.627   6.214
 4461SOL     OW14281   2.368   0.451   2.390
 4461SOL    HW114282   2.435   0.505   2.339
 4461SOL    HW214283   2.413   0.404   2.466
 4462SOL     OW14284   0.126   5.698   1.276
 4462SOL    HW114285   0.162   5.632   1.341
 4462SOL    HW214286   0.160   5.676   1.184
 4463SOL     OW14287   1.380   3.252   5.984
 4463SOL    HW114288   1.442   3.304   5.925
 4463SOL    HW214289   1.399   3.275   6.080
 4464SOL     OW14290   6.207   3.101   6.584
 4464SOL    HW114291   6.141   3.160   6.631
 4464SOL    HW214292   6.160   3.022   6.545
 4465SOL     OW14293   1.452   5.628   1.650
 4465SOL    HW114294   1.499   5.686   1.717
 4465SOL    HW214295   1.486   5.535   1.657
 4466SOL     OW14296   0.690   2.258   3.681
 4466SOL    HW114297   0.729   2.323   3.615
 4466SOL    HW214298   0.656   2.307   3.760
 4467SOL     OW14299   1.137   6.982   3.056
 4467SOL    HW114300   1.078   6.980   3.137
 4467SOL    HW214301   1.093   0.013   2.985
 4468SOL     OW14302   1.043   2.438   0.333
 4468SOL    HW114303   1.015   2.353   0.377
 4468SOL    HW214304   1.128   2.472   0.375
 4469SOL     OW14305   4.427   0.007   0.025
 4469SOL    HW114306   4.430   6.931   0.009
 4469SOL    HW214307   4.504   0.033   0.084
 4470SOL     OW14308   4.567   5.234   0.940
 4470SOL    HW114309   4.612   5.281   1.016
 4470SOL    HW214310   4.469   5.225   0.959
 4471SOL     OW14311   6.465   3.485   0.190
 4471SOL    HW114312   6.475   3.461   0.286
 4471SOL    HW214313   6.547   3.533   0.159
 4472SOL     OW14314   2.016   4.825   1.774
 4472SOL    HW114315   1.942   4.768   1.737
 4472SOL    HW214316   2.104   4.784   1.752
 4473SOL     OW14317   0.841   0.145   5.511
 4473SOL    HW114318   0.780   0.200   5.456
 4473SOL    HW214319   0.835   0.173   5.607
 4474SOL     OW14320   5.895   0.786   3.542
 4474SOL    HW114321   5.802   0.765   3.575
 4474SOL    HW214322   5.938   0.702   3.509
 4475SOL     OW14323   1.307   4.121   6.867
 4475SOL    HW114324   1.236   4.053   6.885
 4475SOL    HW214325   1.299   4.196   6.932
 4476SOL     OW14326   4.869   6.337   2.551
 4476SOL    HW114327   4.909   6.274   2.617
 4476SOL    HW214328   4.895   6.310   2.459
 4477SOL     OW14329   1.720   0.988   0.028
 4477SOL    HW114330   1.636   0.969   7.000
 4477SOL    HW214331   1.710   0.956   0.122
 4478SOL     OW14332   1.794   5.415   2.056
 4478SOL    HW114333   1.728   5.456   2.119
 4478SOL    HW214334   1.882   5.405   2.102
 4479SOL     OW14335   0.408   0.023   5.491
 4479SOL    HW114336   0.411   6.969   5.427
 4479SOL    HW214337   0.492   0.024   5.546
 4480SOL     OW14338   1.041   4.632   3.764
 4480SOL    HW114339   1.113   4.696   3.793
 4480SOL    HW214340   1.043   4.621   3.665
 4481SOL     OW14341   1.000   6.981   3.687
 4481SOL    HW114342   1.075   0.020   3.707
 4481SOL    HW214343   0.926   0.008   3.641
 4482SOL     OW14344   0.597   4.423   3.997
 4482SOL    HW114345   0.532   4.481   3.947
 4482SOL    HW214346   0.559   4.401   4.087
 4483SOL     OW14347   4.978   2.559   2.123
 4483SOL    HW114348   4.978   2.514   2.034
 4483SOL    HW214349   4.886   2.593   2.143
 4484SOL     OW14350   4.182   2.650   6.096
 4484SOL    HW114351   4.117   2.725   6.087
 4484SOL    HW214352   4.275   2.685   6.080
 4485SOL     OW14353   4.824   0.969   6.794
 4485SOL    HW114354   4.856   0.938   6.704
 4485SOL    HW214355   4.744   1.028   6.782
 4486SOL     OW14356   6.665   2.475   3.803
 4486SOL    HW114357   6.735   2.457   3.872
 4486SOL    HW214358   6.641   2.389   3.758
 4487SOL     OW14359   3.230   3.020   5.981
 4487SOL    HW114360   3.132   3.000   5.986
 4487SOL    HW214361   3.247   3.114   6.009
 4488SOL     OW14362   0.096   1.373   5.764
 4488SOL    HW114363   0.176   1.405   5.712
 4488SOL    HW214364   0.083   1.430   5.845
 4489SOL     OW14365   6.795   0.708   3.156
 4489SOL    HW114366   6.699   0.709   3.129
 4489SOL    HW214367   6.817   0.795   3.202
 4490SOL     OW14368   6.809   2.332   3.370
 4490SOL    HW114369   6.867   2.410   3.395
 4490SOL    HW214370   6.782   2.340   3.274
 4491SOL     OW14371   1.741   2.982   2.589
 4491SOL    HW114372   1.835   2.950   2.579
 4491SOL    HW214373   1.722   2.999   2.686
 4492SOL     OW14374   4.174   3.420   6.602
 4492SOL    HW114375   4.105   3.349   6.586
 4492SOL    HW214376   4.265   3.378   6.601
 4493SOL     OW14377   5.930   5.201   3.410
 4493SOL    HW114378   5.833   5.213   3.392
 4493SOL    HW214379   5.977   5.289   3.402
 4494SOL     OW14380   6.170   3.578   3.738
 4494SOL    HW114381   6.142   3.544   3.648
 4494SOL    HW214382   6.106   3.546   3.807
 4495SOL     OW14383   4.563   6.346   1.714
 4495SOL    HW114384   4.475   6.324   1.757
 4495SOL    HW214385   4.637   6.326   1.777
 4496SOL     OW14386   4.926   4.450   5.589
 4496SOL    HW114387   4.981   4.376   5.628
 4496SOL    HW214388   4.831   4.420   5.580
 4497SOL     OW14389   6.478   5.431   0.579
 4497SOL    HW114390   6.480   5.517   0.528
 4497SOL    HW214391   6.495   5.449   0.676
 4498SOL     OW14392   0.169   4.264   6.760
 4498SOL    HW114393   0.202   4.193   6.822
 4498SOL    HW214394   0.234   4.277   6.686
 4499SOL     OW14395   6.758   3.103   6.449
 4499SOL    HW114396   6.668   3.124   6.485
 4499SOL    HW214397   6.823   3.093   6.525
 4500SOL     OW14398   3.440   3.783   4.669
 4500SOL    HW114399   3.457   3.689   4.698
 4500SOL    HW214400   3.382   3.829   4.736
 4501SOL     OW14401   1.036   4.680   4.935
 4501SOL    HW114402   1.111   4.614   4.929
 4501SOL    HW214403   0.994   4.674   5.025
 4502SOL     OW14404   6.659   3.174   6.828
 4502SOL    HW114405   6.562   3.158   6.848
 4502SOL    HW214406   6.667   3.244   6.757
 4503SOL     OW14407   1.431   1.722   2.971
 4503SOL    HW114408   1.475   1.642   3.013
 4503SOL    HW214409   1.501   1.790   2.947
 4504SOL     OW14410   4.734   2.686   4.703
 4504SOL    HW114411   4.701   2.781   4.703
 4504SOL    HW214412   4.755   2.659   4.797
 4505SOL     OW14413   1.716   5.067   5.967
 4505SOL    HW114414   1.643   5.109   5.912
 4505SOL    HW214415   1.798   5.057   5.911
 4506SOL     OW14416   4.186   0.210   5.271
 4506SOL    HW114417   4.252   0.258   5.330
 4506SOL    HW214418   4.235   0.146   5.213
 4507SOL     OW14419   6.247   4.481   1.232
 4507SOL    HW114420   6.345   4.490   1.215
 4507SOL    HW214421   6.197   4.506   1.149
 4508SOL     OW14422   1.229   4.454   0.813
 4508SOL    HW114423   1.166   4.465   0.889
 4508SOL    HW214424   1.189   4.492   0.730
 4509SOL     OW14425   1.352   2.117   3.866
 4509SOL    HW114426   1.442   2.106   3.824
 4509SOL    HW214427   1.281   2.098   3.798
 4510SOL     OW14428   3.885   6.561   4.969
 4510SOL    HW114429   3.851   6.564   5.062
 4510SOL    HW214430   3.977   6.522   4.969
 4511SOL     OW14431   6.449   2.898   6.646
 4511SOL    HW114432   6.418   2.869   6.737
 4511SOL    HW214433   6.430   2.825   6.580
 4512SOL     OW14434   3.050   4.541   0.392
 4512SOL    HW114435   3.013   4.480   0.321
 4512SOL    HW214436   3.149   4.547   0.383
 4513SOL     OW14437   5.380   1.025   1.946
 4513SOL    HW114438   5.299   1.063   1.902
 4513SOL    HW214439   5.376   0.925   1.941
 4514SOL     OW14440   3.598   1.700   5.440
 4514SOL    HW114441   3.531   1.719   5.368
 4514SOL    HW214442   3.596   1.602   5.460
 4515SOL     OW14443   0.493   5.101   1.272
 4515SOL    HW114444   0.559   5.082   1.345
 4515SOL    HW214445   0.539   5.148   1.197
 4516SOL     OW14446   1.058   6.810   4.777
 4516SOL    HW114447   1.074   6.851   4.687
 4516SOL    HW214448   1.096   6.870   4.847
 4517SOL     OW14449   3.721   0.206   5.248
 4517SOL    HW114450   3.790   0.258   5.198
 4517SOL    HW214451   3.716   0.113   5.212
 4518SOL     OW14452   1.116   1.211   4.392
 4518SOL    HW114453   1.062   1.134   4.359
 4518SOL    HW214454   1.191   1.230   4.328
 4519SOL     OW14455   6.116   2.386   4.558
 4519SOL    HW114456   6.106   2.288   4.540
 4519SOL    HW214457   6.198   2.402   4.613
 4520SOL     OW14458   0.468   4.615   3.310
 4520SOL    HW114459   0.451   4.594   3.214
 4520SOL    HW214460   0.561   4.588   3.335
 4521SOL     OW14461   6.008   2.400   5.847
 4521SOL    HW114462   6.091   2.401   5.903
 4521SOL    HW214463   6.005   2.316   5.794
 4522SOL     OW14464   5.829   0.367   3.511
 4522SOL    HW114465   5.823   0.280   3.462
 4522SOL    HW214466   5.737   0.397   3.537
 4523SOL     OW14467   3.774   3.486   6.683
 4523SOL    HW114468   3.674   3.489   6.686
 4523SOL    HW214469   3.803   3.391   6.668
 4524SOL     OW14470   6.122   0.259   5.026
 4524SOL    HW114471   6.087   0.202   5.100
 4524SOL    HW214472   6.063   0.339   5.016
 4525SOL     OW14473   6.286   1.453   5.551
 4525SOL    HW114474   6.307   1.386   5.479
 4525SOL    HW214475   6.250   1.536   5.509
 4526SOL     OW14476   3.914   0.952   0.330
 4526SOL    HW114477   3.878   0.861   0.307
 4526SOL    HW214478   3.898   1.014   0.253
 4527SOL     OW14479   3.688   1.540   3.324
 4527SOL    HW114480   3.784   1.530   3.349
 4527SOL    HW214481   3.639   1.590   3.396
 4528SOL     OW14482   5.967   0.616   6.363
 4528SOL    HW114483   5.939   0.667   6.282
 4528SOL    HW214484   5.912   0.533   6.371
 4529SOL     OW14485   3.616   6.629   3.243
 4529SOL    HW114486   3.641   6.582   3.329
 4529SOL    HW214487   3.652   6.577   3.166
 4530SOL     OW14488   0.268   2.806   4.970
 4530SOL    HW114489   0.284   2.779   4.875
 4530SOL    HW214490   0.293   2.731   5.031
 4531SOL     OW14491   0.259   3.353   3.547
 4531SOL    HW114492   0.185   3.420   3.536
 4531SOL    HW214493   0.233   3.287   3.617
 4532SOL     OW14494   6.448   2.109   0.496
 4532SOL    HW114495   6.419   2.132   0.589
 4532SOL    HW214496   6.388   2.155   0.430
 4533SOL     OW14497   2.828   5.995   2.835
 4533SOL    HW114498   2.867   5.903   2.840
 4533SOL    HW214499   2.819   6.032   2.927
 4534SOL     OW14500   6.132   4.170   5.763
 4534SOL    HW114501   6.145   4.256   5.714
 4534SOL    HW214502   6.216   4.148   5.814
 4535SOL     OW14503   4.780   2.902   2.815
 4535SOL    HW114504   4.775   2.896   2.915
 4535SOL    HW214505   4.876   2.911   2.788
 4536SOL     OW14506   6.806   1.290   4.468
 4536SOL    HW114507   6.855   1.362   4.517
 4536SOL    HW214508   6.762   1.229   4.534
 4537SOL     OW14509   3.967   3.256   5.821
 4537SOL    HW114510   3.988   3.239   5.725
 4537SOL    HW214511   3.932   3.173   5.863
 4538SOL     OW14512   3.094   1.058   2.321
 4538SOL    HW114513   3.116   1.144   2.368
 4538SOL    HW214514   3.177   1.003   2.311
 4539SOL     OW14515   1.031   1.843   2.468
 4539SOL    HW114516   1.076   1.808   2.386
 4539SOL    HW214517   0.965   1.776   2.502
 4540SOL     OW14518   3.055   3.158   4.552
 4540SOL    HW114519   3.082   3.100   4.475
 4540SOL    HW214520   3.029   3.249   4.517
 4541SOL     OW14521   5.929   1.307   1.403
 4541SOL    HW114522   5.845   1.341   1.360
 4541SOL    HW214523   6.006   1.317   1.339
 4542SOL     OW14524   4.546   0.404   3.830
 4542SOL    HW114525   4.477   0.408   3.758
 4542SOL    HW214526   4.555   0.494   3.872
 4543SOL     OW14527   5.549   1.892   1.873
 4543SOL    HW114528   5.556   1.970   1.811
 4543SOL    HW214529   5.640   1.869   1.907
 4544SOL     OW14530   3.619   5.006   6.708
 4544SOL    HW114531   3.668   5.093   6.719
 4544SOL    HW214532   3.684   4.933   6.690
 4545SOL     OW14533   4.138   2.412   5.699
 4545SOL    HW114534   4.146   2.347   5.775
 4545SOL    HW214535   4.182   2.498   5.724
 4546SOL     OW14536   0.986   6.647   6.183
 4546SOL    HW114537   1.081   6.678   6.181
 4546SOL    HW214538   0.955   6.643   6.278
 4547SOL     OW14539   4.626   2.328   1.452
 4547SOL    HW114540   4.657   2.261   1.385
 4547SOL    HW214541   4.704   2.362   1.504
 4548SOL     OW14542   1.445   3.036   3.824
 4548SOL    HW114543   1.369   3.085   3.867
 4548SOL    HW214544   1.516   3.019   3.893
 4549SOL     OW14545   5.199   2.199   2.825
 4549SOL    HW114546   5.184   2.291   2.860
 4549SOL    HW214547   5.135   2.135   2.869
 4550SOL     OW14548   1.394   6.131   4.586
 4550SOL    HW114549   1.453   6.165   4.512
 4550SOL    HW214550   1.320   6.076   4.547
 4551SOL     OW14551   0.714   2.703   5.983
 4551SOL    HW114552   0.715   2.730   6.079
 4551SOL    HW214553   0.702   2.784   5.925
 4552SOL     OW14554   0.187   3.004   4.119
 4552SOL    HW114555   0.279   3.043   4.118
 4552SOL    HW214556   0.119   3.078   4.114
 4553SOL     OW14557   4.922   4.803   0.559
 4553SOL    HW114558   5.006   4.831   0.606
 4553SOL    HW214559   4.844   4.813   0.620
 4554SOL     OW14560   5.674   0.089   2.793
 4554SOL    HW114561   5.671   0.032   2.711
 4554SOL    HW214562   5.705   0.181   2.768
 4555SOL     OW14563   5.508   1.631   0.032
 4555SOL    HW114564   5.522   1.545   7.006
 4555SOL    HW214565   5.587   1.691   0.017
 4556SOL     OW14566   4.443   1.489   4.288
 4556SOL    HW114567   4.348   1.464   4.308
 4556SOL    HW214568   4.448   1.531   4.198
 4557SOL     OW14569   5.214   0.287   5.857
 4557SOL    HW114570   5.262   0.257   5.774
 4557SOL    HW214571   5.125   0.325   5.832
 4558SOL     OW14572   6.567   2.986   6.003
 4558SOL    HW114573   6.630   3.035   6.062
 4558SOL    HW214574   6.498   3.049   5.966
 4559SOL     OW14575   1.005   6.621   1.269
 4559SOL    HW114576   1.068   6.677   1.217
 4559SOL    HW214577   0.916   6.619   1.223
 4560SOL     OW14578   5.048   3.048   3.278
 4560SOL    HW114579   5.090   3.139   3.271
 4560SOL    HW214580   5.114   2.983   3.316
 4561SOL     OW14581   2.978   0.295   6.236
 4561SOL    HW114582   3.038   0.314   6.159
 4561SOL    HW214583   2.908   0.229   6.210
 4562SOL     OW14584   3.198   5.300   5.971
 4562SOL    HW114585   3.197   5.206   5.938
 4562SOL    HW214586   3.244   5.303   6.060
 4563SOL     OW14587   5.562   2.152   6.593
 4563SOL    HW114588   5.488   2.201   6.546
 4563SOL    HW214589   5.585   2.202   6.676
 4564SOL     OW14590   1.736   5.865   6.825
 4564SOL    HW114591   1.712   5.813   6.907
 4564SOL    HW214592   1.831   5.895   6.830
 4565SOL     OW14593   1.864   0.550   4.328
 4565SOL    HW114594   1.834   0.456   4.308
 4565SOL    HW214595   1.784   0.609   4.336
 4566SOL     OW14596   0.659   1.882   0.299
 4566SOL    HW114597   0.621   1.825   0.372
 4566SOL    HW214598   0.601   1.962   0.286
 4567SOL     OW14599   6.658   0.880   0.787
 4567SOL    HW114600   6.571   0.912   0.823
 4567SOL    HW214601   6.715   0.846   0.862
 4568SOL     OW14602   3.329   4.939   4.893
 4568SOL    HW114603   3.245   4.897   4.926
 4568SOL    HW214604   3.343   4.915   4.797
 4569SOL     OW14605   0.381   1.984   4.691
 4569SOL    HW114606   0.372   2.049   4.616
 4569SOL    HW214607   0.450   2.018   4.755
 4570SOL     OW14608   0.008   5.167   4.286
 4570SOL    HW114609   6.938   5.135   4.266
 4570SOL    HW214610   0.009   5.267   4.286
 4571SOL     OW14611   3.426   3.380   4.432
 4571SOL    HW114612   3.365   3.397   4.355
 4571SOL    HW214613   3.489   3.305   4.409
 4572SOL     OW14614   2.139   6.379   1.664
 4572SOL    HW114615   2.137   6.292   1.713
 4572SOL    HW214616   2.099   6.451   1.721
 4573SOL     OW14617   5.532   6.893   0.853
 4573SOL    HW114618   5.565   6.799   0.848
 4573SOL    HW214619   5.520   6.919   0.949
 4574SOL     OW14620   1.146   4.651   2.618
 4574SOL    HW114621   1.158   4.602   2.531
 4574SOL    HW214622   1.228   4.641   2.674
 4575SOL     OW14623   6.581   0.084   2.243
 4575SOL    HW114624   6.623   0.172   2.219
 4575SOL    HW214625   6.603   0.061   2.338
 4576SOL     OW14626   3.306   5.793   5.089
 4576SOL    HW114627   3.244   5.728   5.046
 4576SOL    HW214628   3.261   5.834   5.169
 4577SOL     OW14629   0.699   2.721   3.887
 4577SOL    HW114630   0.704   2.814   3.924
 4577SOL    HW214631   0.760   2.662   3.938
 4578SOL     OW14632   0.113   3.936   3.720
 4578SOL    HW114633   0.022   3.975   3.710
 4578SOL    HW214634   0.180   4.009   3.733
 4579SOL     OW14635   5.639   2.014   4.293
 4579SOL    HW114636   5.590   2.090   4.250
 4579SOL    HW214637   5.575   1.960   4.347
 4580SOL     OW14638   6.913   5.298   0.493
 4580SOL    HW114639   6.815   5.282   0.490
 4580SOL    HW214640   6.962   5.219   0.457
 4581SOL     OW14641   3.740   5.781   3.036
 4581SOL    HW114642   3.641   5.774   3.024
 4581SOL    HW214643   3.786   5.707   2.987
 4582SOL     OW14644   4.432   6.758   2.735
 4582SOL    HW114645   4.480   6.671   2.720
 4582SOL    HW214646   4.429   6.809   2.649
 4583SOL     OW14647   4.735   2.031   5.439
 4583SOL    HW114648   4.640   2.001   5.431
 4583SOL    HW214649   4.786   2.003   5.357
 4584SOL     OW14650   0.458   4.792   5.487
 4584SOL    HW114651   0.453   4.840   5.400
 4584SOL    HW214652   0.403   4.709   5.482
 4585SOL     OW14653   3.969   6.481   2.942
 4585SOL    HW114654   3.955   6.382   2.934
 4585SOL    HW214655   4.031   6.511   2.871
 4586SOL     OW14656   3.311   5.976   2.096
 4586SOL    HW114657   3.319   5.944   2.190
 4586SOL    HW214658   3.402   5.985   2.056
 4587SOL     OW14659   2.191   4.412   1.237
 4587SOL    HW114660   2.117   4.357   1.199
 4587SOL    HW214661   2.172   4.509   1.223
 4588SOL     OW14662   4.474   4.067   5.322
 4588SOL    HW114663   4.475   3.971   5.297
 4588SOL    HW214664   4.380   4.097   5.337
 4589SOL     OW14665   0.135   1.672   3.698
 4589SOL    HW114666   0.135   1.659   3.797
 4589SOL    HW214667   0.044   1.650   3.662
 4590SOL     OW14668   4.825   5.839   2.612
 4590SOL    HW114669   4.819   5.766   2.680
 4590SOL    HW214670   4.921   5.862   2.598
 4591SOL     OW14671   6.077   5.640   5.072
 4591SOL    HW114672   6.155   5.618   5.013
 4591SOL    HW214673   6.110   5.654   5.166
 4592SOL     OW14674   3.145   2.401   5.772
 4592SOL    HW114675   3.083   2.336   5.815
 4592SOL    HW214676   3.156   2.378   5.676
 4593SOL     OW14677   3.591   6.573   2.048
 4593SOL    HW114678   3.615   6.652   1.991
 4593SOL    HW214679   3.495   6.578   2.073
 4594SOL     OW14680   2.810   1.120   2.327
 4594SOL    HW114681   2.909   1.107   2.321
 4594SOL    HW214682   2.779   1.176   2.250
 4595SOL     OW14683   4.389   2.284   5.980
 4595SOL    HW114684   4.462   2.230   5.937
 4595SOL    HW214685   4.301   2.259   5.941
 4596SOL     OW14686   6.206   6.959   1.936
 4596SOL    HW114687   6.126   6.904   1.962
 4596SOL    HW214688   6.188   0.032   1.956
 4597SOL     OW14689   6.464   4.640   0.066
 4597SOL    HW114690   6.431   4.600   0.152
 4597SOL    HW214691   6.468   4.568   7.019
 4598SOL     OW14692   3.302   4.831   0.413
 4598SOL    HW114693   3.295   4.780   0.499
 4598SOL    HW214694   3.212   4.863   0.386
 4599SOL     OW14695   1.547   5.069   0.458
 4599SOL    HW114696   1.530   5.000   0.387
 4599SOL    HW214697   1.463   5.121   0.474
 4600SOL     OW14698   3.557   5.249   1.436
 4600SOL    HW114699   3.529   5.174   1.495
 4600SOL    HW214700   3.631   5.219   1.376
 4601SOL     OW14701   1.948   5.803   4.956
 4601SOL    HW114702   1.916   5.751   5.036
 4601SOL    HW214703   1.985   5.740   4.889
 4602SOL     OW14704   1.756   0.795   0.954
 4602SOL    HW114705   1.768   0.850   1.037
 4602SOL    HW214706   1.817   0.830   0.882
 4603SOL     OW14707   3.161   0.557   2.168
 4603SOL    HW114708   3.184   0.617   2.244
 4603SOL    HW214709   3.217   0.580   2.088
 4604SOL     OW14710   2.727   0.011   2.247
 4604SOL    HW114711   2.735   6.935   2.261
 4604SOL    HW214712   2.805   0.056   2.288
 4605SOL     OW14713   5.204   0.320   5.520
 4605SOL    HW114714   5.117   0.288   5.484
 4605SOL    HW214715   5.236   0.397   5.466
 4606SOL     OW14716   6.873   6.576   5.361
 4606SOL    HW114717   6.886   6.577   5.460
 4606SOL    HW214718   6.775   6.572   5.340
 4607SOL     OW14719   2.453   1.971   1.283
 4607SOL    HW114720   2.533   1.971   1.342
 4607SOL    HW214721   2.397   2.052   1.303
 4608SOL     OW14722   1.563   3.369   5.826
 4608SOL    HW114723   1.570   3.463   5.860
 4608SOL    HW214724   1.594   3.366   5.731
 4609SOL     OW14725   4.218   6.860   6.239
 4609SOL    HW114726   4.316   6.842   6.242
 4609SOL    HW214727   4.169   6.789   6.290
 4610SOL     OW14728   0.706   3.145   6.796
 4610SOL    HW114729   0.768   3.086   6.849
 4610SOL    HW214730   0.711   3.120   6.700
 4611SOL     OW14731   0.827   3.572   0.052
 4611SOL    HW114732   0.916   3.553   0.093
 4611SOL    HW214733   0.831   3.659   0.003
 4612SOL     OW14734   2.099   0.415   6.367
 4612SOL    HW114735   2.172   0.363   6.411
 4612SOL    HW214736   2.136   0.498   6.326
 4613SOL     OW14737   3.056   5.797   2.189
 4613SOL    HW114738   3.026   5.890   2.169
 4613SOL    HW214739   3.010   5.733   2.127
 4614SOL     OW14740   1.917   5.659   6.982
 4614SOL    HW114741   1.905   5.591   0.032
 4614SOL    HW214742   2.003   5.708   6.996
 4615SOL     OW14743   7.013   2.493   0.055
 4615SOL    HW114744   6.946   2.500   7.004
 4615SOL    HW214745   6.965   2.490   0.143
 4616SOL     OW14746   5.594   1.010   6.990
 4616SOL    HW114747   5.549   0.923   7.011
 4616SOL    HW214748   5.600   1.021   6.890
 4617SOL     OW14749   0.252   3.337   1.996
 4617SOL    HW114750   0.318   3.265   1.974
 4617SOL    HW214751   0.184   3.301   2.060
 4618SOL     OW14752   0.905   2.014   6.003
 4618SOL    HW114753   0.887   2.095   6.059
 4618SOL    HW214754   0.986   1.967   6.038
 4619SOL     OW14755   3.225   0.947   3.941
 4619SOL    HW114756   3.318   0.983   3.935
 4619SOL    HW214757   3.210   0.911   4.033
 4620SOL     OW14758   2.357   4.180   6.400
 4620SOL    HW114759   2.407   4.110   6.350
 4620SOL    HW214760   2.332   4.145   6.490
 4621SOL     OW14761   0.367   6.107   5.903
 4621SOL    HW114762   0.453   6.152   5.927
 4621SOL    HW214763   0.293   6.143   5.960
 4622SOL     OW14764   2.454   3.523   1.081
 4622SOL    HW114765   2.460   3.426   1.056
 4622SOL    HW214766   2.364   3.558   1.055
 4623SOL     OW14767   5.898   4.337   2.126
 4623SOL    HW114768   5.962   4.410   2.152
 4623SOL    HW214769   5.871   4.286   2.208
 4624SOL     OW14770   4.878   6.907   5.449
 4624SOL    HW114771   4.834   6.993   5.477
 4624SOL    HW214772   4.812   6.833   5.454
 4625SOL     OW14773   0.898   2.896   6.750
 4625SOL    HW114774   0.865   2.886   6.656
 4625SOL    HW214775   0.997   2.902   6.750
 4626SOL     OW14776   6.031   5.086   1.837
 4626SOL    HW114777   6.085   5.059   1.758
 4626SOL    HW214778   6.015   5.007   1.896
 4627SOL     OW14779   2.107   1.027   6.199
 4627SOL    HW114780   2.169   0.962   6.155
 4627SOL    HW214781   2.062   0.984   6.277
 4628SOL     OW14782   6.794   4.131   1.994
 4628SOL    HW114783   6.823   4.079   1.914
 4628SOL    HW214784   6.855   4.209   2.008
 4629SOL     OW14785   3.135   5.085   5.186
 4629SOL    HW114786   3.046   5.122   5.211
 4629SOL    HW214787   3.197   5.159   5.161
 4630SOL     OW14788   2.078   0.407   2.851
 4630SOL    HW114789   2.146   0.353   2.802
 4630SOL    HW214790   2.031   0.350   2.918
 4631SOL     OW14791   2.499   0.328   2.599
 4631SOL    HW114792   2.559   0.263   2.554
 4631SOL    HW214793   2.553   0.403   2.637
 4632SOL     OW14794   5.222   4.985   3.968
 4632SOL    HW114795   5.234   4.886   3.966
 4632SOL    HW214796   5.185   5.016   3.880
 4633SOL     OW14797   5.916   2.658   5.589
 4633SOL    HW114798   5.923   2.659   5.689
 4633SOL    HW214799   5.987   2.599   5.551
 4634SOL     OW14800   3.478   4.440   0.975
 4634SOL    HW114801   3.445   4.518   0.923
 4634SOL    HW214802   3.400   4.391   1.014
 4635SOL     OW14803   5.266   4.275   1.289
 4635SOL    HW114804   5.345   4.302   1.233
 4635SOL    HW214805   5.207   4.215   1.236
 4636SOL     OW14806   1.621   5.267   0.900
 4636SOL    HW114807   1.585   5.174   0.913
 4636SOL    HW214808   1.709   5.275   0.947
 4637SOL     OW14809   1.583   0.752   5.408
 4637SOL    HW114810   1.602   0.756   5.506
 4637SOL    HW214811   1.667   0.770   5.357
 4638SOL     OW14812   5.362   3.457   6.355
 4638SOL    HW114813   5.419   3.432   6.276
 4638SOL    HW214814   5.266   3.439   6.335
 4639SOL     OW14815   6.915   3.841   5.426
 4639SOL    HW114816   6.867   3.788   5.497
 4639SOL    HW214817   6.856   3.851   5.346
 4640SOL     OW14818   5.566   4.235   2.575
 4640SOL    HW114819   5.503   4.301   2.616
 4640SOL    HW214820   5.565   4.246   2.476
 4641SOL     OW14821   2.556   4.659   5.425
 4641SOL    HW114822   2.508   4.621   5.504
 4641SOL    HW214823   2.516   4.747   5.400
 4642SOL     OW14824   5.620   5.687   4.375
 4642SOL    HW114825   5.568   5.688   4.290
 4642SOL    HW214826   5.623   5.594   4.412
 4643SOL     OW14827   3.564   2.944   1.602
 4643SOL    HW114828   3.559   2.939   1.502
 4643SOL    HW214829   3.586   3.038   1.629
 4644SOL     OW14830   2.407   5.010   5.057
 4644SOL    HW114831   2.441   5.055   4.975
 4644SOL    HW214832   2.430   5.065   5.138
 4645SOL     OW14833   1.719   5.977   4.998
 4645SOL    HW114834   1.796   5.915   4.989
 4645SOL    HW214835   1.690   5.981   5.093
 4646SOL     OW14836   3.721   0.323   1.764
 4646SOL    HW114837   3.624   0.347   1.759
 4646SOL    HW214838   3.737   0.264   1.844
 4647SOL     OW14839   6.838   0.229   4.604
 4647SOL    HW114840   6.931   0.200   4.579
 4647SOL    HW214841   6.811   0.185   4.689
 4648SOL     OW14842   2.229   5.215   2.967
 4648SOL    HW114843   2.146   5.168   2.938
 4648SOL    HW214844   2.262   5.175   3.052
 4649SOL     OW14845   5.648   6.761   6.216
 4649SOL    HW114846   5.715   6.815   6.268
 4649SOL    HW214847   5.681   6.748   6.122
 4650SOL     OW14848   6.938   4.575   1.956
 4650SOL    HW114849   6.935   4.625   2.042
 4650SOL    HW214850   6.997   4.623   1.891
 4651SOL     OW14851   0.174   1.904   1.618
 4651SOL    HW114852   0.147   1.807   1.611
 4651SOL    HW214853   0.098   1.961   1.587
 4652SOL     OW14854   0.192   6.263   6.044
 4652SOL    HW114855   0.103   6.296   6.076
 4652SOL    HW214856   0.264   6.304   6.099
 4653SOL     OW14857   0.883   5.593   6.782
 4653SOL    HW114858   0.969   5.569   6.736
 4653SOL    HW214859   0.860   5.688   6.763
 4654SOL     OW14860   0.997   1.359   6.508
 4654SOL    HW114861   0.970   1.422   6.435
 4654SOL    HW214862   0.916   1.329   6.559
 4655SOL     OW14863   0.444   5.489   3.282
 4655SOL    HW114864   0.366   5.495   3.344
 4655SOL    HW214865   0.519   5.441   3.327
 4656SOL     OW14866   1.885   6.850   3.133
 4656SOL    HW114867   1.912   6.818   3.043
 4656SOL    HW214868   1.786   6.864   3.136
 4657SOL     OW14869   5.922   0.192   6.729
 4657SOL    HW114870   5.958   0.257   6.662
 4657SOL    HW214871   5.842   0.145   6.691
 4658SOL     OW14872   5.241   0.933   3.497
 4658SOL    HW114873   5.223   0.876   3.417
 4658SOL    HW214874   5.270   0.875   3.573
 4659SOL     OW14875   2.259   2.231   4.276
 4659SOL    HW114876   2.199   2.162   4.317
 4659SOL    HW214877   2.320   2.267   4.346
 4660SOL     OW14878   6.723   0.696   5.764
 4660SOL    HW114879   6.805   0.639   5.758
 4660SOL    HW214880   6.701   0.731   5.673
 4661SOL     OW14881   4.161   3.358   3.411
 4661SOL    HW114882   4.196   3.264   3.407
 4661SOL    HW214883   4.176   3.403   3.323
 4662SOL     OW14884   5.340   0.583   4.475
 4662SOL    HW114885   5.362   0.502   4.421
 4662SOL    HW214886   5.308   0.656   4.415
 4663SOL     OW14887   0.119   1.732   2.365
 4663SOL    HW114888   0.136   1.776   2.454
 4663SOL    HW214889   0.111   1.802   2.294
 4664SOL     OW14890   3.472   2.408   6.950
 4664SOL    HW114891   3.405   2.433   6.881
 4664SOL    HW214892   3.561   2.445   6.924
 4665SOL     OW14893   5.522   0.792   0.060
 4665SOL    HW114894   5.541   0.697   0.035
 4665SOL    HW214895   5.425   0.802   0.083
 4666SOL     OW14896   2.232   1.310   0.562
 4666SOL    HW114897   2.309   1.336   0.620
 4666SOL    HW214898   2.260   1.234   0.503
 4667SOL     OW14899   0.707   5.488   5.963
 4667SOL    HW114900   0.662   5.504   5.875
 4667SOL    HW214901   0.641   5.498   6.037
 4668SOL     OW14902   5.962   1.933   4.654
 4668SOL    HW114903   5.929   1.954   4.562
 4668SOL    HW214904   5.967   2.018   4.708
 4669SOL     OW14905   2.864   0.357   0.601
 4669SOL    HW114906   2.912   0.291   0.545
 4669SOL    HW214907   2.849   0.319   0.692
 4670SOL     OW14908   2.033   1.150   4.430
 4670SOL    HW114909   2.093   1.122   4.505
 4670SOL    HW214910   2.002   1.069   4.380
 4671SOL     OW14911   5.704   3.504   0.782
 4671SOL    HW114912   5.622   3.471   0.828
 4671SOL    HW214913   5.706   3.470   0.688
 4672SOL     OW14914   2.378   3.722   5.551
 4672SOL    HW114915   2.446   3.796   5.550
 4672SOL    HW214916   2.424   3.634   5.551
 4673SOL     OW14917   3.475   0.554   2.627
 4673SOL    HW114918   3.508   0.478   2.572
 4673SOL    HW214919   3.375   0.548   2.636
 4674SOL     OW14920   4.441   6.506   6.154
 4674SOL    HW114921   4.495   6.459   6.224
 4674SOL    HW214922   4.450   6.605   6.167
 4675SOL     OW14923   1.377   4.105   6.338
 4675SOL    HW114924   1.476   4.117   6.329
 4675SOL    HW214925   1.345   4.038   6.271
 4676SOL     OW14926   1.117   5.737   3.957
 4676SOL    HW114927   1.138   5.819   3.903
 4676SOL    HW214928   1.133   5.656   3.901
 4677SOL     OW14929   0.916   3.380   0.565
 4677SOL    HW114930   0.835   3.339   0.606
 4677SOL    HW214931   0.998   3.348   0.614
 4678SOL     OW14932   2.350   4.587   2.344
 4678SOL    HW114933   2.379   4.660   2.282
 4678SOL    HW214934   2.319   4.627   2.430
 4679SOL     OW14935   4.313   6.972   1.458
 4679SOL    HW114936   4.368   0.007   1.518
 4679SOL    HW214937   4.335   6.876   1.476
 4680SOL     OW14938   1.841   0.989   1.148
 4680SOL    HW114939   1.765   1.048   1.122
 4680SOL    HW214940   1.921   1.045   1.170
 4681SOL     OW14941   4.892   5.316   1.754
 4681SOL    HW114942   4.824   5.374   1.708
 4681SOL    HW214943   4.972   5.371   1.778
 4682SOL     OW14944   3.729   4.210   7.000
 4682SOL    HW114945   3.804   4.251   6.947
 4682SOL    HW214946   3.685   4.281   0.033
 4683SOL     OW14947   6.338   4.652   4.241
 4683SOL    HW114948   6.286   4.665   4.326
 4683SOL    HW214949   6.409   4.583   4.257
 4684SOL     OW14950   5.553   6.874   0.341
 4684SOL    HW114951   5.627   6.857   0.405
 4684SOL    HW214952   5.511   6.963   0.361
 4685SOL     OW14953   3.270   4.006   5.249
 4685SOL    HW114954   3.199   4.018   5.180
 4685SOL    HW214955   3.229   3.971   5.333
 4686SOL     OW14956   3.334   5.857   0.665
 4686SOL    HW114957   3.263   5.884   0.730
 4686SOL    HW214958   3.346   5.757   0.667
 4687SOL     OW14959   3.093   0.620   3.105
 4687SOL    HW114960   3.106   0.559   3.027
 4687SOL    HW214961   3.056   0.707   3.074
 4688SOL     OW14962   5.809   3.341   5.435
 4688SOL    HW114963   5.736   3.406   5.418
 4688SOL    HW214964   5.844   3.354   5.528
 4689SOL     OW14965   5.851   0.784   2.299
 4689SOL    HW114966   5.764   0.790   2.347
 4689SOL    HW214967   5.906   0.710   2.338
 4690SOL     OW14968   2.155   2.155   0.902
 4690SOL    HW114969   2.229   2.159   0.834
 4690SOL    HW214970   2.165   2.073   0.957
 4691SOL     OW14971   6.637   3.918   1.438
 4691SOL    HW114972   6.584   3.847   1.484
 4691SOL    HW214973   6.597   3.937   1.348
 4692SOL     OW14974   5.506   3.354   2.238
 4692SOL    HW114975   5.417   3.354   2.193
 4692SOL    HW214976   5.519   3.440   2.287
 4693SOL     OW14977   1.525   0.913   3.622
 4693SOL    HW114978   1.439   0.895   3.575
 4693SOL    HW214979   1.508   0.937   3.717
 4694SOL     OW14980   1.981   0.829   0.397
 4694SOL    HW114981   2.012   0.739   0.425
 4694SOL    HW214982   2.008   0.846   0.302
 4695SOL     OW14983   1.555   6.386   1.702
 4695SOL    HW114984   1.487   6.375   1.630
 4695SOL    HW214985   1.646   6.396   1.661
 4696SOL     OW14986   2.014   5.295   5.965
 4696SOL    HW114987   2.099   5.243   5.970
 4696SOL    HW214988   1.957   5.274   6.044
 4697SOL     OW14989   4.215   5.249   1.589
 4697SOL    HW114990   4.309   5.256   1.555
 4697SOL    HW214991   4.208   5.292   1.679
 4698SOL     OW14992   5.055   1.313   3.713
 4698SOL    HW114993   5.116   1.299   3.791
 4698SOL    HW214994   5.074   1.402   3.671
 4699SOL     OW14995   1.758   6.835   2.484
 4699SOL    HW114996   1.708   6.893   2.548
 4699SOL    HW214997   1.755   6.876   2.393
 4700SOL     OW14998   5.941   1.951   2.235
 4700SOL    HW114999   6.038   1.934   2.253
 4700SOL    HW215000   5.913   2.037   2.278
 4701SOL     OW15001   2.958   2.219   1.709
 4701SOL    HW115002   2.916   2.129   1.726
 4701SOL    HW215003   2.962   2.270   1.796
 4702SOL     OW15004   5.214   4.890   6.630
 4702SOL    HW115005   5.240   4.801   6.669
 4702SOL    HW215006   5.293   4.951   6.631
 4703SOL     OW15007   1.007   5.398   3.543
 4703SOL    HW115008   0.967   5.438   3.461
 4703SOL    HW215009   0.935   5.374   3.608
 4704SOL     OW15010   1.245   5.210   5.097
 4704SOL    HW115011   1.339   5.242   5.110
 4704SOL    HW215012   1.242   5.111   5.111
 4705SOL     OW15013   3.531   2.093   1.624
 4705SOL    HW115014   3.522   2.186   1.589
 4705SOL    HW215015   3.466   2.079   1.698
 4706SOL     OW15016   2.722   1.379   0.489
 4706SOL    HW115017   2.719   1.387   0.589
 4706SOL    HW215018   2.647   1.430   0.449
 4707SOL     OW15019   1.546   6.343   1.977
 4707SOL    HW115020   1.518   6.359   1.883
 4707SOL    HW215021   1.643   6.319   1.980
 4708SOL     OW15022   1.156   2.289   4.374
 4708SOL    HW115023   1.175   2.242   4.287
 4708SOL    HW215024   1.207   2.244   4.447
 4709SOL     OW15025   4.978   3.729   5.198
 4709SOL    HW115026   4.912   3.691   5.132
 4709SOL    HW215027   5.023   3.655   5.247
 4710SOL     OW15028   6.640   5.759   4.989
 4710SOL    HW115029   6.618   5.719   4.900
 4710SOL    HW215030   6.715   5.708   5.031
 4711SOL     OW15031   5.123   4.075   2.918
 4711SOL    HW115032   5.194   4.142   2.940
 4711SOL    HW215033   5.159   4.009   2.853
 4712SOL     OW15034   4.667   4.410   5.574
 4712SOL    HW115035   4.600   4.458   5.518
 4712SOL    HW215036   4.659   4.312   5.559
 4713SOL     OW15037   6.319   4.170   1.084
 4713SOL    HW115038   6.319   4.128   1.174
 4713SOL    HW215039   6.347   4.103   1.015
 4714SOL     OW15040   4.805   1.596   6.575
 4714SOL    HW115041   4.861   1.541   6.638
 4714SOL    HW215042   4.721   1.624   6.622
 4715SOL     OW15043   6.279   1.269   2.163
 4715SOL    HW115044   6.271   1.172   2.186
 4715SOL    HW215045   6.189   1.312   2.170
 4716SOL     OW15046   3.782   5.110   6.090
 4716SOL    HW115047   3.736   5.081   6.006
 4716SOL    HW215048   3.732   5.074   6.169
 4717SOL     OW15049   2.763   4.941   5.519
 4717SOL    HW115050   2.788   4.998   5.440
 4717SOL    HW215051   2.769   4.845   5.493
 4718SOL     OW15052   4.809   4.636   1.106
 4718SOL    HW115053   4.850   4.724   1.130
 4718SOL    HW215054   4.788   4.635   1.008
 4719SOL     OW15055   0.340   4.070   3.709
 4719SOL    HW115056   0.411   4.024   3.762
 4719SOL    HW215057   0.374   4.089   3.617
 4720SOL     OW15058   2.269   3.526   6.761
 4720SOL    HW115059   2.218   3.551   6.679
 4720SOL    HW215060   2.205   3.509   6.836
 4721SOL     OW15061   6.785   2.745   2.869
 4721SOL    HW115062   6.798   2.726   2.772
 4721SOL    HW215063   6.690   2.775   2.885
 4722SOL     OW15064   1.212   5.545   0.166
 4722SOL    HW115065   1.246   5.576   0.255
 4722SOL    HW215066   1.180   5.451   0.174
 4723SOL     OW15067   3.821   4.055   0.226
 4723SOL    HW115068   3.760   4.061   0.306
 4723SOL    HW215069   3.768   4.025   0.146
 4724SOL     OW15070   0.602   6.661   4.564
 4724SOL    HW115071   0.527   6.655   4.630
 4724SOL    HW215072   0.685   6.693   4.611
 4725SOL     OW15073   5.410   5.681   1.016
 4725SOL    HW115074   5.409   5.759   0.953
 4725SOL    HW215075   5.395   5.597   0.965
 4726SOL     OW15076   0.951   3.380   5.681
 4726SOL    HW115077   1.036   3.339   5.714
 4726SOL    HW215078   0.910   3.434   5.754
 4727SOL     OW15079   0.252   5.054   1.449
 4727SOL    HW115080   0.335   5.064   1.394
 4727SOL    HW215081   0.257   5.116   1.528
 4728SOL     OW15082   6.706   1.784   4.853
 4728SOL    HW115083   6.699   1.768   4.755
 4728SOL    HW215084   6.701   1.697   4.902
 4729SOL     OW15085   5.709   1.415   2.027
 4729SOL    HW115086   5.629   1.412   2.087
 4729SOL    HW215087   5.751   1.506   2.033
 4730SOL     OW15088   3.141   6.792   4.585
 4730SOL    HW115089   3.187   6.818   4.501
 4730SOL    HW215090   3.084   6.868   4.618
 4731SOL     OW15091   3.135   6.414   0.452
 4731SOL    HW115092   3.136   6.315   0.466
 4731SOL    HW215093   3.195   6.438   0.375
 4732SOL     OW15094   0.585   5.066   4.545
 4732SOL    HW115095   0.644   5.130   4.495
 4732SOL    HW215096   0.629   5.041   4.631
 4733SOL     OW15097   1.950   3.664   3.217
 4733SOL    HW115098   1.924   3.600   3.290
 4733SOL    HW215099   1.894   3.648   3.136
 4734SOL     OW15100   4.646   3.513   6.712
 4734SOL    HW115101   4.736   3.472   6.725
 4734SOL    HW215102   4.656   3.609   6.687
 4735SOL     OW15103   0.163   0.270   5.007
 4735SOL    HW115104   0.156   0.171   5.020
 4735SOL    HW215105   0.082   0.303   4.957
 4736SOL     OW15106   6.495   1.944   3.658
 4736SOL    HW115107   6.418   1.963   3.718
 4736SOL    HW215108   6.523   2.027   3.610
 4737SOL     OW15109   2.247   4.925   0.107
 4737SOL    HW115110   2.206   4.874   0.032
 4737SOL    HW215111   2.175   4.955   0.170
 4738SOL     OW15112   1.125   6.700   3.364
 4738SOL    HW115113   1.030   6.673   3.347
 4738SOL    HW215114   1.128   6.796   3.393
 4739SOL     OW15115   6.157   3.009   3.256
 4739SOL    HW115116   6.191   3.103   3.248
 4739SOL    HW215117   6.057   3.011   3.263
 4740SOL     OW15118   1.050   0.743   1.526
 4740SOL    HW115119   0.964   0.785   1.496
 4740SOL    HW215120   1.030   0.660   1.578
 4741SOL     OW15121   4.572   4.431   1.683
 4741SOL    HW115122   4.542   4.354   1.740
 4741SOL    HW215123   4.670   4.445   1.697
 4742SOL     OW15124   2.366   6.013   2.166
 4742SOL    HW115125   2.420   6.081   2.117
 4742SOL    HW215126   2.389   6.015   2.263
 4743SOL     OW15127   2.559   2.498   0.512
 4743SOL    HW115128   2.608   2.585   0.517
 4743SOL    HW215129   2.512   2.481   0.599
 4744SOL     OW15130   1.821   3.149   4.843
 4744SOL    HW115131   1.793   3.227   4.898
 4744SOL    HW215132   1.847   3.073   4.903
 4745SOL     OW15133   3.006   5.862   5.088
 4745SOL    HW115134   3.047   5.771   5.094
 4745SOL    HW215135   3.015   5.896   4.994
 4746SOL     OW15136   6.091   0.348   0.476
 4746SOL    HW115137   6.013   0.409   0.493
 4746SOL    HW215138   6.111   0.295   0.558
 4747SOL     OW15139   6.524   2.408   1.737
 4747SOL    HW115140   6.537   2.381   1.832
 4747SOL    HW215141   6.477   2.496   1.732
 4748SOL     OW15142   1.667   0.886   1.518
 4748SOL    HW115143   1.740   0.904   1.453
 4748SOL    HW215144   1.700   0.904   1.611
 4749SOL     OW15145   1.674   0.101   6.396
 4749SOL    HW115146   1.697   0.015   6.350
 4749SOL    HW215147   1.749   0.128   6.457
 4750SOL     OW15148   0.202   1.473   4.598
 4750SOL    HW115149   0.172   1.517   4.682
 4750SOL    HW215150   0.279   1.524   4.559
 4751SOL     OW15151   1.113   3.525   6.492
 4751SOL    HW115152   1.075   3.608   6.450
 4751SOL    HW215153   1.196   3.549   6.543
 4752SOL     OW15154   2.923   6.139   1.485
 4752SOL    HW115155   2.850   6.146   1.554
 4752SOL    HW215156   2.928   6.224   1.433
 4753SOL     OW15157   0.067   6.958   4.715
 4753SOL    HW115158   0.151   6.905   4.728
 4753SOL    HW215159   0.088   0.018   4.663
 4754SOL     OW15160   0.840   0.037   5.206
 4754SOL    HW115161   0.894   0.120   5.193
 4754SOL    HW215162   0.743   0.058   5.191
 4755SOL     OW15163   2.535   1.762   0.870
 4755SOL    HW115164   2.492   1.722   0.789
 4755SOL    HW215165   2.631   1.781   0.850
 4756SOL     OW15166   5.449   2.910   1.087
 4756SOL    HW115167   5.499   2.953   1.012
 4756SOL    HW215168   5.504   2.917   1.171
 4757SOL     OW15169   1.819   2.006   1.534
 4757SOL    HW115170   1.739   1.996   1.594
 4757SOL    HW215171   1.868   2.090   1.558
 4758SOL     OW15172   5.080   4.190   5.041
 4758SOL    HW115173   4.993   4.147   5.017
 4758SOL    HW215174   5.132   4.209   4.958
 4759SOL     OW15175   6.159   4.903   5.450
 4759SOL    HW115176   6.072   4.855   5.460
 4759SOL    HW215177   6.213   4.859   5.378
 4760SOL     OW15178   1.497   2.336   0.711
 4760SOL    HW115179   1.442   2.314   0.630
 4760SOL    HW215180   1.550   2.255   0.738
 4761SOL     OW15181   1.261   6.031   5.617
 4761SOL    HW115182   1.238   5.951   5.561
 4761SOL    HW215183   1.249   6.008   5.713
 4762SOL     OW15184   2.989   6.657   2.349
 4762SOL    HW115185   3.003   6.756   2.350
 4762SOL    HW215186   3.032   6.617   2.429
 4763SOL     OW15187   5.918   5.222   4.550
 4763SOL    HW115188   5.843   5.240   4.486
 4763SOL    HW215189   5.933   5.301   4.608
 4764SOL     OW15190   4.036   3.240   4.948
 4764SOL    HW115191   4.038   3.186   4.863
 4764SOL    HW215192   4.100   3.316   4.940
 4765SOL     OW15193   6.331   5.050   5.058
 4765SOL    HW115194   6.301   4.974   5.115
 4765SOL    HW215195   6.278   5.052   4.974
 4766SOL     OW15196   2.965   0.375   3.603
 4766SOL    HW115197   2.949   0.296   3.544
 4766SOL    HW215198   3.046   0.424   3.572
 4767SOL     OW15199   4.464   5.557   6.166
 4767SOL    HW115200   4.529   5.499   6.118
 4767SOL    HW215201   4.493   5.569   6.261
 4768SOL     OW15202   0.288   0.979   5.004
 4768SOL    HW115203   0.300   0.893   5.052
 4768SOL    HW215204   0.320   0.969   4.910
 4769SOL     OW15205   3.397   0.104   1.446
 4769SOL    HW115206   3.420   0.088   1.543
 4769SOL    HW215207   3.336   0.032   1.414
 4770SOL     OW15208   2.630   0.304   3.894
 4770SOL    HW115209   2.657   0.330   3.987
 4770SOL    HW215210   2.668   0.370   3.829
 4771SOL     OW15211   3.648   4.346   5.692
 4771SOL    HW115212   3.595   4.414   5.641
 4771SOL    HW215213   3.712   4.393   5.753
 4772SOL     OW15214   2.160   2.489   1.526
 4772SOL    HW115215   2.119   2.446   1.446
 4772SOL    HW215216   2.089   2.503   1.596
 4773SOL     OW15217   6.508   6.056   3.789
 4773SOL    HW115218   6.512   6.122   3.715
 4773SOL    HW215219   6.435   6.081   3.853
 4774SOL     OW15220   0.824   4.213   0.889
 4774SOL    HW115221   0.826   4.291   0.952
 4774SOL    HW215222   0.730   4.199   0.857
 4775SOL     OW15223   3.022   0.888   2.107
 4775SOL    HW115224   3.041   0.949   2.185
 4775SOL    HW215225   3.082   0.912   2.031
 4776SOL     OW15226   3.518   5.387   1.737
 4776SOL    HW115227   3.541   5.331   1.656
 4776SOL    HW215228   3.433   5.353   1.777
 4777SOL     OW15229   2.883   4.190   1.377
 4777SOL    HW115230   2.888   4.282   1.339
 4777SOL    HW215231   2.825   4.191   1.459
 4778SOL     OW15232   5.146   3.903   1.771
 4778SOL    HW115233   5.149   3.871   1.866
 4778SOL    HW215234   5.067   3.963   1.759
 4779SOL     OW15235   5.090   0.789   3.229
 4779SOL    HW115236   5.127   0.866   3.176
 4779SOL    HW215237   5.161   0.721   3.243
 4780SOL     OW15238   1.832   6.479   6.069
 4780SOL    HW115239   1.887   6.403   6.032
 4780SOL    HW215240   1.892   6.548   6.107
 4781SOL     OW15241   2.554   5.409   2.466
 4781SOL    HW115242   2.468   5.457   2.482
 4781SOL    HW215243   2.554   5.322   2.516
 4782SOL     OW15244   5.453   6.171   6.482
 4782SOL    HW115245   5.411   6.236   6.419
 4782SOL    HW215246   5.430   6.196   6.576
 4783SOL     OW15247   6.181   4.456   1.589
 4783SOL    HW115248   6.199   4.402   1.507
 4783SOL    HW215249   6.118   4.530   1.567
 4784SOL     OW15250   6.049   4.704   5.099
 4784SOL    HW115251   5.970   4.652   5.129
 4784SOL    HW215252   6.116   4.641   5.058
 4785SOL     OW15253   6.264   0.293   0.792
 4785SOL    HW115254   6.362   0.315   0.796
 4785SOL    HW215255   6.214   0.354   0.853
 4786SOL     OW15256   1.419   3.330   2.394
 4786SOL    HW115257   1.498   3.389   2.382
 4786SOL    HW215258   1.335   3.381   2.376
 4787SOL     OW15259   3.458   2.090   2.141
 4787SOL    HW115260   3.465   1.990   2.139
 4787SOL    HW215261   3.539   2.130   2.099
 4788SOL     OW15262   0.982   5.607   4.655
 4788SOL    HW115263   0.973   5.575   4.749
 4788SOL    HW215264   1.021   5.535   4.599
 4789SOL     OW15265   6.150   0.109   0.639
 4789SOL    HW115266   6.168   0.014   0.667
 4789SOL    HW215267   6.212   0.170   0.687
 4790SOL     OW15268   4.910   1.046   0.304
 4790SOL    HW115269   4.883   0.979   0.373
 4790SOL    HW215270   4.879   1.014   0.214
 4791SOL     OW15271   4.636   0.105   2.821
 4791SOL    HW115272   4.657   0.137   2.729
 4791SOL    HW215273   4.550   0.146   2.852
 4792SOL     OW15274   2.528   2.272   1.700
 4792SOL    HW115275   2.501   2.310   1.611
 4792SOL    HW215276   2.446   2.244   1.750
 4793SOL     OW15277   1.234   6.998   5.935
 4793SOL    HW115278   1.242   6.898   5.928
 4793SOL    HW215279   1.263   0.004   6.026
 4794SOL     OW15280   3.544   0.658   2.193
 4794SOL    HW115281   3.624   0.713   2.214
 4794SOL    HW215282   3.480   0.662   2.270
 4795SOL     OW15283   6.476   2.975   4.439
 4795SOL    HW115284   6.475   3.070   4.407
 4795SOL    HW215285   6.382   2.943   4.451
 4796SOL     OW15286   5.990   3.852   0.903
 4796SOL    HW115287   6.061   3.847   0.973
 4796SOL    HW215288   5.944   3.763   0.895
 4797SOL     OW15289   0.423   4.919   5.235
 4797SOL    HW115290   0.419   5.008   5.281
 4797SOL    HW215291   0.364   4.920   5.155
 4798SOL     OW15292   6.856   4.081   4.687
 4798SOL    HW115293   6.856   4.159   4.623
 4798SOL    HW215294   6.895   4.109   4.774
 4799SOL     OW15295   3.856   1.267   4.888
 4799SOL    HW115296   3.842   1.323   4.969
 4799SOL    HW215297   3.784   1.285   4.821
 4800SOL     OW15298   1.665   1.698   4.231
 4800SOL    HW115299   1.628   1.766   4.167
 4800SOL    HW215300   1.700   1.620   4.180
 4801SOL     OW15301   0.683   2.723   0.975
 4801SOL    HW115302   0.684   2.821   0.996
 4801SOL    HW215303   0.593   2.698   0.937
 4802SOL     OW15304   2.547   0.613   2.256
 4802SOL    HW115305   2.503   0.585   2.170
 4802SOL    HW215306   2.645   0.628   2.240
 4803SOL     OW15307   1.175   0.121   0.705
 4803SOL    HW115308   1.152   0.047   0.642
 4803SOL    HW215309   1.207   0.082   0.791
 4804SOL     OW15310   4.123   5.710   0.092
 4804SOL    HW115311   4.120   5.644   0.167
 4804SOL    HW215312   4.217   5.718   0.058
 4805SOL     OW15313   0.816   2.068   0.699
 4805SOL    HW115314   0.905   2.023   0.695
 4805SOL    HW215315   0.816   2.133   0.775
 4806SOL     OW15316   0.712   2.979   3.238
 4806SOL    HW115317   0.631   2.926   3.266
 4806SOL    HW215318   0.788   2.916   3.222
 4807SOL     OW15319   0.198   6.410   0.907
 4807SOL    HW115320   0.242   6.497   0.929
 4807SOL    HW215321   0.100   6.423   0.895
 4808SOL     OW15322   4.862   3.412   1.170
 4808SOL    HW115323   4.858   3.477   1.246
 4808SOL    HW215324   4.823   3.324   1.199
 4809SOL     OW15325   4.339   5.890   7.008
 4809SOL    HW115326   4.259   5.929   0.030
 4809SOL    HW215327   4.421   5.941   0.013
 4810SOL     OW15328   0.909   0.593   1.044
 4810SOL    HW115329   0.843   0.541   0.991
 4810SOL    HW215330   0.862   0.666   1.094
 4811SOL     OW15331   4.737   6.048   2.431
 4811SOL    HW115332   4.762   5.974   2.493
 4811SOL    HW215333   4.819   6.089   2.392
 4812SOL     OW15334   6.661   5.322   4.291
 4812SOL    HW115335   6.612   5.291   4.209
 4812SOL    HW215336   6.633   5.416   4.313
 4813SOL     OW15337   5.725   2.782   2.383
 4813SOL    HW115338   5.797   2.747   2.443
 4813SOL    HW215339   5.683   2.705   2.334
 4814SOL     OW15340   0.040   3.206   1.807
 4814SOL    HW115341   7.017   3.279   1.757
 4814SOL    HW215342   0.124   3.241   1.849
 4815SOL     OW15343   4.049   6.230   2.578
 4815SOL    HW115344   4.126   6.198   2.523
 4815SOL    HW215345   4.001   6.303   2.529
 4816SOL     OW15346   5.213   5.463   3.087
 4816SOL    HW115347   5.265   5.466   3.002
 4816SOL    HW215348   5.120   5.493   3.071
 4817SOL     OW15349   6.808   1.619   6.602
 4817SOL    HW115350   6.891   1.646   6.649
 4817SOL    HW215351   6.814   1.524   6.574
 4818SOL     OW15352   0.546   6.773   4.186
 4818SOL    HW115353   0.628   6.779   4.129
 4818SOL    HW215354   0.470   6.737   4.132
 4819SOL     OW15355   1.573   3.138   0.665
 4819SOL    HW115356   1.498   3.079   0.694
 4819SOL    HW215357   1.600   3.115   0.572
 4820SOL     OW15358   0.544   3.006   2.476
 4820SOL    HW115359   0.537   3.082   2.542
 4820SOL    HW215360   0.458   2.995   2.428
 4821SOL     OW15361   6.671   5.567   3.345
 4821SOL    HW115362   6.605   5.506   3.389
 4821SOL    HW215363   6.672   5.549   3.247
 4822SOL     OW15364   1.723   3.678   4.682
 4822SOL    HW115365   1.686   3.740   4.613
 4822SOL    HW215366   1.819   3.658   4.662
 4823SOL     OW15367   1.564   3.013   1.633
 4823SOL    HW115368   1.599   2.931   1.678
 4823SOL    HW215369   1.623   3.091   1.658
 4824SOL     OW15370   6.024   1.249   6.122
 4824SOL    HW115371   6.111   1.245   6.171
 4824SOL    HW215372   6.003   1.344   6.098
 4825SOL     OW15373   1.345   6.588   3.715
 4825SOL    HW115374   1.312   6.682   3.707
 4825SOL    HW215375   1.404   6.579   3.795
 4826SOL     OW15376   4.094   0.617   1.610
 4826SOL    HW115377   4.188   0.583   1.605
 4826SOL    HW215378   4.035   0.547   1.650
 4827SOL     OW15379   7.003   2.009   0.735
 4827SOL    HW115380   6.991   1.933   0.671
 4827SOL    HW215381   6.922   2.067   0.733
 4828SOL     OW15382   4.921   1.148   4.300
 4828SOL    HW115383   4.875   1.224   4.344
 4828SOL    HW215384   4.903   1.063   4.350
 4829SOL     OW15385   4.116   6.990   5.014
 4829SOL    HW115386   4.017   6.975   5.022
 4829SOL    HW215387   4.133   0.061   4.983
 4830SOL     OW15388   3.010   6.149   3.113
 4830SOL    HW115389   3.048   6.234   3.076
 4830SOL    HW215390   2.912   6.146   3.094
 4831SOL     OW15391   3.056   4.422   5.330
 4831SOL    HW115392   3.027   4.502   5.279
 4831SOL    HW215393   2.982   4.353   5.329
 4832SOL     OW15394   3.637   3.890   4.566
 4832SOL    HW115395   3.674   3.848   4.484
 4832SOL    HW215396   3.580   3.824   4.615
 4833SOL     OW15397   6.354   3.520   4.615
 4833SOL    HW115398   6.333   3.603   4.564
 4833SOL    HW215399   6.453   3.506   4.617
 4834SOL     OW15400   1.263   4.817   1.339
 4834SOL    HW115401   1.286   4.755   1.264
 4834SOL    HW215402   1.295   4.778   1.425
 4835SOL     OW15403   6.784   2.668   5.694
 4835SOL    HW115404   6.791   2.743   5.628
 4835SOL    HW215405   6.727   2.697   5.772
 4836SOL     OW15406   4.961   1.593   5.864
 4836SOL    HW115407   4.956   1.651   5.945
 4836SOL    HW215408   4.869   1.576   5.829
 4837SOL     OW15409   0.109   3.681   3.831
 4837SOL    HW115410   0.083   3.761   3.776
 4837SOL    HW215411   0.165   3.711   3.909
 4838SOL     OW15412   2.403   3.711   5.831
 4838SOL    HW115413   2.388   3.739   5.737
 4838SOL    HW215414   2.428   3.614   5.833
 4839SOL     OW15415   2.450   1.391   0.687
 4839SOL    HW115416   2.548   1.371   0.689
 4839SOL    HW215417   2.435   1.485   0.655
 4840SOL     OW15418   5.998   4.003   4.267
 4840SOL    HW115419   6.075   3.979   4.207
 4840SOL    HW215420   6.021   4.085   4.319
 4841SOL     OW15421   3.425   6.295   3.155
 4841SOL    HW115422   3.523   6.307   3.173
 4841SOL    HW215423   3.411   6.214   3.097
 4842SOL     OW15424   3.714   5.455   3.264
 4842SOL    HW115425   3.814   5.459   3.272
 4842SOL    HW215426   3.683   5.362   3.284
 4843SOL     OW15427   6.859   1.447   0.207
 4843SOL    HW115428   6.893   1.403   0.290
 4843SOL    HW215429   6.783   1.508   0.230
 4844SOL     OW15430   2.140   5.627   5.269
 4844SOL    HW115431   2.222   5.678   5.246
 4844SOL    HW215432   2.139   5.607   5.367
 4845SOL     OW15433   4.886   3.834   4.901
 4845SOL    HW115434   4.816   3.767   4.924
 4845SOL    HW215435   4.971   3.812   4.948
 4846SOL     OW15436   6.638   3.565   4.553
 4846SOL    HW115437   6.665   3.661   4.545
 4846SOL    HW215438   6.700   3.518   4.616
 4847SOL     OW15439   2.723   6.523   5.970
 4847SOL    HW115440   2.705   6.606   5.917
 4847SOL    HW215441   2.788   6.544   6.043
 4848SOL     OW15442   4.102   1.046   4.001
 4848SOL    HW115443   4.033   1.089   4.058
 4848SOL    HW215444   4.082   1.064   3.905
 4849SOL     OW15445   2.319   6.307   1.236
 4849SOL    HW115446   2.301   6.357   1.321
 4849SOL    HW215447   2.407   6.335   1.199
 4850SOL     OW15448   4.157   0.248   0.905
 4850SOL    HW115449   4.083   0.249   0.838
 4850SOL    HW215450   4.242   0.220   0.861
 4851SOL     OW15451   3.480   4.590   6.540
 4851SOL    HW115452   3.444   4.516   6.483
 4851SOL    HW215453   3.497   4.556   6.632
 4852SOL     OW15454   5.724   5.040   5.657
 4852SOL    HW115455   5.815   5.012   5.688
 4852SOL    HW215456   5.733   5.123   5.602
 4853SOL     OW15457   4.081   6.985   2.444
 4853SOL    HW115458   4.029   6.906   2.413
 4853SOL    HW215459   4.144   7.014   2.372
 4854SOL     OW15460   5.280   6.159   2.054
 4854SOL    HW115461   5.281   6.173   1.955
 4854SOL    HW215462   5.193   6.118   2.082
 4855SOL     OW15463   4.809   4.927   5.888
 4855SOL    HW115464   4.797   4.898   5.793
 4855SOL    HW215465   4.894   4.978   5.897
 4856SOL     OW15466   0.545   4.070   3.201
 4856SOL    HW115467   0.610   4.117   3.142
 4856SOL    HW215468   0.456   4.066   3.156
 4857SOL     OW15469   2.362   2.556   5.088
 4857SOL    HW115470   2.372   2.650   5.120
 4857SOL    HW215471   2.374   2.494   5.166
 4858SOL     OW15472   1.685   6.173   4.740
 4858SOL    HW115473   1.597   6.125   4.749
 4858SOL    HW215474   1.733   6.172   4.828
 4859SOL     OW15475   0.021   6.231   2.511
 4859SOL    HW115476   0.004   6.186   2.598
 4859SOL    HW215477   6.962   6.281   2.482
 4860SOL     OW15478   4.429   5.593   1.549
 4860SOL    HW115479   4.354   5.606   1.484
 4860SOL    HW215480   4.515   5.622   1.506
 4861SOL     OW15481   0.381   3.896   6.004
 4861SOL    HW115482   0.424   3.814   5.965
 4861SOL    HW215483   0.449   3.969   6.011
 4862SOL     OW15484   2.006   5.885   4.380
 4862SOL    HW115485   1.959   5.891   4.468
 4862SOL    HW215486   1.950   5.830   4.317
 4863SOL     OW15487   5.168   2.511   2.875
 4863SOL    HW115488   5.090   2.508   2.813
 4863SOL    HW215489   5.253   2.503   2.823
 4864SOL     OW15490   1.703   1.424   0.978
 4864SOL    HW115491   1.767   1.467   1.042
 4864SOL    HW215492   1.716   1.464   0.887
 4865SOL     OW15493   3.737   6.019   5.316
 4865SOL    HW115494   3.678   6.098   5.302
 4865SOL    HW215495   3.831   6.051   5.334
 4866SOL     OW15496   0.302   4.580   1.828
 4866SOL    HW115497   0.390   4.540   1.855
 4866SOL    HW215498   0.250   4.514   1.774
 4867SOL     OW15499   5.322   5.317   3.775
 4867SOL    HW115500   5.319   5.374   3.857
 4867SOL    HW215501   5.322   5.376   3.694
 4868SOL     OW15502   1.717   6.666   1.658
 4868SOL    HW115503   1.672   6.672   1.747
 4868SOL    HW215504   1.653   6.694   1.586
 4869SOL     OW15505   6.111   1.680   1.105
 4869SOL    HW115506   6.195   1.681   1.050
 4869SOL    HW215507   6.123   1.618   1.183
 4870SOL     OW15508   6.815   0.103   0.780
 4870SOL    HW115509   6.845   0.018   0.823
 4870SOL    HW215510   6.896   0.160   0.760
 4871SOL     OW15511   1.253   2.970   4.677
 4871SOL    HW115512   1.219   3.060   4.705
 4871SOL    HW215513   1.176   2.908   4.663
 4872SOL     OW15514   0.534   0.631   4.115
 4872SOL    HW115515   0.546   0.609   4.018
 4872SOL    HW215516   0.621   0.618   4.163
 4873SOL     OW15517   1.290   6.315   4.797
 4873SOL    HW115518   1.220   6.288   4.864
 4873SOL    HW215519   1.314   6.236   4.740
 4874SOL     OW15520   5.530   2.898   3.780
 4874SOL    HW115521   5.460   2.946   3.833
 4874SOL    HW215522   5.518   2.799   3.792
 4875SOL     OW15523   6.347   3.149   6.272
 4875SOL    HW115524   6.391   3.160   6.362
 4875SOL    HW215525   6.393   3.209   6.206
 4876SOL     OW15526   0.245   1.521   0.088
 4876SOL    HW115527   0.216   1.426   0.075
 4876SOL    HW215528   0.345   1.525   0.090
 4877SOL     OW15529   6.342   1.334   1.232
 4877SOL    HW115530   6.390   1.421   1.241
 4877SOL    HW215531   6.409   1.259   1.234
 4878SOL     OW15532   0.146   2.795   1.939
 4878SOL    HW115533   0.087   2.835   2.009
 4878SOL    HW215534   0.116   2.826   1.849
 4879SOL     OW15535   4.535   6.005   3.601
 4879SOL    HW115536   4.596   6.080   3.574
 4879SOL    HW215537   4.440   6.031   3.585
 4880SOL     OW15538   6.157   2.388   6.093
 4880SOL    HW115539   6.213   2.467   6.119
 4880SOL    HW215540   6.065   2.398   6.131
 4881SOL     OW15541   2.973   5.399   6.697
 4881SOL    HW115542   3.069   5.411   6.671
 4881SOL    HW215543   2.943   5.479   6.748
 4882SOL     OW15544   4.857   0.141   6.246
 4882SOL    HW115545   4.819   0.127   6.154
 4882SOL    HW215546   4.940   0.086   6.256
 4883SOL     OW15547   6.168   5.546   0.602
 4883SOL    HW115548   6.212   5.630   0.633
 4883SOL    HW215549   6.237   5.475   0.591
 4884SOL     OW15550   3.828   6.532   2.192
 4884SOL    HW115551   3.843   6.619   2.240
 4884SOL    HW215552   3.746   6.540   2.135
 4885SOL     OW15553   1.996   6.829   2.884
 4885SOL    HW115554   2.086   6.864   2.858
 4885SOL    HW215555   1.973   6.750   2.827
 4886SOL     OW15556   6.147   0.931   6.238
 4886SOL    HW115557   6.096   0.846   6.223
 4886SOL    HW215558   6.151   0.983   6.153
 4887SOL     OW15559   0.431   1.730   5.431
 4887SOL    HW115560   0.484   1.749   5.348
 4887SOL    HW215561   0.417   1.816   5.482
 4888SOL     OW15562   3.024   5.405   1.695
 4888SOL    HW115563   3.011   5.388   1.793
 4888SOL    HW215564   3.121   5.397   1.673
 4889SOL     OW15565   1.181   2.896   6.715
 4889SOL    HW115566   1.206   2.799   6.713
 4889SOL    HW215567   1.151   2.924   6.623
 4890SOL     OW15568   1.327   0.037   4.636
 4890SOL    HW115569   1.417   0.023   4.595
 4890SOL    HW215570   1.260   7.002   4.589
 4891SOL     OW15571   1.568   3.784   0.843
 4891SOL    HW115572   1.608   3.755   0.756
 4891SOL    HW215573   1.639   3.828   0.899
 4892SOL     OW15574   2.152   5.756   1.517
 4892SOL    HW115575   2.123   5.848   1.493
 4892SOL    HW215576   2.241   5.758   1.562
 4893SOL     OW15577   1.084   3.463   6.193
 4893SOL    HW115578   1.014   3.497   6.257
 4893SOL    HW215579   1.133   3.541   6.154
 4894SOL     OW15580   1.682   1.265   3.397
 4894SOL    HW115581   1.762   1.298   3.448
 4894SOL    HW215582   1.600   1.306   3.435
 4895SOL     OW15583   5.697   3.977   0.113
 4895SOL    HW115584   5.755   3.967   0.194
 4895SOL    HW215585   5.619   4.036   0.135
 4896SOL     OW15586   4.405   5.976   3.306
 4896SOL    HW115587   4.418   5.893   3.361
 4896SOL    HW215588   4.382   6.053   3.365
 4897SOL     OW15589   3.021   5.734   6.096
 4897SOL    HW115590   2.969   5.681   6.030
 4897SOL    HW215591   3.113   5.751   6.061
 4898SOL     OW15592   5.932   2.424   4.899
 4898SOL    HW115593   6.022   2.440   4.941
 4898SOL    HW215594   5.871   2.500   4.920
 4899SOL     OW15595   5.329   4.314   4.506
 4899SOL    HW115596   5.245   4.344   4.552
 4899SOL    HW215597   5.408   4.337   4.563
 4900SOL     OW15598   0.916   6.626   5.389
 4900SOL    HW115599   0.935   6.716   5.428
 4900SOL    HW215600   0.865   6.637   5.304
 4901SOL     OW15601   0.625   6.519   3.115
 4901SOL    HW115602   0.588   6.431   3.086
 4901SOL    HW215603   0.578   6.593   3.067
 4902SOL     OW15604   3.090   4.991   2.046
 4902SOL    HW115605   3.176   4.957   2.008
 4902SOL    HW215606   3.034   4.914   2.076
 4903SOL     OW15607   5.564   5.929   5.891
 4903SOL    HW115608   5.620   5.986   5.831
 4903SOL    HW215609   5.497   5.879   5.837
 4904SOL     OW15610   3.677   6.247   3.241
 4904SOL    HW115611   3.646   6.189   3.316
 4904SOL    HW215612   3.709   6.190   3.165
 4905SOL     OW15613   6.461   3.391   3.199
 4905SOL    HW115614   6.446   3.465   3.134
 4905SOL    HW215615   6.552   3.353   3.186
 4906SOL     OW15616   5.204   0.376   1.337
 4906SOL    HW115617   5.120   0.370   1.392
 4906SOL    HW215618   5.184   0.419   1.249
 4907SOL     OW15619   2.189   1.919   2.186
 4907SOL    HW115620   2.247   1.870   2.121
 4907SOL    HW215621   2.247   1.962   2.255
 4908SOL     OW15622   3.510   5.644   0.004
 4908SOL    HW115623   3.491   5.713   6.957
 4908SOL    HW215624   3.609   5.630   0.010
 4909SOL     OW15625   6.002   0.139   5.535
 4909SOL    HW115626   5.960   0.221   5.573
 4909SOL    HW215627   6.101   0.153   5.527
 4910SOL     OW15628   5.831   0.262   6.429
 4910SOL    HW115629   5.777   0.182   6.455
 4910SOL    HW215630   5.780   0.316   6.362
 4911SOL     OW15631   0.894   2.875   6.220
 4911SOL    HW115632   0.823   2.942   6.239
 4911SOL    HW215633   0.911   2.820   6.303
 4912SOL     OW15634   2.618   2.441   2.102
 4912SOL    HW115635   2.705   2.395   2.117
 4912SOL    HW215636   2.610   2.466   2.005
 4913SOL     OW15637   2.940   3.403   2.506
 4913SOL    HW115638   2.908   3.409   2.601
 4913SOL    HW215639   3.016   3.467   2.493
 4914SOL     OW15640   1.583   6.399   2.624
 4914SOL    HW115641   1.547   6.343   2.550
 4914SOL    HW215642   1.556   6.494   2.611
 4915SOL     OW15643   3.160   5.707   3.132
 4915SOL    HW115644   3.126   5.790   3.177
 4915SOL    HW215645   3.238   5.730   3.074
 4916SOL     OW15646   1.880   1.619   2.301
 4916SOL    HW115647   1.928   1.700   2.334
 4916SOL    HW215648   1.829   1.577   2.376
 4917SOL     OW15649   2.244   5.408   6.465
 4917SOL    HW115650   2.286   5.319   6.449
 4917SOL    HW215651   2.304   5.463   6.522
 4918SOL     OW15652   2.154   0.736   3.624
 4918SOL    HW115653   2.088   0.679   3.673
 4918SOL    HW215654   2.216   0.677   3.573
 4919SOL     OW15655   2.679   3.145   1.600
 4919SOL    HW115656   2.686   3.046   1.594
 4919SOL    HW215657   2.583   3.172   1.605
 4920SOL     OW15658   4.139   0.847   0.460
 4920SOL    HW115659   4.075   0.887   0.394
 4920SOL    HW215660   4.156   0.751   0.435
 4921SOL     OW15661   1.340   4.380   1.836
 4921SOL    HW115662   1.310   4.461   1.887
 4921SOL    HW215663   1.439   4.382   1.826
 4922SOL     OW15664   0.863   2.611   5.593
 4922SOL    HW115665   0.807   2.692   5.572
 4922SOL    HW215666   0.873   2.555   5.511
 4923SOL     OW15667   3.273   1.925   0.521
 4923SOL    HW115668   3.348   1.958   0.578
 4923SOL    HW215669   3.200   1.889   0.579
 4924SOL     OW15670   0.371   3.924   4.421
 4924SOL    HW115671   0.385   3.854   4.491
 4924SOL    HW215672   0.411   3.895   4.335
 4925SOL     OW15673   4.674   5.796   6.250
 4925SOL    HW115674   4.691   5.853   6.170
 4925SOL    HW215675   4.742   5.722   6.254
 4926SOL     OW15676   3.958   2.632   1.533
 4926SOL    HW115677   3.883   2.689   1.567
 4926SOL    HW215678   3.920   2.557   1.479
 4927SOL     OW15679   3.789   3.786   3.075
 4927SOL    HW115680   3.821   3.880   3.086
 4927SOL    HW215681   3.821   3.731   3.152
 4928SOL     OW15682   0.601   6.413   0.349
 4928SOL    HW115683   0.554   6.443   0.433
 4928SOL    HW215684   0.660   6.486   0.317
 4929SOL     OW15685   0.817   5.173   4.320
 4929SOL    HW115686   0.833   5.083   4.361
 4929SOL    HW215687   0.809   5.242   4.392
 4930SOL     OW15688   0.118   2.483   0.565
 4930SOL    HW115689   0.154   2.573   0.588
 4930SOL    HW215690   0.069   2.445   0.643
 4931SOL     OW15691   6.999   0.236   1.039
 4931SOL    HW115692   0.073   0.237   1.064
 4931SOL    HW215693   6.962   0.144   1.051
 4932SOL     OW15694   4.076   2.030   1.226
 4932SOL    HW115695   4.089   2.086   1.308
 4932SOL    HW215696   4.017   2.079   1.162
 4933SOL     OW15697   2.942   0.932   5.155
 4933SOL    HW115698   2.939   0.926   5.055
 4933SOL    HW215699   2.986   0.850   5.192
 4934SOL     OW15700   1.320   5.826   5.162
 4934SOL    HW115701   1.303   5.808   5.065
 4934SOL    HW215702   1.389   5.763   5.197
 4935SOL     OW15703   1.705   1.211   0.231
 4935SOL    HW115704   1.739   1.219   0.137
 4935SOL    HW215705   1.742   1.128   0.272
 4936SOL     OW15706   4.608   5.831   1.295
 4936SOL    HW115707   4.657   5.862   1.213
 4936SOL    HW215708   4.540   5.898   1.321
 4937SOL     OW15709   0.999   2.976   5.673
 4937SOL    HW115710   0.929   3.046   5.677
 4937SOL    HW215711   0.976   2.902   5.736
 4938SOL     OW15712   3.294   4.851   1.878
 4938SOL    HW115713   3.392   4.871   1.883
 4938SOL    HW215714   3.281   4.755   1.853
 4939SOL     OW15715   0.859   1.580   1.837
 4939SOL    HW115716   0.815   1.512   1.778
 4939SOL    HW215717   0.936   1.539   1.885
 4940SOL     OW15718   0.190   1.758   5.276
 4940SOL    HW115719   0.282   1.752   5.316
 4940SOL    HW215720   0.123   1.726   5.343
 4941SOL     OW15721   4.301   2.314   5.498
 4941SOL    HW115722   4.261   2.349   5.583
 4941SOL    HW215723   4.395   2.286   5.515
 4942SOL     OW15724   0.467   1.356   3.559
 4942SOL    HW115725   0.401   1.430   3.558
 4942SOL    HW215726   0.505   1.343   3.468
 4943SOL     OW15727   5.088   2.703   6.900
 4943SOL    HW115728   5.094   2.679   6.803
 4943SOL    HW215729   5.034   2.635   6.949
 4944SOL     OW15730   0.919   5.101   7.018
 4944SOL    HW115731   0.844   5.037   0.011
 4944SOL    HW215732   0.995   5.081   0.057
 4945SOL     OW15733   2.119   0.620   5.591
 4945SOL    HW115734   2.086   0.658   5.504
 4945SOL    HW215735   2.124   0.521   5.585
 4946SOL     OW15736   2.851   5.152   0.224
 4946SOL    HW115737   2.918   5.199   0.165
 4946SOL    HW215738   2.781   5.217   0.253
 4947SOL     OW15739   1.445   0.502   1.169
 4947SOL    HW115740   1.474   0.493   1.074
 4947SOL    HW215741   1.508   0.563   1.217
 4948SOL     OW15742   1.896   2.356   2.153
 4948SOL    HW115743   1.801   2.380   2.176
 4948SOL    HW215744   1.912   2.259   2.175
 4949SOL     OW15745   6.848   4.409   6.432
 4949SOL    HW115746   6.890   4.485   6.482
 4949SOL    HW215747   6.917   4.338   6.416
 4950SOL     OW15748   3.515   4.534   5.872
 4950SOL    HW115749   3.549   4.465   5.936
 4950SOL    HW215750   3.461   4.490   5.800
 4951SOL     OW15751   5.062   5.845   3.016
 4951SOL    HW115752   5.108   5.850   2.927
 4951SOL    HW215753   4.996   5.770   3.015
 4952SOL     OW15754   0.216   0.395   6.581
 4952SOL    HW115755   0.281   0.405   6.656
 4952SOL    HW215756   0.262   0.350   6.504
 4953SOL     OW15757   0.732   2.321   4.747
 4953SOL    HW115758   0.816   2.375   4.754
 4953SOL    HW215759   0.673   2.359   4.676
 4954SOL     OW15760   2.994   3.966   4.698
 4954SOL    HW115761   2.983   3.924   4.608
 4954SOL    HW215762   3.066   4.036   4.693
 4955SOL     OW15763   4.072   5.670   5.709
 4955SOL    HW115764   4.074   5.582   5.758
 4955SOL    HW215765   3.981   5.683   5.670
 4956SOL     OW15766   2.889   7.004   5.339
 4956SOL    HW115767   2.862   0.076   5.357
 4956SOL    HW215768   2.989   6.999   5.333
 4957SOL     OW15769   5.583   4.604   6.227
 4957SOL    HW115770   5.571   4.505   6.221
 4957SOL    HW215771   5.509   4.649   6.176
 4958SOL     OW15772   4.409   6.008   0.576
 4958SOL    HW115773   4.374   6.093   0.615
 4958SOL    HW215774   4.445   5.950   0.649
 4959SOL     OW15775   0.496   2.078   2.907
 4959SOL    HW115776   0.422   2.094   2.973
 4959SOL    HW215777   0.583   2.105   2.947
 4960SOL     OW15778   5.093   5.146   3.744
 4960SOL    HW115779   5.113   5.142   3.646
 4960SOL    HW215780   5.160   5.206   3.789
 4961SOL     OW15781   3.191   1.951   1.412
 4961SOL    HW115782   3.277   1.909   1.440
 4961SOL    HW215783   3.138   1.886   1.357
 4962SOL     OW15784   1.333   4.287   0.597
 4962SOL    HW115785   1.275   4.322   0.671
 4962SOL    HW215786   1.405   4.352   0.577
 4963SOL     OW15787   0.541   3.952   6.389
 4963SOL    HW115788   0.597   3.933   6.470
 4963SOL    HW215789   0.590   4.012   6.327
 4964SOL     OW15790   2.483   6.690   4.437
 4964SOL    HW115791   2.563   6.645   4.477
 4964SOL    HW215792   2.420   6.716   4.510
 4965SOL     OW15793   1.697   6.010   2.840
 4965SOL    HW115794   1.697   6.109   2.853
 4965SOL    HW215795   1.766   5.985   2.773
 4966SOL     OW15796   3.214   6.803   4.288
 4966SOL    HW115797   3.124   6.838   4.260
 4966SOL    HW215798   3.283   6.833   4.223
 4967SOL     OW15799   4.356   4.780   4.840
 4967SOL    HW115800   4.447   4.815   4.862
 4967SOL    HW215801   4.341   4.693   4.885
 4968SOL     OW15802   0.098   3.172   3.279
 4968SOL    HW115803   0.154   3.254   3.291
 4968SOL    HW215804   0.085   3.128   3.367
 4969SOL     OW15805   0.343   5.825   4.069
 4969SOL    HW115806   0.430   5.777   4.077
 4969SOL    HW215807   0.281   5.773   4.011
 4970SOL     OW15808   1.389   1.628   1.209
 4970SOL    HW115809   1.442   1.544   1.214
 4970SOL    HW215810   1.396   1.666   1.117
 4971SOL     OW15811   6.860   5.707   2.392
 4971SOL    HW115812   6.938   5.753   2.435
 4971SOL    HW215813   6.775   5.737   2.436
 4972SOL     OW15814   0.286   4.519   0.674
 4972SOL    HW115815   0.209   4.541   0.735
 4972SOL    HW215816   0.371   4.552   0.715
 4973SOL     OW15817   6.402   0.990   0.874
 4973SOL    HW115818   6.372   1.056   0.943
 4973SOL    HW215819   6.373   0.898   0.901
 4974SOL     OW15820   3.755   6.492   5.214
 4974SOL    HW115821   3.775   6.400   5.180
 4974SOL    HW215822   3.660   6.516   5.192
 4975SOL     OW15823   5.109   4.917   1.165
 4975SOL    HW115824   5.188   4.970   1.134
 4975SOL    HW215825   5.121   4.821   1.140
 4976SOL     OW15826   2.086   6.777   3.305
 4976SOL    HW115827   2.167   6.759   3.249
 4976SOL    HW215828   2.017   6.824   3.250
 4977SOL     OW15829   1.460   4.295   5.724
 4977SOL    HW115830   1.518   4.325   5.648
 4977SOL    HW215831   1.504   4.218   5.772
 4978SOL     OW15832   5.554   4.606   4.791
 4978SOL    HW115833   5.562   4.659   4.875
 4978SOL    HW215834   5.535   4.666   4.714
 4979SOL     OW15835   2.231   6.841   5.996
 4979SOL    HW115836   2.210   6.850   5.898
 4979SOL    HW215837   2.243   6.745   6.019
 4980SOL     OW15838   5.315   3.211   3.861
 4980SOL    HW115839   5.313   3.254   3.771
 4980SOL    HW215840   5.277   3.119   3.856
 4981SOL     OW15841   3.040   4.798   2.424
 4981SOL    HW115842   3.033   4.891   2.459
 4981SOL    HW215843   3.125   4.788   2.372
 4982SOL     OW15844   3.854   1.931   5.713
 4982SOL    HW115845   3.863   1.952   5.811
 4982SOL    HW215846   3.790   1.855   5.701
 4983SOL     OW15847   5.731   5.547   2.967
 4983SOL    HW115848   5.755   5.628   3.021
 4983SOL    HW215849   5.801   5.477   2.981
 4984SOL     OW15850   4.938   3.746   3.212
 4984SOL    HW115851   4.921   3.803   3.131
 4984SOL    HW215852   5.000   3.794   3.274
 4985SOL     OW15853   5.494   0.280   2.499
 4985SOL    HW115854   5.514   0.341   2.576
 4985SOL    HW215855   5.579   0.241   2.463
 4986SOL     OW15856   1.051   4.905   1.548
 4986SOL    HW115857   1.122   4.836   1.538
 4986SOL    HW215858   1.048   4.937   1.643
 4987SOL     OW15859   0.449   1.146   2.539
 4987SOL    HW115860   0.474   1.050   2.535
 4987SOL    HW215861   0.481   1.185   2.626
 4988SOL     OW15862   6.653   5.884   3.629
 4988SOL    HW115863   6.645   5.787   3.652
 4988SOL    HW215864   6.577   5.935   3.670
 4989SOL     OW15865   4.520   0.491   3.440
 4989SOL    HW115866   4.435   0.512   3.391
 4989SOL    HW215867   4.589   0.460   3.375
 4990SOL     OW15868   4.485   2.464   4.888
 4990SOL    HW115869   4.463   2.485   4.792
 4990SOL    HW215870   4.400   2.448   4.938
 4991SOL     OW15871   1.399   4.502   5.907
 4991SOL    HW115872   1.414   4.419   5.853
 4991SOL    HW215873   1.487   4.543   5.931
 4992SOL     OW15874   0.889   3.545   3.794
 4992SOL    HW115875   0.834   3.480   3.846
 4992SOL    HW215876   0.901   3.630   3.846
 4993SOL     OW15877   3.308   6.207   3.874
 4993SOL    HW115878   3.316   6.198   3.774
 4993SOL    HW215879   3.259   6.128   3.911
 4994SOL     OW15880   3.390   4.653   5.281
 4994SOL    HW115881   3.293   4.678   5.279
 4994SOL    HW215882   3.442   4.715   5.221
 4995SOL     OW15883   0.153   0.656   5.935
 4995SOL    HW115884   0.093   0.582   5.967
 4995SOL    HW215885   0.222   0.675   6.006
 4996SOL     OW15886   6.809   1.537   4.127
 4996SOL    HW115887   6.860   1.468   4.076
 4996SOL    HW215888   6.732   1.495   4.174
 4997SOL     OW15889   4.273   1.701   1.428
 4997SOL    HW115890   4.370   1.688   1.452
 4997SOL    HW215891   4.264   1.707   1.329
 4998SOL     OW15892   0.843   3.615   3.523
 4998SOL    HW115893   0.862   3.601   3.621
 4998SOL    HW215894   0.853   3.712   3.501
 4999SOL     OW15895   0.506   3.146   4.395
 4999SOL    HW115896   0.516   3.050   4.422
 4999SOL    HW215897   0.509   3.153   4.295
 5000SOL     OW15898   3.420   5.771   3.055
 5000SOL    HW115899   3.454   5.679   3.072
 5000SOL    HW215900   3.438   5.796   2.959
 5001SOL     OW15901   0.612   5.951   3.219
 5001SOL    HW115902   0.654   5.908   3.139
 5001SOL    HW215903   0.668   5.932   3.300
 5002SOL     OW15904   1.330   3.841   3.918
 5002SOL    HW115905   1.296   3.897   3.993
 5002SOL    HW215906   1.340   3.746   3.949
 5003SOL     OW15907   4.201   0.579   3.667
 5003SOL    HW115908   4.196   0.660   3.609
 5003SOL    HW215909   4.228   0.606   3.759
 5004SOL     OW15910   3.242   5.333   6.977
 5004SOL    HW115911   3.338   5.343   7.004
 5004SOL    HW215912   3.197   5.267   0.013
 5005SOL     OW15913   3.218   2.600   0.046
 5005SOL    HW115914   3.164   2.522   0.076
 5005SOL    HW215915   3.157   2.673   0.015
 5006SOL     OW15916   4.749   1.794   1.784
 5006SOL    HW115917   4.709   1.707   1.813
 5006SOL    HW215918   4.785   1.842   1.863
 5007SOL     OW15919   5.907   6.371   2.094
 5007SOL    HW115920   5.886   6.391   1.999
 5007SOL    HW215921   5.919   6.272   2.106
 5008SOL     OW15922   5.101   6.586   2.421
 5008SOL    HW115923   5.123   6.527   2.499
 5008SOL    HW215924   5.144   6.675   2.433
 5009SOL     OW15925   6.434   2.197   0.756
 5009SOL    HW115926   6.466   2.111   0.794
 5009SOL    HW215927   6.507   2.265   0.759
 5010SOL     OW15928   3.436   3.622   1.419
 5010SOL    HW115929   3.338   3.632   1.437
 5010SOL    HW215930   3.463   3.686   1.347
 5011SOL     OW15931   2.245   3.069   6.937
 5011SOL    HW115932   2.179   3.100   7.006
 5011SOL    HW215933   2.324   3.029   6.982
 5012SOL     OW15934   6.064   1.770   5.938
 5012SOL    HW115935   6.027   1.863   5.941
 5012SOL    HW215936   6.163   1.774   5.929
 5013SOL     OW15937   5.834   6.932   5.509
 5013SOL    HW115938   5.886   7.015   5.488
 5013SOL    HW215939   5.804   6.934   5.604
 5014SOL     OW15940   6.183   3.147   1.624
 5014SOL    HW115941   6.218   3.103   1.707
 5014SOL    HW215942   6.259   3.164   1.561
 5015SOL     OW15943   5.582   6.841   3.701
 5015SOL    HW115944   5.494   6.878   3.671
 5015SOL    HW215945   5.566   6.760   3.759
 5016SOL     OW15946   2.073   3.468   5.799
 5016SOL    HW115947   2.082   3.533   5.874
 5016SOL    HW215948   2.021   3.388   5.829
 5017SOL     OW15949   0.510   3.512   2.112
 5017SOL    HW115950   0.464   3.423   2.113
 5017SOL    HW215951   0.500   3.553   2.021
 5018SOL     OW15952   1.220   0.340   0.539
 5018SOL    HW115953   1.198   0.251   0.581
 5018SOL    HW215954   1.187   0.413   0.598
 5019SOL     OW15955   1.738   5.457   5.141
 5019SOL    HW115956   1.740   5.396   5.220
 5019SOL    HW215957   1.831   5.489   5.122
 5020SOL     OW15958   2.402   0.065   4.282
 5020SOL    HW115959   2.453   0.090   4.364
 5020SOL    HW215960   2.415   6.990   4.263
 5021SOL     OW15961   1.916   1.116   0.498
 5021SOL    HW115962   1.951   1.143   0.588
 5021SOL    HW215963   1.933   1.019   0.484
 5022SOL     OW15964   6.756   3.118   1.494
 5022SOL    HW115965   6.841   3.066   1.493
 5022SOL    HW215966   6.700   3.089   1.572
 5023SOL     OW15967   0.045   4.161   2.518
 5023SOL    HW115968   0.093   4.245   2.541
 5023SOL    HW215969   0.055   4.095   2.592
 5024SOL     OW15970   4.621   3.762   1.707
 5024SOL    HW115971   4.630   3.663   1.704
 5024SOL    HW215972   4.605   3.797   1.614
 5025SOL     OW15973   4.151   1.344   3.945
 5025SOL    HW115974   4.164   1.254   3.986
 5025SOL    HW215975   4.214   1.355   3.868
 5026SOL     OW15976   4.412   6.950   4.823
 5026SOL    HW115977   4.401   7.002   4.739
 5026SOL    HW215978   4.323   6.939   4.868
 5027SOL     OW15979   5.229   6.992   0.014
 5027SOL    HW115980   5.245   0.059   0.054
 5027SOL    HW215981   5.144   6.994   6.984
 5028SOL     OW15982   6.473   1.916   2.442
 5028SOL    HW115983   6.527   1.997   2.422
 5028SOL    HW215984   6.486   1.889   2.538
 5029SOL     OW15985   6.073   1.950   2.948
 5029SOL    HW115986   5.983   1.925   2.911
 5029SOL    HW215987   6.136   1.968   2.872
 5030SOL     OW15988   0.134   4.526   6.534
 5030SOL    HW115989   0.129   4.569   6.624
 5030SOL    HW215990   0.177   4.436   6.541
 5031SOL     OW15991   6.779   6.770   6.206
 5031SOL    HW115992   6.851   6.701   6.203
 5031SOL    HW215993   6.742   6.775   6.299
 5032SOL     OW15994   2.581   3.441   5.330
 5032SOL    HW115995   2.671   3.479   5.310
 5032SOL    HW215996   2.590   3.344   5.353
 5033SOL     OW15997   2.080   0.571   0.050
 5033SOL    HW115998   2.072   0.670   0.065
 5033SOL    HW215999   2.130   0.530   0.125
 5034SOL     OW16000   4.415   6.561   4.588
 5034SOL    HW116001   4.334   6.613   4.618
 5034SOL    HW216002   4.386   6.473   4.552
 5035SOL     OW16003   1.600   3.642   3.849
 5035SOL    HW116004   1.519   3.615   3.901
 5035SOL    HW216005   1.583   3.728   3.802
 5036SOL     OW16006   6.760   2.370   5.360
 5036SOL    HW116007   6.714   2.297   5.412
 5036SOL    HW216008   6.704   2.453   5.364
 5037SOL     OW16009   4.567   4.257   1.210
 5037SOL    HW116010   4.644   4.196   1.193
 5037SOL    HW216011   4.599   4.341   1.254
 5038SOL     OW16012   3.768   3.699   4.069
 5038SOL    HW116013   3.819   3.619   4.038
 5038SOL    HW216014   3.763   3.765   3.994
 5039SOL     OW16015   1.132   3.292   6.881
 5039SOL    HW116016   1.104   3.275   6.786
 5039SOL    HW216017   1.134   3.206   6.931
 5040SOL     OW16018   0.257   0.283   5.938
 5040SOL    HW116019   0.224   0.190   5.958
 5040SOL    HW216020   0.185   0.349   5.958
 5041SOL     OW16021   6.682   3.534   2.112
 5041SOL    HW116022   6.616   3.606   2.133
 5041SOL    HW216023   6.638   3.466   2.052
 5042SOL     OW16024   0.509   2.531   6.193
 5042SOL    HW116025   0.518   2.594   6.270
 5042SOL    HW216026   0.536   2.577   6.108
 5043SOL     OW16027   4.248   6.579   0.884
 5043SOL    HW116028   4.149   6.567   0.888
 5043SOL    HW216029   4.282   6.548   0.795
 5044SOL     OW16030   5.948   4.908   0.824
 5044SOL    HW116031   5.987   4.999   0.812
 5044SOL    HW216032   5.910   4.876   0.737
 5045SOL     OW16033   6.291   3.627   6.389
 5045SOL    HW116034   6.219   3.654   6.326
 5045SOL    HW216035   6.380   3.634   6.343
 5046SOL     OW16036   3.660   3.359   3.160
 5046SOL    HW116037   3.755   3.346   3.132
 5046SOL    HW216038   3.599   3.329   3.087
 5047SOL     OW16039   0.925   3.940   3.265
 5047SOL    HW116040   0.921   3.990   3.179
 5047SOL    HW216041   0.843   3.883   3.274
 5048SOL     OW16042   1.772   1.404   5.733
 5048SOL    HW116043   1.735   1.481   5.785
 5048SOL    HW216044   1.810   1.437   5.646
 5049SOL     OW16045   4.992   1.122   6.397
 5049SOL    HW116046   5.091   1.137   6.395
 5049SOL    HW216047   4.946   1.209   6.416
 5050SOL     OW16048   1.719   0.346   0.992
 5050SOL    HW116049   1.793   0.281   0.978
 5050SOL    HW216050   1.712   0.406   0.912
 5051SOL     OW16051   4.059   5.092   1.279
 5051SOL    HW116052   4.152   5.066   1.253
 5051SOL    HW216053   3.993   5.040   1.225
 5052SOL     OW16054   2.657   1.038   5.647
 5052SOL    HW116055   2.753   1.050   5.669
 5052SOL    HW216056   2.641   0.944   5.616
 5053SOL     OW16057   0.193   6.730   1.932
 5053SOL    HW116058   0.094   6.729   1.949
 5053SOL    HW216059   0.220   6.821   1.901
 5054SOL     OW16060   3.848   4.969   3.932
 5054SOL    HW116061   3.750   4.984   3.945
 5054SOL    HW216062   3.897   5.054   3.954
 5055SOL     OW16063   6.517   3.156   6.572
 5055SOL    HW116064   6.433   3.210   6.574
 5055SOL    HW216065   6.499   3.066   6.611
 5056SOL     OW16066   5.215   4.305   4.807
 5056SOL    HW116067   5.145   4.281   4.739
 5056SOL    HW216068   5.187   4.389   4.854
 5057SOL     OW16069   1.060   6.080   2.511
 5057SOL    HW116070   0.975   6.046   2.471
 5057SOL    HW216071   1.040   6.127   2.597
 5058SOL     OW16072   3.077   4.931   5.434
 5058SOL    HW116073   3.114   4.991   5.363
 5058SOL    HW216074   3.100   4.968   5.524
 5059SOL     OW16075   0.690   0.304   1.866
 5059SOL    HW116076   0.736   0.233   1.919
 5059SOL    HW216077   0.644   0.368   1.928
 5060SOL     OW16078   6.291   1.803   5.588
 5060SOL    HW116079   6.379   1.776   5.548
 5060SOL    HW216080   6.218   1.783   5.522
 5061SOL     OW16081   5.463   4.145   0.126
 5061SOL    HW116082   5.375   4.149   0.079
 5061SOL    HW216083   5.451   4.168   0.222
 5062SOL     OW16084   0.578   0.359   1.156
 5062SOL    HW116085   0.538   0.433   1.210
 5062SOL    HW216086   0.634   0.301   1.215
 5063SOL     OW16087   1.299   6.394   1.595
 5063SOL    HW116088   1.296   6.490   1.624
 5063SOL    HW216089   1.246   6.383   1.511
 5064SOL     OW16090   4.952   3.166   6.854
 5064SOL    HW116091   5.046   3.143   6.827
 5064SOL    HW216092   4.920   3.243   6.798
 5065SOL     OW16093   2.090   6.235   5.655
 5065SOL    HW116094   2.069   6.332   5.648
 5065SOL    HW216095   2.175   6.215   5.606
 5066SOL     OW16096   4.919   4.941   1.365
 5066SOL    HW116097   4.986   4.947   1.291
 5066SOL    HW216098   4.956   4.881   1.437
 5067SOL     OW16099   4.694   0.909   0.517
 5067SOL    HW116100   4.729   0.934   0.607
 5067SOL    HW216101   4.638   0.983   0.480
 5068SOL     OW16102   2.979   4.746   1.359
 5068SOL    HW116103   2.967   4.786   1.450
 5068SOL    HW216104   3.065   4.779   1.320
 5069SOL     OW16105   0.961   4.978   3.467
 5069SOL    HW116106   0.961   4.888   3.424
 5069SOL    HW216107   1.011   4.973   3.554
 5070SOL     OW16108   5.182   2.991   4.130
 5070SOL    HW116109   5.233   3.061   4.180
 5070SOL    HW216110   5.089   3.023   4.114
 5071SOL     OW16111   4.390   1.037   6.758
 5071SOL    HW116112   4.451   0.974   6.806
 5071SOL    HW216113   4.360   1.109   6.821
 5072SOL     OW16114   1.553   4.328   1.379
 5072SOL    HW116115   1.503   4.398   1.430
 5072SOL    HW216116   1.551   4.242   1.429
 5073SOL     OW16117   3.950   1.679   3.714
 5073SOL    HW116118   3.887   1.603   3.697
 5073SOL    HW216119   3.921   1.729   3.796
 5074SOL     OW16120   3.239   4.237   5.934
 5074SOL    HW116121   3.168   4.228   6.004
 5074SOL    HW216122   3.196   4.254   5.845
 5075SOL     OW16123   0.097   5.580   4.581
 5075SOL    HW116124   0.175   5.521   4.599
 5075SOL    HW216125   0.043   5.543   4.505
 5076SOL     OW16126   3.572   0.046   1.257
 5076SOL    HW116127   3.507   7.010   1.209
 5076SOL    HW216128   3.534   0.072   1.345
 5077SOL     OW16129   0.351   2.122   2.320
 5077SOL    HW116130   0.396   2.061   2.255
 5077SOL    HW216131   0.264   2.154   2.282
 5078SOL     OW16132   1.329   1.226   3.713
 5078SOL    HW116133   1.287   1.270   3.792
 5078SOL    HW216134   1.281   1.140   3.693
 5079SOL     OW16135   3.895   5.154   5.218
 5079SOL    HW116136   3.922   5.245   5.185
 5079SOL    HW216137   3.859   5.100   5.141
 5080SOL     OW16138   5.851   6.513   5.479
 5080SOL    HW116139   5.909   6.573   5.424
 5080SOL    HW216140   5.907   6.465   5.546
 5081SOL     OW16141   3.250   3.535   3.326
 5081SOL    HW116142   3.158   3.538   3.363
 5081SOL    HW216143   3.273   3.440   3.300
 5082SOL     OW16144   6.075   5.902   4.819
 5082SOL    HW116145   6.172   5.923   4.826
 5082SOL    HW216146   6.031   5.919   4.907
 5083SOL     OW16147   1.682   5.524   1.781
 5083SOL    HW116148   1.731   5.568   1.706
 5083SOL    HW216149   1.743   5.514   1.860
 5084SOL     OW16150   1.886   6.248   3.783
 5084SOL    HW116151   1.941   6.176   3.824
 5084SOL    HW216152   1.813   6.274   3.846
 5085SOL     OW16153   6.308   2.907   6.188
 5085SOL    HW116154   6.299   2.919   6.089
 5085SOL    HW216155   6.345   2.990   6.228
 5086SOL     OW16156   6.743   5.261   3.638
 5086SOL    HW116157   6.786   5.328   3.577
 5086SOL    HW216158   6.647   5.285   3.652
 5087SOL     OW16159   0.358   5.670   5.694
 5087SOL    HW116160   0.377   5.733   5.770
 5087SOL    HW216161   0.260   5.655   5.686
 5088SOL     OW16162   5.541   0.190   6.792
 5088SOL    HW116163   5.446   0.180   6.761
 5088SOL    HW216164   5.552   0.147   6.881
 5089SOL     OW16165   5.322   3.352   3.614
 5089SOL    HW116166   5.421   3.354   3.602
 5089SOL    HW216167   5.278   3.400   3.538
 5090SOL     OW16168   1.704   4.907   1.192
 5090SOL    HW116169   1.771   4.877   1.260
 5090SOL    HW216170   1.693   4.836   1.123
 5091SOL     OW16171   1.797   5.391   2.721
 5091SOL    HW116172   1.828   5.301   2.752
 5091SOL    HW216173   1.807   5.457   2.795
 5092SOL     OW16174   3.518   2.505   1.708
 5092SOL    HW116175   3.571   2.589   1.713
 5092SOL    HW216176   3.567   2.432   1.757
 5093SOL     OW16177   0.387   2.154   1.370
 5093SOL    HW116178   0.463   2.210   1.337
 5093SOL    HW216179   0.300   2.193   1.340
 5094SOL     OW16180   6.934   0.114   6.410
 5094SOL    HW116181   6.972   0.093   6.500
 5094SOL    HW216182   6.837   0.137   6.418
 5095SOL     OW16183   2.696   6.778   5.406
 5095SOL    HW116184   2.674   6.857   5.462
 5095SOL    HW216185   2.713   6.807   5.312
 5096SOL     OW16186   3.926   4.892   1.797
 5096SOL    HW116187   4.000   4.924   1.738
 5096SOL    HW216188   3.846   4.870   1.742
 5097SOL     OW16189   0.925   0.347   6.415
 5097SOL    HW116190   0.855   0.290   6.373
 5097SOL    HW216191   0.965   0.407   6.345
 5098SOL     OW16192   0.279   2.271   2.562
 5098SOL    HW116193   0.327   2.296   2.478
 5098SOL    HW216194   0.280   2.349   2.625
 5099SOL     OW16195   0.680   0.113   4.206
 5099SOL    HW116196   0.710   0.165   4.125
 5099SOL    HW216197   0.600   0.158   4.246
 5100SOL     OW16198   5.206   6.802   6.008
 5100SOL    HW116199   5.251   6.819   5.921
 5100SOL    HW216200   5.269   6.822   6.083
 5101SOL     OW16201   4.554   5.820   0.442
 5101SOL    HW116202   4.480   5.884   0.465
 5101SOL    HW216203   4.522   5.757   0.371
 5102SOL     OW16204   3.492   6.604   5.086
 5102SOL    HW116205   3.500   6.662   5.167
 5102SOL    HW216206   3.420   6.536   5.101
 5103SOL     OW16207   0.925   0.633   4.582
 5103SOL    HW116208   0.874   0.581   4.513
 5103SOL    HW216209   1.023   0.626   4.562
 5104SOL     OW16210   1.396   6.837   1.118
 5104SOL    HW116211   1.417   6.771   1.189
 5104SOL    HW216212   1.473   6.900   1.106
 5105SOL     OW16213   2.607   3.210   6.449
 5105SOL    HW116214   2.522   3.260   6.433
 5105SOL    HW216215   2.673   3.231   6.377
 5106SOL     OW16216   2.851   0.387   2.193
 5106SOL    HW116217   2.844   0.486   2.186
 5106SOL    HW216218   2.947   0.360   2.198
 5107SOL     OW16219   1.658   6.822   5.605
 5107SOL    HW116220   1.612   6.898   5.559
 5107SOL    HW216221   1.613   6.804   5.692
 5108SOL     OW16222   2.979   3.594   3.630
 5108SOL    HW116223   2.955   3.523   3.697
 5108SOL    HW216224   2.979   3.554   3.538
 5109SOL     OW16225   0.087   1.067   1.210
 5109SOL    HW116226   0.182   1.093   1.189
 5109SOL    HW216227   0.025   1.124   1.156
 5110SOL     OW16228   2.311   5.951   5.473
 5110SOL    HW116229   2.272   5.985   5.388
 5110SOL    HW216230   2.238   5.934   5.539
 5111SOL     OW16231   1.721   0.920   0.295
 5111SOL    HW116232   1.795   0.859   0.322
 5111SOL    HW216233   1.642   0.906   0.355
 5112SOL     OW16234   0.276   6.575   3.572
 5112SOL    HW116235   0.177   6.577   3.557
 5112SOL    HW216236   0.305   6.663   3.610
 5113SOL     OW16237   1.167   6.878   6.684
 5113SOL    HW116238   1.128   6.969   6.699
 5113SOL    HW216239   1.147   6.820   6.763
 5114SOL     OW16240   4.074   5.006   0.204
 5114SOL    HW116241   4.160   5.056   0.215
 5114SOL    HW216242   4.079   4.948   0.123
 5115SOL     OW16243   2.112   3.753   5.463
 5115SOL    HW116244   2.201   3.741   5.508
 5115SOL    HW216245   2.122   3.818   5.387
 5116SOL     OW16246   0.374   3.670   1.281
 5116SOL    HW116247   0.468   3.701   1.295
 5116SOL    HW216248   0.310   3.740   1.312
 5117SOL     OW16249   2.424   4.475   4.298
 5117SOL    HW116250   2.375   4.407   4.242
 5117SOL    HW216251   2.492   4.521   4.241
 5118SOL     OW16252   4.536   6.609   1.305
 5118SOL    HW116253   4.443   6.573   1.309
 5118SOL    HW216254   4.562   6.627   1.210
 5119SOL     OW16255   6.077   0.247   2.517
 5119SOL    HW116256   6.130   0.331   2.530
 5119SOL    HW216257   6.106   0.203   2.432
 5120SOL     OW16258   4.515   1.034   2.623
 5120SOL    HW116259   4.607   1.075   2.623
 5120SOL    HW216260   4.455   1.089   2.565
 5121SOL     OW16261   0.582   3.774   5.293
 5121SOL    HW116262   0.563   3.803   5.386
 5121SOL    HW216263   0.519   3.700   5.268
 5122SOL     OW16264   1.607   6.360   3.653
 5122SOL    HW116265   1.626   6.457   3.671
 5122SOL    HW216266   1.623   6.340   3.556
 5123SOL     OW16267   5.655   4.515   2.317
 5123SOL    HW116268   5.747   4.548   2.336
 5123SOL    HW216269   5.602   4.586   2.272
 5124SOL     OW16270   2.851   6.096   6.838
 5124SOL    HW116271   2.756   6.067   6.824
 5124SOL    HW216272   2.912   6.023   6.806
 5125SOL     OW16273   6.885   2.465   5.870
 5125SOL    HW116274   6.984   2.474   5.870
 5125SOL    HW216275   6.844   2.543   5.823
 5126SOL     OW16276   4.782   3.561   6.399
 5126SOL    HW116277   4.845   3.584   6.325
 5126SOL    HW216278   4.721   3.488   6.368
 5127SOL     OW16279   5.628   2.902   6.585
 5127SOL    HW116280   5.636   2.928   6.681
 5127SOL    HW216281   5.713   2.924   6.537
 5128SOL     OW16282   0.588   0.071   6.951
 5128SOL    HW116283   0.592   0.009   6.872
 5128SOL    HW216284   0.626   0.025   0.008
 5129SOL     OW16285   4.106   2.102   2.234
 5129SOL    HW116286   4.041   2.097   2.158
 5129SOL    HW216287   4.195   2.133   2.199
 5130SOL     OW16288   0.874   6.626   4.704
 5130SOL    HW116289   0.948   6.690   4.726
 5130SOL    HW216290   0.859   6.565   4.782
 5131SOL     OW16291   3.634   4.926   3.438
 5131SOL    HW116292   3.661   4.861   3.367
 5131SOL    HW216293   3.693   4.915   3.518
 5132SOL     OW16294   3.427   1.183   6.740
 5132SOL    HW116295   3.374   1.103   6.714
 5132SOL    HW216296   3.413   1.256   6.673
 5133SOL     OW16297   4.593   4.438   6.655
 5133SOL    HW116298   4.610   4.348   6.616
 5133SOL    HW216299   4.630   4.442   6.748
 5134SOL     OW16300   6.121   5.910   0.585
 5134SOL    HW116301   6.067   5.889   0.667
 5134SOL    HW216302   6.170   5.996   0.598
 5135SOL     OW16303   6.880   2.950   2.640
 5135SOL    HW116304   6.862   2.859   2.601
 5135SOL    HW216305   6.820   2.965   2.718
 5136SOL     OW16306   1.435   1.335   6.043
 5136SOL    HW116307   1.442   1.317   5.945
 5136SOL    HW216308   1.476   1.424   6.063
 5137SOL     OW16309   5.838   0.996   4.024
 5137SOL    HW116310   5.744   0.991   3.992
 5137SOL    HW216311   5.853   1.084   4.070
 5138SOL     OW16312   3.107   3.040   3.566
 5138SOL    HW116313   3.095   3.023   3.663
 5138SOL    HW216314   3.161   2.966   3.525
 5139SOL     OW16315   2.663   0.639   5.823
 5139SOL    HW116316   2.656   0.661   5.726
 5139SOL    HW216317   2.630   0.716   5.878
 5140SOL     OW16318   3.425   3.401   6.406
 5140SOL    HW116319   3.389   3.308   6.406
 5140SOL    HW216320   3.365   3.460   6.352
 5141SOL     OW16321   6.833   2.723   1.397
 5141SOL    HW116322   6.847   2.693   1.302
 5141SOL    HW216323   6.800   2.646   1.452
 5142SOL     OW16324   0.349   0.065   2.385
 5142SOL    HW116325   0.436   0.111   2.404
 5142SOL    HW216326   0.305   0.041   2.471
 5143SOL     OW16327   6.919   6.608   2.340
 5143SOL    HW116328   6.988   6.545   2.304
 5143SOL    HW216329   6.868   6.563   2.414
 5144SOL     OW16330   2.147   2.931   5.511
 5144SOL    HW116331   2.185   2.994   5.443
 5144SOL    HW216332   2.162   2.968   5.603
 5145SOL     OW16333   2.320   5.545   6.252
 5145SOL    HW116334   2.393   5.604   6.287
 5145SOL    HW216335   2.278   5.494   6.327
 5146SOL     OW16336   5.626   5.641   6.790
 5146SOL    HW116337   5.708   5.680   6.832
 5146SOL    HW216338   5.649   5.601   6.702
 5147SOL     OW16339   4.428   2.361   3.130
 5147SOL    HW116340   4.483   2.286   3.096
 5147SOL    HW216341   4.338   2.359   3.085
 5148SOL     OW16342   0.155   0.607   6.388
 5148SOL    HW116343   0.228   0.615   6.320
 5148SOL    HW216344   0.169   0.524   6.442
 5149SOL     OW16345   4.657   4.891   4.422
 5149SOL    HW116346   4.700   4.863   4.508
 5149SOL    HW216347   4.645   4.990   4.423
 5150SOL     OW16348   6.472   6.768   3.680
 5150SOL    HW116349   6.522   6.684   3.704
 5150SOL    HW216350   6.404   6.747   3.610
 5151SOL     OW16351   5.999   6.121   2.131
 5151SOL    HW116352   5.966   6.056   2.199
 5151SOL    HW216353   6.097   6.108   2.117
 5152SOL     OW16354   1.900   1.436   0.056
 5152SOL    HW116355   1.940   1.385   0.133
 5152SOL    HW216356   1.871   1.372   7.008
 5153SOL     OW16357   1.080   2.197   1.161
 5153SOL    HW116358   1.102   2.265   1.231
 5153SOL    HW216359   1.005   2.232   1.104
 5154SOL     OW16360   6.876   2.903   1.071
 5154SOL    HW116361   6.822   2.988   1.069
 5154SOL    HW216362   6.973   2.926   1.070
 5155SOL     OW16363   1.597   1.351   6.903
 5155SOL    HW116364   1.530   1.355   6.977
 5155SOL    HW216365   1.666   1.281   6.924
 5156SOL     OW16366   5.869   6.089   5.075
 5156SOL    HW116367   5.898   6.128   4.988
 5156SOL    HW216368   5.853   5.991   5.065
 5157SOL     OW16369   3.739   0.120   1.483
 5157SOL    HW116370   3.738   0.218   1.467
 5157SOL    HW216371   3.765   0.073   1.399
 5158SOL     OW16372   1.520   2.277   1.811
 5158SOL    HW116373   1.619   2.294   1.808
 5158SOL    HW216374   1.487   2.287   1.904
 5159SOL     OW16375   5.968   3.415   5.806
 5159SOL    HW116376   6.018   3.402   5.721
 5159SOL    HW216377   5.898   3.344   5.815
 5160SOL     OW16378   6.303   6.946   3.414
 5160SOL    HW116379   6.295   6.847   3.425
 5160SOL    HW216380   6.400   6.971   3.408
 5161SOL     OW16381   1.985   3.148   0.624
 5161SOL    HW116382   1.988   3.112   0.717
 5161SOL    HW216383   2.002   3.074   0.559
 5162SOL     OW16384   6.430   0.050   3.985
 5162SOL    HW116385   6.336   0.042   3.952
 5162SOL    HW216386   6.493   0.031   3.910
 5163SOL     OW16387   3.207   0.340   2.364
 5163SOL    HW116388   3.197   0.406   2.289
 5163SOL    HW216389   3.230   0.250   2.327
 5164SOL     OW16390   2.889   3.529   7.016
 5164SOL    HW116391   2.845   3.466   0.056
 5164SOL    HW216392   2.843   3.618   7.020
 5165SOL     OW16393   2.103   4.203   6.309
 5165SOL    HW116394   2.081   4.196   6.211
 5165SOL    HW216395   2.201   4.191   6.321
 5166SOL     OW16396   0.510   4.606   0.799
 5166SOL    HW116397   0.500   4.537   0.872
 5166SOL    HW216398   0.532   4.694   0.839
 5167SOL     OW16399   5.604   3.508   5.452
 5167SOL    HW116400   5.560   3.573   5.390
 5167SOL    HW216401   5.538   3.478   5.521
 5168SOL     OW16402   4.217   2.329   2.589
 5168SOL    HW116403   4.226   2.234   2.558
 5168SOL    HW216404   4.181   2.330   2.682
 5169SOL     OW16405   4.403   5.411   4.807
 5169SOL    HW116406   4.327   5.401   4.742
 5169SOL    HW216407   4.385   5.358   4.889
 5170SOL     OW16408   1.885   3.295   6.625
 5170SOL    HW116409   1.895   3.205   6.668
 5170SOL    HW216410   1.879   3.366   6.695
 5171SOL     OW16411   2.450   5.953   6.148
 5171SOL    HW116412   2.381   5.940   6.077
 5171SOL    HW216413   2.532   5.994   6.108
 5172SOL     OW16414   5.837   5.386   4.767
 5172SOL    HW116415   5.883   5.474   4.758
 5172SOL    HW216416   5.751   5.397   4.816
 5173SOL     OW16417   4.002   5.378   5.747
 5173SOL    HW116418   3.906   5.404   5.734
 5173SOL    HW216419   4.006   5.291   5.797
 5174SOL     OW16420   2.490   6.270   3.667
 5174SOL    HW116421   2.533   6.274   3.757
 5174SOL    HW216422   2.506   6.356   3.618
 5175SOL     OW16423   2.771   2.999   0.182
 5175SOL    HW116424   2.845   2.935   0.202
 5175SOL    HW216425   2.693   2.978   0.241
 5176SOL     OW16426   6.208   5.813   6.704
 5176SOL    HW116427   6.265   5.734   6.729
 5176SOL    HW216428   6.252   5.865   6.631
 5177SOL     OW16429   6.154   6.888   0.756
 5177SOL    HW116430   6.200   6.800   0.762
 5177SOL    HW216431   6.151   6.930   0.847
 5178SOL     OW16432   1.053   4.199   1.300
 5178SOL    HW116433   1.114   4.258   1.354
 5178SOL    HW216434   0.960   4.236   1.302
 5179SOL     OW16435   4.844   5.964   3.158
 5179SOL    HW116436   4.919   5.946   3.094
 5179SOL    HW216437   4.874   6.030   3.227
 5180SOL     OW16438   2.109   5.620   3.026
 5180SOL    HW116439   2.069   5.696   3.079
 5180SOL    HW216440   2.113   5.539   3.084
 5181SOL     OW16441   6.654   0.173   5.992
 5181SOL    HW116442   6.614   0.220   5.914
 5181SOL    HW216443   6.745   0.138   5.967
 5182SOL     OW16444   2.693   6.429   3.102
 5182SOL    HW116445   2.696   6.445   3.201
 5182SOL    HW216446   2.628   6.356   3.082
 5183SOL     OW16447   4.475   2.171   3.897
 5183SOL    HW116448   4.448   2.145   3.804
 5183SOL    HW216449   4.574   2.189   3.898
 5184SOL     OW16450   2.588   1.320   3.124
 5184SOL    HW116451   2.569   1.306   3.221
 5184SOL    HW216452   2.681   1.288   3.103
 5185SOL     OW16453   6.544   0.708   2.263
 5185SOL    HW116454   6.558   0.629   2.203
 5185SOL    HW216455   6.607   0.781   2.235
 5186SOL     OW16456   6.969   3.846   6.552
 5186SOL    HW116457   6.904   3.778   6.584
 5186SOL    HW216458   6.961   3.929   6.607
 5187SOL     OW16459   1.218   4.703   5.183
 5187SOL    HW116460   1.169   4.618   5.202
 5187SOL    HW216461   1.314   4.693   5.207
 5188SOL     OW16462   5.693   6.952   2.579
 5188SOL    HW116463   5.653   6.874   2.531
 5188SOL    HW216464   5.792   6.938   2.589
 5189SOL     OW16465   5.075   7.000   6.255
 5189SOL    HW116466   5.051   6.904   6.243
 5189SOL    HW216467   5.125   0.009   6.174
 5190SOL     OW16468   1.863   4.566   0.283
 5190SOL    HW116469   1.934   4.545   0.350
 5190SOL    HW216470   1.780   4.594   0.331
 5191SOL     OW16471   2.748   4.842   1.881
 5191SOL    HW116472   2.762   4.760   1.938
 5191SOL    HW216473   2.781   4.922   1.931
 5192SOL     OW16474   1.538   4.613   2.295
 5192SOL    HW116475   1.628   4.634   2.333
 5192SOL    HW216476   1.534   4.642   2.199
 5193SOL     OW16477   5.861   0.882   5.479
 5193SOL    HW116478   5.801   0.948   5.432
 5193SOL    HW216479   5.819   0.855   5.566
 5194SOL     OW16480   4.990   1.161   5.730
 5194SOL    HW116481   5.041   1.079   5.757
 5194SOL    HW216482   4.995   1.229   5.803
 5195SOL     OW16483   0.594   0.686   5.230
 5195SOL    HW116484   0.501   0.722   5.221
 5195SOL    HW216485   0.655   0.737   5.168
 5196SOL     OW16486   6.235   6.665   3.526
 5196SOL    HW116487   6.240   6.567   3.545
 5196SOL    HW216488   6.139   6.694   3.528
 5197SOL     OW16489   1.015   2.854   4.538
 5197SOL    HW116490   0.983   2.864   4.444
 5197SOL    HW216491   0.947   2.890   4.602
 5198SOL     OW16492   5.893   4.948   3.520
 5198SOL    HW116493   5.969   4.916   3.577
 5198SOL    HW216494   5.908   5.043   3.494
 5199SOL     OW16495   0.582   4.733   1.374
 5199SOL    HW116496   0.605   4.820   1.417
 5199SOL    HW216497   0.530   4.677   1.439
 5200SOL     OW16498   6.973   3.844   4.725
 5200SOL    HW116499   6.938   3.791   4.802
 5200SOL    HW216500   6.919   3.928   4.715
 5201SOL     OW16501   0.749   5.346   4.530
 5201SOL    HW116502   0.760   5.438   4.493
 5201SOL    HW216503   0.766   5.347   4.628
 5202SOL     OW16504   1.139   4.685   2.212
 5202SOL    HW116505   1.059   4.638   2.249
 5202SOL    HW216506   1.213   4.685   2.279
 5203SOL     OW16507   0.606   2.780   0.177
 5203SOL    HW116508   0.685   2.773   0.116
 5203SOL    HW216509   0.597   2.874   0.210
 5204SOL     OW16510   4.498   4.158   6.825
 5204SOL    HW116511   4.495   4.244   6.876
 5204SOL    HW216512   4.429   4.161   6.752
 5205SOL     OW16513   1.609   7.007   1.049
 5205SOL    HW116514   1.684   6.965   0.997
 5205SOL    HW216515   1.547   0.031   0.987
 5206SOL     OW16516   0.380   4.283   4.819
 5206SOL    HW116517   0.412   4.292   4.724
 5206SOL    HW216518   0.310   4.352   4.836
 5207SOL     OW16519   1.704   4.613   4.118
 5207SOL    HW116520   1.662   4.625   4.208
 5207SOL    HW216521   1.679   4.523   4.081
 5208SOL     OW16522   4.501   1.141   0.415
 5208SOL    HW116523   4.539   1.142   0.322
 5208SOL    HW216524   4.515   1.230   0.458
 5209SOL     OW16525   5.738   5.831   2.658
 5209SOL    HW116526   5.694   5.909   2.613
 5209SOL    HW216527   5.832   5.855   2.680
 5210SOL     OW16528   4.614   4.910   3.443
 5210SOL    HW116529   4.597   4.813   3.459
 5210SOL    HW216530   4.703   4.922   3.400
 5211SOL     OW16531   3.973   3.551   2.473
 5211SOL    HW116532   3.907   3.529   2.545
 5211SOL    HW216533   4.013   3.641   2.489
 5212SOL     OW16534   0.959   1.412   0.351
 5212SOL    HW116535   0.954   1.436   0.254
 5212SOL    HW216536   1.013   1.330   0.363
 5213SOL     OW16537   4.512   2.761   6.413
 5213SOL    HW116538   4.533   2.724   6.503
 5213SOL    HW216539   4.413   2.765   6.401
 5214SOL     OW16540   5.803   1.709   6.406
 5214SOL    HW116541   5.794   1.774   6.481
 5214SOL    HW216542   5.837   1.757   6.325
 5215SOL     OW16543   5.493   5.110   2.547
 5215SOL    HW116544   5.421   5.134   2.612
 5215SOL    HW216545   5.506   5.186   2.483
 5216SOL     OW16546   4.571   5.571   1.305
 5216SOL    HW116547   4.643   5.516   1.263
 5216SOL    HW216548   4.598   5.668   1.303
 5217SOL     OW16549   2.937   4.867   3.856
 5217SOL    HW116550   2.841   4.864   3.883
 5217SOL    HW216551   2.994   4.833   3.931
 5218SOL     OW16552   1.690   6.938   4.692
 5218SOL    HW116553   1.718   6.904   4.782
 5218SOL    HW216554   1.722   6.875   4.621
 5219SOL     OW16555   2.310   5.626   0.439
 5219SOL    HW116556   2.374   5.689   0.484
 5219SOL    HW216557   2.220   5.635   0.480
 5220SOL     OW16558   0.813   6.911   2.366
 5220SOL    HW116559   0.879   6.866   2.427
 5220SOL    HW216560   0.777   6.844   2.301
 5221SOL     OW16561   5.338   1.991   4.904
 5221SOL    HW116562   5.272   1.940   4.849
 5221SOL    HW216563   5.289   2.040   4.976
 5222SOL     OW16564   1.200   6.904   2.430
 5222SOL    HW116565   1.114   6.937   2.470
 5222SOL    HW216566   1.228   6.820   2.476
 5223SOL     OW16567   5.434   6.965   1.123
 5223SOL    HW116568   5.418   6.902   1.200
 5223SOL    HW216569   5.350   6.976   1.071
 5224SOL     OW16570   5.473   1.840   3.092
 5224SOL    HW116571   5.526   1.757   3.073
 5224SOL    HW216572   5.528   1.903   3.147
 5225SOL     OW16573   5.201   6.054   5.273
 5225SOL    HW116574   5.129   5.994   5.236
 5225SOL    HW216575   5.245   6.009   5.351
 5226SOL     OW16576   1.704   6.255   4.010
 5226SOL    HW116577   1.726   6.350   4.031
 5226SOL    HW216578   1.732   6.196   4.086
 5227SOL     OW16579   5.868   4.256   2.870
 5227SOL    HW116580   5.907   4.164   2.883
 5227SOL    HW216581   5.777   4.259   2.911
 5228SOL     OW16582   5.729   0.464   1.149
 5228SOL    HW116583   5.744   0.428   1.241
 5228SOL    HW216584   5.764   0.400   1.082
 5229SOL     OW16585   1.256   4.531   4.937
 5229SOL    HW116586   1.302   4.550   5.024
 5229SOL    HW216587   1.311   4.466   4.884
 5230SOL     OW16588   1.349   5.954   6.855
 5230SOL    HW116589   1.418   5.892   6.892
 5230SOL    HW216590   1.393   6.018   6.792
 5231SOL     OW16591   3.617   3.167   4.089
 5231SOL    HW116592   3.716   3.177   4.097
 5231SOL    HW216593   3.589   3.199   3.998
 5232SOL     OW16594   5.183   3.015   5.954
 5232SOL    HW116595   5.272   3.052   5.926
 5232SOL    HW216596   5.192   2.916   5.971
 5233SOL     OW16597   0.445   0.766   2.387
 5233SOL    HW116598   0.469   0.831   2.459
 5233SOL    HW216599   0.410   0.814   2.307
 5234SOL     OW16600   4.125   6.234   1.220
 5234SOL    HW116601   4.093   6.140   1.227
 5234SOL    HW216602   4.137   6.272   1.312
 5235SOL     OW16603   1.050   3.604   1.154
 5235SOL    HW116604   0.989   3.569   1.225
 5235SOL    HW216605   1.136   3.554   1.155
 5236SOL     OW16606   5.004   3.070   0.860
 5236SOL    HW116607   5.074   3.008   0.896
 5236SOL    HW216608   4.937   3.090   0.931
 5237SOL     OW16609   2.240   1.917   4.614
 5237SOL    HW116610   2.152   1.886   4.649
 5237SOL    HW216611   2.310   1.901   4.683
 5238SOL     OW16612   1.796   4.327   1.257
 5238SOL    HW116613   1.708   4.344   1.301
 5238SOL    HW216614   1.869   4.328   1.325
 5239SOL     OW16615   2.882   3.649   4.633
 5239SOL    HW116616   2.786   3.654   4.605
 5239SOL    HW216617   2.931   3.730   4.600
 5240SOL     OW16618   3.131   2.104   4.901
 5240SOL    HW116619   3.083   2.180   4.945
 5240SOL    HW216620   3.217   2.087   4.949
 5241SOL     OW16621   2.360   5.608   5.783
 5241SOL    HW116622   2.325   5.572   5.696
 5241SOL    HW216623   2.313   5.562   5.859
 5242SOL     OW16624   5.064   1.287   6.008
 5242SOL    HW116625   5.024   1.207   6.054
 5242SOL    HW216626   5.162   1.292   6.028
 5243SOL     OW16627   0.416   4.411   0.964
 5243SOL    HW116628   0.362   4.408   1.048
 5243SOL    HW216629   0.455   4.320   0.947
 5244SOL     OW16630   5.339   3.696   6.702
 5244SOL    HW116631   5.352   3.771   6.766
 5244SOL    HW216632   5.364   3.726   6.610
 5245SOL     OW16633   5.043   4.120   6.191
 5245SOL    HW116634   4.959   4.134   6.139
 5245SOL    HW216635   5.106   4.195   6.174
 5246SOL     OW16636   0.931   3.464   2.805
 5246SOL    HW116637   1.015   3.420   2.836
 5246SOL    HW216638   0.950   3.520   2.724
 5247SOL     OW16639   0.892   4.949   1.064
 5247SOL    HW116640   0.833   5.027   1.085
 5247SOL    HW216641   0.981   4.962   1.109
 5248SOL     OW16642   4.614   0.902   6.576
 5248SOL    HW116643   4.559   0.914   6.659
 5248SOL    HW216644   4.660   0.814   6.580
 5249SOL     OW16645   1.130   5.331   5.504
 5249SOL    HW116646   1.154   5.320   5.601
 5249SOL    HW216647   1.126   5.241   5.461
 5250SOL     OW16648   0.241   1.372   6.300
 5250SOL    HW116649   0.338   1.362   6.278
 5250SOL    HW216650   0.198   1.282   6.302
 5251SOL     OW16651   6.875   2.638   1.127
 5251SOL    HW116652   6.954   2.598   1.082
 5251SOL    HW216653   6.869   2.735   1.105
 5252SOL     OW16654   3.988   6.208   0.481
 5252SOL    HW116655   4.053   6.133   0.490
 5252SOL    HW216656   4.028   6.292   0.518
 5253SOL     OW16657   5.776   3.014   3.433
 5253SOL    HW116658   5.788   3.034   3.531
 5253SOL    HW216659   5.769   2.916   3.420
 5254SOL     OW16660   4.517   1.048   3.786
 5254SOL    HW116661   4.562   0.966   3.820
 5254SOL    HW216662   4.579   1.098   3.725
 5255SOL     OW16663   3.250   6.647   4.826
 5255SOL    HW116664   3.347   6.644   4.801
 5255SOL    HW216665   3.198   6.691   4.753
 5256SOL     OW16666   5.970   6.756   3.549
 5256SOL    HW116667   5.973   6.856   3.556
 5256SOL    HW216668   5.888   6.722   3.594
 5257SOL     OW16669   3.382   1.569   1.475
 5257SOL    HW116670   3.386   1.665   1.500
 5257SOL    HW216671   3.396   1.512   1.556
 5258SOL     OW16672   5.963   2.232   1.783
 5258SOL    HW116673   5.978   2.307   1.719
 5258SOL    HW216674   6.032   2.161   1.767
 5259SOL     OW16675   5.117   4.833   2.671
 5259SOL    HW116676   5.199   4.789   2.708
 5259SOL    HW216677   5.046   4.835   2.741
 5260SOL     OW16678   5.513   3.249   1.015
 5260SOL    HW116679   5.481   3.337   0.982
 5260SOL    HW216680   5.446   3.210   1.079
 5261SOL     OW16681   2.054   2.142   4.953
 5261SOL    HW116682   2.100   2.230   4.951
 5261SOL    HW216683   1.968   2.150   5.004
 5262SOL     OW16684   2.600   0.068   1.728
 5262SOL    HW116685   2.576   7.012   1.785
 5262SOL    HW216686   2.518   0.104   1.685
 5263SOL     OW16687   0.983   6.520   0.632
 5263SOL    HW116688   0.960   6.613   0.603
 5263SOL    HW216689   0.972   6.457   0.555
 5264SOL     OW16690   0.434   2.640   0.789
 5264SOL    HW116691   0.421   2.557   0.843
 5264SOL    HW216692   0.373   2.712   0.823
 5265SOL     OW16693   4.892   4.690   2.037
 5265SOL    HW116694   4.877   4.596   2.067
 5265SOL    HW216695   4.821   4.749   2.076
 5266SOL     OW16696   1.918   0.118   0.991
 5266SOL    HW116697   1.976   0.155   0.919
 5266SOL    HW216698   1.865   0.042   0.955
 5267SOL     OW16699   5.444   4.757   4.586
 5267SOL    HW116700   5.348   4.740   4.609
 5267SOL    HW216701   5.449   4.803   4.497
 5268SOL     OW16702   5.807   4.599   4.922
 5268SOL    HW116703   5.732   4.571   4.862
 5268SOL    HW216704   5.838   4.691   4.896
 5269SOL     OW16705   1.432   5.541   4.462
 5269SOL    HW116706   1.398   5.447   4.466
 5269SOL    HW216707   1.355   5.604   4.458
 5270SOL     OW16708   6.180   2.854   2.599
 5270SOL    HW116709   6.126   2.807   2.668
 5270SOL    HW216710   6.191   2.950   2.625
 5271SOL     OW16711   5.136   4.560   4.951
 5271SOL    HW116712   5.119   4.536   5.047
 5271SOL    HW216713   5.184   4.648   4.947
 5272SOL     OW16714   1.578   1.299   4.436
 5272SOL    HW116715   1.543   1.386   4.471
 5272SOL    HW216716   1.646   1.262   4.500
 5273SOL     OW16717   0.705   0.919   4.331
 5273SOL    HW116718   0.629   0.933   4.267
 5273SOL    HW216719   0.670   0.882   4.417
 5274SOL     OW16720   6.667   5.629   3.708
 5274SOL    HW116721   6.567   5.628   3.701
 5274SOL    HW216722   6.707   5.587   3.627
 5275SOL     OW16723   2.248   0.051   6.857
 5275SOL    HW116724   2.188   0.124   6.889
 5275SOL    HW216725   2.194   6.998   6.821
 5276SOL     OW16726   0.186   0.039   1.165
 5276SOL    HW116727   0.234   0.111   1.215
 5276SOL    HW216728   0.219   0.035   1.071
 5277SOL     OW16729   1.017   1.952   2.768
 5277SOL    HW116730   1.053   1.879   2.709
 5277SOL    HW216731   0.938   1.994   2.725
 5278SOL     OW16732   1.138   4.719   6.177
 5278SOL    HW116733   1.136   4.677   6.267
 5278SOL    HW216734   1.150   4.648   6.107
 5279SOL     OW16735   2.513   6.368   6.462
 5279SOL    HW116736   2.535   6.279   6.423
 5279SOL    HW216737   2.441   6.357   6.531
 5280SOL     OW16738   4.372   6.619   4.999
 5280SOL    HW116739   4.468   6.640   4.979
 5280SOL    HW216740   4.367   6.542   5.063
 5281SOL     OW16741   2.895   0.335   5.141
 5281SOL    HW116742   2.832   0.338   5.064
 5281SOL    HW216743   2.897   0.243   5.180
 5282SOL     OW16744   1.508   6.776   1.519
 5282SOL    HW116745   1.434   6.777   1.586
 5282SOL    HW216746   1.536   6.870   1.498
 5283SOL     OW16747   0.699   0.765   4.688
 5283SOL    HW116748   0.785   0.721   4.660
 5283SOL    HW216749   0.706   0.864   4.672
 5284SOL     OW16750   4.163   2.729   1.357
 5284SOL    HW116751   4.123   2.688   1.439
 5284SOL    HW216752   4.256   2.758   1.375
 5285SOL     OW16753   1.543   1.864   4.044
 5285SOL    HW116754   1.495   1.854   3.957
 5285SOL    HW216755   1.599   1.946   4.043
 5286SOL     OW16756   6.105   3.495   0.790
 5286SOL    HW116757   6.113   3.554   0.709
 5286SOL    HW216758   6.011   3.497   0.823
 5287SOL     OW16759   2.688   5.385   1.418
 5287SOL    HW116760   2.778   5.428   1.426
 5287SOL    HW216761   2.699   5.285   1.422
 5288SOL     OW16762   3.965   0.703   1.899
 5288SOL    HW116763   3.903   0.624   1.901
 5288SOL    HW216764   3.942   0.761   1.821
 5289SOL     OW16765   2.405   4.807   6.571
 5289SOL    HW116766   2.370   4.736   6.510
 5289SOL    HW216767   2.330   4.867   6.599
 5290SOL     OW16768   1.337   2.658   5.007
 5290SOL    HW116769   1.319   2.563   4.982
 5290SOL    HW216770   1.428   2.666   5.046
 5291SOL     OW16771   2.677   4.838   4.635
 5291SOL    HW116772   2.622   4.921   4.635
 5291SOL    HW216773   2.630   4.766   4.583
 5292SOL     OW16774   0.116   3.741   6.361
 5292SOL    HW116775   0.123   3.792   6.275
 5292SOL    HW216776   0.031   3.766   6.407
 5293SOL     OW16777   2.349   6.331   4.219
 5293SOL    HW116778   2.253   6.310   4.200
 5293SOL    HW216779   2.361   6.350   4.316
 5294SOL     OW16780   3.892   0.639   5.292
 5294SOL    HW116781   3.916   0.699   5.368
 5294SOL    HW216782   3.877   0.546   5.325
 5295SOL     OW16783   2.584   1.597   2.508
 5295SOL    HW116784   2.614   1.502   2.507
 5295SOL    HW216785   2.493   1.603   2.549
 5296SOL     OW16786   4.958   5.008   1.789
 5296SOL    HW116787   4.937   5.106   1.797
 5296SOL    HW216788   5.004   4.978   1.873
 5297SOL     OW16789   2.863   5.130   0.506
 5297SOL    HW116790   2.849   5.033   0.526
 5297SOL    HW216791   2.857   5.145   0.407
 5298SOL     OW16792   2.248   0.488   0.257
 5298SOL    HW116793   2.344   0.514   0.246
 5298SOL    HW216794   2.242   0.402   0.308
 5299SOL     OW16795   2.854   1.658   1.113
 5299SOL    HW116796   2.782   1.724   1.136
 5299SOL    HW216797   2.895   1.623   1.198
 5300SOL     OW16798   2.257   4.515   0.275
 5300SOL    HW116799   2.177   4.517   0.334
 5300SOL    HW216800   2.229   4.514   0.179
 5301SOL     OW16801   5.494   0.375   5.945
 5301SOL    HW116802   5.395   0.380   5.961
 5301SOL    HW216803   5.514   0.299   5.884
 5302SOL     OW16804   5.622   6.173   3.044
 5302SOL    HW116805   5.629   6.086   2.994
 5302SOL    HW216806   5.577   6.158   3.132
 5303SOL     OW16807   0.622   5.127   6.058
 5303SOL    HW116808   0.544   5.186   6.034
 5303SOL    HW216809   0.616   5.103   6.155
 5304SOL     OW16810   6.921   0.533   1.556
 5304SOL    HW116811   6.896   0.543   1.460
 5304SOL    HW216812   6.853   0.476   1.602
 5305SOL     OW16813   1.697   5.056   3.289
 5305SOL    HW116814   1.599   5.039   3.285
 5305SOL    HW216815   1.715   5.154   3.279
 5306SOL     OW16816   0.094   3.560   5.908
 5306SOL    HW116817   0.168   3.513   5.955
 5306SOL    HW216818   0.122   3.583   5.815
 5307SOL     OW16819   6.265   1.504   1.554
 5307SOL    HW116820   6.178   1.456   1.567
 5307SOL    HW216821   6.341   1.441   1.571
 5308SOL     OW16822   1.441   4.139   3.266
 5308SOL    HW116823   1.348   4.174   3.261
 5308SOL    HW216824   1.441   4.042   3.241
 5309SOL     OW16825   6.011   6.105   2.575
 5309SOL    HW116826   6.096   6.138   2.534
 5309SOL    HW216827   5.947   6.180   2.586
 5310SOL     OW16828   5.513   2.876   2.550
 5310SOL    HW116829   5.588   2.858   2.486
 5310SOL    HW216830   5.456   2.951   2.514
 5311SOL     OW16831   5.874   0.112   0.598
 5311SOL    HW116832   5.966   0.103   0.637
 5311SOL    HW216833   5.837   0.021   0.581
 5312SOL     OW16834   6.921   6.085   0.606
 5312SOL    HW116835   6.919   6.080   0.506
 5312SOL    HW216836   6.874   6.168   0.636
 5313SOL     OW16837   0.671   5.161   5.629
 5313SOL    HW116838   0.642   5.161   5.533
 5313SOL    HW216839   0.718   5.247   5.649
 5314SOL     OW16840   6.486   1.009   1.833
 5314SOL    HW116841   6.483   0.967   1.743
 5314SOL    HW216842   6.407   1.070   1.844
 5315SOL     OW16843   4.448   1.578   4.034
 5315SOL    HW116844   4.373   1.643   4.048
 5315SOL    HW216845   4.502   1.605   3.955
 5316SOL     OW16846   0.482   2.469   4.750
 5316SOL    HW116847   0.384   2.450   4.742
 5316SOL    HW216848   0.524   2.471   4.659
 5317SOL     OW16849   0.014   1.831   6.410
 5317SOL    HW116850   0.014   1.900   6.482
 5317SOL    HW216851   0.085   1.763   6.429
 5318SOL     OW16852   6.581   3.525   6.745
 5318SOL    HW116853   6.508   3.503   6.809
 5318SOL    HW216854   6.578   3.461   6.668
 5319SOL     OW16855   4.466   6.681   1.022
 5319SOL    HW116856   4.382   6.667   0.971
 5319SOL    HW216857   4.504   6.593   1.049
 5320SOL     OW16858   3.222   5.999   0.994
 5320SOL    HW116859   3.182   6.073   1.048
 5320SOL    HW216860   3.276   5.940   1.054
 5321SOL     OW16861   1.741   3.668   5.232
 5321SOL    HW116862   1.730   3.720   5.147
 5321SOL    HW216863   1.793   3.584   5.213
 5322SOL     OW16864   5.333   6.771   1.977
 5322SOL    HW116865   5.290   6.830   2.046
 5322SOL    HW216866   5.282   6.685   1.971
 5323SOL     OW16867   4.138   1.595   5.433
 5323SOL    HW116868   4.232   1.624   5.415
 5323SOL    HW216869   4.078   1.675   5.434
 5324SOL     OW16870   1.974   1.827   0.540
 5324SOL    HW116871   2.034   1.748   0.522
 5324SOL    HW216872   1.894   1.822   0.481
 5325SOL     OW16873   2.421   1.916   4.819
 5325SOL    HW116874   2.435   1.864   4.903
 5325SOL    HW216875   2.449   2.011   4.834
 5326SOL     OW16876   5.958   6.951   2.352
 5326SOL    HW116877   5.972   6.930   2.449
 5326SOL    HW216878   5.908   6.876   2.309
 5327SOL     OW16879   5.877   2.569   5.292
 5327SOL    HW116880   5.819   2.571   5.373
 5327SOL    HW216881   5.954   2.508   5.307
 5328SOL     OW16882   4.050   4.868   7.007
 5328SOL    HW116883   4.051   4.965   6.986
 5328SOL    HW216884   4.003   4.818   6.934
 5329SOL     OW16885   1.592   6.650   6.387
 5329SOL    HW116886   1.638   6.563   6.409
 5329SOL    HW216887   1.550   6.687   6.469
 5330SOL     OW16888   2.477   3.661   0.663
 5330SOL    HW116889   2.490   3.700   0.754
 5330SOL    HW216890   2.544   3.700   0.600
 5331SOL     OW16891   6.452   0.753   6.445
 5331SOL    HW116892   6.369   0.701   6.422
 5331SOL    HW216893   6.445   0.846   6.409
 5332SOL     OW16894   1.291   4.992   2.260
 5332SOL    HW116895   1.262   4.898   2.246
 5332SOL    HW216896   1.279   5.044   2.175
 5333SOL     OW16897   0.939   6.153   4.097
 5333SOL    HW116898   0.917   6.199   4.184
 5333SOL    HW216899   0.994   6.072   4.116
 5334SOL     OW16900   2.879   0.145   4.294
 5334SOL    HW116901   2.825   0.080   4.349
 5334SOL    HW216902   2.857   0.132   4.197
 5335SOL     OW16903   6.772   5.659   0.844
 5335SOL    HW116904   6.718   5.728   0.797
 5335SOL    HW216905   6.835   5.616   0.779
 5336SOL     OW16906   1.557   3.999   2.466
 5336SOL    HW116907   1.563   4.078   2.404
 5336SOL    HW216908   1.649   3.964   2.482
 5337SOL     OW16909   4.760   4.569   1.377
 5337SOL    HW116910   4.732   4.650   1.428
 5337SOL    HW216911   4.764   4.590   1.280
 5338SOL     OW16912   6.435   2.174   6.528
 5338SOL    HW116913   6.529   2.207   6.513
 5338SOL    HW216914   6.417   2.096   6.468
 5339SOL     OW16915   6.535   2.248   3.673
 5339SOL    HW116916   6.621   2.198   3.673
 5339SOL    HW216917   6.487   2.232   3.759
 5340SOL     OW16918   5.139   2.296   6.947
 5340SOL    HW116919   5.041   2.281   6.937
 5340SOL    HW216920   5.172   2.352   6.871
 5341SOL     OW16921   4.514   0.510   0.077
 5341SOL    HW116922   4.448   0.456   0.026
 5341SOL    HW216923   4.584   0.450   0.115
 5342SOL     OW16924   3.677   0.875   5.617
 5342SOL    HW116925   3.650   0.954   5.563
 5342SOL    HW216926   3.686   0.901   5.713
 5343SOL     OW16927   4.040   3.852   2.412
 5343SOL    HW116928   3.974   3.912   2.456
 5343SOL    HW216929   4.108   3.822   2.479
 5344SOL     OW16930   2.092   2.635   2.883
 5344SOL    HW116931   1.998   2.604   2.868
 5344SOL    HW216932   2.151   2.557   2.900
 5345SOL     OW16933   4.387   6.724   1.515
 5345SOL    HW116934   4.475   6.676   1.518
 5345SOL    HW216935   4.324   6.673   1.457
 5346SOL     OW16936   3.275   6.466   2.901
 5346SOL    HW116937   3.290   6.563   2.916
 5346SOL    HW216938   3.259   6.421   2.989
 5347SOL     OW16939   0.257   1.778   1.336
 5347SOL    HW116940   0.262   1.793   1.435
 5347SOL    HW216941   0.211   1.855   1.293
 5348SOL     OW16942   0.647   0.707   6.646
 5348SOL    HW116943   0.669   0.694   6.743
 5348SOL    HW216944   0.604   0.796   6.633
 5349SOL     OW16945   6.788   0.525   1.309
 5349SOL    HW116946   6.843   0.538   1.227
 5349SOL    HW216947   6.691   0.530   1.286
 5350SOL     OW16948   2.364   1.642   6.554
 5350SOL    HW116949   2.277   1.635   6.602
 5350SOL    HW216950   2.421   1.710   6.600
 5351SOL     OW16951   4.213   6.710   1.753
 5351SOL    HW116952   4.195   6.808   1.756
 5351SOL    HW216953   4.274   6.689   1.677
 5352SOL     OW16954   3.686   5.700   3.836
 5352SOL    HW116955   3.701   5.679   3.740
 5352SOL    HW216956   3.611   5.765   3.846
 5353SOL     OW16957   5.585   5.588   5.121
 5353SOL    HW116958   5.535   5.669   5.149
 5353SOL    HW216959   5.681   5.612   5.103
 5354SOL     OW16960   0.988   3.951   1.424
 5354SOL    HW116961   1.015   4.031   1.371
 5354SOL    HW216962   0.956   3.980   1.514
 5355SOL     OW16963   4.564   2.634   4.454
 5355SOL    HW116964   4.590   2.663   4.362
 5355SOL    HW216965   4.633   2.665   4.519
 5356SOL     OW16966   6.483   3.671   1.344
 5356SOL    HW116967   6.412   3.667   1.414
 5356SOL    HW216968   6.499   3.580   1.306
 5357SOL     OW16969   3.872   0.045   7.016
 5357SOL    HW116970   3.839   0.023   0.084
 5357SOL    HW216971   3.967   0.015   7.006
 5358SOL     OW16972   4.879   2.951   0.591
 5358SOL    HW116973   4.837   3.030   0.635
 5358SOL    HW216974   4.978   2.955   0.602
 5359SOL     OW16975   2.184   1.258   6.910
 5359SOL    HW116976   2.208   1.354   6.896
 5359SOL    HW216977   2.119   1.230   6.839
 5360SOL     OW16978   3.628   6.734   6.588
 5360SOL    HW116979   3.695   6.730   6.514
 5360SOL    HW216980   3.613   6.829   6.614
 5361SOL     OW16981   1.881   0.827   5.883
 5361SOL    HW116982   1.880   0.781   5.795
 5361SOL    HW216983   1.975   0.853   5.907
 5362SOL     OW16984   4.971   5.123   2.756
 5362SOL    HW116985   5.031   5.095   2.830
 5362SOL    HW216986   4.971   5.223   2.749
 5363SOL     OW16987   0.579   4.977   6.314
 5363SOL    HW116988   0.631   4.998   6.397
 5363SOL    HW216989   0.605   4.887   6.279
 5364SOL     OW16990   0.311   6.296   0.672
 5364SOL    HW116991   0.368   6.221   0.707
 5364SOL    HW216992   0.261   6.337   0.748
 5365SOL     OW16993   4.601   2.161   5.833
 5365SOL    HW116994   4.587   2.193   5.739
 5365SOL    HW216995   4.651   2.074   5.831
 5366SOL     OW16996   3.849   3.236   0.304
 5366SOL    HW116997   3.795   3.249   0.388
 5366SOL    HW216998   3.863   3.138   0.289
 5367SOL     OW16999   0.628   4.811   1.726
 5367SOL    HW117000   0.680   4.858   1.798
 5367SOL    HW217001   0.534   4.796   1.758
 5368SOL     OW17002   5.887   1.910   3.358
 5368SOL    HW117003   5.979   1.941   3.335
 5368SOL    HW217004   5.881   1.891   3.456
 5369SOL     OW17005   1.978   4.251   3.027
 5369SOL    HW117006   1.894   4.263   3.079
 5369SOL    HW217007   1.974   4.304   2.943
 5370SOL     OW17008   3.445   2.823   1.361
 5370SOL    HW117009   3.524   2.812   1.300
 5370SOL    HW217010   3.369   2.864   1.310
 5371SOL     OW17011   0.919   4.266   4.979
 5371SOL    HW117012   0.998   4.302   4.929
 5371SOL    HW217013   0.928   4.167   4.988
 5372SOL     OW17014   2.708   5.285   2.774
 5372SOL    HW117015   2.759   5.292   2.688
 5372SOL    HW217016   2.709   5.190   2.806
 5373SOL     OW17017   3.465   4.890   3.864
 5373SOL    HW117018   3.404   4.829   3.915
 5373SOL    HW217019   3.544   4.913   3.921
 5374SOL     OW17020   2.737   2.134   0.034
 5374SOL    HW117021   2.654   2.187   0.015
 5374SOL    HW217022   2.770   2.093   6.972
 5375SOL     OW17023   1.476   4.258   4.347
 5375SOL    HW117024   1.566   4.213   4.339
 5375SOL    HW217025   1.488   4.350   4.383
 5376SOL     OW17026   1.437   3.698   1.050
 5376SOL    HW117027   1.362   3.763   1.043
 5376SOL    HW217028   1.498   3.708   0.971
 5377SOL     OW17029   0.481   0.707   1.023
 5377SOL    HW117030   0.494   0.621   0.975
 5377SOL    HW217031   0.387   0.711   1.059
 5378SOL     OW17032   5.478   0.821   0.401
 5378SOL    HW117033   5.422   0.904   0.397
 5378SOL    HW217034   5.539   0.826   0.480
 5379SOL     OW17035   0.184   6.119   2.112
 5379SOL    HW117036   0.106   6.175   2.140
 5379SOL    HW217037   0.269   6.167   2.133
 5380SOL     OW17038   3.153   0.546   3.469
 5380SOL    HW117039   3.104   0.623   3.428
 5380SOL    HW217040   3.186   0.485   3.397
 5381SOL     OW17041   5.917   4.258   1.280
 5381SOL    HW117042   5.867   4.172   1.282
 5381SOL    HW217043   5.923   4.291   1.185
 5382SOL     OW17044   2.427   0.762   1.511
 5382SOL    HW117045   2.509   0.809   1.478
 5382SOL    HW217046   2.447   0.718   1.599
 5383SOL     OW17047   2.487   2.187   4.982
 5383SOL    HW117048   2.566   2.239   4.950
 5383SOL    HW217049   2.403   2.233   4.953
 5384SOL     OW17050   5.912   6.484   4.181
 5384SOL    HW117051   5.818   6.454   4.200
 5384SOL    HW217052   5.971   6.457   4.257
 5385SOL     OW17053   3.513   3.878   2.402
 5385SOL    HW117054   3.492   3.972   2.374
 5385SOL    HW217055   3.531   3.876   2.500
 5386SOL     OW17056   5.718   6.319   4.470
 5386SOL    HW117057   5.771   6.240   4.438
 5386SOL    HW217058   5.623   6.310   4.439
 5387SOL     OW17059   2.979   5.431   1.951
 5387SOL    HW117060   2.967   5.511   2.009
 5387SOL    HW217061   2.990   5.349   2.008
 5388SOL     OW17062   5.412   6.577   2.636
 5388SOL    HW117063   5.481   6.516   2.596
 5388SOL    HW217064   5.428   6.585   2.734
 5389SOL     OW17065   4.715   2.211   1.181
 5389SOL    HW117066   4.786   2.143   1.195
 5389SOL    HW217067   4.630   2.166   1.154
 5390SOL     OW17068   6.031   5.077   5.676
 5390SOL    HW117069   6.071   5.086   5.585
 5390SOL    HW217070   6.034   5.165   5.723
 5391SOL     OW17071   2.671   2.743   0.567
 5391SOL    HW117072   2.751   2.802   0.559
 5391SOL    HW217073   2.592   2.798   0.594
 5392SOL     OW17074   6.228   3.152   2.183
 5392SOL    HW117075   6.290   3.219   2.142
 5392SOL    HW217076   6.192   3.189   2.268
 5393SOL     OW17077   6.969   6.856   6.711
 5393SOL    HW117078   7.021   6.842   6.626
 5393SOL    HW217079   6.918   6.942   6.705
 5394SOL     OW17080   1.120   4.042   6.030
 5394SOL    HW117081   1.030   4.087   6.032
 5394SOL    HW217082   1.154   4.040   5.936
 5395SOL     OW17083   3.807   1.091   0.132
 5395SOL    HW117084   3.821   1.181   0.090
 5395SOL    HW217085   3.740   1.099   0.206
 5396SOL     OW17086   5.268   3.368   2.010
 5396SOL    HW117087   5.311   3.280   2.027
 5396SOL    HW217088   5.231   3.369   1.917
 5397SOL     OW17089   0.048   3.651   1.761
 5397SOL    HW117090   0.067   3.747   1.743
 5397SOL    HW217091   7.003   3.643   1.834
 5398SOL     OW17092   2.949   2.583   1.695
 5398SOL    HW117093   3.021   2.533   1.648
 5398SOL    HW217094   2.930   2.538   1.783
 5399SOL     OW17095   1.709   6.151   1.817
 5399SOL    HW117096   1.685   6.246   1.799
 5399SOL    HW217097   1.779   6.121   1.751
 5400SOL     OW17098   3.448   4.488   0.636
 5400SOL    HW117099   3.400   4.400   0.631
 5400SOL    HW217100   3.386   4.561   0.609
 5401SOL     OW17101   6.064   3.046   1.982
 5401SOL    HW117102   6.124   3.083   2.053
 5401SOL    HW217103   6.056   2.947   1.994
 5402SOL     OW17104   1.313   6.361   2.128
 5402SOL    HW117105   1.412   6.363   2.113
 5402SOL    HW217106   1.294   6.328   2.221
 5403SOL     OW17107   0.276   3.300   6.584
 5403SOL    HW117108   0.340   3.251   6.642
 5403SOL    HW217109   0.226   3.235   6.526
 5404SOL     OW17110   1.557   2.780   3.734
 5404SOL    HW117111   1.536   2.876   3.757
 5404SOL    HW217112   1.530   2.722   3.811
 5405SOL     OW17113   6.205   5.253   5.823
 5405SOL    HW117114   6.300   5.242   5.792
 5405SOL    HW217115   6.203   5.265   5.922
 5406SOL     OW17116   1.663   0.837   6.503
 5406SOL    HW117117   1.630   0.755   6.551
 5406SOL    HW217118   1.675   0.816   6.406
 5407SOL     OW17119   3.910   3.247   6.818
 5407SOL    HW117120   3.998   3.200   6.830
 5407SOL    HW217121   3.839   3.195   6.866
 5408SOL     OW17122   2.535   0.634   6.529
 5408SOL    HW117123   2.556   0.555   6.471
 5408SOL    HW217124   2.448   0.674   6.498
 5409SOL     OW17125   3.693   0.743   2.587
 5409SOL    HW117126   3.612   0.684   2.588
 5409SOL    HW217127   3.684   0.810   2.513
 5410SOL     OW17128   2.606   1.919   2.066
 5410SOL    HW117129   2.599   1.928   2.165
 5410SOL    HW217130   2.662   1.993   2.030
 5411SOL     OW17131   0.708   5.758   5.397
 5411SOL    HW117132   0.612   5.729   5.404
 5411SOL    HW217133   0.764   5.678   5.375
 5412SOL     OW17134   6.288   2.503   0.651
 5412SOL    HW117135   6.327   2.494   0.743
 5412SOL    HW217136   6.243   2.591   0.643
 5413SOL     OW17137   2.108   1.137   1.533
 5413SOL    HW117138   2.186   1.199   1.535
 5413SOL    HW217139   2.080   1.121   1.438
 5414SOL     OW17140   3.811   1.444   5.117
 5414SOL    HW117141   3.903   1.444   5.156
 5414SOL    HW217142   3.744   1.428   5.189
 5415SOL     OW17143   6.562   5.036   1.977
 5415SOL    HW117144   6.466   5.060   1.986
 5415SOL    HW217145   6.606   5.041   2.067
 5416SOL     OW17146   4.292   5.118   4.858
 5416SOL    HW117147   4.285   5.108   4.759
 5416SOL    HW217148   4.263   5.034   4.902
 5417SOL     OW17149   3.481   6.981   4.845
 5417SOL    HW117150   3.422   7.023   4.776
 5417SOL    HW217151   3.493   6.884   4.825
 5418SOL     OW17152   3.774   0.142   3.217
 5418SOL    HW117153   3.726   0.176   3.137
 5418SOL    HW217154   3.764   0.042   3.221
 5419SOL     OW17155   3.535   5.373   6.926
 5419SOL    HW117156   3.566   5.315   7.001
 5419SOL    HW217157   3.506   5.461   6.962
 5420SOL     OW17158   1.453   1.885   2.534
 5420SOL    HW117159   1.447   1.953   2.461
 5420SOL    HW217160   1.445   1.931   2.622
 5421SOL     OW17161   1.530   3.872   2.105
 5421SOL    HW117162   1.502   3.843   2.196
 5421SOL    HW217163   1.454   3.919   2.060
 5422SOL     OW17164   2.188   3.605   1.100
 5422SOL    HW117165   2.102   3.636   1.061
 5422SOL    HW217166   2.221   3.672   1.166
 5423SOL     OW17167   5.852   3.155   6.845
 5423SOL    HW117168   5.784   3.086   6.823
 5423SOL    HW217169   5.943   3.114   6.841
 5424SOL     OW17170   5.297   3.777   4.210
 5424SOL    HW117171   5.252   3.842   4.272
 5424SOL    HW217172   5.265   3.792   4.117
 5425SOL     OW17173   5.189   0.999   5.063
 5425SOL    HW117174   5.266   1.026   5.005
 5425SOL    HW217175   5.103   1.011   5.013
 5426SOL     OW17176   6.216   0.089   4.842
 5426SOL    HW117177   6.212   0.161   4.912
 5426SOL    HW217178   6.145   0.021   4.861
 5427SOL     OW17179   4.406   6.095   6.397
 5427SOL    HW117180   4.459   6.018   6.431
 5427SOL    HW217181   4.330   6.061   6.341
 5428SOL     OW17182   1.327   0.565   0.321
 5428SOL    HW117183   1.371   0.481   0.288
 5428SOL    HW217184   1.235   0.543   0.355
 5429SOL     OW17185   0.938   2.702   6.447
 5429SOL    HW117186   1.003   2.666   6.514
 5429SOL    HW217187   0.845   2.679   6.475
 5430SOL     OW17188   1.880   2.561   5.868
 5430SOL    HW117189   1.953   2.493   5.875
 5430SOL    HW217190   1.906   2.643   5.920
 5431SOL     OW17191   3.846   6.330   5.520
 5431SOL    HW117192   3.870   6.387   5.598
 5431SOL    HW217193   3.920   6.334   5.452
 5432SOL     OW17194   5.148   6.777   1.063
 5432SOL    HW117195   5.123   6.874   1.053
 5432SOL    HW217196   5.094   6.736   1.136
 5433SOL     OW17197   0.358   1.709   4.821
 5433SOL    HW117198   0.448   1.693   4.860
 5433SOL    HW217199   0.349   1.806   4.797
 5434SOL     OW17200   2.478   0.424   5.879
 5434SOL    HW117201   2.538   0.504   5.891
 5434SOL    HW217202   2.442   0.423   5.786
 5435SOL     OW17203   4.304   0.447   1.823
 5435SOL    HW117204   4.213   0.413   1.848
 5435SOL    HW217205   4.365   0.443   1.902
 5436SOL     OW17206   4.625   4.282   2.897
 5436SOL    HW117207   4.640   4.243   2.806
 5436SOL    HW217208   4.575   4.368   2.888
 5437SOL     OW17209   3.152   3.658   7.020
 5437SOL    HW117210   3.202   3.624   6.940
 5437SOL    HW217211   3.066   3.608   0.006
 5438SOL     OW17212   6.251   1.948   1.231
 5438SOL    HW117213   6.249   1.878   1.303
 5438SOL    HW217214   6.157   1.968   1.203
 5439SOL     OW17215   0.936   2.744   1.396
 5439SOL    HW117216   1.011   2.695   1.440
 5439SOL    HW217217   0.928   2.716   1.301
 5440SOL     OW17218   0.744   1.900   1.136
 5440SOL    HW117219   0.714   1.842   1.060
 5440SOL    HW217220   0.678   1.973   1.151
 5441SOL     OW17221   3.349   2.145   3.301
 5441SOL    HW117222   3.373   2.057   3.258
 5441SOL    HW217223   3.335   2.214   3.229
 5442SOL     OW17224   3.810   0.485   2.508
 5442SOL    HW117225   3.801   0.585   2.514
 5442SOL    HW217226   3.907   0.461   2.509
 5443SOL     OW17227   3.157   6.897   5.650
 5443SOL    HW117228   3.162   6.825   5.719
 5443SOL    HW217229   3.127   6.858   5.563
 5444SOL     OW17230   0.170   0.096   3.292
 5444SOL    HW117231   0.091   0.145   3.329
 5444SOL    HW217232   0.168   0.001   3.323
 5445SOL     OW17233   5.484   3.678   1.883
 5445SOL    HW117234   5.398   3.654   1.929
 5445SOL    HW217235   5.514   3.768   1.914
 5446SOL     OW17236   6.189   5.683   5.640
 5446SOL    HW117237   6.283   5.671   5.607
 5446SOL    HW217238   6.172   5.620   5.715
 5447SOL     OW17239   4.123   2.352   0.018
 5447SOL    HW117240   4.158   2.259   0.024
 5447SOL    HW217241   4.097   2.373   6.947
 5448SOL     OW17242   5.562   2.332   5.371
 5448SOL    HW117243   5.566   2.427   5.403
 5448SOL    HW217244   5.570   2.331   5.271
 5449SOL     OW17245   0.914   3.484   6.792
 5449SOL    HW117246   0.972   3.420   6.842
 5449SOL    HW217247   0.825   3.491   6.836
 5450SOL     OW17248   2.003   0.278   1.578
 5450SOL    HW117249   1.916   0.236   1.603
 5450SOL    HW217250   1.989   0.340   1.501
 5451SOL     OW17251   0.906   6.162   3.110
 5451SOL    HW117252   0.809   6.142   3.099
 5451SOL    HW217253   0.920   6.261   3.112
 5452SOL     OW17254   2.334   4.038   6.630
 5452SOL    HW117255   2.377   3.999   6.711
 5452SOL    HW217256   2.252   3.985   6.607
 5453SOL     OW17257   5.816   5.152   6.818
 5453SOL    HW117258   5.804   5.122   6.913
 5453SOL    HW217259   5.900   5.112   6.781
 5454SOL     OW17260   6.717   4.379   0.140
 5454SOL    HW117261   6.689   4.455   0.199
 5454SOL    HW217262   6.795   4.408   0.085
 5455SOL     OW17263   6.875   3.199   0.959
 5455SOL    HW117264   6.776   3.193   0.968
 5455SOL    HW217265   6.903   3.164   0.870
 5456SOL     OW17266   3.322   6.856   0.067
 5456SOL    HW117267   3.228   6.865   0.101
 5456SOL    HW217268   3.320   6.850   6.990
 5457SOL     OW17269   5.985   2.989   0.851
 5457SOL    HW117270   6.001   3.079   0.809
 5457SOL    HW217271   5.900   2.951   0.814
 5458SOL     OW17272   2.249   4.269   6.875
 5458SOL    HW117273   2.237   4.206   6.951
 5458SOL    HW217274   2.244   4.219   6.788
 5459SOL     OW17275   1.609   4.607   6.451
 5459SOL    HW117276   1.687   4.601   6.513
 5459SOL    HW217277   1.578   4.515   6.428
 5460SOL     OW17278   2.858   0.188   0.812
 5460SOL    HW117279   2.783   0.124   0.828
 5460SOL    HW217280   2.885   0.229   0.899
 5461SOL     OW17281   4.542   0.279   4.951
 5461SOL    HW117282   4.638   0.304   4.965
 5461SOL    HW217283   4.524   0.271   4.853
 5462SOL     OW17284   1.415   0.490   0.892
 5462SOL    HW117285   1.365   0.521   0.811
 5462SOL    HW217286   1.513   0.502   0.876
 5463SOL     OW17287   6.592   2.406   0.808
 5463SOL    HW117288   6.657   2.475   0.776
 5463SOL    HW217289   6.557   2.432   0.897
 5464SOL     OW17290   1.971   0.187   4.371
 5464SOL    HW117291   2.019   0.274   4.378
 5464SOL    HW217292   1.883   0.194   4.418
 5465SOL     OW17293   2.629   0.294   5.014
 5465SOL    HW117294   2.601   0.256   5.102
 5465SOL    HW217295   2.642   0.219   4.949
 5466SOL     OW17296   4.679   4.225   4.424
 5466SOL    HW117297   4.631   4.138   4.429
 5466SOL    HW217298   4.753   4.218   4.356
 5467SOL     OW17299   5.187   1.336   2.627
 5467SOL    HW117300   5.258   1.289   2.574
 5467SOL    HW217301   5.112   1.272   2.646
 5468SOL     OW17302   4.390   1.925   5.171
 5468SOL    HW117303   4.425   1.873   5.093
 5468SOL    HW217304   4.419   2.021   5.163
 5469SOL     OW17305   4.095   3.954   6.463
 5469SOL    HW117306   4.026   3.950   6.391
 5469SOL    HW217307   4.050   3.974   6.550
 5470SOL     OW17308   1.739   5.072   4.004
 5470SOL    HW117309   1.833   5.043   4.021
 5470SOL    HW217310   1.687   5.071   4.089
 5471SOL     OW17311   0.093   5.625   1.945
 5471SOL    HW117312   0.000   5.588   1.939
 5471SOL    HW217313   0.157   5.552   1.968
 5472SOL     OW17314   3.837   4.740   5.909
 5472SOL    HW117315   3.738   4.725   5.907
 5472SOL    HW217316   3.860   4.820   5.853
 5473SOL     OW17317   1.273   3.700   3.466
 5473SOL    HW117318   1.373   3.695   3.469
 5473SOL    HW217319   1.234   3.609   3.475
 5474SOL     OW17320   1.675   5.601   3.605
 5474SOL    HW117321   1.620   5.589   3.687
 5474SOL    HW217322   1.738   5.677   3.618
 5475SOL     OW17323   2.863   2.246   1.413
 5475SOL    HW117324   2.950   2.266   1.368
 5475SOL    HW217325   2.879   2.223   1.509
 5476SOL     OW17326   1.156   3.206   6.237
 5476SOL    HW117327   1.125   3.300   6.225
 5476SOL    HW217328   1.167   3.163   6.147
 5477SOL     OW17329   2.208   3.021   3.064
 5477SOL    HW117330   2.216   3.070   3.151
 5477SOL    HW217331   2.135   2.953   3.071
 5478SOL     OW17332   5.851   5.800   5.344
 5478SOL    HW117333   5.843   5.879   5.283
 5478SOL    HW217334   5.849   5.716   5.290
 5479SOL     OW17335   4.815   0.751   4.660
 5479SOL    HW117336   4.854   0.785   4.745
 5479SOL    HW217337   4.871   0.675   4.625
 5480SOL     OW17338   0.795   3.387   4.383
 5480SOL    HW117339   0.711   3.415   4.430
 5480SOL    HW217340   0.873   3.437   4.420
 5481SOL     OW17341   4.148   6.917   4.063
 5481SOL    HW117342   4.213   6.928   3.988
 5481SOL    HW217343   4.155   6.825   4.099
 5482SOL     OW17344   2.150   4.899   1.402
 5482SOL    HW117345   2.204   4.935   1.326
 5482SOL    HW217346   2.193   4.926   1.489
 5483SOL     OW17347   0.110   2.517   6.106
 5483SOL    HW117348   0.135   2.585   6.175
 5483SOL    HW217349   0.095   2.429   6.150
 5484SOL     OW17350   4.652   1.069   4.797
 5484SOL    HW117351   4.577   1.093   4.858
 5484SOL    HW217352   4.671   1.144   4.734
 5485SOL     OW17353   2.382   0.397   5.627
 5485SOL    HW117354   2.423   0.452   5.554
 5485SOL    HW217355   2.288   0.375   5.604
 5486SOL     OW17356   2.869   6.311   5.316
 5486SOL    HW117357   2.953   6.358   5.293
 5486SOL    HW217358   2.888   6.240   5.384
 5487SOL     OW17359   3.533   5.313   5.907
 5487SOL    HW117360   3.518   5.324   6.005
 5487SOL    HW217361   3.615   5.363   5.880
 5488SOL     OW17362   6.227   1.183   1.037
 5488SOL    HW117363   6.142   1.220   0.999
 5488SOL    HW217364   6.263   1.247   1.105
 5489SOL     OW17365   6.788   4.280   3.073
 5489SOL    HW117366   6.697   4.249   3.100
 5489SOL    HW217367   6.811   4.241   2.984
 5490SOL     OW17368   1.420   6.662   2.893
 5490SOL    HW117369   1.493   6.652   2.826
 5490SOL    HW217370   1.449   6.625   2.981
 5491SOL     OW17371   6.329   4.367   0.502
 5491SOL    HW117372   6.400   4.296   0.503
 5491SOL    HW217373   6.309   4.394   0.596
 5492SOL     OW17374   0.040   2.131   6.070
 5492SOL    HW117375   6.994   2.065   6.039
 5492SOL    HW217376   0.090   2.167   5.991
 5493SOL     OW17377   3.766   3.799   1.369
 5493SOL    HW117378   3.822   3.731   1.322
 5493SOL    HW217379   3.672   3.795   1.333
 5494SOL     OW17380   6.049   4.139   5.384
 5494SOL    HW117381   5.970   4.139   5.324
 5494SOL    HW217382   6.078   4.045   5.402
 5495SOL     OW17383   5.858   6.752   0.785
 5495SOL    HW117384   5.798   6.703   0.720
 5495SOL    HW217385   5.950   6.759   0.746
 5496SOL     OW17386   3.883   0.476   4.217
 5496SOL    HW117387   3.850   0.426   4.137
 5496SOL    HW217388   3.861   0.425   4.300
 5497SOL     OW17389   1.182   0.461   5.851
 5497SOL    HW117390   1.092   0.440   5.891
 5497SOL    HW217391   1.233   0.377   5.837
 5498SOL     OW17392   1.054   5.077   1.767
 5498SOL    HW117393   0.989   5.152   1.780
 5498SOL    HW217394   1.141   5.114   1.734
 5499SOL     OW17395   1.871   0.180   5.136
 5499SOL    HW117396   1.870   0.263   5.191
 5499SOL    HW217397   1.783   0.168   5.091
 5500SOL     OW17398   2.869   0.978   0.733
 5500SOL    HW117399   2.864   0.981   0.833
 5500SOL    HW217400   2.869   1.071   0.697
 5501SOL     OW17401   3.652   3.803   6.453
 5501SOL    HW117402   3.652   3.857   6.537
 5501SOL    HW217403   3.739   3.754   6.446
 5502SOL     OW17404   4.400   2.679   6.876
 5502SOL    HW117405   4.360   2.767   6.903
 5502SOL    HW217406   4.403   2.618   6.955
 5503SOL     OW17407   6.570   3.949   0.968
 5503SOL    HW117408   6.611   4.007   1.038
 5503SOL    HW217409   6.514   3.878   1.011
 5504SOL     OW17410   3.699   1.475   6.902
 5504SOL    HW117411   3.623   1.521   6.857
 5504SOL    HW217412   3.695   1.377   6.882
 5505SOL     OW17413   2.938   5.141   3.400
 5505SOL    HW117414   2.969   5.046   3.410
 5505SOL    HW217415   3.000   5.202   3.449
 5506SOL     OW17416   0.774   3.359   6.197
 5506SOL    HW117417   0.704   3.398   6.137
 5506SOL    HW217418   0.798   3.267   6.167
 5507SOL     OW17419   2.488   7.019   6.964
 5507SOL    HW117420   2.404   0.039   6.929
 5507SOL    HW217421   2.489   6.923   6.938
 5508SOL     OW17422   6.831   0.737   6.175
 5508SOL    HW117423   6.805   0.658   6.120
 5508SOL    HW217424   6.870   0.707   6.261
 5509SOL     OW17425   6.985   4.943   0.953
 5509SOL    HW117426   6.905   4.918   0.899
 5509SOL    HW217427   6.957   5.002   1.029
 5510SOL     OW17428   4.315   5.110   0.159
 5510SOL    HW117429   4.404   5.066   0.169
 5510SOL    HW217430   4.307   5.185   0.225
 5511SOL     OW17431   0.443   1.892   5.808
 5511SOL    HW117432   0.528   1.934   5.837
 5511SOL    HW217433   0.401   1.948   5.736
 5512SOL     OW17434   3.191   1.018   1.899
 5512SOL    HW117435   3.169   1.061   1.812
 5512SOL    HW217436   3.289   0.995   1.901
 5513SOL     OW17437   4.054   4.255   0.210
 5513SOL    HW117438   4.077   4.253   0.307
 5513SOL    HW217439   3.974   4.197   0.193
 5514SOL     OW17440   3.057   1.250   0.194
 5514SOL    HW117441   3.128   1.276   0.128
 5514SOL    HW217442   3.095   1.184   0.259
 5515SOL     OW17443   2.730   6.092   2.300
 5515SOL    HW117444   2.729   6.068   2.203
 5515SOL    HW217445   2.824   6.089   2.335
 5516SOL     OW17446   2.022   2.118   5.564
 5516SOL    HW117447   1.949   2.060   5.599
 5516SOL    HW217448   2.023   2.114   5.464
 5517SOL     OW17449   1.211   2.849   2.943
 5517SOL    HW117450   1.147   2.860   2.866
 5517SOL    HW217451   1.291   2.907   2.928
 5518SOL     OW17452   4.241   4.766   6.566
 5518SOL    HW117453   4.219   4.772   6.663
 5518SOL    HW217454   4.222   4.854   6.523
 5519SOL     OW17455   4.853   2.520   3.747
 5519SOL    HW117456   4.802   2.513   3.661
 5519SOL    HW217457   4.789   2.526   3.823
 5520SOL     OW17458   4.874   6.930   1.438
 5520SOL    HW117459   4.811   7.003   1.463
 5520SOL    HW217460   4.888   6.870   1.517
 5521SOL     OW17461   5.400   5.757   1.847
 5521SOL    HW117462   5.304   5.754   1.876
 5521SOL    HW217463   5.453   5.811   1.913
 5522SOL     OW17464   6.015   5.840   0.806
 5522SOL    HW117465   6.080   5.835   0.882
 5522SOL    HW217466   5.952   5.916   0.821
 5523SOL     OW17467   5.329   0.921   0.924
 5523SOL    HW117468   5.336   0.850   0.854
 5523SOL    HW217469   5.339   1.011   0.881
 5524SOL     OW17470   2.509   1.780   3.991
 5524SOL    HW117471   2.449   1.804   3.914
 5524SOL    HW217472   2.471   1.818   4.076
 5525SOL     OW17473   5.817   0.875   1.609
 5525SOL    HW117474   5.882   0.869   1.685
 5525SOL    HW217475   5.798   0.971   1.588
 5526SOL     OW17476   5.202   4.524   3.597
 5526SOL    HW117477   5.180   4.434   3.633
 5526SOL    HW217478   5.120   4.565   3.556
 5527SOL     OW17479   5.867   1.318   3.798
 5527SOL    HW117480   5.887   1.304   3.895
 5527SOL    HW217481   5.918   1.397   3.765
 5528SOL     OW17482   0.763   1.066   0.089
 5528SOL    HW117483   0.730   1.031   0.177
 5528SOL    HW217484   0.806   0.991   0.038
 5529SOL     OW17485   3.484   0.401   2.029
 5529SOL    HW117486   3.458   0.417   1.934
 5529SOL    HW217487   3.450   0.476   2.086
 5530SOL     OW17488   6.532   1.983   0.921
 5530SOL    HW117489   6.627   2.001   0.947
 5530SOL    HW217490   6.529   1.906   0.857
 5531SOL     OW17491   2.085   4.180   1.069
 5531SOL    HW117492   2.108   4.120   1.146
 5531SOL    HW217493   1.989   4.167   1.044
 5532SOL     OW17494   1.268   2.990   0.426
 5532SOL    HW117495   1.297   3.078   0.387
 5532SOL    HW217496   1.313   2.976   0.514
 5533SOL     OW17497   3.248   1.728   2.366
 5533SOL    HW117498   3.324   1.706   2.305
 5533SOL    HW217499   3.161   1.716   2.317
 5534SOL     OW17500   1.557   0.347   4.720
 5534SOL    HW117501   1.539   0.445   4.723
 5534SOL    HW217502   1.482   0.300   4.673
 5535SOL     OW17503   0.568   1.831   3.277
 5535SOL    HW117504   0.533   1.846   3.369
 5535SOL    HW217505   0.657   1.876   3.267
 5536SOL     OW17506   3.968   6.127   4.258
 5536SOL    HW117507   4.057   6.166   4.234
 5536SOL    HW217508   3.945   6.151   4.352
 5537SOL     OW17509   2.937   1.570   3.790
 5537SOL    HW117510   3.001   1.493   3.790
 5537SOL    HW217511   2.934   1.611   3.699
 5538SOL     OW17512   4.131   5.000   5.212
 5538SOL    HW117513   4.057   5.047   5.163
 5538SOL    HW217514   4.218   5.044   5.190
 5539SOL     OW17515   2.762   4.343   0.651
 5539SOL    HW117516   2.744   4.427   0.601
 5539SOL    HW217517   2.778   4.268   0.587
 5540SOL     OW17518   5.251   5.359   1.605
 5540SOL    HW117519   5.273   5.295   1.679
 5540SOL    HW217520   5.211   5.309   1.528
 5541SOL     OW17521   4.736   1.251   5.648
 5541SOL    HW117522   4.693   1.196   5.576
 5541SOL    HW217523   4.816   1.203   5.683
 5542SOL     OW17524   5.457   4.669   6.530
 5542SOL    HW117525   5.498   4.745   6.480
 5542SOL    HW217526   5.438   4.593   6.468
 5543SOL     OW17527   0.341   2.330   6.262
 5543SOL    HW117528   0.396   2.267   6.316
 5543SOL    HW217529   0.401   2.393   6.213
 5544SOL     OW17530   5.893   1.050   6.957
 5544SOL    HW117531   5.912   1.128   7.016
 5544SOL    HW217532   5.877   0.969   7.012
 5545SOL     OW17533   2.652   2.488   1.834
 5545SOL    HW117534   2.738   2.467   1.879
 5545SOL    HW217535   2.630   2.416   1.768
 5546SOL     OW17536   2.839   5.105   5.727
 5546SOL    HW117537   2.783   5.080   5.806
 5546SOL    HW217538   2.828   5.036   5.656
 5547SOL     OW17539   3.913   6.065   4.737
 5547SOL    HW117540   3.833   6.080   4.795
 5547SOL    HW217541   3.894   6.099   4.645
 5548SOL     OW17542   0.006   2.806   5.479
 5548SOL    HW117543   0.025   2.708   5.491
 5548SOL    HW217544   6.973   2.819   5.398
 5549SOL     OW17545   3.384   4.809   7.006
 5549SOL    HW117546   3.355   4.781   0.074
 5549SOL    HW217547   3.304   4.824   6.948
 5550SOL     OW17548   3.621   6.953   2.450
 5550SOL    HW117549   3.581   6.861   2.446
 5550SOL    HW217550   3.626   6.991   2.358
 5551SOL     OW17551   0.276   1.752   2.885
 5551SOL    HW117552   0.281   1.840   2.838
 5551SOL    HW217553   0.326   1.757   2.972
 5552SOL     OW17554   0.651   2.987   1.125
 5552SOL    HW117555   0.677   3.084   1.121
 5552SOL    HW217556   0.624   2.964   1.219
 5553SOL     OW17557   5.343   6.431   0.066
 5553SOL    HW117558   5.271   6.475   0.118
 5553SOL    HW217559   5.403   6.501   0.025
 5554SOL     OW17560   2.920   1.384   4.348
 5554SOL    HW117561   2.907   1.309   4.412
 5554SOL    HW217562   2.836   1.401   4.298
 5555SOL     OW17563   0.891   6.216   2.174
 5555SOL    HW117564   0.866   6.313   2.165
 5555SOL    HW217565   0.961   6.193   2.106
 5556SOL     OW17566   0.452   1.218   4.515
 5556SOL    HW117567   0.430   1.187   4.422
 5556SOL    HW217568   0.370   1.212   4.572
 5557SOL     OW17569   2.789   0.753   3.643
 5557SOL    HW117570   2.881   0.768   3.606
 5557SOL    HW217571   2.749   0.840   3.669
 5558SOL     OW17572   4.985   2.594   4.577
 5558SOL    HW117573   5.051   2.667   4.560
 5558SOL    HW217574   4.900   2.634   4.614
 5559SOL     OW17575   2.958   0.511   0.829
 5559SOL    HW117576   2.916   0.472   0.747
 5559SOL    HW217577   3.009   0.593   0.804
 5560SOL     OW17578   6.790   0.890   4.360
 5560SOL    HW117579   6.763   0.978   4.399
 5560SOL    HW217580   6.887   0.893   4.337
 5561SOL     OW17581   1.682   3.863   3.046
 5561SOL    HW117582   1.736   3.857   3.130
 5561SOL    HW217583   1.586   3.880   3.069
 5562SOL     OW17584   2.605   2.645   6.380
 5562SOL    HW117585   2.555   2.728   6.403
 5562SOL    HW217586   2.556   2.565   6.415
 5563SOL     OW17587   4.258   4.096   1.724
 5563SOL    HW117588   4.217   4.186   1.708
 5563SOL    HW217589   4.338   4.106   1.783
 5564SOL     OW17590   5.868   3.813   1.880
 5564SOL    HW117591   5.859   3.736   1.817
 5564SOL    HW217592   5.778   3.847   1.904
 5565SOL     OW17593   3.063   2.875   5.570
 5565SOL    HW117594   3.115   2.828   5.642
 5565SOL    HW217595   3.126   2.902   5.497
 5566SOL     OW17596   2.114   4.835   0.456
 5566SOL    HW117597   2.025   4.848   0.499
 5566SOL    HW217598   2.114   4.879   0.366
 5567SOL     OW17599   2.165   5.790   3.391
 5567SOL    HW117600   2.095   5.800   3.321
 5567SOL    HW217601   2.168   5.695   3.422
 5568SOL     OW17602   3.792   2.576   1.063
 5568SOL    HW117603   3.869   2.513   1.070
 5568SOL    HW217604   3.735   2.551   0.985
 5569SOL     OW17605   5.594   2.303   6.848
 5569SOL    HW117606   5.658   2.379   6.859
 5569SOL    HW217607   5.500   2.336   6.861
 5570SOL     OW17608   0.460   3.331   5.693
 5570SOL    HW117609   0.439   3.233   5.694
 5570SOL    HW217610   0.409   3.377   5.765
 5571SOL     OW17611   6.420   4.629   6.612
 5571SOL    HW117612   6.377   4.551   6.568
 5571SOL    HW217613   6.460   4.601   6.700
 5572SOL     OW17614   5.554   2.836   5.348
 5572SOL    HW117615   5.473   2.877   5.306
 5572SOL    HW217616   5.632   2.898   5.338
 5573SOL     OW17617   0.561   4.157   0.292
 5573SOL    HW117618   0.542   4.121   0.201
 5573SOL    HW217619   0.583   4.081   0.354
 5574SOL     OW17620   0.217   5.870   4.654
 5574SOL    HW117621   0.240   5.776   4.680
 5574SOL    HW217622   0.292   5.931   4.677
 5575SOL     OW17623   1.137   1.149   1.478
 5575SOL    HW117624   1.087   1.145   1.565
 5575SOL    HW217625   1.187   1.236   1.473
 5576SOL     OW17626   5.786   5.799   0.346
 5576SOL    HW117627   5.848   5.720   0.341
 5576SOL    HW217628   5.840   5.882   0.361
 5577SOL     OW17629   2.146   3.807   4.869
 5577SOL    HW117630   2.199   3.888   4.896
 5577SOL    HW217631   2.162   3.734   4.936
 5578SOL     OW17632   3.023   1.812   5.927
 5578SOL    HW117633   3.104   1.862   5.898
 5578SOL    HW217634   3.016   1.814   6.027
 5579SOL     OW17635   4.962   4.793   1.597
 5579SOL    HW117636   4.953   4.861   1.671
 5579SOL    HW217637   5.028   4.723   1.624
 5580SOL     OW17638   5.131   0.766   1.521
 5580SOL    HW117639   5.210   0.705   1.524
 5580SOL    HW217640   5.085   0.757   1.432
 5581SOL     OW17641   2.337   2.748   0.880
 5581SOL    HW117642   2.270   2.711   0.945
 5581SOL    HW217643   2.429   2.737   0.918
 5582SOL     OW17644   3.797   2.963   3.856
 5582SOL    HW117645   3.840   3.014   3.930
 5582SOL    HW217646   3.698   2.974   3.861
 5583SOL     OW17647   4.311   0.718   0.130
 5583SOL    HW117648   4.362   0.756   0.207
 5583SOL    HW217649   4.373   0.666   0.071
 5584SOL     OW17650   5.105   3.297   3.237
 5584SOL    HW117651   5.175   3.356   3.277
 5584SOL    HW217652   5.036   3.354   3.192
 5585SOL     OW17653   6.977   6.550   4.164
 5585SOL    HW117654   6.983   6.613   4.241
 5585SOL    HW217655   7.018   6.592   4.083
 5586SOL     OW17656   2.092   1.552   6.646
 5586SOL    HW117657   2.039   1.637   6.645
 5586SOL    HW217658   2.030   1.475   6.630
 5587SOL     OW17659   3.937   6.593   3.932
 5587SOL    HW117660   3.923   6.585   4.031
 5587SOL    HW217661   4.032   6.619   3.913
 5588SOL     OW17662   4.257   0.920   5.972
 5588SOL    HW117663   4.341   0.867   5.962
 5588SOL    HW217664   4.213   0.896   6.058
 5589SOL     OW17665   3.263   4.040   6.734
 5589SOL    HW117666   3.361   4.052   6.748
 5589SOL    HW217667   3.214   4.099   6.799
 5590SOL     OW17668   6.857   6.789   3.597
 5590SOL    HW117669   6.859   6.886   3.575
 5590SOL    HW217670   6.916   6.739   3.533
 5591SOL     OW17671   5.193   0.233   0.094
 5591SOL    HW117672   5.187   0.321   0.047
 5591SOL    HW217673   5.102   0.192   0.101
 5592SOL     OW17674   1.784   1.969   2.369
 5592SOL    HW117675   1.872   1.930   2.397
 5592SOL    HW217676   1.757   1.930   2.281
 5593SOL     OW17677   1.795   3.789   4.948
 5593SOL    HW117678   1.743   3.747   4.873
 5593SOL    HW217679   1.893   3.781   4.930
 5594SOL     OW17680   2.683   1.451   6.478
 5594SOL    HW117681   2.598   1.494   6.508
 5594SOL    HW217682   2.671   1.415   6.386
 5595SOL     OW17683   0.445   1.531   6.147
 5595SOL    HW117684   0.434   1.607   6.211
 5595SOL    HW217685   0.483   1.565   6.061
 5596SOL     OW17686   5.143   1.955   3.536
 5596SOL    HW117687   5.235   1.992   3.551
 5596SOL    HW217688   5.138   1.862   3.573
 5597SOL     OW17689   0.669   1.399   6.256
 5597SOL    HW117690   0.743   1.450   6.299
 5597SOL    HW217691   0.602   1.463   6.218
 5598SOL     OW17692   6.905   1.778   4.185
 5598SOL    HW117693   6.903   1.769   4.285
 5598SOL    HW217694   6.885   1.689   4.144
 5599SOL     OW17695   5.111   2.574   3.165
 5599SOL    HW117696   5.062   2.514   3.228
 5599SOL    HW217697   5.092   2.547   3.071
 5600SOL     OW17698   1.823   2.188   2.613
 5600SOL    HW117699   1.813   2.106   2.556
 5600SOL    HW217700   1.811   2.269   2.557
 5601SOL     OW17701   5.835   3.643   5.866
 5601SOL    HW117702   5.819   3.653   5.964
 5601SOL    HW217703   5.867   3.550   5.847
 5602SOL     OW17704   6.214   2.035   2.126
 5602SOL    HW117705   6.242   1.958   2.069
 5602SOL    HW217706   6.221   2.120   2.074
 5603SOL     OW17707   3.443   1.981   5.773
 5603SOL    HW117708   3.441   1.921   5.853
 5603SOL    HW217709   3.351   2.012   5.751
 5604SOL     OW17710   1.364   6.277   3.417
 5604SOL    HW117711   1.309   6.315   3.492
 5604SOL    HW217712   1.376   6.179   3.431
 5605SOL     OW17713   4.569   6.832   4.095
 5605SOL    HW117714   4.528   6.805   4.182
 5605SOL    HW217715   4.577   6.931   4.090
 5606SOL     OW17716   4.831   2.875   0.280
 5606SOL    HW117717   4.824   2.900   0.376
 5606SOL    HW217718   4.868   2.952   0.228
 5607SOL     OW17719   6.967   2.470   2.853
 5607SOL    HW117720   6.981   2.502   2.759
 5607SOL    HW217721   6.983   2.546   2.916
 5608SOL     OW17722   5.047   0.707   3.553
 5608SOL    HW117723   5.113   0.735   3.623
 5608SOL    HW217724   4.987   0.784   3.530
 5609SOL     OW17725   6.990   0.459   0.323
 5609SOL    HW117726   0.051   0.513   0.319
 5609SOL    HW217727   6.951   0.451   0.231
 5610SOL     OW17728   5.903   6.062   0.087
 5610SOL    HW117729   5.808   6.083   0.110
 5610SOL    HW217730   5.906   5.993   0.015
 5611SOL     OW17731   5.866   4.178   2.356
 5611SOL    HW117732   5.963   4.152   2.351
 5611SOL    HW217733   5.850   4.232   2.439
 5612SOL     OW17734   4.085   1.750   0.655
 5612SOL    HW117735   4.035   1.668   0.681
 5612SOL    HW217736   4.076   1.819   0.726
 5613SOL     OW17737   5.832   5.565   5.807
 5613SOL    HW117738   5.835   5.620   5.723
 5613SOL    HW217739   5.925   5.539   5.833
 5614SOL     OW17740   5.198   2.783   4.339
 5614SOL    HW117741   5.198   2.855   4.270
 5614SOL    HW217742   5.266   2.714   4.316
 5615SOL     OW17743   0.702   3.353   3.603
 5615SOL    HW117744   0.763   3.430   3.618
 5615SOL    HW217745   0.716   3.316   3.510
 5616SOL     OW17746   2.063   3.591   2.695
 5616SOL    HW117747   1.997   3.517   2.685
 5616SOL    HW217748   2.100   3.591   2.788
 5617SOL     OW17749   1.372   4.402   6.256
 5617SOL    HW117750   1.283   4.437   6.286
 5617SOL    HW217751   1.413   4.350   6.331
 5618SOL     OW17752   4.820   6.703   2.496
 5618SOL    HW117753   4.873   6.629   2.454
 5618SOL    HW217754   4.870   6.739   2.575
 5619SOL     OW17755   3.521   3.273   3.401
 5619SOL    HW117756   3.574   3.299   3.320
 5619SOL    HW217757   3.582   3.262   3.479
 5620SOL     OW17758   5.002   4.690   3.971
 5620SOL    HW117759   4.947   4.725   3.896
 5620SOL    HW217760   4.971   4.729   4.057
 5621SOL     OW17761   1.333   2.630   6.762
 5621SOL    HW117762   1.418   2.635   6.710
 5621SOL    HW217763   1.354   2.613   6.858
 5622SOL     OW17764   4.801   5.363   4.359
 5622SOL    HW117765   4.807   5.285   4.296
 5622SOL    HW217766   4.707   5.396   4.362
 5623SOL     OW17767   4.483   5.038   3.860
 5623SOL    HW117768   4.387   5.025   3.884
 5623SOL    HW217769   4.540   5.001   3.934
 5624SOL     OW17770   5.170   4.702   3.365
 5624SOL    HW117771   5.129   4.652   3.288
 5624SOL    HW217772   5.233   4.771   3.330
 5625SOL     OW17773   2.976   6.701   6.062
 5625SOL    HW117774   3.046   6.648   6.111
 5625SOL    HW217775   2.994   6.799   6.074
 5626SOL     OW17776   0.392   4.891   6.769
 5626SOL    HW117777   0.403   4.834   6.851
 5626SOL    HW217778   0.384   4.987   6.796
 5627SOL     OW17779   1.129   5.864   0.287
 5627SOL    HW117780   1.226   5.845   0.300
 5627SOL    HW217781   1.084   5.871   0.376
 5628SOL     OW17782   2.247   3.609   0.463
 5628SOL    HW117783   2.327   3.645   0.512
 5628SOL    HW217784   2.203   3.538   0.517
 5629SOL     OW17785   0.068   3.529   3.558
 5629SOL    HW117786   0.094   3.625   3.547
 5629SOL    HW217787   0.053   3.509   3.655
 5630SOL     OW17788   0.761   3.798   0.288
 5630SOL    HW117789   0.740   3.724   0.224
 5630SOL    HW217790   0.811   3.870   0.239
 5631SOL     OW17791   3.824   1.703   1.715
 5631SOL    HW117792   3.805   1.801   1.725
 5631SOL    HW217793   3.801   1.674   1.622
 5632SOL     OW17794   5.079   6.763   5.629
 5632SOL    HW117795   5.026   6.690   5.673
 5632SOL    HW217796   5.028   6.798   5.551
 5633SOL     OW17797   1.104   5.597   5.724
 5633SOL    HW117798   1.075   5.604   5.819
 5633SOL    HW217799   1.055   5.665   5.669
 5634SOL     OW17800   3.064   0.305   1.950
 5634SOL    HW117801   3.130   0.287   1.877
 5634SOL    HW217802   3.013   0.222   1.970
 5635SOL     OW17803   3.513   0.794   1.956
 5635SOL    HW117804   3.599   0.821   1.913
 5635SOL    HW217805   3.534   0.747   2.042
 5636SOL     OW17806   4.880   0.682   5.627
 5636SOL    HW117807   4.913   0.686   5.533
 5636SOL    HW217808   4.942   0.735   5.685
 5637SOL     OW17809   4.809   6.893   4.712
 5637SOL    HW117810   4.893   6.924   4.669
 5637SOL    HW217811   4.745   6.861   4.642
 5638SOL     OW17812   6.944   5.331   0.889
 5638SOL    HW117813   6.883   5.269   0.839
 5638SOL    HW217814   6.889   5.391   0.948
 5639SOL     OW17815   2.269   0.387   1.597
 5639SOL    HW117816   2.177   0.381   1.558
 5639SOL    HW217817   2.266   0.444   1.680
 5640SOL     OW17818   3.176   6.655   3.392
 5640SOL    HW117819   3.266   6.676   3.430
 5640SOL    HW217820   3.109   6.648   3.466
 5641SOL     OW17821   0.000   3.895   4.072
 5641SOL    HW117822   6.999   3.922   4.165
 5641SOL    HW217823   0.085   3.842   4.074
 5642SOL     OW17824   2.456   3.424   6.394
 5642SOL    HW117825   2.423   3.498   6.452
 5642SOL    HW217826   2.504   3.462   6.315
 5643SOL     OW17827   6.163   2.400   4.270
 5643SOL    HW117828   6.147   2.418   4.367
 5643SOL    HW217829   6.080   2.363   4.229
 5644SOL     OW17830   4.035   0.543   4.863
 5644SOL    HW117831   4.107   0.541   4.932
 5644SOL    HW217832   3.968   0.614   4.886
 5645SOL     OW17833   6.737   6.175   3.929
 5645SOL    HW117834   6.652   6.149   3.883
 5645SOL    HW217835   6.716   6.221   4.015
 5646SOL     OW17836   7.003   6.307   3.869
 5646SOL    HW117837   0.018   6.220   3.898
 5646SOL    HW217838   6.903   6.300   3.864
 5647SOL     OW17839   6.909   4.200   6.830
 5647SOL    HW117840   6.886   4.156   6.917
 5647SOL    HW217841   6.997   4.245   6.838
 5648SOL     OW17842   2.291   1.089   5.000
 5648SOL    HW117843   2.235   1.163   5.037
 5648SOL    HW217844   2.335   1.121   4.916
 5649SOL     OW17845   1.111   6.963   5.039
 5649SOL    HW117846   1.120   6.918   5.127
 5649SOL    HW217847   1.025   7.015   5.036
 5650SOL     OW17848   6.526   5.210   6.209
 5650SOL    HW117849   6.454   5.168   6.153
 5650SOL    HW217850   6.605   5.148   6.212
 5651SOL     OW17851   6.049   1.205   2.639
 5651SOL    HW117852   6.013   1.237   2.728
 5651SOL    HW217853   6.081   1.111   2.648
 5652SOL     OW17854   5.506   3.806   0.786
 5652SOL    HW117855   5.606   3.809   0.782
 5652SOL    HW217856   5.477   3.794   0.882
 5653SOL     OW17857   2.482   6.323   6.834
 5653SOL    HW117858   2.411   6.333   6.764
 5653SOL    HW217859   2.558   6.384   6.813
 5654SOL     OW17860   1.236   6.239   6.208
 5654SOL    HW117861   1.238   6.338   6.220
 5654SOL    HW217862   1.173   6.198   6.274
 5655SOL     OW17863   0.296   5.183   3.042
 5655SOL    HW117864   0.202   5.199   3.012
 5655SOL    HW217865   0.356   5.181   2.962
 5656SOL     OW17866   3.427   5.783   6.333
 5656SOL    HW117867   3.427   5.755   6.237
 5656SOL    HW217868   3.509   5.748   6.378
 5657SOL     OW17869   3.952   5.494   2.111
 5657SOL    HW117870   4.006   5.440   2.174
 5657SOL    HW217871   4.012   5.551   2.055
 5658SOL     OW17872   5.120   6.926   5.015
 5658SOL    HW117873   5.192   6.888   4.958
 5658SOL    HW217874   5.148   6.925   5.111
 5659SOL     OW17875   3.505   4.129   2.755
 5659SOL    HW117876   3.466   4.152   2.845
 5659SOL    HW217877   3.432   4.123   2.688
 5660SOL     OW17878   6.227   6.600   0.785
 5660SOL    HW117879   6.143   6.547   0.792
 5660SOL    HW217880   6.257   6.628   0.876
 5661SOL     OW17881   6.645   5.411   4.993
 5661SOL    HW117882   6.578   5.411   4.920
 5661SOL    HW217883   6.633   5.331   5.051
 5662SOL     OW17884   2.143   3.809   4.575
 5662SOL    HW117885   2.195   3.881   4.529
 5662SOL    HW217886   2.130   3.834   4.671
 5663SOL     OW17887   2.207   3.894   0.526
 5663SOL    HW117888   2.200   3.803   0.485
 5663SOL    HW217889   2.128   3.950   0.497
 5664SOL     OW17890   0.197   5.443   2.382
 5664SOL    HW117891   0.252   5.386   2.320
 5664SOL    HW217892   0.195   5.537   2.348
 5665SOL     OW17893   1.675   1.596   5.942
 5665SOL    HW117894   1.760   1.649   5.944
 5665SOL    HW217895   1.623   1.615   6.026
 5666SOL     OW17896   6.018   5.846   6.936
 5666SOL    HW117897   6.097   5.886   6.890
 5666SOL    HW217898   6.048   5.795   7.016
 5667SOL     OW17899   6.472   6.262   3.338
 5667SOL    HW117900   6.536   6.334   3.311
 5667SOL    HW217901   6.405   6.248   3.265
 5668SOL     OW17902   5.731   3.248   5.764
 5668SOL    HW117903   5.777   3.159   5.762
 5668SOL    HW217904   5.662   3.251   5.691
 5669SOL     OW17905   6.983   3.562   4.975
 5669SOL    HW117906   6.962   3.485   5.036
 5669SOL    HW217907   6.920   3.560   4.897
 5670SOL     OW17908   1.869   3.322   2.956
 5670SOL    HW117909   1.951   3.319   3.014
 5670SOL    HW217910   1.897   3.333   2.861
 5671SOL     OW17911   1.453   1.094   5.156
 5671SOL    HW117912   1.414   1.161   5.093
 5671SOL    HW217913   1.552   1.107   5.162
 5672SOL     OW17914   5.170   4.344   5.471
 5672SOL    HW117915   5.100   4.406   5.436
 5672SOL    HW217916   5.229   4.393   5.535
 5673SOL     OW17917   1.781   0.558   1.193
 5673SOL    HW117918   1.737   0.495   1.129
 5673SOL    HW217919   1.725   0.566   1.276
 5674SOL     OW17920   6.748   3.627   1.669
 5674SOL    HW117921   6.681   3.555   1.651
 5674SOL    HW217922   6.840   3.591   1.656
 5675SOL     OW17923   4.251   1.580   5.880
 5675SOL    HW117924   4.154   1.597   5.898
 5675SOL    HW217925   4.304   1.589   5.964
 5676SOL     OW17926   3.377   6.535   1.546
 5676SOL    HW117927   3.466   6.577   1.527
 5676SOL    HW217928   3.389   6.460   1.611
 5677SOL     OW17929   6.936   1.337   3.983
 5677SOL    HW117930   7.003   1.328   3.908
 5677SOL    HW217931   6.932   1.252   4.034
 5678SOL     OW17932   1.972   5.001   3.763
 5678SOL    HW117933   1.944   5.036   3.853
 5678SOL    HW217934   1.994   4.904   3.770
 5679SOL     OW17935   2.812   5.748   5.306
 5679SOL    HW117936   2.774   5.821   5.364
 5679SOL    HW217937   2.858   5.789   5.227
 5680SOL     OW17938   2.027   0.030   5.910
 5680SOL    HW117939   1.994   0.124   5.921
 5680SOL    HW217940   1.974   7.008   5.838
 5681SOL     OW17941   2.033   3.737   0.043
 5681SOL    HW117942   1.936   3.723   0.027
 5681SOL    HW217943   2.069   3.805   7.002
 5682SOL     OW17944   0.921   3.764   3.968
 5682SOL    HW117945   0.829   3.804   3.976
 5682SOL    HW217946   0.984   3.813   4.028
 5683SOL     OW17947   3.578   3.108   4.645
 5683SOL    HW117948   3.631   3.053   4.710
 5683SOL    HW217949   3.641   3.162   4.588
 5684SOL     OW17950   2.959   3.835   3.305
 5684SOL    HW117951   3.039   3.887   3.276
 5684SOL    HW217952   2.921   3.875   3.388
 5685SOL     OW17953   1.200   5.471   2.069
 5685SOL    HW117954   1.117   5.417   2.078
 5685SOL    HW217955   1.182   5.565   2.097
 5686SOL     OW17956   3.565   5.742   0.448
 5686SOL    HW117957   3.518   5.664   0.489
 5686SOL    HW217958   3.500   5.797   0.395
 5687SOL     OW17959   4.321   5.274   5.767
 5687SOL    HW117960   4.384   5.203   5.800
 5687SOL    HW217961   4.227   5.247   5.787
 5688SOL     OW17962   6.062   1.760   2.429
 5688SOL    HW117963   5.969   1.773   2.462
 5688SOL    HW217964   6.112   1.699   2.492
 5689SOL     OW17965   4.076   2.859   5.862
 5689SOL    HW117966   4.115   2.868   5.954
 5689SOL    HW217967   3.993   2.803   5.867
 5690SOL     OW17968   5.085   6.628   2.137
 5690SOL    HW117969   5.098   6.602   2.232
 5690SOL    HW217970   5.054   6.548   2.084
 5691SOL     OW17971   2.313   0.111   2.935
 5691SOL    HW117972   2.408   0.133   2.917
 5691SOL    HW217973   2.295   0.121   3.033
 5692SOL     OW17974   6.069   2.958   6.885
 5692SOL    HW117975   6.139   2.985   6.951
 5692SOL    HW217976   6.111   2.899   6.815
 5693SOL     OW17977   4.758   2.794   3.194
 5693SOL    HW117978   4.781   2.885   3.158
 5693SOL    HW217979   4.818   2.772   3.271
 5694SOL     OW17980   1.418   1.931   4.354
 5694SOL    HW117981   1.463   1.933   4.265
 5694SOL    HW217982   1.461   1.999   4.414
 5695SOL     OW17983   1.622   3.715   3.480
 5695SOL    HW117984   1.590   3.809   3.480
 5695SOL    HW217985   1.590   3.669   3.397
 5696SOL     OW17986   3.660   0.007   5.973
 5696SOL    HW117987   3.735   7.019   5.908
 5696SOL    HW217988   3.628   0.102   5.971
 5697SOL     OW17989   6.376   3.220   0.207
 5697SOL    HW117990   6.404   3.313   0.183
 5697SOL    HW217991   6.334   3.177   0.128
 5698SOL     OW17992   1.089   4.157   2.664
 5698SOL    HW117993   1.039   4.073   2.686
 5698SOL    HW217994   1.048   4.200   2.584
 5699SOL     OW17995   6.403   1.659   4.946
 5699SOL    HW117996   6.495   1.629   4.973
 5699SOL    HW217997   6.338   1.585   4.962
 5700SOL     OW17998   1.184   5.083   3.344
 5700SOL    HW117999   1.102   5.032   3.367
 5700SOL    HW218000   1.182   5.172   3.390
 5701SOL     OW18001   5.303   4.982   1.842
 5701SOL    HW118002   5.377   5.037   1.881
 5701SOL    HW218003   5.226   4.979   1.906
 5702SOL     OW18004   2.171   0.481   6.826
 5702SOL    HW118005   2.157   0.534   6.909
 5702SOL    HW218006   2.264   0.444   6.825
 5703SOL     OW18007   4.340   4.374   1.144
 5703SOL    HW118008   4.350   4.460   1.193
 5703SOL    HW218009   4.427   4.323   1.148
 5704SOL     OW18010   4.572   5.542   4.176
 5704SOL    HW118011   4.601   5.565   4.083
 5704SOL    HW218012   4.512   5.614   4.211
 5705SOL     OW18013   5.944   1.551   2.714
 5705SOL    HW118014   6.044   1.546   2.704
 5705SOL    HW218015   5.901   1.547   2.624
 5706SOL     OW18016   2.729   1.045   6.500
 5706SOL    HW118017   2.829   1.044   6.487
 5706SOL    HW218018   2.706   1.105   6.576
 5707SOL     OW18019   2.952   2.218   5.863
 5707SOL    HW118020   2.944   2.168   5.777
 5707SOL    HW218021   2.898   2.302   5.859
 5708SOL     OW18022   5.871   0.193   1.918
 5708SOL    HW118023   5.882   0.260   1.845
 5708SOL    HW218024   5.855   0.103   1.877
 5709SOL     OW18025   0.581   1.024   2.908
 5709SOL    HW118026   0.569   1.120   2.883
 5709SOL    HW218027   0.493   0.977   2.903
 5710SOL     OW18028   3.004   4.484   6.395
 5710SOL    HW118029   3.052   4.568   6.375
 5710SOL    HW218030   2.920   4.479   6.340
 5711SOL     OW18031   4.754   1.593   4.466
 5711SOL    HW118032   4.661   1.613   4.496
 5711SOL    HW218033   4.810   1.676   4.471
 5712SOL     OW18034   0.190   5.768   6.337
 5712SOL    HW118035   0.160   5.863   6.323
 5712SOL    HW218036   0.226   5.732   6.251
 5713SOL     OW18037   0.092   2.680   2.706
 5713SOL    HW118038   0.064   2.641   2.793
 5713SOL    HW218039   0.190   2.667   2.693
 5714SOL     OW18040   1.925   0.916   6.605
 5714SOL    HW118041   1.991   0.841   6.608
 5714SOL    HW218042   1.836   0.881   6.576
 5715SOL     OW18043   1.568   0.354   3.518
 5715SOL    HW118044   1.608   0.300   3.444
 5715SOL    HW218045   1.641   0.400   3.568
 5716SOL     OW18046   1.929   2.965   5.025
 5716SOL    HW118047   1.970   2.884   5.067
 5716SOL    HW218048   2.001   3.025   4.990
 5717SOL     OW18049   0.659   3.952   0.501
 5717SOL    HW118050   0.695   3.881   0.440
 5717SOL    HW218051   0.682   3.929   0.596
 5718SOL     OW18052   2.160   4.755   5.300
 5718SOL    HW118053   2.068   4.742   5.335
 5718SOL    HW218054   2.190   4.671   5.255
 5719SOL     OW18055   2.409   0.331   6.752
 5719SOL    HW118056   2.481   0.312   6.686
 5719SOL    HW218057   2.366   0.245   6.779
 5720SOL     OW18058   2.008   5.170   4.050
 5720SOL    HW118059   2.083   5.227   4.017
 5720SOL    HW218060   1.940   5.227   4.095
 5721SOL     OW18061   0.543   4.469   1.250
 5721SOL    HW118062   0.448   4.448   1.271
 5721SOL    HW218063   0.560   4.566   1.269
 5722SOL     OW18064   5.131   1.197   4.121
 5722SOL    HW118065   5.214   1.215   4.174
 5722SOL    HW218066   5.054   1.182   4.184
 5723SOL     OW18067   1.630   4.709   1.009
 5723SOL    HW118068   1.617   4.613   1.031
 5723SOL    HW218069   1.546   4.747   0.970
 5724SOL     OW18070   5.043   1.673   6.900
 5724SOL    HW118071   5.117   1.719   6.949
 5724SOL    HW218072   4.984   1.742   6.857
 5725SOL     OW18073   5.073   5.684   6.003
 5725SOL    HW118074   5.109   5.593   6.023
 5725SOL    HW218075   4.974   5.684   6.013
 5726SOL     OW18076   4.737   3.018   6.138
 5726SOL    HW118077   4.832   3.034   6.112
 5726SOL    HW218078   4.720   3.056   6.229
 5727SOL     OW18079   5.845   2.157   3.941
 5727SOL    HW118080   5.900   2.089   3.892
 5727SOL    HW218081   5.750   2.153   3.910
 5728SOL     OW18082   5.559   0.935   6.466
 5728SOL    HW118083   5.494   0.865   6.436
 5728SOL    HW218084   5.650   0.895   6.474
 5729SOL     OW18085   0.590   3.225   5.477
 5729SOL    HW118086   0.522   3.254   5.545
 5729SOL    HW218087   0.650   3.157   5.518
 5730SOL     OW18088   4.068   5.587   6.721
 5730SOL    HW118089   4.131   5.590   6.644
 5730SOL    HW218090   3.997   5.518   6.704
 5731SOL     OW18091   3.816   0.874   4.478
 5731SOL    HW118092   3.776   0.823   4.402
 5731SOL    HW218093   3.747   0.934   4.517
 5732SOL     OW18094   5.788   4.344   3.972
 5732SOL    HW118095   5.878   4.344   4.014
 5732SOL    HW218096   5.787   4.409   3.895
 5733SOL     OW18097   2.982   6.935   0.712
 5733SOL    HW118098   3.039   6.882   0.649
 5733SOL    HW218099   3.024   0.003   0.725
 5734SOL     OW18100   2.295   6.133   6.324
 5734SOL    HW118101   2.320   6.127   6.421
 5734SOL    HW218102   2.361   6.081   6.269
 5735SOL     OW18103   4.797   0.352   2.390
 5735SOL    HW118104   4.809   0.381   2.295
 5735SOL    HW218105   4.887   0.347   2.435
 5736SOL     OW18106   5.995   4.489   6.998
 5736SOL    HW118107   5.992   4.579   6.956
 5736SOL    HW218108   5.903   4.460   0.001
 5737SOL     OW18109   4.361   5.040   1.265
 5737SOL    HW118110   4.390   4.946   1.249
 5737SOL    HW218111   4.381   5.066   1.360
 5738SOL     OW18112   2.859   0.750   0.398
 5738SOL    HW118113   2.847   0.682   0.326
 5738SOL    HW218114   2.770   0.768   0.442
 5739SOL     OW18115   1.967   1.211   5.768
 5739SOL    HW118116   1.921   1.122   5.766
 5739SOL    HW218117   1.899   1.284   5.763
 5740SOL     OW18118   5.096   3.311   1.779
 5740SOL    HW118119   5.018   3.273   1.829
 5740SOL    HW218120   5.151   3.236   1.742
 5741SOL     OW18121   0.242   3.607   4.321
 5741SOL    HW118122   0.229   3.510   4.303
 5741SOL    HW218123   0.310   3.618   4.394
 5742SOL     OW18124   4.943   0.540   3.372
 5742SOL    HW118125   4.918   0.593   3.290
 5742SOL    HW218126   4.990   0.600   3.437
 5743SOL     OW18127   3.425   5.800   0.230
 5743SOL    HW118128   3.458   5.892   0.206
 5743SOL    HW218129   3.455   5.735   0.161
 5744SOL     OW18130   5.051   6.979   3.082
 5744SOL    HW118131   5.116   6.915   3.123
 5744SOL    HW218132   4.958   6.940   3.088
 5745SOL     OW18133   1.021   3.137   1.707
 5745SOL    HW118134   1.013   3.216   1.768
 5745SOL    HW218135   1.106   3.143   1.655
 5746SOL     OW18136   4.835   6.767   3.492
 5746SOL    HW118137   4.839   6.839   3.561
 5746SOL    HW218138   4.746   6.722   3.495
 5747SOL     OW18139   1.242   6.598   0.995
 5747SOL    HW118140   1.314   6.535   0.966
 5747SOL    HW218141   1.283   6.677   1.041
 5748SOL     OW18142   0.428   5.859   0.897
 5748SOL    HW118143   0.399   5.803   0.975
 5748SOL    HW218144   0.373   5.835   0.817
 5749SOL     OW18145   1.962   5.779   6.143
 5749SOL    HW118146   2.052   5.802   6.179
 5749SOL    HW218147   1.955   5.680   6.133
 5750SOL     OW18148   6.420   3.224   4.345
 5750SOL    HW118149   6.473   3.301   4.309
 5750SOL    HW218150   6.376   3.250   4.431
 5751SOL     OW18151   1.349   3.610   4.960
 5751SOL    HW118152   1.296   3.625   4.876
 5751SOL    HW218153   1.426   3.674   4.963
 5752SOL     OW18154   4.811   0.578   0.677
 5752SOL    HW118155   4.757   0.624   0.748
 5752SOL    HW218156   4.863   0.503   0.718
 5753SOL     OW18157   3.748   4.191   5.296
 5753SOL    HW118158   3.784   4.170   5.386
 5753SOL    HW218159   3.650   4.173   5.294
 5754SOL     OW18160   0.867   5.365   1.098
 5754SOL    HW118161   0.924   5.432   1.144
 5754SOL    HW218162   0.867   5.384   1.000
 5755SOL     OW18163   1.348   2.278   0.060
 5755SOL    HW118164   1.254   2.266   0.092
 5755SOL    HW218165   1.370   2.206   7.018
 5756SOL     OW18166   5.999   6.137   1.573
 5756SOL    HW118167   5.991   6.063   1.506
 5756SOL    HW218168   5.908   6.160   1.607
 5757SOL     OW18169   6.582   0.675   4.498
 5757SOL    HW118170   6.646   0.613   4.543
 5757SOL    HW218171   6.600   0.676   4.399
 5758SOL     OW18172   6.136   6.812   3.049
 5758SOL    HW118173   6.089   6.804   2.961
 5758SOL    HW218174   6.169   6.722   3.077
 5759SOL     OW18175   3.493   0.106   0.899
 5759SOL    HW118176   3.468   0.197   0.867
 5759SOL    HW218177   3.591   0.092   0.887
 5760SOL     OW18178   1.140   3.062   0.714
 5760SOL    HW118179   1.070   3.055   0.784
 5760SOL    HW218180   1.131   3.149   0.666
 5761SOL     OW18181   5.891   0.193   4.210
 5761SOL    HW118182   5.963   0.227   4.148
 5761SOL    HW218183   5.926   0.190   4.303
 5762SOL     OW18184   6.674   5.330   6.651
 5762SOL    HW118185   6.726   5.246   6.663
 5762SOL    HW218186   6.608   5.318   6.577
 5763SOL     OW18187   5.927   6.801   0.078
 5763SOL    HW118188   5.965   6.763   0.162
 5763SOL    HW218189   5.836   6.839   0.097
 5764SOL     OW18190   5.002   6.698   3.875
 5764SOL    HW118191   4.999   6.611   3.924
 5764SOL    HW218192   4.912   6.720   3.839
 5765SOL     OW18193   5.724   5.201   2.170
 5765SOL    HW118194   5.770   5.210   2.081
 5765SOL    HW218195   5.766   5.126   2.221
 5766SOL     OW18196   0.072   1.376   4.357
 5766SOL    HW118197   7.012   1.322   4.370
 5766SOL    HW218198   0.122   1.380   4.443
 5767SOL     OW18199   3.764   6.448   0.041
 5767SOL    HW118200   3.740   6.408   6.976
 5767SOL    HW218201   3.842   6.509   0.031
 5768SOL     OW18202   0.176   0.696   4.851
 5768SOL    HW118203   0.249   0.754   4.817
 5768SOL    HW218204   0.209   0.602   4.861
 5769SOL     OW18205   1.669   3.898   6.451
 5769SOL    HW118206   1.670   3.989   6.408
 5769SOL    HW218207   1.584   3.887   6.502
 5770SOL     OW18208   1.806   4.616   1.756
 5770SOL    HW118209   1.730   4.653   1.703
 5770SOL    HW218210   1.789   4.628   1.853
 5771SOL     OW18211   3.388   5.211   3.565
 5771SOL    HW118212   3.383   5.112   3.563
 5771SOL    HW218213   3.417   5.245   3.476
 5772SOL     OW18214   2.963   0.051   2.427
 5772SOL    HW118215   2.940   0.132   2.482
 5772SOL    HW218216   2.974   6.996   2.488
 5773SOL     OW18217   4.563   1.636   2.484
 5773SOL    HW118218   4.474   1.664   2.518
 5773SOL    HW218219   4.554   1.594   2.394
 5774SOL     OW18220   0.503   6.677   2.334
 5774SOL    HW118221   0.509   6.690   2.433
 5774SOL    HW218222   0.460   6.756   2.292
 5775SOL     OW18223   6.838   5.561   1.928
 5775SOL    HW118224   6.806   5.653   1.903
 5775SOL    HW218225   6.796   5.494   1.866
 5776SOL     OW18226   2.438   1.248   4.244
 5776SOL    HW118227   2.357   1.199   4.214
 5776SOL    HW218228   2.490   1.278   4.163
 5777SOL     OW18229   1.904   6.428   2.571
 5777SOL    HW118230   1.896   6.432   2.671
 5777SOL    HW218231   1.836   6.489   2.530
 5778SOL     OW18232   0.727   1.739   0.916
 5778SOL    HW118233   0.821   1.741   0.884
 5778SOL    HW218234   0.717   1.669   0.986
 5779SOL     OW18235   5.801   1.272   5.901
 5779SOL    HW118236   5.898   1.270   5.923
 5779SOL    HW218237   5.776   1.362   5.867
 5780SOL     OW18238   5.256   5.916   4.219
 5780SOL    HW118239   5.184   5.982   4.193
 5780SOL    HW218240   5.299   5.947   4.303
 5781SOL     OW18241   0.689   5.128   5.014
 5781SOL    HW118242   0.632   5.208   4.995
 5781SOL    HW218243   0.651   5.076   5.091
 5782SOL     OW18244   0.611   0.444   0.106
 5782SOL    HW118245   0.670   0.485   0.037
 5782SOL    HW218246   0.537   0.394   0.061
 5783SOL     OW18247   1.095   2.046   0.927
 5783SOL    HW118248   1.173   2.052   0.864
 5783SOL    HW218249   1.117   2.095   1.012
 5784SOL     OW18250   6.424   5.901   6.478
 5784SOL    HW118251   6.474   5.913   6.564
 5784SOL    HW218252   6.453   5.972   6.413
 5785SOL     OW18253   1.064   1.660   0.496
 5785SOL    HW118254   1.098   1.600   0.569
 5785SOL    HW218255   0.987   1.616   0.449
 5786SOL     OW18256   5.750   4.872   1.210
 5786SOL    HW118257   5.838   4.896   1.252
 5786SOL    HW218258   5.695   4.821   1.275
 5787SOL     OW18259   2.961   2.648   6.070
 5787SOL    HW118260   2.961   2.747   6.059
 5787SOL    HW218261   2.910   2.624   6.153
 5788SOL     OW18262   2.403   1.055   3.998
 5788SOL    HW118263   2.456   1.138   3.980
 5788SOL    HW218264   2.370   1.017   3.912
 5789SOL     OW18265   4.035   5.087   6.220
 5789SOL    HW118266   4.060   4.991   6.208
 5789SOL    HW218267   3.938   5.099   6.196
 5790SOL     OW18268   0.494   2.845   3.295
 5790SOL    HW118269   0.500   2.763   3.352
 5790SOL    HW218270   0.452   2.919   3.348
 5791SOL     OW18271   2.337   0.722   3.071
 5791SOL    HW118272   2.375   0.801   3.118
 5791SOL    HW218273   2.308   0.748   2.979
 5792SOL     OW18274   6.558   2.450   2.861
 5792SOL    HW118275   6.461   2.469   2.851
 5792SOL    HW218276   6.606   2.535   2.884
 5793SOL     OW18277   0.132   0.628   3.838
 5793SOL    HW118278   0.041   0.620   3.797
 5793SOL    HW218279   0.132   0.586   3.929
 5794SOL     OW18280   4.743   4.031   6.799
 5794SOL    HW118281   4.804   4.064   6.871
 5794SOL    HW218282   4.651   4.065   6.816
 5795SOL     OW18283   5.754   4.168   6.756
 5795SOL    HW118284   5.767   4.080   6.710
 5795SOL    HW218285   5.840   4.219   6.755
 5796SOL     OW18286   3.693   1.579   0.551
 5796SOL    HW118287   3.729   1.654   0.495
 5796SOL    HW218288   3.716   1.595   0.647
 5797SOL     OW18289   3.004   1.886   4.984
 5797SOL    HW118290   3.060   1.966   4.965
 5797SOL    HW218291   2.907   1.911   4.983
 5798SOL     OW18292   6.812   4.666   4.775
 5798SOL    HW118293   6.799   4.746   4.834
 5798SOL    HW218294   6.895   4.678   4.722
 5799SOL     OW18295   5.213   0.454   3.836
 5799SOL    HW118296   5.283   0.404   3.785
 5799SOL    HW218297   5.124   0.411   3.823
 5800SOL     OW18298   6.102   5.299   0.923
 5800SOL    HW118299   6.029   5.264   0.981
 5800SOL    HW218300   6.063   5.338   0.840
 5801SOL     OW18301   2.104   2.007   3.617
 5801SOL    HW118302   2.036   2.080   3.623
 5801SOL    HW218303   2.135   1.983   3.708
 5802SOL     OW18304   0.771   3.442   5.489
 5802SOL    HW118305   0.715   3.362   5.470
 5802SOL    HW218306   0.853   3.415   5.540
 5803SOL     OW18307   1.765   4.879   0.282
 5803SOL    HW118308   1.862   4.872   0.258
 5803SOL    HW218309   1.755   4.878   0.382
 5804SOL     OW18310   6.328   3.754   4.465
 5804SOL    HW118311   6.228   3.752   4.465
 5804SOL    HW218312   6.361   3.818   4.396
 5805SOL     OW18313   5.183   3.146   6.720
 5805SOL    HW118314   5.257   3.197   6.676
 5805SOL    HW218315   5.115   3.120   6.652
 5806SOL     OW18316   0.994   6.383   0.355
 5806SOL    HW118317   1.050   6.309   0.319
 5806SOL    HW218318   0.901   6.375   0.320
 5807SOL     OW18319   1.781   3.530   1.832
 5807SOL    HW118320   1.814   3.447   1.877
 5807SOL    HW218321   1.715   3.576   1.891
 5808SOL     OW18322   6.447   3.984   2.741
 5808SOL    HW118323   6.534   3.980   2.791
 5808SOL    HW218324   6.459   4.038   2.658
 5809SOL     OW18325   6.759   3.670   4.207
 5809SOL    HW118326   6.775   3.685   4.109
 5809SOL    HW218327   6.845   3.678   4.256
 5810SOL     OW18328   2.622   1.965   2.350
 5810SOL    HW118329   2.651   1.963   2.446
 5810SOL    HW218330   2.587   2.056   2.328
 5811SOL     OW18331   2.320   1.524   4.054
 5811SOL    HW118332   2.278   1.612   4.074
 5811SOL    HW218333   2.366   1.528   3.965
 5812SOL     OW18334   4.651   0.879   4.472
 5812SOL    HW118335   4.682   0.803   4.528
 5812SOL    HW218336   4.577   0.927   4.520
 5813SOL     OW18337   1.310   0.600   5.456
 5813SOL    HW118338   1.236   0.638   5.512
 5813SOL    HW218339   1.369   0.674   5.424
 5814SOL     OW18340   0.325   5.008   0.943
 5814SOL    HW118341   0.254   5.070   0.976
 5814SOL    HW218342   0.339   4.935   1.009
 5815SOL     OW18343   3.173   1.476   2.665
 5815SOL    HW118344   3.087   1.527   2.669
 5815SOL    HW218345   3.226   1.492   2.748
 5816SOL     OW18346   4.787   0.359   0.443
 5816SOL    HW118347   4.867   0.320   0.488
 5816SOL    HW218348   4.758   0.441   0.492
 5817SOL     OW18349   4.998   3.219   4.944
 5817SOL    HW118350   5.025   3.154   4.873
 5817SOL    HW218351   4.917   3.184   4.991
 5818SOL     OW18352   5.880   6.683   6.529
 5818SOL    HW118353   5.922   6.722   6.611
 5818SOL    HW218354   5.834   6.597   6.554
 5819SOL     OW18355   6.235   0.253   1.631
 5819SOL    HW118356   6.168   0.306   1.580
 5819SOL    HW218357   6.203   0.158   1.641
 5820SOL     OW18358   5.398   6.629   3.538
 5820SOL    HW118359   5.322   6.695   3.540
 5820SOL    HW218360   5.453   6.645   3.456
 5821SOL     OW18361   2.493   0.689   1.774
 5821SOL    HW118362   2.475   0.741   1.857
 5821SOL    HW218363   2.592   0.681   1.761
 5822SOL     OW18364   0.000   1.487   2.037
 5822SOL    HW118365   7.009   1.536   1.950
 5822SOL    HW218366   6.952   1.418   2.047
 5823SOL     OW18367   2.359   1.727   4.435
 5823SOL    HW118368   2.342   1.783   4.517
 5823SOL    HW218369   2.285   1.661   4.424
 5824SOL     OW18370   4.933   6.958   3.700
 5824SOL    HW118371   5.027   6.952   3.735
 5824SOL    HW218372   4.869   6.928   3.771
 5825SOL     OW18373   2.837   0.565   0.219
 5825SOL    HW118374   2.751   0.518   0.238
 5825SOL    HW218375   2.868   0.542   0.127
 5826SOL     OW18376   6.362   0.386   4.560
 5826SOL    HW118377   6.432   0.456   4.544
 5826SOL    HW218378   6.406   0.299   4.581
 5827SOL     OW18379   0.968   5.787   5.155
 5827SOL    HW118380   0.945   5.711   5.215
 5827SOL    HW218381   1.006   5.752   5.070
 5828SOL     OW18382   6.924   3.655   2.027
 5828SOL    HW118383   6.834   3.624   2.057
 5828SOL    HW218384   6.993   3.588   2.054
 5829SOL     OW18385   1.988   1.473   1.855
 5829SOL    HW118386   1.939   1.542   1.801
 5829SOL    HW218387   1.963   1.382   1.821
 5830SOL     OW18388   2.675   1.874   6.144
 5830SOL    HW118389   2.667   1.855   6.046
 5830SOL    HW218390   2.655   1.791   6.196
 5831SOL     OW18391   5.468   0.034   3.217
 5831SOL    HW118392   5.387   0.070   3.262
 5831SOL    HW218393   5.452   0.027   3.118
 5832SOL     OW18394   4.082   3.938   5.195
 5832SOL    HW118395   4.105   3.876   5.120
 5832SOL    HW218396   4.048   4.024   5.159
 5833SOL     OW18397   3.205   2.982   5.078
 5833SOL    HW118398   3.153   3.036   5.011
 5833SOL    HW218399   3.230   2.894   5.037
 5834SOL     OW18400   5.989   1.226   0.899
 5834SOL    HW118401   6.032   1.187   0.817
 5834SOL    HW218402   5.965   1.322   0.881
 5835SOL     OW18403   5.325   2.199   3.735
 5835SOL    HW118404   5.254   2.261   3.770
 5835SOL    HW218405   5.395   2.186   3.806
 5836SOL     OW18406   3.573   6.033   2.307
 5836SOL    HW118407   3.663   6.069   2.332
 5836SOL    HW218408   3.544   6.073   2.219
 5837SOL     OW18409   4.841   4.334   6.316
 5837SOL    HW118410   4.781   4.298   6.387
 5837SOL    HW218411   4.818   4.292   6.228
 5838SOL     OW18412   0.913   0.926   5.345
 5838SOL    HW118413   0.831   0.909   5.399
 5838SOL    HW218414   0.992   0.938   5.406
 5839SOL     OW18415   6.679   3.061   2.818
 5839SOL    HW118416   6.602   3.125   2.811
 5839SOL    HW218417   6.645   2.971   2.846
 5840SOL     OW18418   1.857   5.364   6.698
 5840SOL    HW118419   1.867   5.268   6.669
 5840SOL    HW218420   1.947   5.401   6.720
 5841SOL     OW18421   0.211   2.206   3.851
 5841SOL    HW118422   0.260   2.128   3.812
 5841SOL    HW218423   0.148   2.244   3.784
 5842SOL     OW18424   3.683   3.047   0.652
 5842SOL    HW118425   3.662   3.092   0.739
 5842SOL    HW218426   3.721   2.957   0.670
 5843SOL     OW18427   1.410   3.789   2.364
 5843SOL    HW118428   1.469   3.861   2.401
 5843SOL    HW218429   1.315   3.813   2.381
 5844SOL     OW18430   1.090   6.204   6.747
 5844SOL    HW118431   1.109   6.196   6.845
 5844SOL    HW218432   1.032   6.127   6.718
 5845SOL     OW18433   0.851   2.547   4.024
 5845SOL    HW118434   0.857   2.571   4.121
 5845SOL    HW218435   0.910   2.469   4.005
 5846SOL     OW18436   0.237   3.128   5.969
 5846SOL    HW118437   0.247   3.058   5.898
 5846SOL    HW218438   0.140   3.143   5.988
 5847SOL     OW18439   2.451   2.600   2.308
 5847SOL    HW118440   2.402   2.551   2.236
 5847SOL    HW218441   2.517   2.663   2.267
 5848SOL     OW18442   1.319   4.472   3.247
 5848SOL    HW118443   1.276   4.503   3.331
 5848SOL    HW218444   1.415   4.448   3.266
 5849SOL     OW18445   2.227   0.096   5.712
 5849SOL    HW118446   2.239   0.070   5.616
 5849SOL    HW218447   2.130   0.110   5.732
 5850SOL     OW18448   0.954   5.025   2.471
 5850SOL    HW118449   1.044   5.010   2.513
 5850SOL    HW218450   0.923   5.117   2.495
 5851SOL     OW18451   5.724   3.635   2.166
 5851SOL    HW118452   5.678   3.599   2.248
 5851SOL    HW218453   5.683   3.595   2.085
 5852SOL     OW18454   4.597   5.850   3.010
 5852SOL    HW118455   4.531   5.900   2.954
 5852SOL    HW218456   4.644   5.914   3.071
 5853SOL     OW18457   3.611   4.691   5.485
 5853SOL    HW118458   3.538   4.693   5.417
 5853SOL    HW218459   3.676   4.618   5.462
 5854SOL     OW18460   6.822   1.172   5.972
 5854SOL    HW118461   6.776   1.192   5.885
 5854SOL    HW218462   6.836   1.257   6.023
 5855SOL     OW18463   0.643   1.071   4.634
 5855SOL    HW118464   0.580   1.123   4.575
 5855SOL    HW218465   0.720   1.130   4.660
 5856SOL     OW18466   1.924   4.382   3.925
 5856SOL    HW118467   1.849   4.317   3.911
 5856SOL    HW218468   1.930   4.404   4.023
 5857SOL     OW18469   6.335   3.257   5.492
 5857SOL    HW118470   6.420   3.212   5.520
 5857SOL    HW218471   6.270   3.187   5.463
 5858SOL     OW18472   3.631   0.947   2.411
 5858SOL    HW118473   3.681   0.919   2.328
 5858SOL    HW218474   3.683   1.018   2.458
 5859SOL     OW18475   6.026   6.268   0.640
 5859SOL    HW118476   5.954   6.259   0.572
 5859SOL    HW218477   6.115   6.253   0.597
 5860SOL     OW18478   1.707   3.853   1.438
 5860SOL    HW118479   1.737   3.814   1.525
 5860SOL    HW218480   1.612   3.828   1.421
 5861SOL     OW18481   6.434   2.453   4.300
 5861SOL    HW118482   6.339   2.437   4.275
 5861SOL    HW218483   6.494   2.400   4.240
 5862SOL     OW18484   4.453   4.536   3.175
 5862SOL    HW118485   4.451   4.634   3.199
 5862SOL    HW218486   4.371   4.492   3.210
 5863SOL     OW18487   2.286   1.027   0.011
 5863SOL    HW118488   2.255   1.120   7.015
 5863SOL    HW218489   2.383   1.028   0.036
 5864SOL     OW18490   4.696   4.793   1.513
 5864SOL    HW118491   4.674   4.888   1.489
 5864SOL    HW218492   4.795   4.783   1.522
 5865SOL     OW18493   4.498   0.902   3.262
 5865SOL    HW118494   4.555   0.985   3.268
 5865SOL    HW218495   4.488   0.876   3.166
 5866SOL     OW18496   4.288   0.259   6.358
 5866SOL    HW118497   4.198   0.214   6.359
 5866SOL    HW218498   4.359   0.190   6.353
 5867SOL     OW18499   0.214   2.854   1.372
 5867SOL    HW118500   0.256   2.916   1.438
 5867SOL    HW218501   0.281   2.784   1.345
 5868SOL     OW18502   1.783   6.695   5.289
 5868SOL    HW118503   1.739   6.645   5.364
 5868SOL    HW218504   1.790   6.792   5.314
 5869SOL     OW18505   2.657   4.753   3.820
 5869SOL    HW118506   2.720   4.741   3.743
 5869SOL    HW218507   2.588   4.680   3.818
 5870SOL     OW18508   5.105   4.927   4.547
 5870SOL    HW118509   5.056   4.918   4.461
 5870SOL    HW218510   5.092   5.020   4.583
 5871SOL     OW18511   2.972   3.336   6.555
 5871SOL    HW118512   2.928   3.247   6.571
 5871SOL    HW218513   3.015   3.367   6.640
 5872SOL     OW18514   3.262   6.323   5.632
 5872SOL    HW118515   3.329   6.279   5.693
 5872SOL    HW218516   3.310   6.375   5.562
 5873SOL     OW18517   2.778   3.757   0.020
 5873SOL    HW118518   2.830   3.818   0.080
 5873SOL    HW218519   2.762   3.802   6.956
 5874SOL     OW18520   1.796   4.180   1.025
 5874SOL    HW118521   1.778   4.239   1.103
 5874SOL    HW218522   1.735   4.205   0.950
 5875SOL     OW18523   4.135   1.917   0.206
 5875SOL    HW118524   4.113   1.831   0.160
 5875SOL    HW218525   4.084   1.922   0.292
 5876SOL     OW18526   3.361   4.492   6.158
 5876SOL    HW118527   3.380   4.447   6.071
 5876SOL    HW218528   3.377   4.428   6.233
 5877SOL     OW18529   0.460   0.122   2.812
 5877SOL    HW118530   0.473   0.115   2.911
 5877SOL    HW218531   0.510   0.048   2.767
 5878SOL     OW18532   5.397   4.798   2.934
 5878SOL    HW118533   5.344   4.759   3.009
 5878SOL    HW218534   5.445   4.725   2.885
 5879SOL     OW18535   4.028   3.551   5.810
 5879SOL    HW118536   3.976   3.465   5.815
 5879SOL    HW218537   3.996   3.613   5.881
 5880SOL     OW18538   5.123   2.398   5.492
 5880SOL    HW118539   5.084   2.330   5.553
 5880SOL    HW218540   5.213   2.426   5.524
 5881SOL     OW18541   1.445   5.716   2.291
 5881SOL    HW118542   1.357   5.753   2.322
 5881SOL    HW218543   1.462   5.744   2.197
 5882SOL     OW18544   2.151   5.555   5.526
 5882SOL    HW118545   2.145   5.509   5.615
 5882SOL    HW218546   2.201   5.496   5.462
 5883SOL     OW18547   0.136   4.551   0.905
 5883SOL    HW118548   0.138   4.629   0.968
 5883SOL    HW218549   0.150   4.467   0.956
 5884SOL     OW18550   6.058   2.147   3.526
 5884SOL    HW118551   5.983   2.212   3.538
 5884SOL    HW218552   6.044   2.068   3.586
 5885SOL     OW18553   6.784   5.163   0.042
 5885SOL    HW118554   6.755   5.086   7.008
 5885SOL    HW218555   6.823   5.128   0.127
 5886SOL     OW18556   1.464   3.959   3.494
 5886SOL    HW118557   1.366   3.949   3.511
 5886SOL    HW218558   1.489   4.055   3.504
 5887SOL     OW18559   2.165   2.708   1.098
 5887SOL    HW118560   2.216   2.655   1.166
 5887SOL    HW218561   2.143   2.798   1.135
 5888SOL     OW18562   3.696   6.570   0.986
 5888SOL    HW118563   3.638   6.507   1.037
 5888SOL    HW218564   3.666   6.573   0.891
 5889SOL     OW18565   5.979   0.807   1.818
 5889SOL    HW118566   5.911   0.745   1.857
 5889SOL    HW218567   6.068   0.761   1.814
 5890SOL     OW18568   2.402   6.006   2.895
 5890SOL    HW118569   2.382   5.934   2.961
 5890SOL    HW218570   2.435   5.965   2.810
 5891SOL     OW18571   2.503   3.390   0.689
 5891SOL    HW118572   2.594   3.372   0.727
 5891SOL    HW218573   2.494   3.488   0.672
 5892SOL     OW18574   1.216   3.839   0.994
 5892SOL    HW118575   1.154   3.774   1.038
 5892SOL    HW218576   1.189   3.853   0.899
 5893SOL     OW18577   0.844   6.258   1.609
 5893SOL    HW118578   0.777   6.183   1.604
 5893SOL    HW218579   0.819   6.320   1.683
 5894SOL     OW18580   2.521   5.783   6.359
 5894SOL    HW118581   2.490   5.846   6.287
 5894SOL    HW218582   2.609   5.743   6.333
 5895SOL     OW18583   5.417   4.037   4.449
 5895SOL    HW118584   5.411   4.121   4.503
 5895SOL    HW218585   5.348   3.972   4.480
 5896SOL     OW18586   5.701   2.427   1.893
 5896SOL    HW118587   5.723   2.519   1.926
 5896SOL    HW218588   5.746   2.359   1.952
 5897SOL     OW18589   4.241   2.668   0.649
 5897SOL    HW118590   4.322   2.673   0.707
 5897SOL    HW218591   4.253   2.728   0.570
 5898SOL     OW18592   2.037   1.428   5.506
 5898SOL    HW118593   2.091   1.402   5.585
 5898SOL    HW218594   2.022   1.527   5.506
 5899SOL     OW18595   7.019   5.773   6.581
 5899SOL    HW118596   6.961   5.697   6.613
 5899SOL    HW218597   0.068   5.736   6.522
 5900SOL     OW18598   5.686   6.629   3.124
 5900SOL    HW118599   5.720   6.535   3.110
 5900SOL    HW218600   5.762   6.687   3.156
 5901SOL     OW18601   2.030   1.010   5.172
 5901SOL    HW118602   2.125   1.005   5.143
 5901SOL    HW218603   2.022   1.069   5.252
 5902SOL     OW18604   4.757   4.084   5.748
 5902SOL    HW118605   4.799   4.008   5.698
 5902SOL    HW218606   4.696   4.134   5.687
 5903SOL     OW18607   6.305   2.082   5.947
 5903SOL    HW118608   6.253   2.098   5.864
 5903SOL    HW218609   6.243   2.058   6.022
 5904SOL     OW18610   1.954   4.300   1.752
 5904SOL    HW118611   1.910   4.267   1.668
 5904SOL    HW218612   1.959   4.400   1.751
 5905SOL     OW18613   5.588   1.340   4.245
 5905SOL    HW118614   5.634   1.372   4.328
 5905SOL    HW218615   5.562   1.419   4.190
 5906SOL     OW18616   5.067   1.365   5.482
 5906SOL    HW118617   4.999   1.429   5.444
 5906SOL    HW218618   5.048   1.273   5.448
 5907SOL     OW18619   1.592   3.617   5.973
 5907SOL    HW118620   1.587   3.709   6.013
 5907SOL    HW218621   1.615   3.551   6.045
 5908SOL     OW18622   5.263   3.217   6.165
 5908SOL    HW118623   5.204   3.294   6.140
 5908SOL    HW218624   5.305   3.179   6.083
 5909SOL     OW18625   6.886   4.865   3.842
 5909SOL    HW118626   6.887   4.962   3.867
 5909SOL    HW218627   6.904   4.857   3.743
 5910SOL     OW18628   2.538   3.918   0.800
 5910SOL    HW118629   2.581   3.999   0.841
 5910SOL    HW218630   2.541   3.926   0.701
 5911SOL     OW18631   5.608   6.824   6.652
 5911SOL    HW118632   5.647   6.826   6.744
 5911SOL    HW218633   5.608   6.729   6.619
 5912SOL     OW18634   6.778   3.468   6.429
 5912SOL    HW118635   6.726   3.480   6.345
 5912SOL    HW218636   6.845   3.394   6.416
 5913SOL     OW18637   1.401   2.147   5.875
 5913SOL    HW118638   1.382   2.084   5.800
 5913SOL    HW218639   1.314   2.183   5.911
 5914SOL     OW18640   2.024   6.045   1.117
 5914SOL    HW118641   2.015   6.136   1.077
 5914SOL    HW218642   1.942   6.023   1.170
 5915SOL     OW18643   4.888   3.494   2.518
 5915SOL    HW118644   4.963   3.431   2.500
 5915SOL    HW218645   4.832   3.504   2.435
 5916SOL     OW18646   3.370   0.180   5.977
 5916SOL    HW118647   3.299   0.250   5.981
 5916SOL    HW218648   3.386   0.153   5.882
 5917SOL     OW18649   3.650   2.875   2.750
 5917SOL    HW118650   3.551   2.872   2.756
 5917SOL    HW218651   3.681   2.813   2.677
 5918SOL     OW18652   2.155   2.953   4.173
 5918SOL    HW118653   2.164   2.971   4.271
 5918SOL    HW218654   2.160   3.040   4.124
 5919SOL     OW18655   1.069   3.118   0.278
 5919SOL    HW118656   1.064   3.215   0.303
 5919SOL    HW218657   1.124   3.069   0.346
 5920SOL     OW18658   3.782   6.248   6.792
 5920SOL    HW118659   3.801   6.215   6.699
 5920SOL    HW218660   3.733   6.335   6.787
 5921SOL     OW18661   4.100   5.539   5.049
 5921SOL    HW118662   4.182   5.565   5.101
 5921SOL    HW218663   4.107   5.443   5.022
 5922SOL     OW18664   5.625   4.268   2.012
 5922SOL    HW118665   5.621   4.223   1.923
 5922SOL    HW218666   5.707   4.325   2.018
 5923SOL     OW18667   0.130   6.903   3.444
 5923SOL    HW118668   0.147   6.808   3.416
 5923SOL    HW218669   0.162   6.916   3.537
 5924SOL     OW18670   5.431   2.441   4.483
 5924SOL    HW118671   5.461   2.357   4.528
 5924SOL    HW218672   5.448   2.519   4.543
 5925SOL     OW18673   6.569   6.434   0.963
 5925SOL    HW118674   6.527   6.439   0.873
 5925SOL    HW218675   6.543   6.514   1.017
 5926SOL     OW18676   3.539   5.013   1.880
 5926SOL    HW118677   3.576   5.088   1.936
 5926SOL    HW218678   3.561   4.926   1.924
 5927SOL     OW18679   2.595   5.756   2.187
 5927SOL    HW118680   2.496   5.741   2.181
 5927SOL    HW218681   2.620   5.835   2.131
 5928SOL     OW18682   1.342   6.769   1.911
 5928SOL    HW118683   1.360   6.866   1.929
 5928SOL    HW218684   1.323   6.722   1.997
 5929SOL     OW18685   1.308   0.238   5.906
 5929SOL    HW118686   1.407   0.225   5.913
 5929SOL    HW218687   1.264   0.149   5.896
 5930SOL     OW18688   6.658   2.031   5.023
 5930SOL    HW118689   6.656   2.009   5.120
 5930SOL    HW218690   6.666   1.947   4.970
 5931SOL     OW18691   5.940   5.120   1.067
 5931SOL    HW118692   5.951   5.024   1.092
 5931SOL    HW218693   5.977   5.178   1.140
 5932SOL     OW18694   2.495   6.335   0.604
 5932SOL    HW118695   2.447   6.287   0.677
 5932SOL    HW218696   2.576   6.282   0.578
 5933SOL     OW18697   6.087   3.585   2.905
 5933SOL    HW118698   6.170   3.536   2.881
 5933SOL    HW218699   6.071   3.659   2.840
 5934SOL     OW18700   3.726   4.101   3.050
 5934SOL    HW118701   3.626   4.102   3.049
 5934SOL    HW218702   3.761   4.108   2.957
 5935SOL     OW18703   3.569   3.190   3.803
 5935SOL    HW118704   3.633   3.205   3.727
 5935SOL    HW218705   3.476   3.178   3.766
 5936SOL     OW18706   5.446   5.893   6.452
 5936SOL    HW118707   5.447   5.989   6.480
 5936SOL    HW218708   5.414   5.885   6.358
 5937SOL     OW18709   1.637   3.608   1.231
 5937SOL    HW118710   1.554   3.649   1.194
 5937SOL    HW218711   1.704   3.595   1.157
 5938SOL     OW18712   2.008   4.545   1.485
 5938SOL    HW118713   2.072   4.470   1.502
 5938SOL    HW218714   2.052   4.632   1.505
 5939SOL     OW18715   2.954   0.689   3.325
 5939SOL    HW118716   3.003   0.629   3.262
 5939SOL    HW218717   2.867   0.646   3.351
 5940SOL     OW18718   4.107   5.916   3.666
 5940SOL    HW118719   4.170   5.849   3.627
 5940SOL    HW218720   4.013   5.894   3.638
 5941SOL     OW18721   5.991   4.605   1.785
 5941SOL    HW118722   5.950   4.648   1.704
 5941SOL    HW218723   5.923   4.599   1.858
 5942SOL     OW18724   5.281   1.737   5.534
 5942SOL    HW118725   5.324   1.667   5.592
 5942SOL    HW218726   5.193   1.763   5.573
 5943SOL     OW18727   1.073   5.864   6.828
 5943SOL    HW118728   1.169   5.890   6.819
 5943SOL    HW218729   1.058   5.820   6.917
 5944SOL     OW18730   4.275   2.050   2.506
 5944SOL    HW118731   4.214   2.037   2.427
 5944SOL    HW218732   4.325   1.966   2.524
 5945SOL     OW18733   0.119   5.148   5.555
 5945SOL    HW118734   0.041   5.086   5.557
 5945SOL    HW218735   0.107   5.220   5.624
 5946SOL     OW18736   4.001   2.914   5.452
 5946SOL    HW118737   4.060   2.932   5.531
 5946SOL    HW218738   4.036   2.962   5.372
 5947SOL     OW18739   4.278   3.494   1.743
 5947SOL    HW118740   4.220   3.448   1.675
 5947SOL    HW218741   4.221   3.554   1.799
 5948SOL     OW18742   3.752   4.909   2.308
 5948SOL    HW118743   3.766   4.842   2.235
 5948SOL    HW218744   3.836   4.960   2.323
 5949SOL     OW18745   4.531   4.800   1.925
 5949SOL    HW118746   4.499   4.760   1.839
 5949SOL    HW218747   4.570   4.729   1.983
 5950SOL     OW18748   6.178   2.779   3.649
 5950SOL    HW118749   6.140   2.750   3.561
 5950SOL    HW218750   6.177   2.702   3.712
 5951SOL     OW18751   1.884   5.794   3.959
 5951SOL    HW118752   1.809   5.854   3.987
 5951SOL    HW218753   1.906   5.731   4.034
 5952SOL     OW18754   6.678   6.831   4.868
 5952SOL    HW118755   6.680   6.782   4.781
 5952SOL    HW218756   6.597   6.889   4.871
 5953SOL     OW18757   0.436   3.308   6.282
 5953SOL    HW118758   0.453   3.318   6.380
 5953SOL    HW218759   0.499   3.366   6.231
 5954SOL     OW18760   0.572   5.271   6.716
 5954SOL    HW118761   0.662   5.231   6.736
 5954SOL    HW218762   0.543   5.328   6.793
 5955SOL     OW18763   5.503   5.740   2.378
 5955SOL    HW118764   5.553   5.804   2.320
 5955SOL    HW218765   5.456   5.790   2.451
 5956SOL     OW18766   5.992   1.875   0.401
 5956SOL    HW118767   5.893   1.880   0.415
 5956SOL    HW218768   6.039   1.880   0.489
 5957SOL     OW18769   5.383   6.914   5.829
 5957SOL    HW118770   5.455   6.982   5.841
 5957SOL    HW218771   5.303   6.956   5.787
 5958SOL     OW18772   0.663   5.205   2.058
 5958SOL    HW118773   0.623   5.296   2.048
 5958SOL    HW218774   0.647   5.171   2.151
 5959SOL     OW18775   2.212   1.484   6.379
 5959SOL    HW118776   2.268   1.441   6.308
 5959SOL    HW218777   2.270   1.531   6.445
 5960SOL     OW18778   3.226   0.710   4.125
 5960SOL    HW118779   3.267   0.713   4.216
 5960SOL    HW218780   3.262   0.631   4.075
 5961SOL     OW18781   2.913   1.068   5.718
 5961SOL    HW118782   2.937   1.068   5.815
 5961SOL    HW218783   2.958   0.990   5.673
 5962SOL     OW18784   5.392   5.358   2.295
 5962SOL    HW118785   5.431   5.403   2.375
 5962SOL    HW218786   5.411   5.413   2.213
 5963SOL     OW18787   4.039   3.638   2.173
 5963SOL    HW118788   4.019   3.666   2.267
 5963SOL    HW218789   3.966   3.578   2.139
 5964SOL     OW18790   1.201   4.501   5.479
 5964SOL    HW118791   1.128   4.554   5.435
 5964SOL    HW218792   1.231   4.429   5.416
 5965SOL     OW18793   2.469   1.809   5.089
 5965SOL    HW118794   2.417   1.729   5.059
 5965SOL    HW218795   2.413   1.866   5.149
 5966SOL     OW18796   1.817   6.620   3.850
 5966SOL    HW118797   1.913   6.632   3.874
 5966SOL    HW218798   1.802   6.650   3.755
 5967SOL     OW18799   4.713   6.962   2.407
 5967SOL    HW118800   4.748   6.873   2.436
 5967SOL    HW218801   4.789   7.019   2.375
 5968SOL     OW18802   0.330   2.718   4.426
 5968SOL    HW118803   0.301   2.623   4.432
 5968SOL    HW218804   0.258   2.773   4.383
 5969SOL     OW18805   5.474   3.120   2.978
 5969SOL    HW118806   5.428   3.103   3.065
 5969SOL    HW218807   5.425   3.072   2.904
 5970SOL     OW18808   1.381   2.777   3.283
 5970SOL    HW118809   1.284   2.804   3.279
 5970SOL    HW218810   1.402   2.744   3.375
 5971SOL     OW18811   2.463   6.932   2.319
 5971SOL    HW118812   2.446   7.017   2.269
 5971SOL    HW218813   2.377   6.899   2.359
 5972SOL     OW18814   4.691   6.137   1.024
 5972SOL    HW118815   4.603   6.163   0.984
 5972SOL    HW218816   4.702   6.182   1.112
 5973SOL     OW18817   1.629   4.355   3.981
 5973SOL    HW118818   1.532   4.349   3.957
 5973SOL    HW218819   1.657   4.270   4.026
 5974SOL     OW18820   0.835   3.650   6.567
 5974SOL    HW118821   0.858   3.591   6.643
 5974SOL    HW218822   0.852   3.602   6.481
 5975SOL     OW18823   2.194   2.696   0.652
 5975SOL    HW118824   2.148   2.611   0.676
 5975SOL    HW218825   2.247   2.729   0.729
 5976SOL     OW18826   3.118   3.570   5.409
 5976SOL    HW118827   3.077   3.560   5.500
 5976SOL    HW218828   3.189   3.500   5.397
 5977SOL     OW18829   1.095   3.232   2.898
 5977SOL    HW118830   1.136   3.180   2.973
 5977SOL    HW218831   1.165   3.257   2.832
 5978SOL     OW18832   5.058   5.698   2.429
 5978SOL    HW118833   4.989   5.627   2.441
 5978SOL    HW218834   5.070   5.717   2.332
 5979SOL     OW18835   0.133   0.509   3.279
 5979SOL    HW118836   0.100   0.497   3.185
 5979SOL    HW218837   0.225   0.548   3.277
 5980SOL     OW18838   6.157   4.121   6.797
 5980SOL    HW118839   6.166   4.064   6.715
 5980SOL    HW218840   6.175   4.216   6.773
 5981SOL     OW18841   4.405   0.676   2.017
 5981SOL    HW118842   4.320   0.665   2.068
 5981SOL    HW218843   4.386   0.721   1.930
 5982SOL     OW18844   6.766   1.927   6.446
 5982SOL    HW118845   6.864   1.905   6.446
 5982SOL    HW218846   6.716   1.859   6.500
 5983SOL     OW18847   0.949   0.989   4.433
 5983SOL    HW118848   0.865   0.946   4.402
 5983SOL    HW218849   0.927   1.064   4.496
 5984SOL     OW18850   7.017   0.063   5.269
 5984SOL    HW118851   0.017   0.092   5.362
 5984SOL    HW218852   6.932   0.107   5.241
 5985SOL     OW18853   4.336   2.388   4.270
 5985SOL    HW118854   4.290   2.302   4.294
 5985SOL    HW218855   4.307   2.460   4.334
 5986SOL     OW18856   3.381   2.936   2.766
 5986SOL    HW118857   3.354   2.921   2.671
 5986SOL    HW218858   3.333   3.015   2.803
 5987SOL     OW18859   3.968   0.354   5.350
 5987SOL    HW118860   4.054   0.316   5.316
 5987SOL    HW218861   3.941   0.307   5.434
 5988SOL     OW18862   3.785   0.700   4.069
 5988SOL    HW118863   3.856   0.769   4.059
 5988SOL    HW218864   3.816   0.629   4.132
 5989SOL     OW18865   2.918   0.831   6.096
 5989SOL    HW118866   2.938   0.927   6.074
 5989SOL    HW218867   2.829   0.826   6.143
 5990SOL     OW18868   3.053   4.610   1.717
 5990SOL    HW118869   2.996   4.577   1.793
 5990SOL    HW218870   3.149   4.609   1.745
 5991SOL     OW18871   2.708   5.245   3.879
 5991SOL    HW118872   2.636   5.220   3.814
 5991SOL    HW218873   2.706   5.182   3.957
 5992SOL     OW18874   4.504   0.615   4.014
 5992SOL    HW118875   4.489   0.615   4.112
 5992SOL    HW218876   4.423   0.651   3.968
 5993SOL     OW18877   3.106   5.599   5.073
 5993SOL    HW118878   3.046   5.555   5.007
 5993SOL    HW218879   3.137   5.531   5.140
 5994SOL     OW18880   0.104   1.915   2.121
 5994SOL    HW118881   0.012   1.939   2.150
 5994SOL    HW218882   0.100   1.854   2.042
 5995SOL     OW18883   6.751   3.865   1.844
 5995SOL    HW118884   6.739   3.770   1.815
 5995SOL    HW218885   6.817   3.869   1.918
 5996SOL     OW18886   0.877   5.244   5.955
 5996SOL    HW118887   0.792   5.193   5.946
 5996SOL    HW218888   0.857   5.341   5.972
 5997SOL     OW18889   0.569   6.416   2.286
 5997SOL    HW118890   0.664   6.416   2.315
 5997SOL    HW218891   0.527   6.504   2.307
 5998SOL     OW18892   5.032   1.822   3.188
 5998SOL    HW118893   4.979   1.741   3.160
 5998SOL    HW218894   4.973   1.883   3.241
 5999SOL     OW18895   1.751   1.486   2.500
 5999SOL    HW118896   1.780   1.421   2.571
 5999SOL    HW218897   1.677   1.544   2.536
 6000SOL     OW18898   4.575   6.232   2.105
 6000SOL    HW118899   4.633   6.222   2.186
 6000SOL    HW218900   4.479   6.233   2.133
 6001SOL     OW18901   6.289   2.134   0.083
 6001SOL    HW118902   6.191   2.130   0.062
 6001SOL    HW218903   6.302   2.157   0.179
 6002SOL     OW18904   1.571   0.225   2.036
 6002SOL    HW118905   1.633   0.181   1.972
 6002SOL    HW218906   1.621   0.248   2.120
 6003SOL     OW18907   4.751   4.332   3.817
 6003SOL    HW118908   4.752   4.333   3.917
 6003SOL    HW218909   4.685   4.399   3.783
 6004SOL     OW18910   6.851   3.918   2.701
 6004SOL    HW118911   6.821   3.998   2.650
 6004SOL    HW218912   6.848   3.837   2.642
 6005SOL     OW18913   3.202   5.915   2.859
 6005SOL    HW118914   3.125   5.856   2.882
 6005SOL    HW218915   3.224   5.906   2.762
 6006SOL     OW18916   2.299   6.505   0.161
 6006SOL    HW118917   2.319   6.578   0.097
 6006SOL    HW218918   2.348   6.521   0.247
 6007SOL     OW18919   5.621   2.584   3.718
 6007SOL    HW118920   5.694   2.638   3.761
 6007SOL    HW218921   5.545   2.574   3.782
 6008SOL     OW18922   3.440   4.861   6.534
 6008SOL    HW118923   3.477   4.892   6.621
 6008SOL    HW218924   3.450   4.762   6.526
 6009SOL     OW18925   3.097   2.195   4.166
 6009SOL    HW118926   3.168   2.133   4.200
 6009SOL    HW218927   3.083   2.179   4.068
 6010SOL     OW18928   1.474   3.324   3.432
 6010SOL    HW118929   1.517   3.393   3.373
 6010SOL    HW218930   1.528   3.314   3.516
 6011SOL     OW18931   6.403   3.064   3.088
 6011SOL    HW118932   6.389   3.024   3.179
 6011SOL    HW218933   6.332   3.132   3.070
 6012SOL     OW18934   6.791   3.600   0.582
 6012SOL    HW118935   6.883   3.572   0.555
 6012SOL    HW218936   6.736   3.616   0.500
 6013SOL     OW18937   5.772   1.116   2.563
 6013SOL    HW118938   5.760   1.163   2.476
 6013SOL    HW218939   5.869   1.101   2.580
 6014SOL     OW18940   5.905   0.518   0.784
 6014SOL    HW118941   5.995   0.543   0.820
 6014SOL    HW218942   5.907   0.523   0.684
 6015SOL     OW18943   5.533   2.044   4.726
 6015SOL    HW118944   5.480   2.020   4.807
 6015SOL    HW218945   5.475   2.094   4.662
 6016SOL     OW18946   2.053   6.577   5.350
 6016SOL    HW118947   1.977   6.631   5.314
 6016SOL    HW218948   2.127   6.575   5.283
 6017SOL     OW18949   6.560   4.753   2.634
 6017SOL    HW118950   6.655   4.721   2.641
 6017SOL    HW218951   6.560   4.852   2.616
 6018SOL     OW18952   2.285   4.889   0.891
 6018SOL    HW118953   2.186   4.896   0.905
 6018SOL    HW218954   2.302   4.857   0.798
 6019SOL     OW18955   4.162   0.053   4.275
 6019SOL    HW118956   4.196   0.146   4.260
 6019SOL    HW218957   4.171   0.001   4.190
 6020SOL     OW18958   3.652   0.470   2.832
 6020SOL    HW118959   3.725   0.511   2.778
 6020SOL    HW218960   3.566   0.476   2.782
 6021SOL     OW18961   3.910   1.514   2.989
 6021SOL    HW118962   3.839   1.507   3.059
 6021SOL    HW218963   3.888   1.453   2.913
 6022SOL     OW18964   4.146   1.921   5.069
 6022SOL    HW118965   4.233   1.917   5.119
 6022SOL    HW218966   4.117   2.016   5.061
 6023SOL     OW18967   6.697   1.379   2.535
 6023SOL    HW118968   6.734   1.356   2.445
 6023SOL    HW218969   6.598   1.366   2.535
 6024SOL     OW18970   0.681   4.806   2.785
 6024SOL    HW118971   0.707   4.901   2.805
 6024SOL    HW218972   0.724   4.778   2.699
 6025SOL     OW18973   4.404   2.049   1.478
 6025SOL    HW118974   4.384   2.126   1.538
 6025SOL    HW218975   4.404   2.081   1.383
 6026SOL     OW18976   0.324   4.545   5.428
 6026SOL    HW118977   0.351   4.449   5.417
 6026SOL    HW218978   0.229   4.550   5.457
 6027SOL     OW18979   3.086   3.551   0.488
 6027SOL    HW118980   3.178   3.554   0.449
 6027SOL    HW218981   3.022   3.598   0.427
 6028SOL     OW18982   1.499   3.573   0.352
 6028SOL    HW118983   1.426   3.615   0.406
 6028SOL    HW218984   1.542   3.499   0.403
 6029SOL     OW18985   1.640   5.123   1.538
 6029SOL    HW118986   1.663   5.037   1.583
 6029SOL    HW218987   1.712   5.190   1.556
 6030SOL     OW18988   2.131   0.345   1.118
 6030SOL    HW118989   2.082   0.397   1.049
 6030SOL    HW218990   2.075   0.269   1.150
 6031SOL     OW18991   5.230   0.174   5.158
 6031SOL    HW118992   5.206   0.262   5.116
 6031SOL    HW218993   5.149   0.134   5.200
 6032SOL     OW18994   0.384   3.233   2.624
 6032SOL    HW118995   0.395   3.242   2.723
 6032SOL    HW218996   0.382   3.136   2.599
 6033SOL     OW18997   1.140   0.342   4.369
 6033SOL    HW118998   1.081   0.382   4.300
 6033SOL    HW218999   1.110   0.249   4.390
 6034SOL     OW19000   2.244   3.964   5.670
 6034SOL    HW119001   2.186   4.008   5.602
 6034SOL    HW219002   2.325   3.926   5.625
 6035SOL     OW19003   6.171   1.260   4.210
 6035SOL    HW119004   6.259   1.297   4.181
 6035SOL    HW219005   6.181   1.163   4.229
 6036SOL     OW19006   7.008   0.434   4.744
 6036SOL    HW119007   0.050   0.479   4.683
 6036SOL    HW219008   6.943   0.380   4.690
 6037SOL     OW19009   6.581   4.971   4.943
 6037SOL    HW119010   6.592   5.004   4.849
 6037SOL    HW219011   6.485   4.978   4.970
 6038SOL     OW19012   4.926   4.009   6.571
 6038SOL    HW119013   5.021   4.027   6.597
 6038SOL    HW219014   4.869   4.009   6.654
 6039SOL     OW19015   3.427   4.118   3.036
 6039SOL    HW119016   3.340   4.092   2.993
 6039SOL    HW219017   3.418   4.112   3.135
 6040SOL     OW19018   0.172   1.773   7.023
 6040SOL    HW119019   0.193   1.683   0.039
 6040SOL    HW219020   0.250   1.834   0.013
 6041SOL     OW19021   0.439   2.749   0.555
 6041SOL    HW119022   0.429   2.685   0.631
 6041SOL    HW219023   0.506   2.713   0.490
 6042SOL     OW19024   5.337   5.108   3.587
 6042SOL    HW119025   5.335   5.175   3.662
 6042SOL    HW219026   5.320   5.017   3.625
 6043SOL     OW19027   0.908   4.673   4.204
 6043SOL    HW119028   0.865   4.584   4.214
 6043SOL    HW219029   0.853   4.730   4.143
 6044SOL     OW19030   1.038   0.487   1.666
 6044SOL    HW119031   1.058   0.515   1.760
 6044SOL    HW219032   1.015   0.390   1.665
 6045SOL     OW19033   0.316   4.092   1.771
 6045SOL    HW119034   0.237   4.120   1.827
 6045SOL    HW219035   0.311   4.139   1.683
 6046SOL     OW19036   2.762   2.595   0.865
 6046SOL    HW119037   2.697   2.560   0.797
 6046SOL    HW219038   2.822   2.662   0.822
 6047SOL     OW19039   0.245   6.298   4.768
 6047SOL    HW119040   0.185   6.282   4.690
 6047SOL    HW219041   0.318   6.360   4.742
 6048SOL     OW19042   4.640   6.703   4.962
 6048SOL    HW119043   4.739   6.705   4.953
 6048SOL    HW219044   4.604   6.796   4.967
 6049SOL     OW19045   6.635   5.288   1.167
 6049SOL    HW119046   6.684   5.352   1.108
 6049SOL    HW219047   6.538   5.290   1.145
 6050SOL     OW19048   4.908   4.322   5.219
 6050SOL    HW119049   4.942   4.393   5.281
 6050SOL    HW219050   4.982   4.292   5.159
 6051SOL     OW19051   1.918   1.778   2.767
 6051SOL    HW119052   1.987   1.775   2.840
 6051SOL    HW219053   1.836   1.824   2.800
 6052SOL     OW19054   6.787   1.021   0.301
 6052SOL    HW119055   6.764   0.974   0.386
 6052SOL    HW219056   6.717   1.001   0.232
 6053SOL     OW19057   1.991   0.160   6.312
 6053SOL    HW119058   1.952   0.130   6.399
 6053SOL    HW219059   2.051   0.239   6.328
 6054SOL     OW19060   2.498   4.987   0.316
 6054SOL    HW119061   2.499   4.899   0.363
 6054SOL    HW219062   2.504   5.061   0.383
 6055SOL     OW19063   4.970   0.376   4.524
 6055SOL    HW119064   5.067   0.366   4.544
 6055SOL    HW219065   4.954   0.465   4.482
 6056SOL     OW19066   5.067   2.490   6.330
 6056SOL    HW119067   5.028   2.574   6.291
 6056SOL    HW219068   5.121   2.443   6.260
 6057SOL     OW19069   3.729   1.024   5.841
 6057SOL    HW119070   3.779   0.952   5.889
 6057SOL    HW219071   3.655   1.058   5.900
 6058SOL     OW19072   5.811   1.607   4.570
 6058SOL    HW119073   5.898   1.628   4.526
 6058SOL    HW219074   5.754   1.689   4.574
 6059SOL     OW19075   0.079   4.814   6.048
 6059SOL    HW119076   0.162   4.809   6.102
 6059SOL    HW219077   7.023   4.793   6.106
 6060SOL     OW19078   4.397   6.849   5.681
 6060SOL    HW119079   4.375   6.828   5.776
 6060SOL    HW219080   4.492   6.825   5.663
 6061SOL     OW19081   2.272   2.071   6.583
 6061SOL    HW119082   2.199   2.008   6.555
 6061SOL    HW219083   2.309   2.118   6.502
 6062SOL     OW19084   2.401   0.352   4.222
 6062SOL    HW119085   2.480   0.396   4.264
 6062SOL    HW219086   2.418   0.253   4.215
 6063SOL     OW19087   4.391   0.277   6.999
 6063SOL    HW119088   4.429   0.185   6.993
 6063SOL    HW219089   4.297   0.272   0.012
 6064SOL     OW19090   1.361   6.009   3.510
 6064SOL    HW119091   1.379   5.918   3.475
 6064SOL    HW219092   1.439   6.041   3.564
 6065SOL     OW19093   0.054   0.546   0.728
 6065SOL    HW119094   7.020   0.489   0.669
 6065SOL    HW219095   0.110   0.606   0.671
 6066SOL     OW19096   4.561   3.085   6.585
 6066SOL    HW119097   4.601   3.046   6.668
 6066SOL    HW219098   4.474   3.039   6.564
 6067SOL     OW19099   5.984   2.093   7.002
 6067SOL    HW119100   5.899   2.062   0.022
 6067SOL    HW219101   5.994   2.048   6.913
 6068SOL     OW19102   4.642   2.866   5.029
 6068SOL    HW119103   4.618   2.899   4.938
 6068SOL    HW219104   4.669   2.770   5.024
 6069SOL     OW19105   6.379   3.724   4.125
 6069SOL    HW119106   6.357   3.678   4.038
 6069SOL    HW219107   6.433   3.662   4.182
 6070SOL     OW19108   4.022   2.307   6.373
 6070SOL    HW119109   4.027   2.231   6.438
 6070SOL    HW219110   3.978   2.386   6.416
 6071SOL     OW19111   4.274   6.069   5.074
 6071SOL    HW119112   4.234   6.056   4.984
 6071SOL    HW219113   4.316   6.160   5.080
 6072SOL     OW19114   0.517   1.696   0.745
 6072SOL    HW119115   0.481   1.603   0.741
 6072SOL    HW219116   0.588   1.701   0.815
 6073SOL     OW19117   6.702   2.485   1.265
 6073SOL    HW119118   6.753   2.541   1.199
 6073SOL    HW219119   6.728   2.512   1.357
 6074SOL     OW19120   0.450   0.214   4.331
 6074SOL    HW119121   0.388   0.177   4.262
 6074SOL    HW219122   0.429   0.311   4.345
 6075SOL     OW19123   5.465   4.066   6.641
 6075SOL    HW119124   5.454   3.998   6.713
 6075SOL    HW219125   5.545   4.124   6.661
 6076SOL     OW19126   1.868   6.147   4.203
 6076SOL    HW119127   1.919   6.072   4.163
 6076SOL    HW219128   1.855   6.131   4.301
 6077SOL     OW19129   6.191   5.870   2.019
 6077SOL    HW119130   6.242   5.949   2.056
 6077SOL    HW219131   6.205   5.865   1.920
 6078SOL     OW19132   2.438   4.528   3.537
 6078SOL    HW119133   2.391   4.449   3.497
 6078SOL    HW219134   2.510   4.559   3.474
 6079SOL     OW19135   2.173   1.547   0.324
 6079SOL    HW119136   2.138   1.560   0.231
 6079SOL    HW219137   2.161   1.452   0.352
 6080SOL     OW19138   5.671   2.560   2.238
 6080SOL    HW119139   5.644   2.574   2.142
 6080SOL    HW219140   5.726   2.478   2.246
 6081SOL     OW19141   0.214   4.193   3.325
 6081SOL    HW119142   0.118   4.170   3.314
 6081SOL    HW219143   0.268   4.149   3.252
 6082SOL     OW19144   4.209   1.723   4.037
 6082SOL    HW119145   4.205   1.687   3.944
 6082SOL    HW219146   4.135   1.684   4.092
 6083SOL     OW19147   1.595   6.749   0.328
 6083SOL    HW119148   1.585   6.783   0.421
 6083SOL    HW219149   1.639   6.819   0.271
 6084SOL     OW19150   0.791   4.946   5.788
 6084SOL    HW119151   0.889   4.967   5.789
 6084SOL    HW219152   0.743   5.015   5.733
 6085SOL     OW19153   4.749   3.758   1.247
 6085SOL    HW119154   4.803   3.770   1.163
 6085SOL    HW219155   4.656   3.793   1.231
 6086SOL     OW19156   2.727   1.437   3.431
 6086SOL    HW119157   2.793   1.501   3.469
 6086SOL    HW219158   2.635   1.465   3.458
 6087SOL     OW19159   4.968   6.934   6.906
 6087SOL    HW119160   4.990   6.838   6.921
 6087SOL    HW219161   4.997   6.961   6.815
 6088SOL     OW19162   0.056   0.172   4.534
 6088SOL    HW119163   0.034   0.184   4.437
 6088SOL    HW219164   0.129   0.235   4.559
 6089SOL     OW19165   0.620   3.171   0.066
 6089SOL    HW119166   0.581   3.149   0.156
 6089SOL    HW219167   0.569   3.123   7.018
 6090SOL     OW19168   0.113   6.252   4.540
 6090SOL    HW119169   0.063   6.184   4.485
 6090SOL    HW219170   0.128   6.334   4.485
 6091SOL     OW19171   5.900   1.584   1.923
 6091SOL    HW119172   5.858   1.554   1.837
 6091SOL    HW219173   5.997   1.562   1.922
 6092SOL     OW19174   1.920   2.495   1.651
 6092SOL    HW119175   1.930   2.561   1.725
 6092SOL    HW219176   1.866   2.536   1.577
 6093SOL     OW19177   0.846   3.235   1.358
 6093SOL    HW119178   0.894   3.310   1.403
 6093SOL    HW219179   0.876   3.148   1.398
 6094SOL     OW19180   1.358   0.769   1.154
 6094SOL    HW119181   1.354   0.672   1.177
 6094SOL    HW219182   1.394   0.821   1.232
 6095SOL     OW19183   6.615   3.843   5.860
 6095SOL    HW119184   6.692   3.779   5.857
 6095SOL    HW219185   6.552   3.824   5.785
 6096SOL     OW19186   3.637   1.872   3.102
 6096SOL    HW119187   3.609   1.941   3.035
 6096SOL    HW219188   3.562   1.853   3.165
 6097SOL     OW19189   2.999   2.074   2.036
 6097SOL    HW119190   3.008   2.016   2.117
 6097SOL    HW219191   2.941   2.153   2.057
 6098SOL     OW19192   1.773   1.963   5.567
 6098SOL    HW119193   1.739   2.022   5.494
 6098SOL    HW219194   1.711   1.885   5.579
 6099SOL     OW19195   6.207   5.407   4.794
 6099SOL    HW119196   6.187   5.505   4.792
 6099SOL    HW219197   6.224   5.379   4.889
 6100SOL     OW19198   6.408   2.781   0.124
 6100SOL    HW119199   6.356   2.755   0.205
 6100SOL    HW219200   6.505   2.787   0.147
 6101SOL     OW19201   6.095   1.549   4.844
 6101SOL    HW119202   6.156   1.488   4.894
 6101SOL    HW219203   6.006   1.504   4.831
 6102SOL     OW19204   2.768   0.568   5.322
 6102SOL    HW119205   2.796   0.474   5.342
 6102SOL    HW219206   2.709   0.568   5.241
 6103SOL     OW19207   6.460   7.014   6.064
 6103SOL    HW119208   6.455   6.963   6.150
 6103SOL    HW219209   6.539   0.052   6.067
 6104SOL     OW19210   1.194   2.708   0.065
 6104SOL    HW119211   1.212   2.793   0.014
 6104SOL    HW219212   1.175   2.730   0.161
 6105SOL     OW19213   3.367   5.852   4.334
 6105SOL    HW119214   3.426   5.929   4.311
 6105SOL    HW219215   3.391   5.773   4.278
 6106SOL     OW19216   3.035   5.679   5.430
 6106SOL    HW119217   2.945   5.693   5.390
 6106SOL    HW219218   3.033   5.597   5.488
 6107SOL     OW19219   2.152   4.373   5.502
 6107SOL    HW119220   2.179   4.280   5.477
 6107SOL    HW219221   2.097   4.370   5.586
 6108SOL     OW19222   0.125   2.114   4.831
 6108SOL    HW119223   0.118   2.027   4.781
 6108SOL    HW219224   0.212   2.117   4.881
 6109SOL     OW19225   6.545   4.546   1.198
 6109SOL    HW119226   6.571   4.489   1.120
 6109SOL    HW219227   6.613   4.536   1.271
 6110SOL     OW19228   3.063   1.579   4.456
 6110SOL    HW119229   3.113   1.542   4.534
 6110SOL    HW219230   3.003   1.508   4.418
 6111SOL     OW19231   1.094   5.065   2.851
 6111SOL    HW119232   1.073   4.972   2.880
 6111SOL    HW219233   1.102   5.124   2.932
 6112SOL     OW19234   0.317   1.998   2.718
 6112SOL    HW119235   0.269   2.081   2.689
 6112SOL    HW219236   0.381   2.020   2.792
 6113SOL     OW19237   1.590   5.994   5.227
 6113SOL    HW119238   1.537   6.079   5.234
 6113SOL    HW219239   1.645   5.982   5.310
 6114SOL     OW19240   5.019   5.599   0.693
 6114SOL    HW119241   5.084   5.550   0.634
 6114SOL    HW219242   4.945   5.537   0.720
 6115SOL     OW19243   6.068   4.792   2.473
 6115SOL    HW119244   5.996   4.724   2.490
 6115SOL    HW219245   6.027   4.872   2.428
 6116SOL     OW19246   4.297   0.804   1.789
 6116SOL    HW119247   4.222   0.741   1.810
 6116SOL    HW219248   4.275   0.896   1.823
 6117SOL     OW19249   5.258   0.261   4.538
 6117SOL    HW119250   5.354   0.256   4.508
 6117SOL    HW219251   5.254   0.249   4.637
 6118SOL     OW19252   6.057   0.430   3.202
 6118SOL    HW119253   5.980   0.368   3.193
 6118SOL    HW219254   6.142   0.380   3.185
 6119SOL     OW19255   6.739   4.888   4.177
 6119SOL    HW119256   6.646   4.851   4.175
 6119SOL    HW219257   6.787   4.862   4.094
 6120SOL     OW19258   2.812   0.994   3.250
 6120SOL    HW119259   2.827   1.090   3.228
 6120SOL    HW219260   2.824   0.939   3.167
 6121SOL     OW19261   6.718   2.119   4.638
 6121SOL    HW119262   6.761   2.120   4.729
 6121SOL    HW219263   6.781   2.157   4.571
 6122SOL     OW19264   4.807   5.652   3.208
 6122SOL    HW119265   4.743   5.623   3.279
 6122SOL    HW219266   4.798   5.750   3.193
 6123SOL     OW19267   5.684   0.946   2.143
 6123SOL    HW119268   5.594   0.905   2.158
 6123SOL    HW219269   5.753   0.893   2.193
 6124SOL     OW19270   3.481   0.364   5.729
 6124SOL    HW119271   3.525   0.360   5.639
 6124SOL    HW219272   3.383   0.349   5.718
 6125SOL     OW19273   2.044   5.168   1.777
 6125SOL    HW119274   2.028   5.159   1.678
 6125SOL    HW219275   1.959   5.152   1.826
 6126SOL     OW19276   5.517   5.496   2.479
 6126SOL    HW119277   5.532   5.494   2.578
 6126SOL    HW219278   5.521   5.591   2.446
 6127SOL     OW19279   2.254   4.731   1.668
 6127SOL    HW119280   2.267   4.640   1.630
 6127SOL    HW219281   2.342   4.777   1.677
 6128SOL     OW19282   5.046   2.081   0.666
 6128SOL    HW119283   4.988   2.084   0.584
 6128SOL    HW219284   5.097   1.995   0.667
 6129SOL     OW19285   5.912   4.867   4.096
 6129SOL    HW119286   5.874   4.784   4.137
 6129SOL    HW219287   6.012   4.862   4.096
 6130SOL     OW19288   5.356   3.118   2.026
 6130SOL    HW119289   5.392   3.091   1.936
 6130SOL    HW219290   5.391   3.055   2.095
 6131SOL     OW19291   6.519   0.783   5.354
 6131SOL    HW119292   6.490   0.719   5.424
 6131SOL    HW219293   6.559   0.733   5.277
 6132SOL     OW19294   6.066   2.655   0.586
 6132SOL    HW119295   6.040   2.559   0.581
 6132SOL    HW219296   6.039   2.692   0.675
 6133SOL     OW19297   1.050   4.204   0.216
 6133SOL    HW119298   1.055   4.244   0.124
 6133SOL    HW219299   1.076   4.272   0.284
 6134SOL     OW19300   4.993   3.117   6.158
 6134SOL    HW119301   5.054   3.072   6.092
 6134SOL    HW219302   5.040   3.196   6.197
 6135SOL     OW19303   5.768   6.915   1.196
 6135SOL    HW119304   5.715   6.830   1.195
 6135SOL    HW219305   5.846   6.906   1.133
 6136SOL     OW19306   0.161   1.642   1.623
 6136SOL    HW119307   0.094   1.610   1.557
 6136SOL    HW219308   0.238   1.578   1.628
 6137SOL     OW19309   2.648   0.024   5.878
 6137SOL    HW119310   2.626   0.095   5.812
 6137SOL    HW219311   2.567   7.022   5.929
 6138SOL     OW19312   4.368   0.505   2.960
 6138SOL    HW119313   4.365   0.456   2.873
 6138SOL    HW219314   4.312   0.456   3.027
 6139SOL     OW19315   1.918   4.406   4.196
 6139SOL    HW119316   1.973   4.389   4.277
 6139SOL    HW219317   1.881   4.499   4.200
 6140SOL     OW19318   2.014   6.390   1.401
 6140SOL    HW119319   1.943   6.322   1.386
 6140SOL    HW219320   2.094   6.347   1.444
 6141SOL     OW19321   6.464   6.163   6.015
 6141SOL    HW119322   6.387   6.202   5.965
 6141SOL    HW219323   6.549   6.183   5.966
 6142SOL     OW19324   0.770   4.792   2.523
 6142SOL    HW119325   0.843   4.859   2.508
 6142SOL    HW219326   0.698   4.805   2.454
 6143SOL     OW19327   6.316   4.577   6.147
 6143SOL    HW119328   6.406   4.543   6.173
 6143SOL    HW219329   6.325   4.666   6.102
 6144SOL     OW19330   0.314   4.947   3.744
 6144SOL    HW119331   0.323   4.934   3.842
 6144SOL    HW219332   0.265   4.870   3.704
 6145SOL     OW19333   5.308   6.327   3.270
 6145SOL    HW119334   5.320   6.343   3.368
 6145SOL    HW219335   5.350   6.239   3.246
 6146SOL     OW19336   5.615   0.978   2.934
 6146SOL    HW119337   5.693   0.997   2.994
 6146SOL    HW219338   5.607   1.051   2.866
 6147SOL     OW19339   1.808   3.274   3.243
 6147SOL    HW119340   1.756   3.243   3.163
 6147SOL    HW219341   1.895   3.226   3.247
 6148SOL     OW19342   6.723   6.384   4.571
 6148SOL    HW119343   6.823   6.376   4.563
 6148SOL    HW219344   6.695   6.354   4.662
 6149SOL     OW19345   2.124   6.409   3.611
 6149SOL    HW119346   2.124   6.318   3.571
 6149SOL    HW219347   2.140   6.402   3.710
 6150SOL     OW19348   4.543   5.115   5.912
 6150SOL    HW119349   4.522   5.018   5.897
 6150SOL    HW219350   4.632   5.137   5.873
 6151SOL     OW19351   4.847   2.257   5.582
 6151SOL    HW119352   4.852   2.341   5.527
 6151SOL    HW219353   4.834   2.178   5.521
 6152SOL     OW19354   6.584   4.460   6.807
 6152SOL    HW119355   6.567   4.397   6.731
 6152SOL    HW219356   6.656   4.424   6.866
 6153SOL     OW19357   4.738   3.411   0.668
 6153SOL    HW119358   4.755   3.458   0.755
 6153SOL    HW219359   4.803   3.444   0.599
 6154SOL     OW19360   5.054   2.878   2.776
 6154SOL    HW119361   5.087   2.972   2.783
 6154SOL    HW219362   5.104   2.821   2.841
 6155SOL     OW19363   0.930   3.666   4.774
 6155SOL    HW119364   0.844   3.618   4.754
 6155SOL    HW219365   0.916   3.730   4.850
 6156SOL     OW19366   6.821   0.437   3.116
 6156SOL    HW119367   6.820   0.537   3.125
 6156SOL    HW219368   6.809   0.395   3.207
 6157SOL     OW19369   1.901   1.612   3.410
 6157SOL    HW119370   1.867   1.602   3.317
 6157SOL    HW219371   1.988   1.662   3.410
 6158SOL     OW19372   4.457   0.846   0.337
 6158SOL    HW119373   4.461   0.943   0.359
 6158SOL    HW219374   4.499   0.793   0.411
 6159SOL     OW19375   5.359   3.342   0.003
 6159SOL    HW119376   5.296   3.383   6.961
 6159SOL    HW219377   5.440   3.400   0.011
 6160SOL     OW19378   6.426   5.129   1.596
 6160SOL    HW119379   6.435   5.199   1.526
 6160SOL    HW219380   6.469   5.160   1.681
 6161SOL     OW19381   5.933   0.770   6.146
 6161SOL    HW119382   5.916   0.869   6.142
 6161SOL    HW219383   5.943   0.735   6.053
 6162SOL     OW19384   6.295   5.171   3.627
 6162SOL    HW119385   6.232   5.220   3.688
 6162SOL    HW219386   6.257   5.081   3.605
 6163SOL     OW19387   6.489   4.168   1.841
 6163SOL    HW119388   6.555   4.121   1.783
 6163SOL    HW219389   6.534   4.202   1.923
 6164SOL     OW19390   3.969   2.650   0.307
 6164SOL    HW119391   4.068   2.642   0.297
 6164SOL    HW219392   3.947   2.730   0.362
 6165SOL     OW19393   4.303   6.496   0.202
 6165SOL    HW119394   4.274   6.568   0.139
 6165SOL    HW219395   4.285   6.524   0.296
 6166SOL     OW19396   3.432   1.689   6.543
 6166SOL    HW119397   3.485   1.773   6.556
 6166SOL    HW219398   3.337   1.713   6.520
 6167SOL     OW19399   6.726   4.712   3.631
 6167SOL    HW119400   6.808   4.680   3.583
 6167SOL    HW219401   6.647   4.658   3.602
 6168SOL     OW19402   0.694   2.779   2.027
 6168SOL    HW119403   0.619   2.770   2.093
 6168SOL    HW219404   0.776   2.736   2.065
 6169SOL     OW19405   1.907   4.202   2.417
 6169SOL    HW119406   2.004   4.212   2.393
 6169SOL    HW219407   1.863   4.141   2.352
 6170SOL     OW19408   0.207   2.542   4.224
 6170SOL    HW119409   0.209   2.498   4.313
 6170SOL    HW219410   0.147   2.622   4.228
 6171SOL     OW19411   6.899   0.654   6.411
 6171SOL    HW119412   6.864   0.650   6.504
 6171SOL    HW219413   6.998   0.666   6.413
 6172SOL     OW19414   1.215   3.889   4.223
 6172SOL    HW119415   1.295   3.937   4.185
 6172SOL    HW219416   1.160   3.954   4.274
 6173SOL     OW19417   6.006   6.296   3.243
 6173SOL    HW119418   6.095   6.271   3.206
 6173SOL    HW219419   5.999   6.265   3.337
 6174SOL     OW19420   5.978   3.684   2.094
 6174SOL    HW119421   5.901   3.663   2.154
 6174SOL    HW219422   5.945   3.729   2.011
 6175SOL     OW19423   2.811   2.630   5.696
 6175SOL    HW119424   2.835   2.552   5.753
 6175SOL    HW219425   2.871   2.631   5.616
 6176SOL     OW19426   4.286   4.051   6.318
 6176SOL    HW119427   4.240   4.008   6.395
 6176SOL    HW219428   4.303   4.147   6.338
 6177SOL     OW19429   6.349   0.726   1.258
 6177SOL    HW119430   6.365   0.748   1.162
 6177SOL    HW219431   6.259   0.758   1.286
 6178SOL     OW19432   3.832   4.684   1.416
 6178SOL    HW119433   3.798   4.729   1.333
 6178SOL    HW219434   3.783   4.719   1.496
 6179SOL     OW19435   5.733   5.064   4.102
 6179SOL    HW119436   5.658   5.036   4.042
 6179SOL    HW219437   5.808   4.999   4.095
 6180SOL     OW19438   3.177   4.496   6.884
 6180SOL    HW119439   3.122   4.580   6.880
 6180SOL    HW219440   3.260   4.509   6.830
 6181SOL     OW19441   6.475   6.366   6.948
 6181SOL    HW119442   6.507   6.279   6.912
 6181SOL    HW219443   6.376   6.373   6.935
 6182SOL     OW19444   3.250   2.437   0.689
 6182SOL    HW119445   3.223   2.371   0.618
 6182SOL    HW219446   3.311   2.506   0.648
 6183SOL     OW19447   0.389   6.856   0.584
 6183SOL    HW119448   0.420   6.783   0.522
 6183SOL    HW219449   0.336   6.923   0.532
 6184SOL     OW19450   2.238   7.022   5.448
 6184SOL    HW119451   2.144   0.021   5.423
 6184SOL    HW219452   2.297   0.006   5.367
 6185SOL     OW19453   3.536   2.721   5.220
 6185SOL    HW119454   3.441   2.729   5.250
 6185SOL    HW219455   3.566   2.808   5.180
 6186SOL     OW19456   0.365   1.471   1.673
 6186SOL    HW119457   0.389   1.443   1.766
 6186SOL    HW219458   0.349   1.390   1.616
 6187SOL     OW19459   4.210   1.306   5.719
 6187SOL    HW119460   4.274   1.379   5.742
 6187SOL    HW219461   4.117   1.343   5.711
 6188SOL     OW19462   1.106   1.423   4.753
 6188SOL    HW119463   1.163   1.458   4.828
 6188SOL    HW219464   1.164   1.391   4.679
 6189SOL     OW19465   6.460   6.184   1.446
 6189SOL    HW119466   6.512   6.234   1.515
 6189SOL    HW219467   6.378   6.236   1.422
 6190SOL     OW19468   0.877   2.750   4.875
 6190SOL    HW119469   0.954   2.771   4.935
 6190SOL    HW219470   0.850   2.834   4.827
 6191SOL     OW19471   3.941   3.451   0.168
 6191SOL    HW119472   3.898   3.384   0.228
 6191SOL    HW219473   3.998   3.513   0.223
 6192SOL     OW19474   2.972   1.213   0.554
 6192SOL    HW119475   2.978   1.126   0.505
 6192SOL    HW219476   2.947   1.286   0.490
 6193SOL     OW19477   4.666   5.559   6.955
 6193SOL    HW119478   4.702   5.506   0.009
 6193SOL    HW219479   4.734   5.560   6.882
 6194SOL     OW19480   5.816   6.881   6.823
 6194SOL    HW119481   5.834   6.846   6.915
 6194SOL    HW219482   5.876   6.959   6.806
 6195SOL     OW19483   6.126   6.501   6.613
 6195SOL    HW119484   6.073   6.569   6.665
 6195SOL    HW219485   6.220   6.532   6.604
 6196SOL     OW19486   5.571   3.641   2.678
 6196SOL    HW119487   5.653   3.634   2.622
 6196SOL    HW219488   5.558   3.557   2.730
 6197SOL     OW19489   1.946   5.154   1.526
 6197SOL    HW119490   1.957   5.191   1.433
 6197SOL    HW219491   1.899   5.066   1.521
 6198SOL     OW19492   5.789   1.236   6.783
 6198SOL    HW119493   5.840   1.245   6.698
 6198SOL    HW219494   5.831   1.164   6.839
 6199SOL     OW19495   1.484   0.191   6.219
 6199SOL    HW119496   1.519   0.175   6.126
 6199SOL    HW219497   1.552   0.159   6.285
 6200SOL     OW19498   1.413   1.085   2.142
 6200SOL    HW119499   1.448   1.164   2.091
 6200SOL    HW219500   1.334   1.048   2.094
 6201SOL     OW19501   0.900   4.723   3.354
 6201SOL    HW119502   0.848   4.736   3.438
 6201SOL    HW219503   0.859   4.649   3.301
 6202SOL     OW19504   5.682   1.670   3.005
 6202SOL    HW119505   5.725   1.733   2.940
 6202SOL    HW219506   5.739   1.662   3.086
 6203SOL     OW19507   6.458   0.149   1.993
 6203SOL    HW119508   6.360   0.154   2.012
 6203SOL    HW219509   6.507   0.129   2.078
 6204SOL     OW19510   1.974   6.801   4.832
 6204SOL    HW119511   1.939   6.755   4.913
 6204SOL    HW219512   1.990   6.898   4.853
 6205SOL     OW19513   5.329   4.117   3.348
 6205SOL    HW119514   5.338   4.091   3.444
 6205SOL    HW219515   5.233   4.137   3.328
 6206SOL     OW19516   5.972   1.851   4.172
 6206SOL    HW119517   5.890   1.896   4.135
 6206SOL    HW219518   5.967   1.753   4.154
 6207SOL     OW19519   1.262   5.045   4.423
 6207SOL    HW119520   1.269   5.032   4.522
 6207SOL    HW219521   1.252   4.955   4.379
 6208SOL     OW19522   3.941   3.943   6.257
 6208SOL    HW119523   3.861   3.897   6.220
 6208SOL    HW219524   4.012   3.949   6.187
 6209SOL     OW19525   3.179   2.514   1.588
 6209SOL    HW119526   3.194   2.418   1.610
 6209SOL    HW219527   3.236   2.540   1.509
 6210SOL     OW19528   4.876   2.294   4.611
 6210SOL    HW119529   4.917   2.204   4.625
 6210SOL    HW219530   4.901   2.328   4.521
 6211SOL     OW19531   5.727   4.253   5.104
 6211SOL    HW119532   5.638   4.256   5.060
 6211SOL    HW219533   5.799   4.271   5.036
 6212SOL     OW19534   4.086   5.256   4.980
 6212SOL    HW119535   4.162   5.205   4.940
 6212SOL    HW219536   4.014   5.267   4.911
 6213SOL     OW19537   4.442   5.605   0.263
 6213SOL    HW119538   4.447   5.614   0.164
 6213SOL    HW219539   4.523   5.555   0.296
 6214SOL     OW19540   6.696   6.392   6.077
 6214SOL    HW119541   6.693   6.475   6.022
 6214SOL    HW219542   6.650   6.408   6.165
 6215SOL     OW19543   5.509   2.295   5.715
 6215SOL    HW119544   5.526   2.213   5.661
 6215SOL    HW219545   5.412   2.317   5.713
 6216SOL     OW19546   4.374   1.962   4.043
 6216SOL    HW119547   4.337   1.892   3.982
 6216SOL    HW219548   4.413   2.037   3.989
 6217SOL     OW19549   0.235   4.725   3.360
 6217SOL    HW119550   0.207   4.789   3.288
 6217SOL    HW219551   0.331   4.702   3.349
 6218SOL     OW19552   4.744   6.333   0.202
 6218SOL    HW119553   4.823   6.276   0.183
 6218SOL    HW219554   4.682   6.285   0.265
 6219SOL     OW19555   1.920   1.431   6.265
 6219SOL    HW119556   1.942   1.366   6.192
 6219SOL    HW219557   2.002   1.445   6.321
 6220SOL     OW19558   3.478   6.541   0.762
 6220SOL    HW119559   3.380   6.519   0.760
 6220SOL    HW219560   3.514   6.540   0.668
 6221SOL     OW19561   5.597   6.051   6.916
 6221SOL    HW119562   5.668   5.991   6.879
 6221SOL    HW219563   5.634   6.100   6.995
 6222SOL     OW19564   6.473   1.317   1.601
 6222SOL    HW119565   6.489   1.374   1.682
 6222SOL    HW219566   6.522   1.356   1.523
 6223SOL     OW19567   0.173   5.154   4.075
 6223SOL    HW119568   0.120   5.114   4.150
 6223SOL    HW219569   0.121   5.228   4.032
 6224SOL     OW19570   3.863   0.286   6.892
 6224SOL    HW119571   3.874   0.191   6.921
 6224SOL    HW219572   3.879   0.347   6.969
 6225SOL     OW19573   4.584   6.150   6.822
 6225SOL    HW119574   4.577   6.115   6.916
 6225SOL    HW219575   4.675   6.132   6.786
 6226SOL     OW19576   1.181   0.876   4.546
 6226SOL    HW119577   1.172   0.818   4.627
 6226SOL    HW219578   1.090   0.892   4.506
 6227SOL     OW19579   2.594   4.473   5.215
 6227SOL    HW119580   2.668   4.498   5.153
 6227SOL    HW219581   2.564   4.553   5.267
 6228SOL     OW19582   0.773   3.251   3.332
 6228SOL    HW119583   0.734   3.168   3.291
 6228SOL    HW219584   0.869   3.234   3.356
 6229SOL     OW19585   0.242   2.874   3.860
 6229SOL    HW119586   0.209   2.909   3.948
 6229SOL    HW219587   0.170   2.818   3.818
 6230SOL     OW19588   0.232   0.563   1.572
 6230SOL    HW119589   0.315   0.615   1.594
 6230SOL    HW219590   0.153   0.608   1.613
 6231SOL     OW19591   2.373   5.217   6.651
 6231SOL    HW119592   2.454   5.182   6.604
 6231SOL    HW219593   2.401   5.280   6.723
 6232SOL     OW19594   3.989   0.552   6.161
 6232SOL    HW119595   4.080   0.520   6.188
 6232SOL    HW219596   3.923   0.476   6.169
 6233SOL     OW19597   6.988   3.404   1.638
 6233SOL    HW119598   6.955   3.412   1.544
 6233SOL    HW219599   0.013   3.488   1.664
 6234SOL     OW19600   4.810   5.156   4.563
 6234SOL    HW119601   4.778   5.117   4.650
 6234SOL    HW219602   4.764   5.244   4.548
 6235SOL     OW19603   0.490   0.501   2.658
 6235SOL    HW119604   0.488   0.528   2.562
 6235SOL    HW219605   0.545   0.418   2.668
 6236SOL     OW19606   0.177   5.526   1.500
 6236SOL    HW119607   0.277   5.528   1.503
 6236SOL    HW219608   0.141   5.596   1.562
 6237SOL     OW19609   3.420   1.144   1.383
 6237SOL    HW119610   3.423   1.181   1.290
 6237SOL    HW219611   3.378   1.211   1.444
 6238SOL     OW19612   2.059   0.522   3.777
 6238SOL    HW119613   2.040   0.476   3.864
 6238SOL    HW219614   2.097   0.457   3.712
 6239SOL     OW19615   4.480   1.651   4.505
 6239SOL    HW119616   4.472   1.595   4.422
 6239SOL    HW219617   4.391   1.694   4.525
 6240SOL     OW19618   3.399   3.016   4.118
 6240SOL    HW119619   3.483   3.069   4.105
 6240SOL    HW219620   3.385   2.956   4.039
 6241SOL     OW19621   3.250   0.490   3.758
 6241SOL    HW119622   3.162   0.497   3.805
 6241SOL    HW219623   3.245   0.538   3.671
 6242SOL     OW19624   2.327   2.233   3.095
 6242SOL    HW119625   2.265   2.157   3.116
 6242SOL    HW219626   2.421   2.198   3.089
 6243SOL     OW19627   4.538   1.856   6.392
 6243SOL    HW119628   4.515   1.939   6.342
 6243SOL    HW219629   4.626   1.820   6.359
 6244SOL     OW19630   4.975   3.377   2.183
 6244SOL    HW119631   5.056   3.372   2.125
 6244SOL    HW219632   4.958   3.288   2.225
 6245SOL     OW19633   0.227   4.527   2.134
 6245SOL    HW119634   0.223   4.587   2.054
 6245SOL    HW219635   0.293   4.454   2.119
 6246SOL     OW19636   6.868   6.659   3.831
 6246SOL    HW119637   6.852   6.691   3.738
 6246SOL    HW219638   6.793   6.688   3.890
 6247SOL     OW19639   6.050   6.394   3.832
 6247SOL    HW119640   6.032   6.488   3.864
 6247SOL    HW219641   6.145   6.387   3.801
 6248SOL     OW19642   3.726   2.890   5.671
 6248SOL    HW119643   3.805   2.949   5.687
 6248SOL    HW219644   3.711   2.880   5.573
 6249SOL     OW19645   5.686   2.717   1.985
 6249SOL    HW119646   5.609   2.754   2.035
 6249SOL    HW219647   5.686   2.752   1.891
 6250SOL     OW19648   6.206   0.183   6.986
 6250SOL    HW119649   6.116   0.202   6.947
 6250SOL    HW219650   6.215   0.084   7.002
 6251SOL     OW19651   2.713   0.407   4.134
 6251SOL    HW119652   2.688   0.351   4.212
 6251SOL    HW219653   2.658   0.491   4.133
 6252SOL     OW19654   3.272   5.842   6.585
 6252SOL    HW119655   3.196   5.778   6.592
 6252SOL    HW219656   3.330   5.817   6.507
 6253SOL     OW19657   3.812   5.752   4.406
 6253SOL    HW119658   3.911   5.748   4.417
 6253SOL    HW219659   3.777   5.838   4.444
 6254SOL     OW19660   0.492   0.066   1.291
 6254SOL    HW119661   0.427   0.019   1.231
 6254SOL    HW219662   0.445   0.095   1.374
 6255SOL     OW19663   0.905   1.466   0.758
 6255SOL    HW119664   0.990   1.519   0.759
 6255SOL    HW219665   0.912   1.391   0.824
 6256SOL     OW19666   5.670   5.869   2.225
 6256SOL    HW119667   5.740   5.930   2.264
 6256SOL    HW219668   5.712   5.782   2.199
 6257SOL     OW19669   3.191   4.107   1.076
 6257SOL    HW119670   3.165   4.125   1.171
 6257SOL    HW219671   3.130   4.156   1.014
 6258SOL     OW19672   4.376   5.177   5.228
 6258SOL    HW119673   4.341   5.240   5.297
 6258SOL    HW219674   4.413   5.096   5.272
 6259SOL     OW19675   3.616   0.723   4.303
 6259SOL    HW119676   3.629   0.630   4.337
 6259SOL    HW219677   3.643   0.727   4.207
 6260SOL     OW19678   1.645   1.132   6.493
 6260SOL    HW119679   1.653   1.111   6.395
 6260SOL    HW219680   1.648   1.046   6.545
 6261SOL     OW19681   3.845   0.289   0.678
 6261SOL    HW119682   3.928   0.235   0.666
 6261SOL    HW219683   3.774   0.231   0.717
 6262SOL     OW19684   5.441   0.808   2.664
 6262SOL    HW119685   5.517   0.788   2.602
 6262SOL    HW219686   5.434   0.907   2.676
 6263SOL     OW19687   5.637   6.235   5.484
 6263SOL    HW119688   5.621   6.143   5.447
 6263SOL    HW219689   5.572   6.299   5.442
 6264SOL     OW19690   2.494   6.753   0.131
 6264SOL    HW119691   2.428   6.794   0.194
 6264SOL    HW219692   2.447   6.725   0.047
 6265SOL     OW19693   4.785   6.811   6.600
 6265SOL    HW119694   4.862   6.872   6.619
 6265SOL    HW219695   4.715   6.861   6.550
 6266SOL     OW19696   2.909   5.164   3.137
 6266SOL    HW119697   2.868   5.254   3.129
 6266SOL    HW219698   2.922   5.141   3.234
 6267SOL     OW19699   1.882   6.719   4.592
 6267SOL    HW119700   1.966   6.746   4.545
 6267SOL    HW219701   1.893   6.735   4.691
 6268SOL     OW19702   3.067   1.642   0.350
 6268SOL    HW119703   3.119   1.650   0.435
 6268SOL    HW219704   2.998   1.714   0.346
 6269SOL     OW19705   6.334   5.146   0.206
 6269SOL    HW119706   6.345   5.173   0.110
 6269SOL    HW219707   6.351   5.048   0.215
 6270SOL     OW19708   1.998   6.212   0.789
 6270SOL    HW119709   1.901   6.196   0.809
 6270SOL    HW219710   2.043   6.251   0.870
 6271SOL     OW19711   6.828   3.246   5.823
 6271SOL    HW119712   6.860   3.169   5.768
 6271SOL    HW219713   6.888   3.259   5.901
 6272SOL     OW19714   6.964   0.139   0.051
 6272SOL    HW119715   6.916   0.115   6.990
 6272SOL    HW219716   6.899   0.181   0.115
 6273SOL     OW19717   0.867   6.485   2.167
 6273SOL    HW119718   0.801   6.560   2.168
 6273SOL    HW219719   0.937   6.503   2.099
 6274SOL     OW19720   3.103   5.306   3.588
 6274SOL    HW119721   3.194   5.277   3.617
 6274SOL    HW219722   3.052   5.338   3.667
 6275SOL     OW19723   2.737   5.702   6.592
 6275SOL    HW119724   2.767   5.798   6.590
 6275SOL    HW219725   2.800   5.646   6.538
 6276SOL     OW19726   2.134   5.244   2.545
 6276SOL    HW119727   2.088   5.205   2.464
 6276SOL    HW219728   2.138   5.343   2.536
 6277SOL     OW19729   5.615   2.639   1.090
 6277SOL    HW119730   5.538   2.605   1.143
 6277SOL    HW219731   5.651   2.722   1.133
 6278SOL     OW19732   3.309   2.104   0.140
 6278SOL    HW119733   3.257   2.111   0.055
 6278SOL    HW219734   3.248   2.079   0.215
 6279SOL     OW19735   3.253   6.552   1.937
 6279SOL    HW119736   3.223   6.612   1.862
 6279SOL    HW219737   3.272   6.461   1.900
 6280SOL     OW19738   5.693   2.593   6.798
 6280SOL    HW119739   5.710   2.566   6.703
 6280SOL    HW219740   5.598   2.572   6.823
 6281SOL     OW19741   5.358   3.986   5.751
 6281SOL    HW119742   5.325   4.012   5.661
 6281SOL    HW219743   5.428   4.051   5.782
 6282SOL     OW19744   0.291   3.404   6.018
 6282SOL    HW119745   0.272   3.307   5.998
 6282SOL    HW219746   0.383   3.412   6.056
 6283SOL     OW19747   1.880   6.430   4.757
 6283SOL    HW119748   1.868   6.461   4.662
 6283SOL    HW219749   1.806   6.366   4.780
 6284SOL     OW19750   1.122   3.549   5.366
 6284SOL    HW119751   1.180   3.521   5.443
 6284SOL    HW219752   1.164   3.627   5.320
 6285SOL     OW19753   1.549   3.528   3.264
 6285SOL    HW119754   1.636   3.505   3.221
 6285SOL    HW219755   1.483   3.556   3.194
 6286SOL     OW19756   0.474   2.491   6.574
 6286SOL    HW119757   0.409   2.451   6.510
 6286SOL    HW219758   0.450   2.464   6.667
 6287SOL     OW19759   4.787   4.968   5.177
 6287SOL    HW119760   4.734   4.883   5.170
 6287SOL    HW219761   4.792   4.996   5.273
 6288SOL     OW19762   2.738   3.653   6.448
 6288SOL    HW119763   2.731   3.582   6.519
 6288SOL    HW219764   2.647   3.683   6.422
 6289SOL     OW19765   2.381   4.313   6.099
 6289SOL    HW119766   2.373   4.285   6.004
 6289SOL    HW219767   2.444   4.252   6.147
 6290SOL     OW19768   6.094   6.417   4.363
 6290SOL    HW119769   6.086   6.321   4.390
 6290SOL    HW219770   6.187   6.436   4.332
 6291SOL     OW19771   4.058   3.434   2.883
 6291SOL    HW119772   3.977   3.377   2.892
 6291SOL    HW219773   4.119   3.395   2.814
 6292SOL     OW19774   1.686   4.067   4.091
 6292SOL    HW119775   1.719   4.082   4.184
 6292SOL    HW219776   1.754   4.016   4.039
 6293SOL     OW19777   2.710   1.258   6.665
 6293SOL    HW119778   2.688   1.313   6.585
 6293SOL    HW219779   2.808   1.269   6.687
 6294SOL     OW19780   1.584   1.200   2.571
 6294SOL    HW119781   1.621   1.159   2.488
 6294SOL    HW219782   1.631   1.162   2.651
 6295SOL     OW19783   4.729   3.163   6.381
 6295SOL    HW119784   4.706   3.254   6.348
 6295SOL    HW219785   4.665   3.137   6.453
 6296SOL     OW19786   1.124   3.384   0.374
 6296SOL    HW119787   1.040   3.434   0.393
 6296SOL    HW219788   1.201   3.431   0.417
 6297SOL     OW19789   6.062   1.614   4.455
 6297SOL    HW119790   6.090   1.671   4.533
 6297SOL    HW219791   6.119   1.636   4.376
 6298SOL     OW19792   0.091   6.011   0.779
 6298SOL    HW119793   0.041   6.028   0.694
 6298SOL    HW219794   0.030   6.020   0.857
 6299SOL     OW19795   3.304   1.628   3.390
 6299SOL    HW119796   3.352   1.637   3.477
 6299SOL    HW219797   3.268   1.535   3.381
 6300SOL     OW19798   2.952   1.462   6.906
 6300SOL    HW119799   2.949   1.371   6.865
 6300SOL    HW219800   2.913   1.459   6.998
 6301SOL     OW19801   4.586   6.193   0.394
 6301SOL    HW119802   4.591   6.097   0.421
 6301SOL    HW219803   4.510   6.207   0.331
 6302SOL     OW19804   2.366   2.472   5.934
 6302SOL    HW119805   2.390   2.447   5.840
 6302SOL    HW219806   2.433   2.536   5.969
 6303SOL     OW19807   0.290   5.531   4.928
 6303SOL    HW119808   0.250   5.609   4.976
 6303SOL    HW219809   0.342   5.563   4.849
 6304SOL     OW19810   4.071   0.675   4.147
 6304SOL    HW119811   4.008   0.607   4.185
 6304SOL    HW219812   4.140   0.698   4.215
 6305SOL     OW19813   1.379   5.769   5.986
 6305SOL    HW119814   1.433   5.853   5.992
 6305SOL    HW219815   1.285   5.793   5.960
 6306SOL     OW19816   0.454   5.300   4.913
 6306SOL    HW119817   0.406   5.361   4.975
 6306SOL    HW219818   0.492   5.352   4.837
 6307SOL     OW19819   3.583   2.808   2.160
 6307SOL    HW119820   3.620   2.719   2.134
 6307SOL    HW219821   3.621   2.879   2.101
 6308SOL     OW19822   0.670   2.227   0.232
 6308SOL    HW119823   0.731   2.301   0.260
 6308SOL    HW219824   0.624   2.190   0.313
 6309SOL     OW19825   2.620   6.352   4.719
 6309SOL    HW119826   2.567   6.431   4.750
 6309SOL    HW219827   2.634   6.288   4.794
 6310SOL     OW19828   1.382   0.007   2.859
 6310SOL    HW119829   1.329   0.059   2.792
 6310SOL    HW219830   1.327   7.017   2.942
 6311SOL     OW19831   6.015   1.333   6.618
 6311SOL    HW119832   6.031   1.432   6.624
 6311SOL    HW219833   6.094   1.284   6.654
 6312SOL     OW19834   3.483   6.116   6.836
 6312SOL    HW119835   3.576   6.114   6.799
 6312SOL    HW219836   3.458   6.210   6.860
 6313SOL     OW19837   6.321   5.015   4.441
 6313SOL    HW119838   6.303   5.088   4.506
 6313SOL    HW219839   6.235   4.973   4.413
 6314SOL     OW19840   2.193   6.448   2.641
 6314SOL    HW119841   2.185   6.483   2.734
 6314SOL    HW219842   2.118   6.384   2.623
 6315SOL     OW19843   2.134   1.795   3.395
 6315SOL    HW119844   2.230   1.823   3.405
 6315SOL    HW219845   2.082   1.824   3.475
 6316SOL     OW19846   4.737   1.289   4.645
 6316SOL    HW119847   4.673   1.272   4.570
 6316SOL    HW219848   4.831   1.285   4.610
 6317SOL     OW19849   5.337   4.964   2.185
 6317SOL    HW119850   5.285   5.003   2.262
 6317SOL    HW219851   5.354   5.035   2.117
 6318SOL     OW19852   6.756   6.502   0.397
 6318SOL    HW119853   6.726   6.495   0.302
 6318SOL    HW219854   6.852   6.529   0.400
 6319SOL     OW19855   5.696   1.816   4.117
 6319SOL    HW119856   5.670   1.886   4.183
 6319SOL    HW219857   5.631   1.815   4.041
 6320SOL     OW19858   5.968   1.395   5.616
 6320SOL    HW119859   6.059   1.356   5.630
 6320SOL    HW219860   5.970   1.493   5.636
 6321SOL     OW19861   0.107   2.720   6.942
 6321SOL    HW119862   0.076   2.647   7.002
 6321SOL    HW219863   0.051   2.721   6.859
 6322SOL     OW19864   0.898   1.252   2.476
 6322SOL    HW119865   0.961   1.237   2.552
 6322SOL    HW219866   0.925   1.334   2.426
 6323SOL     OW19867   2.314   4.935   1.160
 6323SOL    HW119868   2.298   4.862   1.093
 6323SOL    HW219869   2.412   4.946   1.174
 6324SOL     OW19870   4.332   3.414   0.955
 6324SOL    HW119871   4.297   3.422   0.862
 6324SOL    HW219872   4.264   3.368   1.012
 6325SOL     OW19873   1.205   2.419   3.849
 6325SOL    HW119874   1.139   2.408   3.923
 6325SOL    HW219875   1.280   2.355   3.861
 6326SOL     OW19876   5.148   5.463   5.460
 6326SOL    HW119877   5.175   5.391   5.397
 6326SOL    HW219878   5.207   5.543   5.446
 6327SOL     OW19879   0.083   1.296   3.468
 6327SOL    HW119880   0.183   1.298   3.460
 6327SOL    HW219881   0.042   1.318   3.380
 6328SOL     OW19882   4.500   3.445   5.330
 6328SOL    HW119883   4.552   3.492   5.258
 6328SOL    HW219884   4.543   3.461   5.418
 6329SOL     OW19885   0.402   2.201   5.750
 6329SOL    HW119886   0.448   2.226   5.835
 6329SOL    HW219887   0.439   2.255   5.674
 6330SOL     OW19888   5.269   1.584   3.808
 6330SOL    HW119889   5.209   1.543   3.877
 6330SOL    HW219890   5.361   1.544   3.817
 6331SOL     OW19891   0.937   3.119   3.782
 6331SOL    HW119892   0.928   3.216   3.757
 6331SOL    HW219893   0.866   3.095   3.849
 6332SOL     OW19894   3.477   1.614   6.844
 6332SOL    HW119895   3.404   1.565   6.893
 6332SOL    HW219896   3.444   1.705   6.819
 6333SOL     OW19897   6.134   0.929   1.123
 6333SOL    HW119898   6.036   0.933   1.103
 6333SOL    HW219899   6.178   1.014   1.092
 6334SOL     OW19900   1.469   0.974   1.807
 6334SOL    HW119901   1.473   0.903   1.737
 6334SOL    HW219902   1.402   0.949   1.877
 6335SOL     OW19903   6.819   3.192   6.200
 6335SOL    HW119904   6.806   3.173   6.298
 6335SOL    HW219905   6.793   3.287   6.181
 6336SOL     OW19906   0.655   4.297   5.200
 6336SOL    HW119907   0.686   4.205   5.175
 6336SOL    HW219908   0.679   4.361   5.127
 6337SOL     OW19909   5.169   6.642   5.350
 6337SOL    HW119910   5.266   6.627   5.334
 6337SOL    HW219911   5.150   6.636   5.448
 6338SOL     OW19912   1.146   1.018   3.275
 6338SOL    HW119913   1.063   1.073   3.271
 6338SOL    HW219914   1.157   0.969   3.188
 6339SOL     OW19915   0.419   4.523   3.832
 6339SOL    HW119916   0.408   4.526   3.733
 6339SOL    HW219917   0.342   4.570   3.876
 6340SOL     OW19918   2.597   4.059   0.339
 6340SOL    HW119919   2.573   3.970   0.301
 6340SOL    HW219920   2.687   4.054   0.382
 6341SOL     OW19921   0.587   5.476   2.054
 6341SOL    HW119922   0.520   5.503   2.123
 6341SOL    HW219923   0.618   5.556   2.003
 6342SOL     OW19924   1.656   1.152   1.035
 6342SOL    HW119925   1.626   1.151   1.131
 6342SOL    HW219926   1.670   1.246   1.005
 6343SOL     OW19927   1.241   5.771   0.595
 6343SOL    HW119928   1.175   5.844   0.579
 6343SOL    HW219929   1.224   5.729   0.685
 6344SOL     OW19930   0.076   1.305   3.753
 6344SOL    HW119931   0.071   1.323   3.654
 6344SOL    HW219932   0.163   1.261   3.774
 6345SOL     OW19933   5.816   2.395   2.482
 6345SOL    HW119934   5.795   2.470   2.421
 6345SOL    HW219935   5.795   2.308   2.437
 6346SOL     OW19936   0.205   4.190   5.738
 6346SOL    HW119937   0.122   4.151   5.697
 6346SOL    HW219938   0.203   4.176   5.837
 6347SOL     OW19939   2.126   2.338   3.548
 6347SOL    HW119940   2.203   2.373   3.602
 6347SOL    HW219941   2.157   2.259   3.496
 6348SOL     OW19942   1.387   2.367   6.299
 6348SOL    HW119943   1.380   2.457   6.254
 6348SOL    HW219944   1.456   2.312   6.252
 6349SOL     OW19945   6.744   1.123   0.674
 6349SOL    HW119946   6.677   1.197   0.681
 6349SOL    HW219947   6.700   1.035   0.689
 6350SOL     OW19948   0.775   6.131   1.225
 6350SOL    HW119949   0.834   6.103   1.150
 6350SOL    HW219950   0.823   6.118   1.312
 6351SOL     OW19951   5.676   4.178   1.748
 6351SOL    HW119952   5.671   4.122   1.665
 6351SOL    HW219953   5.768   4.216   1.757
 6352SOL     OW19954   3.365   1.051   4.532
 6352SOL    HW119955   3.369   1.143   4.492
 6352SOL    HW219956   3.458   1.020   4.553
 6353SOL     OW19957   3.594   6.436   5.873
 6353SOL    HW119958   3.540   6.520   5.873
 6353SOL    HW219959   3.679   6.451   5.822
 6354SOL     OW19960   4.452   5.404   1.996
 6354SOL    HW119961   4.467   5.499   2.024
 6354SOL    HW219962   4.515   5.345   2.046
 6355SOL     OW19963   3.162   5.240   0.329
 6355SOL    HW119964   3.174   5.312   0.397
 6355SOL    HW219965   3.132   5.156   0.374
 6356SOL     OW19966   0.438   5.842   5.914
 6356SOL    HW119967   0.414   5.935   5.887
 6356SOL    HW219968   0.535   5.827   5.898
 6357SOL     OW19969   5.036   0.847   2.044
 6357SOL    HW119970   5.134   0.834   2.029
 6357SOL    HW219971   4.987   0.769   2.005
 6358SOL     OW19972   1.357   2.095   5.299
 6358SOL    HW119973   1.290   2.157   5.258
 6358SOL    HW219974   1.316   2.048   5.377
 6359SOL     OW19975   5.586   6.607   0.959
 6359SOL    HW119976   5.642   6.564   0.889
 6359SOL    HW219977   5.491   6.578   0.949
 6360SOL     OW19978   0.784   1.287   1.170
 6360SOL    HW119979   0.837   1.232   1.234
 6360SOL    HW219980   0.811   1.264   1.076
 6361SOL     OW19981   0.601   1.496   0.360
 6361SOL    HW119982   0.665   1.445   0.417
 6361SOL    HW219983   0.571   1.579   0.408
 6362SOL     OW19984   1.340   5.635   0.397
 6362SOL    HW119985   1.297   5.690   0.468
 6362SOL    HW219986   1.370   5.548   0.435
 6363SOL     OW19987   2.094   3.866   2.774
 6363SOL    HW119988   2.070   3.811   2.694
 6363SOL    HW219989   2.114   3.806   2.851
 6364SOL     OW19990   2.453   2.290   4.455
 6364SOL    HW119991   2.453   2.372   4.512
 6364SOL    HW219992   2.534   2.290   4.397
 6365SOL     OW19993   5.738   6.879   2.957
 6365SOL    HW119994   5.755   6.918   3.047
 6365SOL    HW219995   5.691   6.946   2.900
 6366SOL     OW19996   5.827   0.856   4.877
 6366SOL    HW119997   5.760   0.856   4.951
 6366SOL    HW219998   5.884   0.938   4.885
 6367SOL     OW19999   0.945   2.328   2.988
 6367SOL    HW120000   0.947   2.427   2.981
 6367SOL    HW220001   0.971   2.300   3.080
 6368SOL     OW20002   5.007   4.074   4.493
 6368SOL    HW120003   5.002   4.136   4.572
 6368SOL    HW220004   4.998   3.980   4.525
 6369SOL     OW20005   4.424   5.045   0.593
 6369SOL    HW120006   4.383   5.068   0.505
 6369SOL    HW220007   4.501   4.982   0.578
 6370SOL     OW20008   5.590   4.174   4.282
 6370SOL    HW120009   5.615   4.103   4.217
 6370SOL    HW220010   5.523   4.139   4.347
 6371SOL     OW20011   5.240   4.230   1.565
 6371SOL    HW120012   5.240   4.236   1.465
 6371SOL    HW220013   5.305   4.296   1.603
 6372SOL     OW20014   6.171   1.533   1.886
 6372SOL    HW120015   6.240   1.543   1.958
 6372SOL    HW220016   6.187   1.448   1.836
 6373SOL     OW20017   4.858   3.536   1.418
 6373SOL    HW120018   4.806   3.610   1.377
 6373SOL    HW220019   4.950   3.568   1.441
 6374SOL     OW20020   4.625   3.783   6.650
 6374SOL    HW120021   4.614   3.820   6.558
 6374SOL    HW220022   4.681   3.845   6.705
 6375SOL     OW20023   4.824   1.553   2.116
 6375SOL    HW120024   4.860   1.641   2.087
 6375SOL    HW220025   4.855   1.482   2.053
 6376SOL     OW20026   3.399   0.590   0.228
 6376SOL    HW120027   3.373   0.546   0.314
 6376SOL    HW220028   3.330   0.570   0.158
 6377SOL     OW20029   0.515   0.550   0.339
 6377SOL    HW120030   0.577   0.513   0.270
 6377SOL    HW220031   0.492   0.645   0.317
 6378SOL     OW20032   5.249   4.623   2.158
 6378SOL    HW120033   5.289   4.702   2.110
 6378SOL    HW220034   5.289   4.539   2.122
 6379SOL     OW20035   2.173   5.078   6.560
 6379SOL    HW120036   2.244   5.129   6.609
 6379SOL    HW220037   2.194   5.079   6.462
 6380SOL     OW20038   0.714   4.428   5.420
 6380SOL    HW120039   0.744   4.349   5.473
 6380SOL    HW220040   0.683   4.398   5.330
 6381SOL     OW20041   4.330   2.860   0.469
 6381SOL    HW120042   4.278   2.946   0.470
 6381SOL    HW220043   4.426   2.879   0.488
 6382SOL     OW20044   1.573   1.423   0.346
 6382SOL    HW120045   1.609   1.337   0.309
 6382SOL    HW220046   1.529   1.475   0.273
 6383SOL     OW20047   2.375   2.202   2.053
 6383SOL    HW120048   2.440   2.134   2.018
 6383SOL    HW220049   2.282   2.165   2.047
 6384SOL     OW20050   6.096   2.713   1.839
 6384SOL    HW120051   6.026   2.711   1.768
 6384SOL    HW220052   6.054   2.742   1.925
 6385SOL     OW20053   0.208   3.569   0.049
 6385SOL    HW120054   0.182   3.598   0.141
 6385SOL    HW220055   0.136   3.512   0.010
 6386SOL     OW20056   2.873   2.253   0.451
 6386SOL    HW120057   2.830   2.202   0.526
 6386SOL    HW220058   2.820   2.336   0.433
 6387SOL     OW20059   0.369   6.601   0.128
 6387SOL    HW120060   0.382   6.501   0.125
 6387SOL    HW220061   0.415   6.638   0.209
 6388SOL     OW20062   5.837   5.256   1.935
 6388SOL    HW120063   5.801   5.310   1.859
 6388SOL    HW220064   5.914   5.200   1.904
 6389SOL     OW20065   6.645   6.658   0.740
 6389SOL    HW120066   6.698   6.711   0.807
 6389SOL    HW220067   6.705   6.632   0.664
 6390SOL     OW20068   5.270   0.895   0.059
 6390SOL    HW120069   5.193   0.832   0.047
 6390SOL    HW220070   5.242   0.973   0.114
 6391SOL     OW20071   1.501   1.946   4.800
 6391SOL    HW120072   1.448   1.893   4.734
 6391SOL    HW220073   1.467   1.927   4.892
 6392SOL     OW20074   3.994   6.887   3.731
 6392SOL    HW120075   3.971   6.982   3.749
 6392SOL    HW220076   3.945   6.855   3.650
 6393SOL     OW20077   1.003   5.765   0.053
 6393SOL    HW120078   1.028   5.820   0.132
 6393SOL    HW220079   1.010   5.668   0.077
 6394SOL     OW20080   1.831   5.163   1.955
 6394SOL    HW120081   1.863   5.099   2.025
 6394SOL    HW220082   1.797   5.246   1.999
 6395SOL     OW20083   2.138   3.816   3.852
 6395SOL    HW120084   2.123   3.762   3.936
 6395SOL    HW220085   2.115   3.761   3.773
 6396SOL     OW20086   1.521   2.949   5.468
 6396SOL    HW120087   1.527   3.013   5.545
 6396SOL    HW220088   1.492   2.999   5.386
 6397SOL     OW20089   5.967   4.163   4.520
 6397SOL    HW120090   5.920   4.251   4.530
 6397SOL    HW220091   5.899   4.090   4.510
 6398SOL     OW20092   2.222   6.898   2.487
 6398SOL    HW120093   2.210   6.802   2.461
 6398SOL    HW220094   2.243   6.905   2.584
 6399SOL     OW20095   3.252   0.139   6.844
 6399SOL    HW120096   3.263   0.039   6.838
 6399SOL    HW220097   3.237   0.165   6.939
 6400SOL     OW20098   0.566   6.229   3.262
 6400SOL    HW120099   0.605   6.260   3.349
 6400SOL    HW220100   0.588   6.132   3.248
 6401SOL     OW20101   4.267   5.187   2.899
 6401SOL    HW120102   4.201   5.259   2.874
 6401SOL    HW220103   4.317   5.158   2.817
 6402SOL     OW20104   2.664   4.435   5.822
 6402SOL    HW120105   2.710   4.361   5.773
 6402SOL    HW220106   2.608   4.488   5.758
 6403SOL     OW20107   4.997   5.097   5.051
 6403SOL    HW120108   4.973   5.129   4.960
 6403SOL    HW220109   4.919   5.051   5.093
 6404SOL     OW20110   4.690   0.152   1.481
 6404SOL    HW120111   4.671   0.179   1.387
 6404SOL    HW220112   4.606   0.155   1.535
 6405SOL     OW20113   5.073   1.455   2.883
 6405SOL    HW120114   5.095   1.436   2.788
 6405SOL    HW220115   5.157   1.480   2.932
 6406SOL     OW20116   0.203   3.534   2.763
 6406SOL    HW120117   0.270   3.569   2.698
 6406SOL    HW220118   0.219   3.576   2.853
 6407SOL     OW20119   0.450   6.293   2.631
 6407SOL    HW120120   0.466   6.375   2.686
 6407SOL    HW220121   0.379   6.313   2.563
 6408SOL     OW20122   6.794   0.908   2.090
 6408SOL    HW120123   6.855   0.879   2.164
 6408SOL    HW220124   6.823   0.865   2.004
 6409SOL     OW20125   5.036   4.867   3.558
 6409SOL    HW120126   5.079   4.958   3.550
 6409SOL    HW220127   5.098   4.798   3.521
 6410SOL     OW20128   1.766   1.807   0.317
 6410SOL    HW120129   1.708   1.889   0.321
 6410SOL    HW220130   1.768   1.773   0.223
 6411SOL     OW20131   0.333   2.986   2.068
 6411SOL    HW120132   0.369   3.028   1.985
 6411SOL    HW220133   0.282   2.903   2.045
 6412SOL     OW20134   3.470   1.412   0.183
 6412SOL    HW120135   3.550   1.471   0.168
 6412SOL    HW220136   3.444   1.370   0.096
 6413SOL     OW20137   4.926   5.917   3.475
 6413SOL    HW120138   5.004   5.857   3.489
 6413SOL    HW220139   4.956   6.002   3.433
 6414SOL     OW20140   2.248   6.839   0.314
 6414SOL    HW120141   2.288   6.930   0.330
 6414SOL    HW220142   2.244   6.789   0.400
 6415SOL     OW20143   0.481   2.594   3.751
 6415SOL    HW120144   0.495   2.504   3.792
 6415SOL    HW220145   0.544   2.659   3.793
 6416SOL     OW20146   2.538   5.354   6.831
 6416SOL    HW120147   2.541   5.453   6.829
 6416SOL    HW220148   2.630   5.317   6.819
 6417SOL     OW20149   4.158   3.135   6.818
 6417SOL    HW120150   4.204   3.079   6.749
 6417SOL    HW220151   4.224   3.197   6.860
 6418SOL     OW20152   4.875   4.509   0.403
 6418SOL    HW120153   4.871   4.463   0.314
 6418SOL    HW220154   4.944   4.465   0.460
 6419SOL     OW20155   0.479   6.360   6.508
 6419SOL    HW120156   0.477   6.261   6.522
 6419SOL    HW220157   0.396   6.401   6.546
 6420SOL     OW20158   2.412   4.817   4.317
 6420SOL    HW120159   2.444   4.734   4.361
 6420SOL    HW220160   2.489   4.879   4.301
 6421SOL     OW20161   3.780   0.812   2.227
 6421SOL    HW120162   3.842   0.757   2.283
 6421SOL    HW220163   3.821   0.828   2.137
 6422SOL     OW20164   6.375   2.724   4.751
 6422SOL    HW120165   6.339   2.749   4.661
 6422SOL    HW220166   6.381   2.625   4.758
 6423SOL     OW20167   1.639   4.781   4.462
 6423SOL    HW120168   1.734   4.798   4.438
 6423SOL    HW220169   1.614   4.838   4.541
 6424SOL     OW20170   6.509   4.767   5.645
 6424SOL    HW120171   6.597   4.786   5.690
 6424SOL    HW220172   6.446   4.727   5.712
 6425SOL     OW20173   0.007   5.978   4.505
 6425SOL    HW120174   6.942   5.949   4.542
 6425SOL    HW220175   0.081   5.944   4.564
 6426SOL     OW20176   4.287   4.678   4.515
 6426SOL    HW120177   4.281   4.763   4.569
 6426SOL    HW220178   4.368   4.627   4.544
 6427SOL     OW20179   4.069   3.362   3.680
 6427SOL    HW120180   4.103   3.366   3.586
 6427SOL    HW220181   3.984   3.415   3.687
 6428SOL     OW20182   5.605   2.476   0.696
 6428SOL    HW120183   5.608   2.503   0.600
 6428SOL    HW220184   5.641   2.550   0.752
 6429SOL     OW20185   2.467   1.367   5.075
 6429SOL    HW120186   2.367   1.360   5.073
 6429SOL    HW220187   2.502   1.315   5.154
 6430SOL     OW20188   6.329   0.611   5.104
 6430SOL    HW120189   6.304   0.627   5.008
 6430SOL    HW220190   6.376   0.692   5.139
 6431SOL     OW20191   3.856   4.823   2.046
 6431SOL    HW120192   3.889   4.851   1.955
 6431SOL    HW220193   3.757   4.808   2.042
 6432SOL     OW20194   5.372   3.718   6.113
 6432SOL    HW120195   5.344   3.725   6.018
 6432SOL    HW220196   5.301   3.757   6.172
 6433SOL     OW20197   3.067   4.757   5.901
 6433SOL    HW120198   3.167   4.762   5.893
 6433SOL    HW220199   3.031   4.702   5.827
 6434SOL     OW20200   4.888   5.609   6.342
 6434SOL    HW120201   4.960   5.644   6.403
 6434SOL    HW220202   4.906   5.513   6.321
 6435SOL     OW20203   4.387   2.146   1.147
 6435SOL    HW120204   4.402   2.213   1.074
 6435SOL    HW220205   4.297   2.160   1.187
 6436SOL     OW20206   6.652   3.217   3.073
 6436SOL    HW120207   6.726   3.149   3.075
 6436SOL    HW220208   6.565   3.171   3.055
 6437SOL     OW20209   1.370   2.393   5.665
 6437SOL    HW120210   1.377   2.340   5.580
 6437SOL    HW220211   1.388   2.333   5.743
 6438SOL     OW20212   0.415   4.775   6.999
 6438SOL    HW120213   0.344   4.818   0.031
 6438SOL    HW220214   0.414   4.676   7.013
 6439SOL     OW20215   4.952   6.607   3.189
 6439SOL    HW120216   4.882   6.675   3.165
 6439SOL    HW220217   5.042   6.641   3.160
 6440SOL     OW20218   2.925   1.542   5.985
 6440SOL    HW120219   2.831   1.512   5.997
 6440SOL    HW220220   2.927   1.640   5.966
 6441SOL     OW20221   6.858   1.974   2.183
 6441SOL    HW120222   6.785   1.909   2.199
 6441SOL    HW220223   6.819   2.064   2.164
 6442SOL     OW20224   2.718   1.958   5.083
 6442SOL    HW120225   2.711   2.045   5.131
 6442SOL    HW220226   2.637   1.902   5.102
 6443SOL     OW20227   3.772   2.811   6.478
 6443SOL    HW120228   3.802   2.903   6.453
 6443SOL    HW220229   3.765   2.804   6.578
 6444SOL     OW20230   6.586   4.058   4.745
 6444SOL    HW120231   6.665   4.095   4.695
 6444SOL    HW220232   6.524   4.134   4.769
 6445SOL     OW20233   2.960   3.266   3.492
 6445SOL    HW120234   2.948   3.276   3.393
 6445SOL    HW220235   3.004   3.178   3.511
 6446SOL     OW20236   1.478   1.311   6.659
 6446SOL    HW120237   1.517   1.237   6.603
 6446SOL    HW220238   1.536   1.326   6.739
 6447SOL     OW20239   5.871   3.238   2.177
 6447SOL    HW120240   5.885   3.284   2.090
 6447SOL    HW220241   5.774   3.218   2.190
 6448SOL     OW20242   3.644   4.469   1.384
 6448SOL    HW120243   3.618   4.403   1.455
 6448SOL    HW220244   3.715   4.530   1.420
 6449SOL     OW20245   2.872   5.115   0.949
 6449SOL    HW120246   2.846   5.165   1.032
 6449SOL    HW220247   2.887   5.179   0.874
 6450SOL     OW20248   6.614   4.053   6.980
 6450SOL    HW120249   6.586   3.964   7.015
 6450SOL    HW220250   6.573   4.125   0.013
 6451SOL     OW20251   3.704   2.717   1.734
 6451SOL    HW120252   3.653   2.763   1.661
 6451SOL    HW220253   3.775   2.777   1.768
 6452SOL     OW20254   4.060   2.043   4.001
 6452SOL    HW120255   4.160   2.046   4.011
 6452SOL    HW220256   4.018   2.060   4.090
 6453SOL     OW20257   1.897   0.741   2.552
 6453SOL    HW120258   1.994   0.723   2.538
 6453SOL    HW220259   1.883   0.777   2.644
 6454SOL     OW20260   4.930   2.317   3.481
 6454SOL    HW120261   4.865   2.376   3.433
 6454SOL    HW220262   4.881   2.239   3.521
 6455SOL     OW20263   6.959   2.678   4.036
 6455SOL    HW120264   6.926   2.761   4.082
 6455SOL    HW220265   6.904   2.600   4.063
 6456SOL     OW20266   5.735   1.201   2.293
 6456SOL    HW120267   5.736   1.121   2.234
 6456SOL    HW220268   5.667   1.266   2.260
 6457SOL     OW20269   3.634   0.122   2.656
 6457SOL    HW120270   3.729   0.139   2.683
 6457SOL    HW220271   3.633   0.066   2.573
 6458SOL     OW20272   0.359   6.401   3.799
 6458SOL    HW120273   0.359   6.304   3.776
 6458SOL    HW220274   0.351   6.455   3.715
 6459SOL     OW20275   0.714   3.527   3.276
 6459SOL    HW120276   0.729   3.428   3.280
 6459SOL    HW220277   0.738   3.568   3.364
 6460SOL     OW20278   0.301   5.200   6.682
 6460SOL    HW120279   0.310   5.137   6.605
 6460SOL    HW220280   0.391   5.235   6.708
 6461SOL     OW20281   1.449   6.416   0.989
 6461SOL    HW120282   1.431   6.326   0.948
 6461SOL    HW220283   1.526   6.459   0.941
 6462SOL     OW20284   1.533   3.780   5.407
 6462SOL    HW120285   1.529   3.867   5.457
 6462SOL    HW220286   1.628   3.762   5.381
 6463SOL     OW20287   3.719   2.791   1.258
 6463SOL    HW120288   3.725   2.707   1.205
 6463SOL    HW220289   3.811   2.822   1.282
 6464SOL     OW20290   0.858   4.332   3.996
 6464SOL    HW120291   0.936   4.367   4.047
 6464SOL    HW220292   0.774   4.377   4.028
 6465SOL     OW20293   3.691   1.198   3.913
 6465SOL    HW120294   3.616   1.135   3.930
 6465SOL    HW220295   3.747   1.206   3.995
 6466SOL     OW20296   6.084   4.580   0.259
 6466SOL    HW120297   6.181   4.582   0.284
 6466SOL    HW220298   6.073   4.534   0.171
 6467SOL     OW20299   2.218   2.811   6.756
 6467SOL    HW120300   2.255   2.900   6.782
 6467SOL    HW220301   2.265   2.779   6.673
 6468SOL     OW20302   2.726   0.934   1.456
 6468SOL    HW120303   2.766   0.978   1.537
 6468SOL    HW220304   2.709   1.003   1.386
 6469SOL     OW20305   2.353   1.056   1.841
 6469SOL    HW120306   2.370   1.138   1.786
 6469SOL    HW220307   2.282   1.001   1.798
 6470SOL     OW20308   6.850   1.490   6.956
 6470SOL    HW120309   6.855   1.472   0.031
 6470SOL    HW220310   6.940   1.474   6.915
 6471SOL     OW20311   0.535   6.291   5.580
 6471SOL    HW120312   0.518   6.361   5.649
 6471SOL    HW220313   0.567   6.207   5.624
 6472SOL     OW20314   6.655   6.781   2.576
 6472SOL    HW120315   6.578   6.733   2.534
 6472SOL    HW220316   6.738   6.726   2.566
 6473SOL     OW20317   2.208   1.492   3.431
 6473SOL    HW120318   2.163   1.421   3.377
 6473SOL    HW220319   2.229   1.570   3.373
 6474SOL     OW20320   3.992   6.101   5.257
 6474SOL    HW120321   4.049   6.168   5.305
 6474SOL    HW220322   4.041   6.014   5.251
 6475SOL     OW20323   5.995   5.492   2.227
 6475SOL    HW120324   5.958   5.573   2.273
 6475SOL    HW220325   5.920   5.431   2.202
 6476SOL     OW20326   3.622   2.440   6.680
 6476SOL    HW120327   3.628   2.342   6.701
 6476SOL    HW220328   3.607   2.453   6.582
 6477SOL     OW20329   0.455   6.153   1.907
 6477SOL    HW120330   0.439   6.143   2.005
 6477SOL    HW220331   0.521   6.226   1.892
 6478SOL     OW20332   2.894   5.881   1.069
 6478SOL    HW120333   2.937   5.958   1.021
 6478SOL    HW220334   2.812   5.914   1.116
 6479SOL     OW20335   4.263   6.087   3.528
 6479SOL    HW120336   4.246   6.184   3.544
 6479SOL    HW220337   4.202   6.033   3.585
 6480SOL     OW20338   3.849   1.303   6.330
 6480SOL    HW120339   3.832   1.282   6.426
 6480SOL    HW220340   3.885   1.396   6.321
 6481SOL     OW20341   3.846   2.940   2.108
 6481SOL    HW120342   3.882   3.032   2.122
 6481SOL    HW220343   3.798   2.910   2.190
 6482SOL     OW20344   5.033   3.898   5.642
 6482SOL    HW120345   5.088   3.938   5.569
 6482SOL    HW220346   5.055   3.943   5.729
 6483SOL     OW20347   1.944   6.210   5.389
 6483SOL    HW120348   1.945   6.280   5.318
 6483SOL    HW220349   1.973   6.251   5.476
 6484SOL     OW20350   2.860   1.205   3.468
 6484SOL    HW120351   2.778   1.262   3.458
 6484SOL    HW220352   2.836   1.121   3.516
 6485SOL     OW20353   2.734   6.149   4.896
 6485SOL    HW120354   2.739   6.053   4.867
 6485SOL    HW220355   2.826   6.183   4.912
 6486SOL     OW20356   0.701   5.052   2.919
 6486SOL    HW120357   0.745   5.141   2.926
 6486SOL    HW220358   0.654   5.030   3.004
 6487SOL     OW20359   6.657   4.573   4.122
 6487SOL    HW120360   6.749   4.610   4.114
 6487SOL    HW220361   6.607   4.590   4.037
 6488SOL     OW20362   3.894   5.788   4.754
 6488SOL    HW120363   3.983   5.745   4.735
 6488SOL    HW220364   3.900   5.886   4.738
 6489SOL     OW20365   5.255   2.913   5.198
 6489SOL    HW120366   5.306   2.868   5.125
 6489SOL    HW220367   5.158   2.916   5.174
 6490SOL     OW20368   2.214   2.309   0.367
 6490SOL    HW120369   2.169   2.229   0.328
 6490SOL    HW220370   2.145   2.379   0.388
 6491SOL     OW20371   2.114   0.055   1.728
 6491SOL    HW120372   2.103   0.117   1.650
 6491SOL    HW220373   2.026   0.012   1.749
 6492SOL     OW20374   3.810   3.322   4.805
 6492SOL    HW120375   3.718   3.354   4.831
 6492SOL    HW220376   3.857   3.288   4.886
 6493SOL     OW20377   1.443   4.677   4.307
 6493SOL    HW120378   1.516   4.722   4.358
 6493SOL    HW220379   1.357   4.726   4.321
 6494SOL     OW20380   6.732   0.866   1.803
 6494SOL    HW120381   6.656   0.922   1.836
 6494SOL    HW220382   6.698   0.774   1.780
 6495SOL     OW20383   6.624   0.388   2.895
 6495SOL    HW120384   6.658   0.301   2.930
 6495SOL    HW220385   6.677   0.463   2.934
 6496SOL     OW20386   3.236   2.251   1.659
 6496SOL    HW120387   3.301   2.261   1.735
 6496SOL    HW220388   3.152   2.210   1.693
 6497SOL     OW20389   6.975   0.979   0.748
 6497SOL    HW120390   0.017   0.974   0.673
 6497SOL    HW220391   6.888   1.017   0.715
 6498SOL     OW20392   2.215   4.032   4.146
 6498SOL    HW120393   2.193   3.943   4.186
 6498SOL    HW220394   2.225   4.022   4.047
 6499SOL     OW20395   4.880   2.776   3.430
 6499SOL    HW120396   4.842   2.790   3.521
 6499SOL    HW220397   4.965   2.827   3.421
 6500SOL     OW20398   1.695   4.221   3.156
 6500SOL    HW120399   1.601   4.219   3.191
 6500SOL    HW220400   1.757   4.186   3.226
 6501SOL     OW20401   5.585   2.098   2.566
 6501SOL    HW120402   5.490   2.068   2.557
 6501SOL    HW220403   5.614   2.091   2.661
 6502SOL     OW20404   6.591   4.028   2.121
 6502SOL    HW120405   6.576   4.090   2.198
 6502SOL    HW220406   6.674   4.055   2.072
 6503SOL     OW20407   6.790   3.458   5.664
 6503SOL    HW120408   6.884   3.473   5.635
 6503SOL    HW220409   6.786   3.386   5.733
 6504SOL     OW20410   4.182   6.906   5.938
 6504SOL    HW120411   4.198   6.882   6.034
 6504SOL    HW220412   4.161   6.823   5.886
 6505SOL     OW20413   0.130   5.219   1.002
 6505SOL    HW120414   0.209   5.273   0.972
 6505SOL    HW220415   0.046   5.265   0.974
 6506SOL     OW20416   1.165   4.345   2.150
 6506SOL    HW120417   1.203   4.433   2.121
 6506SOL    HW220418   1.229   4.272   2.124
 6507SOL     OW20419   4.036   5.634   0.540
 6507SOL    HW120420   4.012   5.659   0.634
 6507SOL    HW220421   3.961   5.658   0.478
 6508SOL     OW20422   0.402   0.109   3.572
 6508SOL    HW120423   0.405   0.176   3.498
 6508SOL    HW220424   0.425   0.018   3.536
 6509SOL     OW20425   2.533   1.482   6.783
 6509SOL    HW120426   2.606   1.550   6.778
 6509SOL    HW220427   2.572   1.391   6.764
 6510SOL     OW20428   3.130   6.418   5.303
 6510SOL    HW120429   3.207   6.380   5.251
 6510SOL    HW220430   3.161   6.445   5.394
 6511SOL     OW20431   3.085   2.435   0.231
 6511SOL    HW120432   3.053   2.342   0.212
 6511SOL    HW220433   3.167   2.430   0.289
 6512SOL     OW20434   4.353   1.268   0.671
 6512SOL    HW120435   4.339   1.366   0.688
 6512SOL    HW220436   4.295   1.240   0.595
 6513SOL     OW20437   2.679   4.751   3.138
 6513SOL    HW120438   2.771   4.745   3.099
 6513SOL    HW220439   2.628   4.668   3.116
 6514SOL     OW20440   5.459   6.660   5.327
 6514SOL    HW120441   5.494   6.743   5.370
 6514SOL    HW220442   5.536   6.606   5.293
 6515SOL     OW20443   1.251   5.267   2.756
 6515SOL    HW120444   1.267   5.196   2.688
 6515SOL    HW220445   1.164   5.251   2.803
 6516SOL     OW20446   6.509   2.802   2.071
 6516SOL    HW120447   6.532   2.717   2.118
 6516SOL    HW220448   6.420   2.834   2.104
 6517SOL     OW20449   6.959   3.080   0.717
 6517SOL    HW120450   6.948   3.094   0.618
 6517SOL    HW220451   0.030   3.104   0.744
 6518SOL     OW20452   0.762   1.167   2.163
 6518SOL    HW120453   0.707   1.191   2.084
 6518SOL    HW220454   0.715   1.197   2.247
 6519SOL     OW20455   0.796   1.193   3.485
 6519SOL    HW120456   0.829   1.202   3.390
 6519SOL    HW220457   0.861   1.239   3.546
 6520SOL     OW20458   0.275   5.244   0.681
 6520SOL    HW120459   0.191   5.210   0.724
 6520SOL    HW220460   0.318   5.170   0.629
 6521SOL     OW20461   1.985   4.008   3.674
 6521SOL    HW120462   1.973   3.952   3.756
 6521SOL    HW220463   1.970   4.104   3.697
 6522SOL     OW20464   2.650   2.848   5.332
 6522SOL    HW120465   2.582   2.912   5.295
 6522SOL    HW220466   2.678   2.878   5.423
 6523SOL     OW20467   6.233   6.779   0.432
 6523SOL    HW120468   6.305   6.724   0.392
 6523SOL    HW220469   6.253   6.796   0.529
 6524SOL     OW20470   2.960   3.058   0.910
 6524SOL    HW120471   2.929   3.087   1.000
 6524SOL    HW220472   3.009   3.133   0.865
 6525SOL     OW20473   1.179   4.945   3.671
 6525SOL    HW120474   1.150   4.968   3.764
 6525SOL    HW220475   1.274   4.914   3.673
 6526SOL     OW20476   0.625   5.861   0.634
 6526SOL    HW120477   0.716   5.820   0.622
 6526SOL    HW220478   0.555   5.791   0.620
 6527SOL     OW20479   6.733   1.598   0.695
 6527SOL    HW120480   6.765   1.503   0.692
 6527SOL    HW220481   6.634   1.600   0.680
 6528SOL     OW20482   4.310   6.838   6.814
 6528SOL    HW120483   4.407   6.817   6.806
 6528SOL    HW220484   4.256   6.757   6.790
 6529SOL     OW20485   5.292   7.002   2.118
 6529SOL    HW120486   5.308   7.014   2.216
 6529SOL    HW220487   5.326   0.060   2.069
 6530SOL     OW20488   0.372   2.880   3.039
 6530SOL    HW120489   0.428   2.861   3.120
 6530SOL    HW220490   0.425   2.862   2.957
 6531SOL     OW20491   4.107   3.638   4.574
 6531SOL    HW120492   4.083   3.712   4.637
 6531SOL    HW220493   4.157   3.567   4.624
 6532SOL     OW20494   1.723   6.960   0.181
 6532SOL    HW120495   1.748   0.002   0.111
 6532SOL    HW220496   1.804   6.932   0.233
 6533SOL     OW20497   4.954   4.400   2.112
 6533SOL    HW120498   4.910   4.328   2.058
 6533SOL    HW220499   5.036   4.364   2.156
 6534SOL     OW20500   0.148   4.486   3.082
 6534SOL    HW120501   0.082   4.456   3.151
 6534SOL    HW220502   0.137   4.585   3.067
 6535SOL     OW20503   5.188   3.639   4.986
 6535SOL    HW120504   5.211   3.591   5.071
 6535SOL    HW220505   5.107   3.595   4.945
 6536SOL     OW20506   0.630   4.743   5.155
 6536SOL    HW120507   0.569   4.811   5.196
 6536SOL    HW220508   0.718   4.746   5.202
 6537SOL     OW20509   6.403   5.598   3.647
 6537SOL    HW120510   6.360   5.585   3.558
 6537SOL    HW220511   6.333   5.604   3.718
 6538SOL     OW20512   1.229   2.367   4.830
 6538SOL    HW120513   1.137   2.400   4.810
 6538SOL    HW220514   1.253   2.294   4.766
 6539SOL     OW20515   4.802   0.085   5.988
 6539SOL    HW120516   4.715   0.049   6.020
 6539SOL    HW220517   4.791   0.179   5.956
 6540SOL     OW20518   6.493   2.989   5.602
 6540SOL    HW120519   6.439   2.925   5.657
 6540SOL    HW220520   6.529   3.061   5.661
 6541SOL     OW20521   5.507   1.965   5.805
 6541SOL    HW120522   5.427   1.931   5.755
 6541SOL    HW220523   5.478   2.041   5.864
 6542SOL     OW20524   1.282   4.060   2.890
 6542SOL    HW120525   1.296   4.024   2.797
 6542SOL    HW220526   1.190   4.096   2.898
 6543SOL     OW20527   3.545   1.450   4.562
 6543SOL    HW120528   3.462   1.404   4.531
 6543SOL    HW220529   3.547   1.544   4.528
 6544SOL     OW20530   0.623   6.589   0.766
 6544SOL    HW120531   0.665   6.678   0.779
 6544SOL    HW220532   0.694   6.520   0.753
 6545SOL     OW20533   4.708   6.860   1.056
 6545SOL    HW120534   4.728   6.763   1.071
 6545SOL    HW220535   4.699   6.906   1.145
 6546SOL     OW20536   4.699   4.162   6.476
 6546SOL    HW120537   4.777   4.099   6.485
 6546SOL    HW220538   4.640   4.132   6.402
 6547SOL     OW20539   0.635   6.200   5.958
 6547SOL    HW120540   0.625   6.164   6.050
 6547SOL    HW220541   0.675   6.292   5.962
 6548SOL     OW20542   6.962   1.125   5.695
 6548SOL    HW120543   0.015   1.189   5.709
 6548SOL    HW220544   6.889   1.170   5.644
 6549SOL     OW20545   4.138   1.624   2.537
 6549SOL    HW120546   4.107   1.539   2.494
 6549SOL    HW220547   4.136   1.613   2.637
 6550SOL     OW20548   6.288   6.182   3.130
 6550SOL    HW120549   6.248   6.092   3.112
 6550SOL    HW220550   6.315   6.224   3.044
 6551SOL     OW20551   2.791   3.670   0.719
 6551SOL    HW120552   2.752   3.626   0.800
 6551SOL    HW220553   2.890   3.658   0.718
 6552SOL     OW20554   1.926   5.066   7.008
 6552SOL    HW120555   1.861   5.142   6.999
 6552SOL    HW220556   1.942   5.026   6.918
 6553SOL     OW20557   0.290   1.342   3.259
 6553SOL    HW120558   0.375   1.395   3.248
 6553SOL    HW220559   0.212   1.401   3.239
 6554SOL     OW20560   1.486   2.217   4.161
 6554SOL    HW120561   1.570   2.166   4.144
 6554SOL    HW220562   1.481   2.294   4.097
 6555SOL     OW20563   6.766   3.749   3.931
 6555SOL    HW120564   6.746   3.685   3.857
 6555SOL    HW220565   6.844   3.807   3.905
 6556SOL     OW20566   4.838   3.143   2.643
 6556SOL    HW120567   4.813   3.070   2.579
 6556SOL    HW220568   4.791   3.128   2.730
 6557SOL     OW20569   1.702   0.478   2.444
 6557SOL    HW120570   1.762   0.438   2.512
 6557SOL    HW220571   1.750   0.550   2.394
 6558SOL     OW20572   5.508   6.264   6.757
 6558SOL    HW120573   5.535   6.180   6.804
 6558SOL    HW220574   5.425   6.301   6.800
 6559SOL     OW20575   6.943   2.421   6.457
 6559SOL    HW120576   7.014   2.376   6.402
 6559SOL    HW220577   6.986   2.476   6.528
 6560SOL     OW20578   6.068   4.891   0.351
 6560SOL    HW120579   6.133   4.940   0.409
 6560SOL    HW220580   6.117   4.830   0.289
 6561SOL     OW20581   3.436   4.403   6.787
 6561SOL    HW120582   3.388   4.328   6.832
 6561SOL    HW220583   3.508   4.365   6.728
 6562SOL     OW20584   5.391   2.555   1.236
 6562SOL    HW120585   5.413   2.461   1.210
 6562SOL    HW220586   5.309   2.555   1.293
 6563SOL     OW20587   6.396   5.002   5.572
 6563SOL    HW120588   6.460   4.927   5.556
 6563SOL    HW220589   6.307   4.979   5.531
 6564SOL     OW20590   5.519   3.397   2.879
 6564SOL    HW120591   5.424   3.421   2.897
 6564SOL    HW220592   5.530   3.297   2.886
 6565SOL     OW20593   5.314   0.237   2.757
 6565SOL    HW120594   5.407   0.273   2.769
 6565SOL    HW220595   5.293   0.172   2.830
 6566SOL     OW20596   5.250   5.838   3.507
 6566SOL    HW120597   5.345   5.812   3.525
 6566SOL    HW220598   5.217   5.790   3.425
 6567SOL     OW20599   4.068   0.331   1.949
 6567SOL    HW120600   4.038   0.354   1.856
 6567SOL    HW220601   4.082   0.232   1.956
 6568SOL     OW20602   4.391   1.669   0.902
 6568SOL    HW120603   4.485   1.693   0.926
 6568SOL    HW220604   4.392   1.603   0.827
 6569SOL     OW20605   0.593   4.618   4.478
 6569SOL    HW120606   0.560   4.670   4.556
 6569SOL    HW220607   0.549   4.650   4.394
 6570SOL     OW20608   4.445   6.919   2.500
 6570SOL    HW120609   4.398   6.841   2.459
 6570SOL    HW220610   4.541   6.918   2.472
 6571SOL     OW20611   3.420   5.944   3.258
 6571SOL    HW120612   3.403   6.035   3.220
 6571SOL    HW220613   3.410   5.875   3.186
 6572SOL     OW20614   1.655   5.978   4.000
 6572SOL    HW120615   1.695   6.068   3.982
 6572SOL    HW220616   1.562   5.975   3.964
 6573SOL     OW20617   0.855   1.722   2.952
 6573SOL    HW120618   0.776   1.782   2.947
 6573SOL    HW220619   0.925   1.754   2.888
 6574SOL     OW20620   2.007   5.158   2.332
 6574SOL    HW120621   2.061   5.091   2.281
 6574SOL    HW220622   1.990   5.238   2.274
 6575SOL     OW20623   6.997   1.360   3.243
 6575SOL    HW120624   6.939   1.442   3.245
 6575SOL    HW220625   6.969   1.302   3.167
 6576SOL     OW20626   4.660   6.301   1.222
 6576SOL    HW120627   4.618   6.279   1.310
 6576SOL    HW220628   4.592   6.345   1.163
 6577SOL     OW20629   3.211   1.214   4.031
 6577SOL    HW120630   3.206   1.120   3.997
 6577SOL    HW220631   3.271   1.268   3.971
 6578SOL     OW20632   1.381   4.809   0.930
 6578SOL    HW120633   1.317   4.877   0.894
 6578SOL    HW220634   1.331   4.743   0.987
 6579SOL     OW20635   6.676   0.820   4.130
 6579SOL    HW120636   6.723   0.823   4.218
 6579SOL    HW220637   6.577   0.813   4.145
 6580SOL     OW20638   2.272   1.967   0.595
 6580SOL    HW120639   2.260   2.038   0.526
 6580SOL    HW220640   2.315   1.886   0.553
 6581SOL     OW20641   0.320   2.179   1.056
 6581SOL    HW120642   0.418   2.161   1.068
 6581SOL    HW220643   0.281   2.113   0.992
 6582SOL     OW20644   6.203   1.304   2.941
 6582SOL    HW120645   6.127   1.244   2.918
 6582SOL    HW220646   6.269   1.304   2.867
 6583SOL     OW20647   3.646   5.219   0.108
 6583SOL    HW120648   3.614   5.140   0.054
 6583SOL    HW220649   3.601   5.219   0.197
 6584SOL     OW20650   4.145   2.642   6.402
 6584SOL    HW120651   4.123   2.655   6.305
 6584SOL    HW220652   4.073   2.586   6.445
 6585SOL     OW20653   5.621   6.910   2.091
 6585SOL    HW120654   5.655   6.999   2.122
 6585SOL    HW220655   5.551   6.924   2.021
 6586SOL     OW20656   0.090   1.239   6.794
 6586SOL    HW120657   0.084   1.322   6.739
 6586SOL    HW220658   0.152   1.254   6.871
 6587SOL     OW20659   2.162   4.448   5.243
 6587SOL    HW120660   2.251   4.409   5.219
 6587SOL    HW220661   2.142   4.427   5.339
 6588SOL     OW20662   0.351   2.293   0.494
 6588SOL    HW120663   0.339   2.232   0.572
 6588SOL    HW220664   0.280   2.363   0.495
 6589SOL     OW20665   6.839   0.051   2.418
 6589SOL    HW120666   6.815   0.018   2.510
 6589SOL    HW220667   6.806   0.145   2.407
 6590SOL     OW20668   1.218   6.354   4.436
 6590SOL    HW120669   1.236   6.305   4.351
 6590SOL    HW220670   1.182   6.290   4.504
 6591SOL     OW20671   6.194   4.271   3.509
 6591SOL    HW120672   6.162   4.279   3.603
 6591SOL    HW220673   6.293   4.259   3.508
 6592SOL     OW20674   6.365   6.690   3.993
 6592SOL    HW120675   6.296   6.747   4.037
 6592SOL    HW220676   6.413   6.743   3.923
 6593SOL     OW20677   1.503   1.229   1.910
 6593SOL    HW120678   1.460   1.153   1.862
 6593SOL    HW220679   1.542   1.292   1.842
 6594SOL     OW20680   5.243   0.123   6.462
 6594SOL    HW120681   5.216   0.066   6.384
 6594SOL    HW220682   5.175   0.195   6.476
 6595SOL     OW20683   0.789   1.676   5.286
 6595SOL    HW120684   0.814   1.579   5.291
 6595SOL    HW220685   0.722   1.689   5.212
 6596SOL     OW20686   5.029   0.367   2.524
 6596SOL    HW120687   5.025   0.445   2.586
 6596SOL    HW220688   5.014   0.283   2.576
 6597SOL     OW20689   0.785   4.588   1.577
 6597SOL    HW120690   0.741   4.661   1.628
 6597SOL    HW220691   0.742   4.501   1.599
 6598SOL     OW20692   1.686   4.483   4.509
 6598SOL    HW120693   1.661   4.574   4.542
 6598SOL    HW220694   1.783   4.467   4.523
 6599SOL     OW20695   6.902   5.405   6.173
 6599SOL    HW120696   6.805   5.422   6.159
 6599SOL    HW220697   6.956   5.465   6.114
 6600SOL     OW20698   4.724   0.456   5.255
 6600SOL    HW120699   4.678   0.545   5.256
 6600SOL    HW220700   4.730   0.422   5.161
 6601SOL     OW20701   1.544   2.598   1.931
 6601SOL    HW120702   1.456   2.571   1.969
 6601SOL    HW220703   1.610   2.524   1.943
 6602SOL     OW20704   1.072   5.470   1.475
 6602SOL    HW120705   1.004   5.440   1.542
 6602SOL    HW220706   1.138   5.531   1.520
 6603SOL     OW20707   0.080   3.999   2.731
 6603SOL    HW120708   0.135   3.966   2.807
 6603SOL    HW220709   7.011   3.961   2.736
 6604SOL     OW20710   1.854   5.996   3.320
 6604SOL    HW120711   1.770   5.942   3.311
 6604SOL    HW220712   1.848   6.053   3.402
 6605SOL     OW20713   0.315   6.119   1.227
 6605SOL    HW120714   0.400   6.075   1.256
 6605SOL    HW220715   0.297   6.098   1.131
 6606SOL     OW20716   1.759   3.012   3.131
 6606SOL    HW120717   1.729   2.957   3.208
 6606SOL    HW220718   1.823   2.960   3.075
 6607SOL     OW20719   5.643   3.553   3.249
 6607SOL    HW120720   5.616   3.461   3.278
 6607SOL    HW220721   5.646   3.556   3.149
 6608SOL     OW20722   1.438   6.329   5.930
 6608SOL    HW120723   1.401   6.245   5.971
 6608SOL    HW220724   1.503   6.371   5.992
 6609SOL     OW20725   4.557   1.593   6.705
 6609SOL    HW120726   4.618   1.563   6.779
 6609SOL    HW220727   4.506   1.514   6.670
 6610SOL     OW20728   2.690   5.624   0.957
 6610SOL    HW120729   2.698   5.620   1.057
 6610SOL    HW220730   2.699   5.719   0.927
 6611SOL     OW20731   3.324   1.654   4.805
 6611SOL    HW120732   3.240   1.708   4.794
 6611SOL    HW220733   3.403   1.715   4.804
 6612SOL     OW20734   6.988   0.400   6.698
 6612SOL    HW120735   0.039   0.409   6.632
 6612SOL    HW220736   6.953   0.491   6.721
 6613SOL     OW20737   4.399   0.276   0.637
 6613SOL    HW120738   4.428   0.335   0.713
 6613SOL    HW220739   4.416   0.322   0.550
 6614SOL     OW20740   4.234   5.072   0.782
 6614SOL    HW120741   4.147   5.038   0.746
 6614SOL    HW220742   4.305   5.063   0.712
 6615SOL     OW20743   3.734   5.449   5.701
 6615SOL    HW120744   3.754   5.520   5.634
 6615SOL    HW220745   3.693   5.370   5.655
 6616SOL     OW20746   3.764   1.665   6.217
 6616SOL    HW120747   3.836   1.609   6.176
 6616SOL    HW220748   3.796   1.703   6.303
 6617SOL     OW20749   3.598   0.705   3.876
 6617SOL    HW120750   3.517   0.714   3.934
 6617SOL    HW220751   3.680   0.716   3.931
 6618SOL     OW20752   6.003   2.587   4.061
 6618SOL    HW120753   6.066   2.545   4.127
 6618SOL    HW220754   5.909   2.578   4.094
 6619SOL     OW20755   5.089   5.709   4.144
 6619SOL    HW120756   5.008   5.750   4.102
 6619SOL    HW220757   5.160   5.779   4.155
 6620SOL     OW20758   1.066   2.676   3.344
 6620SOL    HW120759   1.111   2.702   3.429
 6620SOL    HW220760   1.113   2.598   3.303
 6621SOL     OW20761   3.677   3.544   4.349
 6621SOL    HW120762   3.583   3.508   4.349
 6621SOL    HW220763   3.720   3.527   4.437
 6622SOL     OW20764   0.678   5.149   1.069
 6622SOL    HW120765   0.745   5.217   1.099
 6622SOL    HW220766   0.624   5.187   0.993
 6623SOL     OW20767   2.932   3.835   4.987
 6623SOL    HW120768   2.899   3.851   4.894
 6623SOL    HW220769   2.954   3.738   4.998
 6624SOL     OW20770   2.493   1.696   2.923
 6624SOL    HW120771   2.518   1.790   2.902
 6624SOL    HW220772   2.528   1.635   2.852
 6625SOL     OW20773   5.889   4.248   5.878
 6625SOL    HW120774   5.988   4.241   5.861
 6625SOL    HW220775   5.874   4.282   5.971
 6626SOL     OW20776   3.119   6.109   5.220
 6626SOL    HW120777   3.055   6.185   5.225
 6626SOL    HW220778   3.069   6.024   5.205
 6627SOL     OW20779   2.110   6.160   4.418
 6627SOL    HW120780   2.109   6.061   4.399
 6627SOL    HW220781   2.095   6.210   4.333
 6628SOL     OW20782   3.590   5.796   4.693
 6628SOL    HW120783   3.633   5.706   4.690
 6628SOL    HW220784   3.637   5.858   4.631
 6629SOL     OW20785   5.146   6.114   6.225
 6629SOL    HW120786   5.127   6.208   6.197
 6629SOL    HW220787   5.104   6.096   6.314
 6630SOL     OW20788   1.466   0.632   0.076
 6630SOL    HW120789   1.455   0.709   0.140
 6630SOL    HW220790   1.549   0.646   0.022
 6631SOL     OW20791   1.808   3.690   6.167
 6631SOL    HW120792   1.751   3.768   6.141
 6631SOL    HW220793   1.821   3.690   6.266
 6632SOL     OW20794   1.594   0.170   0.648
 6632SOL    HW120795   1.546   0.222   0.577
 6632SOL    HW220796   1.589   0.072   0.626
 6633SOL     OW20797   3.730   5.547   5.954
 6633SOL    HW120798   3.729   5.645   5.977
 6633SOL    HW220799   3.737   5.536   5.855
 6634SOL     OW20800   3.529   1.685   3.574
 6634SOL    HW120801   3.549   1.765   3.630
 6634SOL    HW220802   3.578   1.605   3.610
 6635SOL     OW20803   5.174   4.693   4.653
 6635SOL    HW120804   5.163   4.790   4.635
 6635SOL    HW220805   5.128   4.670   4.739
 6636SOL     OW20806   4.041   0.829   0.063
 6636SOL    HW120807   4.123   0.817   0.119
 6636SOL    HW220808   4.055   0.902   7.020
 6637SOL     OW20809   0.540   1.980   0.677
 6637SOL    HW120810   0.519   1.890   0.717
 6637SOL    HW220811   0.638   1.997   0.682
 6638SOL     OW20812   3.018   3.779   4.185
 6638SOL    HW120813   2.994   3.764   4.089
 6638SOL    HW220814   2.992   3.698   4.239
 6639SOL     OW20815   4.907   2.739   0.820
 6639SOL    HW120816   4.885   2.814   0.756
 6639SOL    HW220817   5.005   2.737   0.836
 6640SOL     OW20818   1.795   4.066   5.030
 6640SOL    HW120819   1.792   3.969   5.005
 6640SOL    HW220820   1.889   4.099   5.026
 6641SOL     OW20821   5.488   2.311   1.194
 6641SOL    HW120822   5.510   2.237   1.258
 6641SOL    HW220823   5.529   2.292   1.105
 6642SOL     OW20824   1.835   5.890   0.079
 6642SOL    HW120825   1.841   5.819   0.009
 6642SOL    HW220826   1.923   5.897   0.126
 6643SOL     OW20827   3.645   6.029   6.112
 6643SOL    HW120828   3.649   6.128   6.098
 6643SOL    HW220829   3.725   5.999   6.164
 6644SOL     OW20830   2.107   6.688   3.854
 6644SOL    HW120831   2.201   6.723   3.849
 6644SOL    HW220832   2.073   6.669   3.762
 6645SOL     OW20833   6.077   2.530   6.953
 6645SOL    HW120834   5.995   2.526   6.895
 6645SOL    HW220835   6.137   2.453   6.931
 6646SOL     OW20836   4.225   0.022   5.622
 6646SOL    HW120837   4.298   6.981   5.646
 6646SOL    HW220838   4.262   0.094   5.564
 6647SOL     OW20839   3.983   4.957   0.763
 6647SOL    HW120840   3.996   4.889   0.690
 6647SOL    HW220841   3.889   4.991   0.760
 6648SOL     OW20842   3.062   6.817   5.134
 6648SOL    HW120843   3.126   6.742   5.122
 6648SOL    HW220844   3.097   6.881   5.201
 6649SOL     OW20845   5.118   2.729   6.622
 6649SOL    HW120846   5.157   2.650   6.575
 6649SOL    HW220847   5.190   2.793   6.646
 6650SOL     OW20848   1.796   1.531   4.499
 6650SOL    HW120849   1.791   1.606   4.432
 6650SOL    HW220850   1.811   1.569   4.590
 6651SOL     OW20851   6.717   1.955   6.182
 6651SOL    HW120852   6.626   1.998   6.180
 6651SOL    HW220853   6.743   1.938   6.277
 6652SOL     OW20854   6.684   4.203   0.339
 6652SOL    HW120855   6.698   4.262   0.259
 6652SOL    HW220856   6.730   4.116   0.324
 6653SOL     OW20857   5.684   4.459   0.078
 6653SOL    HW120858   5.631   4.459   0.163
 6653SOL    HW220859   5.713   4.365   0.057
 6654SOL     OW20860   6.401   4.031   3.265
 6654SOL    HW120861   6.427   4.073   3.178
 6654SOL    HW220862   6.325   4.082   3.305
 6655SOL     OW20863   0.415   5.171   1.894
 6655SOL    HW120864   0.337   5.222   1.932
 6655SOL    HW220865   0.494   5.183   1.953
 6656SOL     OW20866   4.442   1.545   3.740
 6656SOL    HW120867   4.361   1.601   3.758
 6656SOL    HW220868   4.418   1.448   3.749
 6657SOL     OW20869   5.821   1.897   3.810
 6657SOL    HW120870   5.853   1.836   3.883
 6657SOL    HW220871   5.728   1.873   3.785
 6658SOL     OW20872   6.922   5.674   5.381
 6658SOL    HW120873   6.828   5.706   5.370
 6658SOL    HW220874   6.983   5.753   5.394
 6659SOL     OW20875   0.749   4.920   1.947
 6659SOL    HW120876   0.717   5.009   1.980
 6659SOL    HW220877   0.848   4.921   1.941
 6660SOL     OW20878   6.610   6.297   4.154
 6660SOL    HW120879   6.579   6.325   4.245
 6660SOL    HW220880   6.599   6.198   4.145
 6661SOL     OW20881   4.165   5.811   4.129
 6661SOL    HW120882   4.151   5.899   4.083
 6661SOL    HW220883   4.160   5.738   4.061
 6662SOL     OW20884   4.146   6.450   2.730
 6662SOL    HW120885   4.135   6.514   2.654
 6662SOL    HW220886   4.118   6.359   2.701
 6663SOL     OW20887   0.816   4.122   5.975
 6663SOL    HW120888   0.865   4.207   5.996
 6663SOL    HW220889   0.793   4.121   5.877
 6664SOL     OW20890   3.141   0.094   0.874
 6664SOL    HW120891   3.199   0.128   0.948
 6664SOL    HW220892   3.082   0.167   0.841
 6665SOL     OW20893   2.701   0.857   6.257
 6665SOL    HW120894   2.669   0.941   6.300
 6665SOL    HW220895   2.762   0.808   6.319
 6666SOL     OW20896   4.113   6.297   5.383
 6666SOL    HW120897   4.159   6.374   5.338
 6666SOL    HW220898   4.165   6.269   5.463
 6667SOL     OW20899   0.948   5.990   6.614
 6667SOL    HW120900   0.860   5.942   6.620
 6667SOL    HW220901   1.015   5.945   6.673
 6668SOL     OW20902   6.887   4.532   0.512
 6668SOL    HW120903   6.879   4.605   0.580
 6668SOL    HW220904   6.837   4.452   0.543
 6669SOL     OW20905   1.186   1.926   2.981
 6669SOL    HW120906   1.121   1.940   2.906
 6669SOL    HW220907   1.243   1.847   2.961
 6670SOL     OW20908   3.977   2.831   0.506
 6670SOL    HW120909   3.907   2.815   0.576
 6670SOL    HW220910   4.041   2.900   0.538
 6671SOL     OW20911   4.220   5.296   0.348
 6671SOL    HW120912   4.230   5.325   0.443
 6671SOL    HW220913   4.183   5.371   0.294
 6672SOL     OW20914   1.330   2.761   1.617
 6672SOL    HW120915   1.424   2.760   1.653
 6672SOL    HW220916   1.265   2.763   1.693
 6673SOL     OW20917   6.447   3.180   3.741
 6673SOL    HW120918   6.483   3.105   3.797
 6673SOL    HW220919   6.418   3.145   3.652
 6674SOL     OW20920   0.394   1.335   0.289
 6674SOL    HW120921   0.476   1.390   0.306
 6674SOL    HW220922   0.315   1.381   0.331
 6675SOL     OW20923   4.772   0.682   6.576
 6675SOL    HW120924   4.824   0.695   6.661
 6675SOL    HW220925   4.823   0.620   6.515
 6676SOL     OW20926   1.160   4.339   4.225
 6676SOL    HW120927   1.113   4.399   4.160
 6676SOL    HW220928   1.198   4.394   4.299
 6677SOL     OW20929   0.794   1.302   6.668
 6677SOL    HW120930   0.832   1.236   6.734
 6677SOL    HW220931   0.718   1.260   6.619
 6678SOL     OW20932   2.556   4.125   6.194
 6678SOL    HW120933   2.560   4.031   6.160
 6678SOL    HW220934   2.635   4.176   6.161
 6679SOL     OW20935   1.557   1.148   3.882
 6679SOL    HW120936   1.534   1.061   3.926
 6679SOL    HW220937   1.478   1.180   3.830
 6680SOL     OW20938   6.161   6.781   1.453
 6680SOL    HW120939   6.246   6.740   1.487
 6680SOL    HW220940   6.182   6.867   1.408
 6681SOL     OW20941   3.445   5.888   1.606
 6681SOL    HW120942   3.417   5.959   1.542
 6681SOL    HW220943   3.376   5.816   1.609
 6682SOL     OW20944   3.407   5.692   5.611
 6682SOL    HW120945   3.404   5.632   5.690
 6682SOL    HW220946   3.446   5.642   5.533
 6683SOL     OW20947   6.595   4.497   6.191
 6683SOL    HW120948   6.619   4.535   6.102
 6683SOL    HW220949   6.677   4.464   6.237
 6684SOL     OW20950   3.215   5.664   0.332
 6684SOL    HW120951   3.296   5.718   0.309
 6684SOL    HW220952   3.235   5.608   0.413
 6685SOL     OW20953   5.389   3.088   6.897
 6685SOL    HW120954   5.381   3.173   6.949
 6685SOL    HW220955   5.313   3.082   6.832
 6686SOL     OW20956   5.039   5.408   4.495
 6686SOL    HW120957   5.112   5.443   4.436
 6686SOL    HW220958   4.953   5.405   4.444
 6687SOL     OW20959   6.524   2.131   1.717
 6687SOL    HW120960   6.454   2.111   1.648
 6687SOL    HW220961   6.486   2.192   1.786
 6688SOL     OW20962   4.510   4.854   0.998
 6688SOL    HW120963   4.579   4.915   0.961
 6688SOL    HW220964   4.524   4.761   0.963
 6689SOL     OW20965   2.184   4.749   5.909
 6689SOL    HW120966   2.189   4.808   5.989
 6689SOL    HW220967   2.256   4.775   5.844
 6690SOL     OW20968   0.501   6.932   5.976
 6690SOL    HW120969   0.511   0.001   5.937
 6690SOL    HW220970   0.573   6.917   6.044
 6691SOL     OW20971   3.121   2.129   2.538
 6691SOL    HW120972   3.048   2.171   2.483
 6691SOL    HW220973   3.180   2.074   2.479
 6692SOL     OW20974   4.166   5.479   2.308
 6692SOL    HW120975   4.107   5.418   2.362
 6692SOL    HW220976   4.142   5.574   2.326
 6693SOL     OW20977   3.555   1.521   4.853
 6693SOL    HW120978   3.459   1.549   4.853
 6693SOL    HW220979   3.587   1.509   4.759
 6694SOL     OW20980   3.353   4.044   1.827
 6694SOL    HW120981   3.345   3.970   1.760
 6694SOL    HW220982   3.267   4.094   1.832
 6695SOL     OW20983   2.547   2.005   0.408
 6695SOL    HW120984   2.608   1.962   0.341
 6695SOL    HW220985   2.537   2.102   0.386
 6696SOL     OW20986   4.079   3.343   4.422
 6696SOL    HW120987   4.140   3.422   4.425
 6696SOL    HW220988   4.034   3.339   4.333
 6697SOL     OW20989   4.489   2.379   2.119
 6697SOL    HW120990   4.441   2.439   2.183
 6697SOL    HW220991   4.521   2.433   2.040
 6698SOL     OW20992   3.435   4.058   1.478
 6698SOL    HW120993   3.363   4.002   1.519
 6698SOL    HW220994   3.524   4.023   1.507
 6699SOL     OW20995   1.249   4.002   5.413
 6699SOL    HW120996   1.323   4.018   5.479
 6699SOL    HW220997   1.237   3.904   5.401
 6700SOL     OW20998   5.565   0.151   0.065
 6700SOL    HW120999   5.619   0.076   0.102
 6700SOL    HW221000   5.488   0.169   0.126
 6701SOL     OW21001   6.433   0.122   1.436
 6701SOL    HW121002   6.379   0.117   1.519
 6701SOL    HW221003   6.523   0.082   1.452
 6702SOL     OW21004   3.251   2.834   1.152
 6702SOL    HW121005   3.268   2.883   1.067
 6702SOL    HW221006   3.156   2.848   1.181
 6703SOL     OW21007   0.110   1.059   0.332
 6703SOL    HW121008   0.081   0.968   0.361
 6703SOL    HW221009   0.040   1.126   0.358
 6704SOL     OW21010   3.266   0.051   6.192
 6704SOL    HW121011   3.338   0.016   6.252
 6704SOL    HW221012   3.306   0.114   6.125
 6705SOL     OW21013   6.884   4.286   2.304
 6705SOL    HW121014   6.784   4.285   2.303
 6705SOL    HW221015   6.917   4.235   2.383
 6706SOL     OW21016   0.420   6.708   1.529
 6706SOL    HW121017   0.349   6.646   1.497
 6706SOL    HW221018   0.464   6.753   1.451
 6707SOL     OW21019   4.970   1.287   2.339
 6707SOL    HW121020   4.995   1.195   2.370
 6707SOL    HW221021   4.893   1.320   2.394
 6708SOL     OW21022   0.737   3.916   0.793
 6708SOL    HW121023   0.703   3.932   0.885
 6708SOL    HW221024   0.834   3.939   0.788
 6709SOL     OW21025   2.219   4.174   2.387
 6709SOL    HW121026   2.183   4.090   2.347
 6709SOL    HW221027   2.284   4.216   2.323
 6710SOL     OW21028   5.169   1.712   0.990
 6710SOL    HW121029   5.151   1.676   1.082
 6710SOL    HW221030   5.082   1.727   0.943
 6711SOL     OW21031   3.292   6.142   6.423
 6711SOL    HW121032   3.327   6.229   6.457
 6711SOL    HW221033   3.251   6.091   6.498
 6712SOL     OW21034   5.733   4.023   1.519
 6712SOL    HW121035   5.817   4.014   1.466
 6712SOL    HW221036   5.686   3.935   1.523
 6713SOL     OW21037   1.598   5.262   4.858
 6713SOL    HW121038   1.631   5.342   4.907
 6713SOL    HW221039   1.499   5.267   4.848
 6714SOL     OW21040   4.812   1.354   1.276
 6714SOL    HW121041   4.722   1.371   1.237
 6714SOL    HW221042   4.879   1.416   1.234
 6715SOL     OW21043   1.650   0.354   6.892
 6715SOL    HW121044   1.642   0.313   6.983
 6715SOL    HW221045   1.621   0.449   6.895
 6716SOL     OW21046   0.012   5.970   2.439
 6716SOL    HW121047   0.098   5.946   2.394
 6716SOL    HW221048   0.008   6.068   2.455
 6717SOL     OW21049   5.705   1.917   5.595
 6717SOL    HW121050   5.667   1.909   5.687
 6717SOL    HW221051   5.728   2.012   5.576
 6718SOL     OW21052   3.865   1.241   1.471
 6718SOL    HW121053   3.963   1.226   1.480
 6718SOL    HW221054   3.828   1.276   1.557
 6719SOL     OW21055   2.314   1.159   0.314
 6719SOL    HW121056   2.278   1.069   0.288
 6719SOL    HW221057   2.324   1.216   0.233
 6720SOL     OW21058   1.721   0.762   6.240
 6720SOL    HW121059   1.706   0.672   6.198
 6720SOL    HW221060   1.697   0.833   6.174
 6721SOL     OW21061   6.090   0.827   0.712
 6721SOL    HW121062   6.003   0.836   0.663
 6721SOL    HW221063   6.142   0.911   0.703
 6722SOL     OW21064   5.600   3.591   6.759
 6722SOL    HW121065   5.506   3.606   6.730
 6722SOL    HW221066   5.635   3.673   6.805
 6723SOL     OW21067   0.979   2.396   5.740
 6723SOL    HW121068   0.947   2.465   5.675
 6723SOL    HW221069   0.947   2.419   5.832
 6724SOL     OW21070   2.133   3.393   4.793
 6724SOL    HW121071   2.094   3.387   4.885
 6724SOL    HW221072   2.182   3.308   4.773
 6725SOL     OW21073   5.397   2.674   3.247
 6725SOL    HW121074   5.427   2.658   3.341
 6725SOL    HW221075   5.318   2.615   3.227
 6726SOL     OW21076   0.558   0.416   5.195
 6726SOL    HW121077   0.563   0.512   5.223
 6726SOL    HW221078   0.632   0.396   5.132
 6727SOL     OW21079   1.245   5.078   5.457
 6727SOL    HW121080   1.242   5.007   5.527
 6727SOL    HW221081   1.340   5.097   5.433
 6728SOL     OW21082   3.311   1.849   2.915
 6728SOL    HW121083   3.330   1.812   2.825
 6728SOL    HW221084   3.304   1.948   2.910
 6729SOL     OW21085   4.298   1.083   2.423
 6729SOL    HW121086   4.212   1.062   2.470
 6729SOL    HW221087   4.331   1.001   2.376
 6730SOL     OW21088   0.525   0.973   0.967
 6730SOL    HW121089   0.621   1.001   0.958
 6730SOL    HW221090   0.521   0.875   0.990
 6731SOL     OW21091   3.612   0.224   6.342
 6731SOL    HW121092   3.680   0.197   6.410
 6731SOL    HW221093   3.571   0.143   6.300
 6732SOL     OW21094   6.941   5.384   5.008
 6732SOL    HW121095   6.851   5.378   4.965
 6732SOL    HW221096   7.008   5.335   4.953
 6733SOL     OW21097   4.798   4.445   5.894
 6733SOL    HW121098   4.732   4.497   5.948
 6733SOL    HW221099   4.768   4.442   5.799
 6734SOL     OW21100   6.437   1.933   4.268
 6734SOL    HW121101   6.476   1.922   4.359
 6734SOL    HW221102   6.503   1.978   4.208
 6735SOL     OW21103   6.471   2.585   3.123
 6735SOL    HW121104   6.480   2.504   3.182
 6735SOL    HW221105   6.550   2.645   3.136
 6736SOL     OW21106   3.539   3.462   0.607
 6736SOL    HW121107   3.495   3.445   0.695
 6736SOL    HW221108   3.469   3.485   0.539
 6737SOL     OW21109   6.980   3.258   0.478
 6737SOL    HW121110   0.018   3.232   0.403
 6737SOL    HW221111   6.992   3.355   0.498
 6738SOL     OW21112   1.180   5.992   3.793
 6738SOL    HW121113   1.277   5.970   3.786
 6738SOL    HW221114   1.169   6.088   3.819
 6739SOL     OW21115   6.893   0.076   4.871
 6739SOL    HW121116   6.912   0.028   4.957
 6739SOL    HW221117   6.965   0.057   4.805
 6740SOL     OW21118   0.764   6.655   2.862
 6740SOL    HW121119   0.825   6.720   2.908
 6740SOL    HW221120   0.670   6.672   2.891
 6741SOL     OW21121   3.973   1.862   6.819
 6741SOL    HW121122   4.065   1.825   6.806
 6741SOL    HW221123   3.961   1.886   6.916
 6742SOL     OW21124   5.304   4.853   3.661
 6742SOL    HW121125   5.288   4.783   3.730
 6742SOL    HW221126   5.396   4.843   3.623
 6743SOL     OW21127   3.989   3.689   0.721
 6743SOL    HW121128   3.918   3.636   0.677
 6743SOL    HW221129   4.053   3.725   0.652
 6744SOL     OW21130   7.022   6.754   5.911
 6744SOL    HW121131   6.972   6.677   5.870
 6744SOL    HW221132   0.049   6.803   5.839
 6745SOL     OW21133   6.897   4.628   5.328
 6745SOL    HW121134   6.962   4.635   5.252
 6745SOL    HW221135   6.948   4.613   5.413
 6746SOL     OW21136   0.887   2.628   2.446
 6746SOL    HW121137   0.850   2.566   2.515
 6746SOL    HW221138   0.981   2.603   2.423
 6747SOL     OW21139   1.637   6.115   5.889
 6747SOL    HW121140   1.577   6.195   5.884
 6747SOL    HW221141   1.600   6.042   5.831
 6748SOL     OW21142   2.139   1.065   4.694
 6748SOL    HW121143   2.047   1.071   4.734
 6748SOL    HW221144   2.177   0.974   4.711
 6749SOL     OW21145   3.843   5.168   1.440
 6749SOL    HW121146   3.922   5.136   1.389
 6749SOL    HW221147   3.860   5.157   1.538
 6750SOL     OW21148   3.468   1.145   5.232
 6750SOL    HW121149   3.479   1.184   5.140
 6750SOL    HW221150   3.372   1.147   5.258
 6751SOL     OW21151   5.150   0.039   4.420
 6751SOL    HW121152   5.074   0.072   4.363
 6751SOL    HW221153   5.173   0.109   4.488
 6752SOL     OW21154   2.266   5.188   2.209
 6752SOL    HW121155   2.300   5.145   2.293
 6752SOL    HW221156   2.294   5.284   2.207
 6753SOL     OW21157   3.654   3.280   5.692
 6753SOL    HW121158   3.720   3.245   5.626
 6753SOL    HW221159   3.656   3.223   5.774
 6754SOL     OW21160   6.455   1.583   1.011
 6754SOL    HW121161   6.449   1.662   1.071
 6754SOL    HW221162   6.540   1.533   1.029
 6755SOL     OW21163   2.719   6.106   6.085
 6755SOL    HW121164   2.656   6.118   6.008
 6755SOL    HW221165   2.807   6.071   6.051
 6756SOL     OW21166   2.001   1.865   5.321
 6756SOL    HW121167   1.954   1.797   5.264
 6756SOL    HW221168   1.983   1.957   5.285
 6757SOL     OW21169   3.868   6.753   0.506
 6757SOL    HW121170   3.777   6.788   0.528
 6757SOL    HW221171   3.876   6.738   0.407
 6758SOL     OW21172   5.295   1.710   3.291
 6758SOL    HW121173   5.349   1.750   3.218
 6758SOL    HW221174   5.213   1.765   3.306
 6759SOL     OW21175   0.619   2.760   2.466
 6759SOL    HW121176   0.679   2.787   2.391
 6759SOL    HW221177   0.561   2.838   2.492
 6760SOL     OW21178   5.233   2.966   3.868
 6760SOL    HW121179   5.202   2.982   3.962
 6760SOL    HW221180   5.175   2.897   3.825
 6761SOL     OW21181   3.932   1.928   4.821
 6761SOL    HW121182   3.972   1.951   4.910
 6761SOL    HW221183   3.892   1.836   4.825
 6762SOL     OW21184   6.992   5.522   3.797
 6762SOL    HW121185   7.013   5.446   3.859
 6762SOL    HW221186   6.935   5.589   3.845
 6763SOL     OW21187   5.422   5.427   5.272
 6763SOL    HW121188   5.492   5.473   5.217
 6763SOL    HW221189   5.353   5.387   5.212
 6764SOL     OW21190   1.556   5.533   0.930
 6764SOL    HW121191   1.622   5.572   0.994
 6764SOL    HW221192   1.579   5.437   0.913
 6765SOL     OW21193   6.806   5.200   3.038
 6765SOL    HW121194   6.833   5.184   3.133
 6765SOL    HW221195   6.739   5.274   3.034
 6766SOL     OW21196   6.176   0.585   0.821
 6766SOL    HW121197   6.126   0.655   0.770
 6766SOL    HW221198   6.266   0.572   0.780
 6767SOL     OW21199   3.115   0.638   0.379
 6767SOL    HW121200   3.023   0.627   0.417
 6767SOL    HW221201   3.115   0.615   0.282
 6768SOL     OW21202   2.123   0.658   0.745
 6768SOL    HW121203   2.106   0.620   0.654
 6768SOL    HW221204   2.209   0.709   0.745
 6769SOL     OW21205   4.090   3.024   1.725
 6769SOL    HW121206   4.079   3.114   1.767
 6769SOL    HW221207   4.178   3.021   1.677
 6770SOL     OW21208   0.533   0.059   1.813
 6770SOL    HW121209   0.579   0.147   1.802
 6770SOL    HW221210   0.592   7.009   1.777
 6771SOL     OW21211   3.958   2.215   2.914
 6771SOL    HW121212   3.881   2.208   2.851
 6771SOL    HW221213   4.021   2.139   2.898
 6772SOL     OW21214   3.009   1.188   2.677
 6772SOL    HW121215   2.926   1.225   2.717
 6772SOL    HW221216   3.044   1.251   2.607
 6773SOL     OW21217   0.457   4.250   1.989
 6773SOL    HW121218   0.449   4.185   1.913
 6773SOL    HW221219   0.508   4.331   1.958
 6774SOL     OW21220   0.794   1.585   6.746
 6774SOL    HW121221   0.736   1.585   6.828
 6774SOL    HW221222   0.815   1.491   6.720
 6775SOL     OW21223   2.620   4.748   0.701
 6775SOL    HW121224   2.608   4.667   0.758
 6775SOL    HW221225   2.631   4.829   0.758
 6776SOL     OW21226   6.051   5.607   0.054
 6776SOL    HW121227   6.072   5.640   0.146
 6776SOL    HW221228   6.006   5.518   0.061
 6777SOL     OW21229   4.786   4.569   6.869
 6777SOL    HW121230   4.835   4.643   6.823
 6777SOL    HW221231   4.699   4.603   6.904
 6778SOL     OW21232   1.068   5.938   3.125
 6778SOL    HW121233   1.027   5.853   3.092
 6778SOL    HW221234   1.016   6.016   3.091
 6779SOL     OW21235   0.345   4.308   0.386
 6779SOL    HW121236   0.437   4.268   0.375
 6779SOL    HW221237   0.326   4.322   0.483
 6780SOL     OW21238   0.322   2.211   2.006
 6780SOL    HW121239   0.382   2.265   1.946
 6780SOL    HW221240   0.260   2.156   1.950
 6781SOL     OW21241   5.459   5.547   5.526
 6781SOL    HW121242   5.420   5.513   5.441
 6781SOL    HW221243   5.432   5.487   5.601
 6782SOL     OW21244   6.086   1.550   3.068
 6782SOL    HW121245   6.170   1.593   3.102
 6782SOL    HW221246   6.109   1.468   3.016
 6783SOL     OW21247   0.476   6.097   6.560
 6783SOL    HW121248   0.380   6.116   6.580
 6783SOL    HW221249   0.481   6.020   6.496
 6784SOL     OW21250   3.272   3.346   0.204
 6784SOL    HW121251   3.210   3.352   0.126
 6784SOL    HW221252   3.357   3.303   0.176
 6785SOL     OW21253   5.495   6.193   2.341
 6785SOL    HW121254   5.396   6.181   2.333
 6785SOL    HW221255   5.526   6.260   2.273
 6786SOL     OW21256   1.891   2.837   5.976
 6786SOL    HW121257   1.903   2.851   6.074
 6786SOL    HW221258   1.793   2.839   5.954
 6787SOL     OW21259   1.349   3.947   2.667
 6787SOL    HW121260   1.422   3.986   2.610
 6787SOL    HW221261   1.374   3.854   2.694
 6788SOL     OW21262   3.079   3.656   0.726
 6788SOL    HW121263   3.121   3.598   0.796
 6788SOL    HW221264   3.090   3.614   0.636
 6789SOL     OW21265   0.525   6.044   2.437
 6789SOL    HW121266   0.624   6.059   2.433
 6789SOL    HW221267   0.483   6.112   2.497
 6790SOL     OW21268   1.886   2.674   0.242
 6790SOL    HW121269   1.959   2.712   0.185
 6790SOL    HW221270   1.843   2.747   0.295
 6791SOL     OW21271   4.476   3.287   6.053
 6791SOL    HW121272   4.487   3.199   6.007
 6791SOL    HW221273   4.409   3.343   6.004
 6792SOL     OW21274   0.032   5.755   0.985
 6792SOL    HW121275   0.056   5.850   1.005
 6792SOL    HW221276   6.955   5.746   0.981
 6793SOL     OW21277   0.199   2.347   1.478
 6793SOL    HW121278   0.163   2.366   1.569
 6793SOL    HW221279   0.292   2.311   1.485
 6794SOL     OW21280   4.890   1.566   5.336
 6794SOL    HW121281   4.806   1.561   5.390
 6794SOL    HW221282   4.897   1.656   5.293
 6795SOL     OW21283   3.019   5.867   6.720
 6795SOL    HW121284   3.027   5.836   6.625
 6795SOL    HW221285   3.050   5.794   6.782
 6796SOL     OW21286   4.408   1.780   3.353
 6796SOL    HW121287   4.499   1.820   3.354
 6796SOL    HW221288   4.340   1.850   3.375
 6797SOL     OW21289   5.781   3.181   2.588
 6797SOL    HW121290   5.685   3.205   2.582
 6797SOL    HW221291   5.803   3.113   2.517
 6798SOL     OW21292   5.562   6.365   2.539
 6798SOL    HW121293   5.522   6.331   2.624
 6798SOL    HW221294   5.536   6.306   2.463
 6799SOL     OW21295   5.668   6.641   0.600
 6799SOL    HW121296   5.580   6.686   0.617
 6799SOL    HW221297   5.657   6.542   0.609
 6800SOL     OW21298   2.431   4.865   6.901
 6800SOL    HW121299   2.489   4.796   6.858
 6800SOL    HW221300   2.341   4.825   6.919
 6801SOL     OW21301   1.675   2.179   2.213
 6801SOL    HW121302   1.706   2.126   2.292
 6801SOL    HW221303   1.719   2.144   2.130
 6802SOL     OW21304   2.298   6.370   2.266
 6802SOL    HW121305   2.335   6.333   2.351
 6802SOL    HW221306   2.198   6.379   2.275
 6803SOL     OW21307   5.274   2.052   0.065
 6803SOL    HW121308   5.276   2.087   0.159
 6803SOL    HW221309   5.229   2.119   0.006
 6804SOL     OW21310   1.603   6.097   3.627
 6804SOL    HW121311   1.693   6.069   3.592
 6804SOL    HW221312   1.599   6.196   3.634
 6805SOL     OW21313   5.920   0.318   4.749
 6805SOL    HW121314   5.927   0.401   4.806
 6805SOL    HW221315   6.011   0.283   4.729
 6806SOL     OW21316   4.647   1.077   5.425
 6806SOL    HW121317   4.738   1.040   5.411
 6806SOL    HW221318   4.620   1.130   5.344
 6807SOL     OW21319   3.127   2.982   0.383
 6807SOL    HW121320   3.104   3.078   0.400
 6807SOL    HW221321   3.050   2.924   0.410
 6808SOL     OW21322   1.020   2.740   5.802
 6808SOL    HW121323   0.958   2.665   5.823
 6808SOL    HW221324   1.084   2.711   5.731
 6809SOL     OW21325   2.505   3.732   6.374
 6809SOL    HW121326   2.411   3.761   6.391
 6809SOL    HW221327   2.537   3.770   6.288
 6810SOL     OW21328   6.010   1.037   2.266
 6810SOL    HW121329   5.947   1.109   2.293
 6810SOL    HW221330   5.961   0.950   2.263
 6811SOL     OW21331   5.665   5.222   1.440
 6811SOL    HW121332   5.699   5.159   1.510
 6811SOL    HW221333   5.658   5.173   1.352
 6812SOL     OW21334   3.251   3.421   3.036
 6812SOL    HW121335   3.316   3.496   3.025
 6812SOL    HW221336   3.257   3.385   3.129
 6813SOL     OW21337   4.267   3.019   0.772
 6813SOL    HW121338   4.253   2.937   0.718
 6813SOL    HW221339   4.323   3.084   0.721
 6814SOL     OW21340   2.243   3.427   0.725
 6814SOL    HW121341   2.243   3.523   0.753
 6814SOL    HW221342   2.329   3.384   0.753
 6815SOL     OW21343   2.046   0.264   2.190
 6815SOL    HW121344   2.019   0.359   2.207
 6815SOL    HW221345   2.141   0.251   2.219
 6816SOL     OW21346   6.547   4.619   0.876
 6816SOL    HW121347   6.546   4.535   0.931
 6816SOL    HW221348   6.542   4.698   0.936
 6817SOL     OW21349   0.146   1.524   6.063
 6817SOL    HW121350   0.150   1.440   6.117
 6817SOL    HW221351   0.231   1.535   6.012
 6818SOL     OW21352   3.786   6.068   3.068
 6818SOL    HW121353   3.758   5.975   3.045
 6818SOL    HW221354   3.846   6.103   2.996
 6819SOL     OW21355   3.876   1.433   3.955
 6819SOL    HW121356   3.814   1.359   3.931
 6819SOL    HW221357   3.971   1.405   3.938
 6820SOL     OW21358   0.697   4.351   3.642
 6820SOL    HW121359   0.715   4.438   3.687
 6820SOL    HW221360   0.599   4.343   3.622
 6821SOL     OW21361   2.490   2.037   4.538
 6821SOL    HW121362   2.397   2.014   4.567
 6821SOL    HW221363   2.494   2.135   4.515
 6822SOL     OW21364   5.355   2.141   5.965
 6822SOL    HW121365   5.295   2.188   5.900
 6822SOL    HW221366   5.339   2.177   6.057
 6823SOL     OW21367   2.936   3.265   3.211
 6823SOL    HW121368   3.004   3.191   3.207
 6823SOL    HW221369   2.948   3.324   3.131
 6824SOL     OW21370   0.824   4.152   6.993
 6824SOL    HW121371   0.867   4.083   0.027
 6824SOL    HW221372   0.729   4.127   6.977
 6825SOL     OW21373   5.054   0.081   2.566
 6825SOL    HW121374   5.014   0.054   2.654
 6825SOL    HW221375   5.151   0.059   2.565
 6826SOL     OW21376   1.488   3.390   2.988
 6826SOL    HW121377   1.519   3.362   2.897
 6826SOL    HW221378   1.472   3.309   3.044
 6827SOL     OW21379   6.086   5.515   5.883
 6827SOL    HW121380   6.115   5.428   5.844
 6827SOL    HW221381   6.148   5.540   5.958
 6828SOL     OW21382   1.460   2.611   0.815
 6828SOL    HW121383   1.538   2.652   0.861
 6828SOL    HW221384   1.491   2.561   0.734
 6829SOL     OW21385   4.858   6.109   4.044
 6829SOL    HW121386   4.805   6.111   3.960
 6829SOL    HW221387   4.807   6.156   4.116
 6830SOL     OW21388   5.476   2.543   3.955
 6830SOL    HW121389   5.439   2.627   3.995
 6830SOL    HW221390   5.440   2.464   4.004
 6831SOL     OW21391   0.382   0.750   6.117
 6831SOL    HW121392   0.440   0.751   6.036
 6831SOL    HW221393   0.423   0.806   6.189
 6832SOL     OW21394   3.219   5.208   2.310
 6832SOL    HW121395   3.140   5.235   2.256
 6832SOL    HW221396   3.206   5.237   2.405
 6833SOL     OW21397   3.910   5.250   0.521
 6833SOL    HW121398   3.872   5.161   0.496
 6833SOL    HW221399   3.870   5.321   0.463
 6834SOL     OW21400   4.216   5.890   2.191
 6834SOL    HW121401   4.293   5.832   2.167
 6834SOL    HW221402   4.152   5.839   2.248
 6835SOL     OW21403   3.898   0.307   4.972
 6835SOL    HW121404   3.970   0.373   4.953
 6835SOL    HW221405   3.938   0.216   4.979
 6836SOL     OW21406   3.215   6.170   0.170
 6836SOL    HW121407   3.144   6.132   0.229
 6836SOL    HW221408   3.285   6.101   0.153
 6837SOL     OW21409   1.585   3.167   2.027
 6837SOL    HW121410   1.593   3.070   2.004
 6837SOL    HW221411   1.669   3.198   2.071
 6838SOL     OW21412   2.356   1.340   0.107
 6838SOL    HW121413   2.341   1.310   0.013
 6838SOL    HW221414   2.454   1.349   0.124
 6839SOL     OW21415   4.164   0.915   0.956
 6839SOL    HW121416   4.263   0.908   0.971
 6839SOL    HW221417   4.138   1.012   0.950
 6840SOL     OW21418   1.128   1.972   6.175
 6840SOL    HW121419   1.187   1.892   6.184
 6840SOL    HW221420   1.087   1.994   6.264
 6841SOL     OW21421   6.707   3.419   6.132
 6841SOL    HW121422   6.666   3.506   6.106
 6841SOL    HW221423   6.649   3.344   6.102
 6842SOL     OW21424   2.517   4.963   3.020
 6842SOL    HW121425   2.575   4.890   3.057
 6842SOL    HW221426   2.504   5.034   3.089
 6843SOL     OW21427   5.042   6.677   6.945
 6843SOL    HW121428   5.031   6.603   6.879
 6843SOL    HW221429   5.075   6.640   0.009
 6844SOL     OW21430   5.295   0.840   5.497
 6844SOL    HW121431   5.214   0.897   5.508
 6844SOL    HW221432   5.363   0.863   5.567
 6845SOL     OW21433   4.870   1.661   2.400
 6845SOL    HW121434   4.826   1.750   2.417
 6845SOL    HW221435   4.871   1.643   2.302
 6846SOL     OW21436   2.408   3.921   6.860
 6846SOL    HW121437   2.459   3.991   6.909
 6846SOL    HW221438   2.468   3.843   6.839
 6847SOL     OW21439   6.370   3.669   3.860
 6847SOL    HW121440   6.443   3.608   3.832
 6847SOL    HW221441   6.283   3.636   3.824
 6848SOL     OW21442   5.865   4.690   3.417
 6848SOL    HW121443   5.965   4.690   3.416
 6848SOL    HW221444   5.833   4.777   3.454
 6849SOL     OW21445   3.665   4.313   6.655
 6849SOL    HW121446   3.633   4.266   6.574
 6849SOL    HW221447   3.753   4.357   6.636
 6850SOL     OW21448   3.967   1.920   3.553
 6850SOL    HW121449   3.971   1.860   3.632
 6850SOL    HW221450   3.895   1.888   3.491
 6851SOL     OW21451   1.777   3.231   3.742
 6851SOL    HW121452   1.747   3.325   3.759
 6851SOL    HW221453   1.771   3.179   3.827
 6852SOL     OW21454   2.761   4.757   0.286
 6852SOL    HW121455   2.726   4.826   0.222
 6852SOL    HW221456   2.776   4.799   0.376
 6853SOL     OW21457   4.917   3.437   6.767
 6853SOL    HW121458   4.923   3.473   6.860
 6853SOL    HW221459   4.958   3.502   6.704
 6854SOL     OW21460   5.378   6.367   6.296
 6854SOL    HW121461   5.450   6.434   6.312
 6854SOL    HW221462   5.340   6.380   6.204
 6855SOL     OW21463   3.943   5.241   3.960
 6855SOL    HW121464   3.932   5.297   4.041
 6855SOL    HW221465   3.865   5.255   3.898
 6856SOL     OW21466   1.044   1.711   6.775
 6856SOL    HW121467   1.063   1.792   6.831
 6856SOL    HW221468   0.949   1.683   6.789
 6857SOL     OW21469   0.755   4.073   5.669
 6857SOL    HW121470   0.667   4.116   5.650
 6857SOL    HW221471   0.824   4.110   5.606
 6858SOL     OW21472   2.464   3.860   1.737
 6858SOL    HW121473   2.419   3.949   1.732
 6858SOL    HW221474   2.540   3.856   1.673
 6859SOL     OW21475   0.843   1.471   2.331
 6859SOL    HW121476   0.831   1.562   2.291
 6859SOL    HW221477   0.763   1.414   2.311
 6860SOL     OW21478   0.731   6.709   2.167
 6860SOL    HW121479   0.685   6.721   2.079
 6860SOL    HW221480   0.667   6.666   2.231
 6861SOL     OW21481   5.426   2.783   5.024
 6861SOL    HW121482   5.436   2.691   5.062
 6861SOL    HW221483   5.512   2.812   4.983
 6862SOL     OW21484   0.657   4.630   5.592
 6862SOL    HW121485   0.668   4.561   5.521
 6862SOL    HW221486   0.600   4.705   5.558
 6863SOL     OW21487   6.245   0.378   5.606
 6863SOL    HW121488   6.264   0.280   5.598
 6863SOL    HW221489   6.191   0.408   5.527
 6864SOL     OW21490   1.436   3.528   6.392
 6864SOL    HW121491   1.403   3.558   6.481
 6864SOL    HW221492   1.533   3.507   6.398
 6865SOL     OW21493   2.398   6.976   3.795
 6865SOL    HW121494   2.412   6.912   3.871
 6865SOL    HW221495   2.332   0.023   3.822
 6866SOL     OW21496   0.800   4.323   1.336
 6866SOL    HW121497   0.726   4.366   1.285
 6866SOL    HW221498   0.848   4.392   1.390
 6867SOL     OW21499   2.112   3.886   6.833
 6867SOL    HW121500   2.073   3.977   6.819
 6867SOL    HW221501   2.212   3.891   6.829
 6868SOL     OW21502   2.244   4.978   4.446
 6868SOL    HW121503   2.161   4.962   4.392
 6868SOL    HW221504   2.315   4.915   4.414
 6869SOL     OW21505   3.336   0.813   6.255
 6869SOL    HW121506   3.254   0.755   6.250
 6869SOL    HW221507   3.402   0.784   6.186
 6870SOL     OW21508   6.273   2.311   0.980
 6870SOL    HW121509   6.319   2.384   1.031
 6870SOL    HW221510   6.340   2.262   0.924
 6871SOL     OW21511   0.516   4.031   2.354
 6871SOL    HW121512   0.575   4.086   2.413
 6871SOL    HW221513   0.569   3.994   2.279
 6872SOL     OW21514   1.741   3.712   0.532
 6872SOL    HW121515   1.654   3.685   0.490
 6872SOL    HW221516   1.816   3.679   0.476
 6873SOL     OW21517   0.751   4.562   3.785
 6873SOL    HW121518   0.710   4.533   3.872
 6873SOL    HW221519   0.848   4.581   3.799
 6874SOL     OW21520   5.199   6.745   3.171
 6874SOL    HW121521   5.285   6.696   3.155
 6874SOL    HW221522   5.195   6.774   3.267
 6875SOL     OW21523   2.043   2.080   0.206
 6875SOL    HW121524   2.018   2.062   0.301
 6875SOL    HW221525   1.968   2.127   0.160
 6876SOL     OW21526   4.898   5.623   3.520
 6876SOL    HW121527   4.809   5.669   3.527
 6876SOL    HW221528   4.901   5.545   3.582
 6877SOL     OW21529   1.525   3.557   2.658
 6877SOL    HW121530   1.531   3.568   2.558
 6877SOL    HW221531   1.581   3.627   2.702
 6878SOL     OW21532   1.830   0.390   4.612
 6878SOL    HW121533   1.737   0.359   4.595
 6878SOL    HW221534   1.834   0.490   4.607
 6879SOL     OW21535   1.980   1.941   0.804
 6879SOL    HW121536   2.035   2.022   0.825
 6879SOL    HW221537   2.000   1.910   0.711
 6880SOL     OW21538   1.683   5.469   6.389
 6880SOL    HW121539   1.737   5.405   6.335
 6880SOL    HW221540   1.613   5.511   6.331
 6881SOL     OW21541   1.128   2.757   0.355
 6881SOL    HW121542   1.035   2.777   0.386
 6881SOL    HW221543   1.188   2.835   0.377
 6882SOL     OW21544   2.850   6.907   6.600
 6882SOL    HW121545   2.768   6.860   6.565
 6882SOL    HW221546   2.928   6.845   6.593
 6883SOL     OW21547   4.816   0.510   0.013
 6883SOL    HW121548   4.778   0.449   6.967
 6883SOL    HW221549   4.792   0.476   0.104
 6884SOL     OW21550   2.250   4.153   2.999
 6884SOL    HW121551   2.153   4.176   3.007
 6884SOL    HW221552   2.264   4.102   2.914
 6885SOL     OW21553   5.591   5.402   4.905
 6885SOL    HW121554   5.608   5.469   4.977
 6885SOL    HW221555   5.510   5.348   4.929
 6886SOL     OW21556   4.995   1.444   6.740
 6886SOL    HW121557   5.016   1.348   6.760
 6886SOL    HW221558   5.035   1.502   6.812
 6887SOL     OW21559   5.493   6.138   6.049
 6887SOL    HW121560   5.450   6.082   6.119
 6887SOL    HW221561   5.544   6.080   5.986
 6888SOL     OW21562   6.126   4.994   6.441
 6888SOL    HW121563   6.143   5.089   6.468
 6888SOL    HW221564   6.059   4.992   6.367
 6889SOL     OW21565   0.590   2.155   6.872
 6889SOL    HW121566   0.526   2.230   6.854
 6889SOL    HW221567   0.684   2.191   6.876
 6890SOL     OW21568   4.766   4.912   3.099
 6890SOL    HW121569   4.785   4.894   3.195
 6890SOL    HW221570   4.816   4.846   3.042
 6891SOL     OW21571   1.599   1.060   0.726
 6891SOL    HW121572   1.602   1.095   0.819
 6891SOL    HW221573   1.636   1.129   0.663
 6892SOL     OW21574   2.705   0.887   4.682
 6892SOL    HW121575   2.609   0.859   4.680
 6892SOL    HW221576   2.712   0.985   4.665
 6893SOL     OW21577   5.936   3.097   0.521
 6893SOL    HW121578   6.003   3.139   0.582
 6893SOL    HW221579   5.973   3.097   0.427
 6894SOL     OW21580   5.764   5.454   0.441
 6894SOL    HW121581   5.727   5.538   0.479
 6894SOL    HW221582   5.743   5.377   0.502
 6895SOL     OW21583   0.659   6.553   1.476
 6895SOL    HW121584   0.560   6.560   1.468
 6895SOL    HW221585   0.696   6.503   1.398
 6896SOL     OW21586   4.409   2.440   4.622
 6896SOL    HW121587   4.337   2.383   4.584
 6896SOL    HW221588   4.442   2.504   4.552
 6897SOL     OW21589   4.850   3.379   5.321
 6897SOL    HW121590   4.820   3.362   5.415
 6897SOL    HW221591   4.785   3.438   5.275
 6898SOL     OW21592   2.164   0.772   1.371
 6898SOL    HW121593   2.258   0.764   1.406
 6898SOL    HW221594   2.168   0.801   1.275
 6899SOL     OW21595   6.292   6.095   2.121
 6899SOL    HW121596   6.384   6.069   2.150
 6899SOL    HW221597   6.298   6.171   2.056
 6900SOL     OW21598   6.384   4.051   5.461
 6900SOL    HW121599   6.439   3.990   5.404
 6900SOL    HW221600   6.353   4.129   5.407
 6901SOL     OW21601   4.920   4.360   6.795
 6901SOL    HW121602   4.855   4.436   6.800
 6901SOL    HW221603   5.013   4.394   6.811
 6902SOL     OW21604   0.724   6.137   5.695
 6902SOL    HW121605   0.820   6.163   5.685
 6902SOL    HW221606   0.689   6.174   5.781
 6903SOL     OW21607   1.600   5.853   4.793
 6903SOL    HW121608   1.663   5.869   4.869
 6903SOL    HW221609   1.510   5.890   4.816
 6904SOL     OW21610   6.414   6.597   5.035
 6904SOL    HW121611   6.472   6.520   5.062
 6904SOL    HW221612   6.327   6.562   4.999
 6905SOL     OW21613   4.888   6.033   6.022
 6905SOL    HW121614   4.986   6.011   6.021
 6905SOL    HW221615   4.862   6.058   6.116
 6906SOL     OW21616   3.279   1.825   3.730
 6906SOL    HW121617   3.238   1.807   3.641
 6906SOL    HW221618   3.361   1.769   3.740
 6907SOL     OW21619   5.977   2.387   0.534
 6907SOL    HW121620   6.013   2.296   0.555
 6907SOL    HW221621   5.907   2.379   0.463
 6908SOL     OW21622   2.918   4.249   0.404
 6908SOL    HW121623   3.007   4.227   0.365
 6908SOL    HW221624   2.870   4.312   0.344
 6909SOL     OW21625   6.031   5.652   1.991
 6909SOL    HW121626   6.096   5.728   2.001
 6909SOL    HW221627   6.031   5.597   2.075
 6910SOL     OW21628   1.635   3.308   2.722
 6910SOL    HW121629   1.620   3.400   2.685
 6910SOL    HW221630   1.561   3.248   2.692
 6911SOL     OW21631   1.916   6.911   5.720
 6911SOL    HW121632   1.843   6.845   5.700
 6911SOL    HW221633   2.004   6.872   5.693
 6912SOL     OW21634   2.513   3.627   6.776
 6912SOL    HW121635   2.570   3.590   6.702
 6912SOL    HW221636   2.423   3.585   6.773
 6913SOL     OW21637   5.171   6.546   5.884
 6913SOL    HW121638   5.143   6.499   5.968
 6913SOL    HW221639   5.182   6.643   5.902
 6914SOL     OW21640   6.411   2.855   2.474
 6914SOL    HW121641   6.383   2.853   2.378
 6914SOL    HW221642   6.330   2.849   2.533
 6915SOL     OW21643   6.911   3.658   3.354
 6915SOL    HW121644   6.982   3.636   3.420
 6915SOL    HW221645   6.883   3.753   3.365
 6916SOL     OW21646   5.037   5.984   6.942
 6916SOL    HW121647   5.047   5.885   6.927
 6916SOL    HW221648   5.104   6.014   7.009
 6917SOL     OW21649   5.176   5.749   1.456
 6917SOL    HW121650   5.084   5.771   1.425
 6917SOL    HW221651   5.222   5.693   1.387
 6918SOL     OW21652   2.201   3.373   1.270
 6918SOL    HW121653   2.212   3.462   1.226
 6918SOL    HW221654   2.251   3.373   1.356
 6919SOL     OW21655   6.031   6.227   3.516
 6919SOL    HW121656   5.968   6.277   3.575
 6919SOL    HW221657   6.066   6.146   3.565
 6920SOL     OW21658   6.172   0.977   5.981
 6920SOL    HW121659   6.239   1.024   5.925
 6920SOL    HW221660   6.082   0.985   5.939
 6921SOL     OW21661   4.150   0.341   4.260
 6921SOL    HW121662   4.240   0.356   4.302
 6921SOL    HW221663   4.081   0.392   4.311
 6922SOL     OW21664   1.671   4.135   6.330
 6922SOL    HW121665   1.731   4.199   6.378
 6922SOL    HW221666   1.687   4.141   6.232
 6923SOL     OW21667   5.970   6.958   2.624
 6923SOL    HW121668   5.991   6.877   2.680
 6923SOL    HW221669   5.995   0.017   2.674
 6924SOL     OW21670   3.116   5.855   1.335
 6924SOL    HW121671   3.096   5.917   1.259
 6924SOL    HW221672   3.116   5.906   1.421
 6925SOL     OW21673   5.948   6.180   5.519
 6925SOL    HW121674   5.861   6.192   5.471
 6925SOL    HW221675   5.950   6.089   5.561
 6926SOL     OW21676   3.114   1.974   0.315
 6926SOL    HW121677   3.032   1.920   0.336
 6926SOL    HW221678   3.188   1.946   0.376
 6927SOL     OW21679   4.820   0.984   0.785
 6927SOL    HW121680   4.808   1.077   0.819
 6927SOL    HW221681   4.917   0.963   0.779
 6928SOL     OW21682   4.997   5.009   0.862
 6928SOL    HW121683   5.086   5.040   0.828
 6928SOL    HW221684   4.995   5.013   0.962
 6929SOL     OW21685   6.479   5.050   1.277
 6929SOL    HW121686   6.546   4.988   1.317
 6929SOL    HW221687   6.527   5.120   1.224
 6930SOL     OW21688   0.999   0.436   0.787
 6930SOL    HW121689   0.912   0.387   0.780
 6930SOL    HW221690   1.056   0.393   0.858
 6931SOL     OW21691   2.862   3.352   0.927
 6931SOL    HW121692   2.846   3.285   0.999
 6931SOL    HW221693   2.949   3.398   0.943
 6932SOL     OW21694   4.718   5.890   0.247
 6932SOL    HW121695   4.688   5.863   0.339
 6932SOL    HW221696   4.782   5.822   0.212
 6933SOL     OW21697   3.552   5.978   6.515
 6933SOL    HW121698   3.534   5.981   6.416
 6933SOL    HW221699   3.469   6.004   6.565
 6934SOL     OW21700   5.159   4.112   0.082
 6934SOL    HW121701   5.211   4.030   0.104
 6934SOL    HW221702   5.147   4.168   0.164
 6935SOL     OW21703   4.704   5.748   1.532
 6935SOL    HW121704   4.630   5.800   1.575
 6935SOL    HW221705   4.719   5.783   1.439
 6936SOL     OW21706   0.541   1.991   5.161
 6936SOL    HW121707   0.458   2.046   5.155
 6936SOL    HW221708   0.618   2.040   5.121
 6937SOL     OW21709   5.440   5.823   6.914
 6937SOL    HW121710   5.484   5.758   6.852
 6937SOL    HW221711   5.497   5.904   6.922
 6938SOL     OW21712   1.220   0.358   4.752
 6938SOL    HW121713   1.198   0.428   4.684
 6938SOL    HW221714   1.218   0.268   4.709
 6939SOL     OW21715   6.166   3.786   3.414
 6939SOL    HW121716   6.258   3.777   3.375
 6939SOL    HW221717   6.104   3.724   3.365
 6940SOL     OW21718   2.941   5.852   0.561
 6940SOL    HW121719   2.971   5.930   0.616
 6940SOL    HW221720   2.979   5.860   0.469
 6941SOL     OW21721   3.161   3.745   2.883
 6941SOL    HW121722   3.239   3.800   2.912
 6941SOL    HW221723   3.194   3.667   2.829
 6942SOL     OW21724   6.600   6.232   1.866
 6942SOL    HW121725   6.687   6.255   1.822
 6942SOL    HW221726   6.599   6.270   1.959
 6943SOL     OW21727   4.181   5.293   6.605
 6943SOL    HW121728   4.204   5.318   6.699
 6943SOL    HW221729   4.232   5.351   6.542
 6944SOL     OW21730   1.017   4.508   5.262
 6944SOL    HW121731   1.054   4.416   5.247
 6944SOL    HW221732   0.933   4.502   5.315
 6945SOL     OW21733   5.548   2.000   0.927
 6945SOL    HW121734   5.572   2.091   0.894
 6945SOL    HW221735   5.505   2.006   1.017
 6946SOL     OW21736   4.369   5.296   3.146
 6946SOL    HW121737   4.378   5.396   3.141
 6946SOL    HW221738   4.359   5.259   3.054
 6947SOL     OW21739   5.603   4.742   5.381
 6947SOL    HW121740   5.673   4.699   5.325
 6947SOL    HW221741   5.523   4.762   5.325
 6948SOL     OW21742   0.141   4.538   6.816
 6948SOL    HW121743   0.148   4.539   6.916
 6948SOL    HW221744   0.149   4.444   6.783
 6949SOL     OW21745   2.160   1.795   4.115
 6949SOL    HW121746   2.108   1.795   4.201
 6949SOL    HW221747   2.238   1.856   4.124
 6950SOL     OW21748   6.993   0.581   4.169
 6950SOL    HW121749   0.023   0.535   4.098
 6950SOL    HW221750   6.896   0.560   4.157
 6951SOL     OW21751   0.396   4.344   6.235
 6951SOL    HW121752   0.386   4.437   6.270
 6951SOL    HW221753   0.338   4.332   6.154
 6952SOL     OW21754   4.379   5.695   3.645
 6952SOL    HW121755   4.315   5.679   3.570
 6952SOL    HW221756   4.440   5.617   3.654
 6953SOL     OW21757   5.669   1.342   1.075
 6953SOL    HW121758   5.655   1.281   1.153
 6953SOL    HW221759   5.714   1.292   1.002
 6954SOL     OW21760   5.840   4.218   0.026
 6954SOL    HW121761   5.835   4.120   0.041
 6954SOL    HW221762   5.868   4.236   6.955
 6955SOL     OW21763   4.569   6.498   2.664
 6955SOL    HW121764   4.656   6.449   2.677
 6955SOL    HW221765   4.495   6.444   2.704
 6956SOL     OW21766   5.706   5.451   2.275
 6956SOL    HW121767   5.708   5.367   2.222
 6956SOL    HW221768   5.626   5.450   2.335
 6957SOL     OW21769   5.653   5.729   5.593
 6957SOL    HW121770   5.590   5.657   5.566
 6957SOL    HW221771   5.746   5.705   5.565
 6958SOL     OW21772   2.977   3.937   3.608
 6958SOL    HW121773   3.051   3.962   3.670
 6958SOL    HW221774   2.972   3.837   3.600
 6959SOL     OW21775   1.119   4.630   3.049
 6959SOL    HW121776   1.126   4.679   3.136
 6959SOL    HW221777   1.180   4.550   3.050
 6960SOL     OW21778   3.213   3.955   0.466
 6960SOL    HW121779   3.205   3.890   0.390
 6960SOL    HW221780   3.187   3.910   0.552
 6961SOL     OW21781   4.719   2.574   4.963
 6961SOL    HW121782   4.623   2.552   4.944
 6961SOL    HW221783   4.778   2.500   4.932
 6962SOL     OW21784   2.627   6.792   6.428
 6962SOL    HW121785   2.532   6.785   6.398
 6962SOL    HW221786   2.687   6.804   6.348
 6963SOL     OW21787   5.739   6.315   0.973
 6963SOL    HW121788   5.796   6.275   1.044
 6963SOL    HW221789   5.645   6.322   1.005
 6964SOL     OW21790   1.798   0.867   5.237
 6964SOL    HW121791   1.784   0.826   5.147
 6964SOL    HW221792   1.874   0.932   5.233
 6965SOL     OW21793   0.777   1.633   0.168
 6965SOL    HW121794   0.703   1.597   0.226
 6965SOL    HW221795   0.834   1.558   0.136
 6966SOL     OW21796   1.405   6.380   1.256
 6966SOL    HW121797   1.418   6.380   1.156
 6966SOL    HW221798   1.491   6.354   1.300
 6967SOL     OW21799   4.430   1.407   6.545
 6967SOL    HW121800   4.504   1.341   6.531
 6967SOL    HW221801   4.355   1.387   6.483
 6968SOL     OW21802   3.960   6.714   3.078
 6968SOL    HW121803   3.965   6.622   3.040
 6968SOL    HW221804   3.988   6.780   3.009
 6969SOL     OW21805   2.116   2.022   1.864
 6969SOL    HW121806   2.198   1.976   1.898
 6969SOL    HW221807   2.127   2.039   1.766
 6970SOL     OW21808   3.808   5.655   5.537
 6970SOL    HW121809   3.750   5.736   5.547
 6970SOL    HW221810   3.839   5.647   5.442
 6971SOL     OW21811   6.487   4.255   0.099
 6971SOL    HW121812   6.564   4.304   0.140
 6971SOL    HW221813   6.419   4.321   0.067
 6972SOL     OW21814   5.119   3.694   1.451
 6972SOL    HW121815   5.070   3.781   1.438
 6972SOL    HW221816   5.122   3.672   1.548
 6973SOL     OW21817   2.006   2.828   3.104
 6973SOL    HW121818   1.932   2.780   3.152
 6973SOL    HW221819   2.047   2.768   3.037
 6974SOL     OW21820   3.766   3.613   3.354
 6974SOL    HW121821   3.796   3.603   3.449
 6974SOL    HW221822   3.747   3.523   3.315
 6975SOL     OW21823   2.686   5.321   4.567
 6975SOL    HW121824   2.687   5.341   4.469
 6975SOL    HW221825   2.748   5.245   4.587
 6976SOL     OW21826   4.417   4.368   6.061
 6976SOL    HW121827   4.431   4.365   6.160
 6976SOL    HW221828   4.326   4.333   6.040
 6977SOL     OW21829   4.069   4.964   1.553
 6977SOL    HW121830   4.112   5.054   1.547
 6977SOL    HW221831   4.035   4.938   1.462
 6978SOL     OW21832   6.476   3.753   2.159
 6978SOL    HW121833   6.377   3.739   2.152
 6978SOL    HW221834   6.498   3.849   2.143
 6979SOL     OW21835   1.879   2.994   1.657
 6979SOL    HW121836   1.956   2.998   1.720
 6979SOL    HW221837   1.841   3.086   1.645
 6980SOL     OW21838   1.913   5.592   2.286
 6980SOL    HW121839   1.860   5.656   2.230
 6980SOL    HW221840   1.873   5.587   2.378
 6981SOL     OW21841   3.896   2.841   6.734
 6981SOL    HW121842   3.964   2.769   6.747
 6981SOL    HW221843   3.927   2.902   6.660
 6982SOL     OW21844   1.575   0.812   2.800
 6982SOL    HW121845   1.494   0.830   2.855
 6982SOL    HW221846   1.558   0.732   2.741
 6983SOL     OW21847   5.070   0.842   4.176
 6983SOL    HW121848   5.004   0.780   4.135
 6983SOL    HW221849   5.040   0.868   4.268
 6984SOL     OW21850   0.737   2.647   3.351
 6984SOL    HW121851   0.801   2.696   3.292
 6984SOL    HW221852   0.779   2.629   3.439
 6985SOL     OW21853   5.591   3.590   0.033
 6985SOL    HW121854   5.641   3.675   0.020
 6985SOL    HW221855   5.643   3.515   7.015
 6986SOL     OW21856   5.121   4.794   5.345
 6986SOL    HW121857   5.206   4.846   5.346
 6986SOL    HW221858   5.050   4.843   5.396
 6987SOL     OW21859   0.260   1.064   6.312
 6987SOL    HW121860   0.226   1.044   6.404
 6987SOL    HW221861   0.356   1.091   6.316
 6988SOL     OW21862   3.335   1.423   6.637
 6988SOL    HW121863   3.362   1.447   6.544
 6988SOL    HW221864   3.354   1.500   6.698
 6989SOL     OW21865   0.628   5.092   2.307
 6989SOL    HW121866   0.683   5.139   2.376
 6989SOL    HW221867   0.634   4.993   2.320
 6990SOL     OW21868   4.007   3.129   1.160
 6990SOL    HW121869   3.985   3.058   1.226
 6990SOL    HW221870   4.011   3.090   1.068
 6991SOL     OW21871   6.159   3.139   2.644
 6991SOL    HW121872   6.121   3.190   2.566
 6991SOL    HW221873   6.123   3.177   2.729
 6992SOL     OW21874   1.111   6.160   0.281
 6992SOL    HW121875   1.160   6.132   0.198
 6992SOL    HW221876   1.078   6.078   0.329
 6993SOL     OW21877   4.622   1.835   1.233
 6993SOL    HW121878   4.649   1.907   1.298
 6993SOL    HW221879   4.698   1.770   1.223
 6994SOL     OW21880   2.499   0.732   3.663
 6994SOL    HW121881   2.583   0.729   3.609
 6994SOL    HW221882   2.428   0.679   3.617
 6995SOL     OW21883   0.286   4.175   1.524
 6995SOL    HW121884   0.212   4.197   1.461
 6995SOL    HW221885   0.355   4.121   1.477
 6996SOL     OW21886   1.310   0.995   6.686
 6996SOL    HW121887   1.210   0.994   6.692
 6996SOL    HW221888   1.338   0.953   6.599
 6997SOL     OW21889   5.254   5.451   6.040
 6997SOL    HW121890   5.341   5.486   6.076
 6997SOL    HW221891   5.243   5.355   6.065
 6998SOL     OW21892   6.486   1.232   0.099
 6998SOL    HW121893   6.555   1.275   0.041
 6998SOL    HW221894   6.440   1.159   0.049
 6999SOL     OW21895   0.310   3.014   6.684
 6999SOL    HW121896   0.311   2.915   6.702
 6999SOL    HW221897   0.241   3.058   6.742
 7000SOL     OW21898   6.919   6.097   3.302
 7000SOL    HW121899   6.897   6.036   3.225
 7000SOL    HW221900   6.857   6.078   3.378
 7001SOL     OW21901   0.468   2.287   4.328
 7001SOL    HW121902   0.521   2.369   4.305
 7001SOL    HW221903   0.523   2.206   4.310
 7002SOL     OW21904   0.908   5.707   3.000
 7002SOL    HW121905   0.914   5.616   3.040
 7002SOL    HW221906   0.922   5.701   2.901
 7003SOL     OW21907   6.854   3.932   0.553
 7003SOL    HW121908   6.932   3.885   0.595
 7003SOL    HW221909   6.769   3.889   0.582
 7004SOL     OW21910   1.718   6.503   0.810
 7004SOL    HW121911   1.728   6.511   0.711
 7004SOL    HW221912   1.723   6.407   0.837
 7005SOL     OW21913   1.025   6.084   1.100
 7005SOL    HW121914   1.032   6.127   1.010
 7005SOL    HW221915   1.094   6.123   1.161
 7006SOL     OW21916   1.294   7.012   4.003
 7006SOL    HW121917   1.369   0.051   4.026
 7006SOL    HW221918   1.318   6.961   3.920
 7007SOL     OW21919   2.158   0.502   5.991
 7007SOL    HW121920   2.171   0.445   5.910
 7007SOL    HW221921   2.221   0.474   6.063
 7008SOL     OW21922   5.329   3.916   2.626
 7008SOL    HW121923   5.270   3.844   2.588
 7008SOL    HW221924   5.355   3.980   2.554
 7009SOL     OW21925   4.859   5.663   1.936
 7009SOL    HW121926   4.763   5.636   1.931
 7009SOL    HW221927   4.913   5.590   1.978
 7010SOL     OW21928   5.364   3.458   1.594
 7010SOL    HW121929   5.287   3.515   1.622
 7010SOL    HW221930   5.368   3.453   1.495
 7011SOL     OW21931   3.400   6.391   6.904
 7011SOL    HW121932   3.454   6.451   6.963
 7011SOL    HW221933   3.305   6.391   6.936
 7012SOL     OW21934   6.666   2.821   0.194
 7012SOL    HW121935   6.690   2.769   0.276
 7012SOL    HW221936   6.684   2.918   0.210
 7013SOL     OW21937   2.870   1.830   0.368
 7013SOL    HW121938   2.831   1.842   0.460
 7013SOL    HW221939   2.803   1.855   0.299
 7014SOL     OW21940   6.212   3.266   0.947
 7014SOL    HW121941   6.128   3.264   0.893
 7014SOL    HW221942   6.257   3.354   0.935
 7015SOL     OW21943   5.023   6.354   0.911
 7015SOL    HW121944   4.978   6.359   1.000
 7015SOL    HW221945   4.993   6.272   0.863
 7016SOL     OW21946   3.047   4.930   1.105
 7016SOL    HW121947   2.977   4.939   1.035
 7016SOL    HW221948   3.062   5.018   1.150
 7017SOL     OW21949   5.878   4.882   4.959
 7017SOL    HW121950   5.947   4.840   5.018
 7017SOL    HW221951   5.891   4.981   4.957
 7018SOL     OW21952   5.538   3.627   4.511
 7018SOL    HW121953   5.553   3.528   4.511
 7018SOL    HW221954   5.440   3.646   4.509
 7019SOL     OW21955   4.499   5.748   2.162
 7019SOL    HW121956   4.492   5.815   2.235
 7019SOL    HW221957   4.492   5.656   2.200
 7020SOL     OW21958   0.599   2.953   6.581
 7020SOL    HW121959   0.519   2.995   6.537
 7020SOL    HW221960   0.568   2.889   6.651
 7021SOL     OW21961   0.745   2.177   5.071
 7021SOL    HW121962   0.751   2.251   5.138
 7021SOL    HW221963   0.836   2.154   5.038
 7022SOL     OW21964   3.111   1.860   0.717
 7022SOL    HW121965   3.065   1.946   0.692
 7022SOL    HW221966   3.051   1.808   0.779
 7023SOL     OW21967   0.498   2.073   0.405
 7023SOL    HW121968   0.517   2.037   0.496
 7023SOL    HW221969   0.443   2.155   0.412
 7024SOL     OW21970   4.015   3.208   4.657
 7024SOL    HW121971   3.963   3.262   4.723
 7024SOL    HW221972   4.059   3.269   4.591
 7025SOL     OW21973   3.747   0.082   0.810
 7025SOL    HW121974   3.741   0.035   0.722
 7025SOL    HW221975   3.807   0.031   0.871
 7026SOL     OW21976   3.347   2.577   1.165
 7026SOL    HW121977   3.392   2.578   1.254
 7026SOL    HW221978   3.290   2.659   1.156
 7027SOL     OW21979   2.818   5.430   3.194
 7027SOL    HW121980   2.746   5.475   3.141
 7027SOL    HW221981   2.794   5.430   3.291
 7028SOL     OW21982   2.944   0.378   4.003
 7028SOL    HW121983   2.861   0.398   4.054
 7028SOL    HW221984   2.948   0.435   3.921
 7029SOL     OW21985   3.224   3.555   3.945
 7029SOL    HW121986   3.129   3.523   3.942
 7029SOL    HW221987   3.234   3.625   4.015
 7030SOL     OW21988   6.711   1.191   4.949
 7030SOL    HW121989   6.682   1.280   4.984
 7030SOL    HW221990   6.631   1.139   4.920
 7031SOL     OW21991   4.671   6.695   0.504
 7031SOL    HW121992   4.770   6.688   0.487
 7031SOL    HW221993   4.633   6.768   0.448
 7032SOL     OW21994   4.275   5.959   4.538
 7032SOL    HW121995   4.335   6.036   4.516
 7032SOL    HW221996   4.250   5.962   4.635
 7033SOL     OW21997   2.046   1.866   4.913
 7033SOL    HW121998   1.994   1.824   4.987
 7033SOL    HW221999   2.058   1.963   4.931
 7034SOL     OW22000   6.665   0.640   3.825
 7034SOL    HW122001   6.720   0.715   3.862
 7034SOL    HW222002   6.576   0.676   3.797
 7035SOL     OW22003   1.841   0.401   0.084
 7035SOL    HW122004   1.851   0.405   0.183
 7035SOL    HW222005   1.915   0.453   0.041
 7036SOL     OW22006   6.532   1.861   2.698
 7036SOL    HW122007   6.625   1.826   2.679
 7036SOL    HW222008   6.518   1.867   2.796
 7037SOL     OW22009   0.986   0.887   6.017
 7037SOL    HW122010   0.989   0.986   6.029
 7037SOL    HW222011   1.051   0.844   6.080
 7038SOL     OW22012   1.503   4.346   6.506
 7038SOL    HW122013   1.425   4.310   6.557
 7038SOL    HW222014   1.586   4.298   6.535
 7039SOL     OW22015   0.790   6.127   2.417
 7039SOL    HW122016   0.805   6.157   2.323
 7039SOL    HW222017   0.791   6.207   2.478
 7040SOL     OW22018   5.079   3.323   4.394
 7040SOL    HW122019   5.129   3.239   4.377
 7040SOL    HW222020   5.014   3.310   4.468
 7041SOL     OW22021   1.637   6.921   4.188
 7041SOL    HW122022   1.662   7.014   4.161
 7041SOL    HW222023   1.580   6.925   4.271
 7042SOL     OW22024   4.761   6.204   5.592
 7042SOL    HW122025   4.827   6.233   5.523
 7042SOL    HW222026   4.807   6.146   5.660
 7043SOL     OW22027   2.710   5.117   1.449
 7043SOL    HW122028   2.712   5.123   1.549
 7043SOL    HW222029   2.665   5.032   1.421
 7044SOL     OW22030   4.878   6.312   5.092
 7044SOL    HW122031   4.781   6.331   5.102
 7044SOL    HW222032   4.897   6.277   5.000
 7045SOL     OW22033   6.610   6.373   2.093
 7045SOL    HW122034   6.679   6.444   2.109
 7045SOL    HW222035   6.520   6.415   2.082
 7046SOL     OW22036   2.740   1.942   4.448
 7046SOL    HW122037   2.737   1.983   4.357
 7046SOL    HW222038   2.681   1.994   4.510
 7047SOL     OW22039   1.039   6.212   0.840
 7047SOL    HW122040   1.093   6.211   0.756
 7047SOL    HW222041   1.052   6.300   0.887
 7048SOL     OW22042   6.913   6.164   4.931
 7048SOL    HW122043   6.902   6.151   4.833
 7048SOL    HW222044   6.898   6.077   4.978
 7049SOL     OW22045   3.745   1.202   3.009
 7049SOL    HW122046   3.699   1.187   3.096
 7049SOL    HW222047   3.823   1.140   3.001
 7050SOL     OW22048   4.256   3.949   1.087
 7050SOL    HW122049   4.173   3.904   1.053
 7050SOL    HW222050   4.255   3.949   1.187
 7051SOL     OW22051   0.536   0.997   1.945
 7051SOL    HW122052   0.444   0.984   1.984
 7051SOL    HW222053   0.562   1.093   1.952
 7052SOL     OW22054   4.864   0.349   2.877
 7052SOL    HW122055   4.866   0.274   2.943
 7052SOL    HW222056   4.936   0.337   2.809
 7053SOL     OW22057   2.091   3.344   3.517
 7053SOL    HW122058   2.080   3.342   3.616
 7053SOL    HW222059   2.023   3.406   3.478
 7054SOL     OW22060   6.528   0.923   0.215
 7054SOL    HW122061   6.492   1.016   0.202
 7054SOL    HW222062   6.455   0.864   0.250
 7055SOL     OW22063   2.765   1.172   0.182
 7055SOL    HW122064   2.720   1.261   0.187
 7055SOL    HW222065   2.862   1.185   0.161
 7056SOL     OW22066   0.833   5.345   1.553
 7056SOL    HW122067   0.830   5.258   1.504
 7056SOL    HW222068   0.764   5.346   1.625
 7057SOL     OW22069   2.725   5.322   4.263
 7057SOL    HW122070   2.773   5.234   4.273
 7057SOL    HW222071   2.788   5.389   4.224
 7058SOL     OW22072   5.575   3.049   6.250
 7058SOL    HW122073   5.494   3.038   6.308
 7058SOL    HW222074   5.574   2.979   6.179
 7059SOL     OW22075   1.897   0.391   5.289
 7059SOL    HW122076   1.842   0.458   5.339
 7059SOL    HW222077   1.984   0.433   5.262
 7060SOL     OW22078   3.861   0.685   1.180
 7060SOL    HW122079   3.845   0.753   1.109
 7060SOL    HW222080   3.883   0.597   1.137
 7061SOL     OW22081   0.485   1.567   1.420
 7061SOL    HW122082   0.517   1.661   1.410
 7061SOL    HW222083   0.443   1.555   1.510
 7062SOL     OW22084   3.439   0.775   3.626
 7062SOL    HW122085   3.373   0.815   3.562
 7062SOL    HW222086   3.435   0.675   3.620
 7063SOL     OW22087   0.889   0.865   1.194
 7063SOL    HW122088   0.980   0.892   1.225
 7063SOL    HW222089   0.831   0.844   1.272
 7064SOL     OW22090   4.112   1.423   5.233
 7064SOL    HW122091   4.095   1.470   5.320
 7064SOL    HW222092   4.177   1.475   5.179
 7065SOL     OW22093   3.918   5.152   5.501
 7065SOL    HW122094   3.833   5.195   5.532
 7065SOL    HW222095   3.917   5.143   5.402
 7066SOL     OW22096   3.711   0.222   0.206
 7066SOL    HW122097   3.687   0.131   0.241
 7066SOL    HW222098   3.633   0.261   0.158
 7067SOL     OW22099   1.880   3.504   6.862
 7067SOL    HW122100   1.893   3.594   6.822
 7067SOL    HW222101   1.965   3.475   6.906
 7068SOL     OW22102   5.331   3.354   4.069
 7068SOL    HW122103   5.263   3.426   4.076
 7068SOL    HW222104   5.318   3.305   3.983
 7069SOL     OW22105   5.837   0.534   6.675
 7069SOL    HW122106   5.905   0.482   6.623
 7069SOL    HW222107   5.784   0.591   6.612
 7070SOL     OW22108   0.150   6.786   5.024
 7070SOL    HW122109   0.167   6.749   4.933
 7070SOL    HW222110   0.068   6.744   5.062
 7071SOL     OW22111   4.845   5.558   6.752
 7071SOL    HW122112   4.892   5.480   6.710
 7071SOL    HW222113   4.811   5.619   6.680
 7072SOL     OW22114   0.826   3.614   6.295
 7072SOL    HW122115   0.806   3.682   6.224
 7072SOL    HW222116   0.788   3.525   6.266
 7073SOL     OW22117   4.639   1.210   3.549
 7073SOL    HW122118   4.635   1.310   3.552
 7073SOL    HW222119   4.722   1.179   3.596
 7074SOL     OW22120   5.504   4.570   2.838
 7074SOL    HW122121   5.481   4.517   2.756
 7074SOL    HW222122   5.459   4.528   2.918
 7075SOL     OW22123   3.094   4.965   3.566
 7075SOL    HW122124   3.188   4.948   3.537
 7075SOL    HW222125   3.079   4.927   3.657
 7076SOL     OW22126   5.637   2.100   2.135
 7076SOL    HW122127   5.702   2.140   2.070
 7076SOL    HW222128   5.555   2.072   2.086
 7077SOL     OW22129   3.784   5.455   1.511
 7077SOL    HW122130   3.789   5.368   1.463
 7077SOL    HW222131   3.715   5.513   1.468
 7078SOL     OW22132   5.859   0.772   0.063
 7078SOL    HW122133   5.885   0.697   0.002
 7078SOL    HW222134   5.760   0.782   0.065
 7079SOL     OW22135   1.479   6.403   5.003
 7079SOL    HW122136   1.414   6.366   4.937
 7079SOL    HW222137   1.525   6.483   4.964
 7080SOL     OW22138   4.154   2.195   5.888
 7080SOL    HW122139   4.087   2.177   5.960
 7080SOL    HW222140   4.183   2.109   5.846
 7081SOL     OW22141   1.483   0.300   0.454
 7081SOL    HW122142   1.490   0.328   0.359
 7081SOL    HW222143   1.390   0.318   0.488
 7082SOL     OW22144   6.952   4.373   3.296
 7082SOL    HW122145   6.899   4.352   3.214
 7082SOL    HW222146   6.979   4.288   3.341
 7083SOL     OW22147   5.422   2.429   2.771
 7083SOL    HW122148   5.515   2.465   2.764
 7083SOL    HW222149   5.426   2.331   2.791
 7084SOL     OW22150   0.949   5.487   7.023
 7084SOL    HW122151   0.934   5.547   6.944
 7084SOL    HW222152   0.866   5.434   0.017
 7085SOL     OW22153   0.501   3.712   2.289
 7085SOL    HW122154   0.429   3.740   2.352
 7085SOL    HW222155   0.470   3.631   2.238
 7086SOL     OW22156   5.377   1.152   3.847
 7086SOL    HW122157   5.410   1.183   3.758
 7086SOL    HW222158   5.438   1.186   3.919
 7087SOL     OW22159   4.873   4.125   2.737
 7087SOL    HW122160   4.913   4.112   2.828
 7087SOL    HW222161   4.855   4.223   2.722
 7088SOL     OW22162   5.922   2.014   5.291
 7088SOL    HW122163   5.895   1.944   5.357
 7088SOL    HW222164   5.946   1.971   5.205
 7089SOL     OW22165   2.935   6.073   1.838
 7089SOL    HW122166   2.930   6.171   1.860
 7089SOL    HW222167   2.842   6.038   1.824
 7090SOL     OW22168   4.203   2.703   1.091
 7090SOL    HW122169   4.249   2.789   1.068
 7090SOL    HW222170   4.211   2.688   1.190
 7091SOL     OW22171   0.345   6.033   0.221
 7091SOL    HW122172   0.411   5.964   0.251
 7091SOL    HW222173   0.298   6.071   0.301
 7092SOL     OW22174   4.057   0.804   6.470
 7092SOL    HW122175   4.014   0.726   6.516
 7092SOL    HW222176   3.990   0.878   6.462
 7093SOL     OW22177   2.659   2.934   1.290
 7093SOL    HW122178   2.702   2.928   1.380
 7093SOL    HW222179   2.634   3.028   1.270
 7094SOL     OW22180   3.046   0.560   5.683
 7094SOL    HW122181   3.062   0.600   5.773
 7094SOL    HW222182   2.974   0.491   5.689
 7095SOL     OW22183   2.334   4.572   4.694
 7095SOL    HW122184   2.254   4.631   4.683
 7095SOL    HW222185   2.354   4.559   4.791
 7096SOL     OW22186   0.259   0.786   1.139
 7096SOL    HW122187   0.188   0.793   1.069
 7096SOL    HW222188   0.230   0.834   1.221
 7097SOL     OW22189   4.577   1.505   2.220
 7097SOL    HW122190   4.552   1.425   2.167
 7097SOL    HW222191   4.667   1.537   2.192
 7098SOL     OW22192   1.195   6.966   3.408
 7098SOL    HW122193   1.101   6.972   3.372
 7098SOL    HW222194   1.232   0.035   3.419
 7099SOL     OW22195   2.934   2.289   3.888
 7099SOL    HW122196   3.034   2.280   3.892
 7099SOL    HW222197   2.895   2.201   3.861
 7100SOL     OW22198   6.097   3.882   1.725
 7100SOL    HW122199   6.005   3.875   1.763
 7100SOL    HW222200   6.128   3.977   1.730
 7101SOL     OW22201   2.639   6.296   5.614
 7101SOL    HW122202   2.699   6.375   5.625
 7101SOL    HW222203   2.688   6.213   5.639
 7102SOL     OW22204   5.452   0.807   2.180
 7102SOL    HW122205   5.433   0.772   2.088
 7102SOL    HW222206   5.405   0.750   2.248
 7103SOL     OW22207   5.132   3.683   2.898
 7103SOL    HW122208   5.045   3.672   2.850
 7103SOL    HW222209   5.180   3.595   2.901
 7104SOL     OW22210   5.180   2.903   3.501
 7104SOL    HW122211   5.274   2.931   3.479
 7104SOL    HW222212   5.135   2.976   3.551
 7105SOL     OW22213   3.192   4.083   3.496
 7105SOL    HW122214   3.095   4.078   3.520
 7105SOL    HW222215   3.245   4.026   3.559
 7106SOL     OW22216   3.051   2.397   1.302
 7106SOL    HW122217   2.999   2.451   1.235
 7106SOL    HW222218   3.141   2.438   1.315
 7107SOL     OW22219   3.583   0.567   6.405
 7107SOL    HW122220   3.538   0.610   6.484
 7107SOL    HW222221   3.675   0.539   6.431
 7108SOL     OW22222   4.847   0.747   2.268
 7108SOL    HW122223   4.882   0.723   2.358
 7108SOL    HW222224   4.922   0.774   2.208
 7109SOL     OW22225   2.691   5.367   6.486
 7109SOL    HW122226   2.779   5.320   6.493
 7109SOL    HW222227   2.630   5.315   6.426
 7110SOL     OW22228   3.575   6.703   4.247
 7110SOL    HW122229   3.541   6.689   4.154
 7110SOL    HW222230   3.630   6.625   4.274
 7111SOL     OW22231   0.025   0.671   5.074
 7111SOL    HW122232   0.078   0.692   5.156
 7111SOL    HW222233   0.085   0.670   4.995
 7112SOL     OW22234   1.301   5.020   4.705
 7112SOL    HW122235   1.333   5.097   4.760
 7112SOL    HW222236   1.224   4.976   4.751
 7113SOL     OW22237   3.937   6.625   5.366
 7113SOL    HW122238   3.936   6.724   5.375
 7113SOL    HW222239   3.846   6.593   5.338
 7114SOL     OW22240   5.502   4.365   0.784
 7114SOL    HW122241   5.557   4.281   0.786
 7114SOL    HW222242   5.521   4.420   0.865
 7115SOL     OW22243   5.816   4.035   6.290
 7115SOL    HW122244   5.866   3.975   6.227
 7115SOL    HW222245   5.880   4.081   6.351
 7116SOL     OW22246   6.232   3.965   4.131
 7116SOL    HW122247   6.299   4.040   4.130
 7116SOL    HW222248   6.280   3.878   4.142
 7117SOL     OW22249   5.830   0.590   3.139
 7117SOL    HW122250   5.829   0.596   3.039
 7117SOL    HW222251   5.920   0.556   3.168
 7118SOL     OW22252   3.814   4.459   5.880
 7118SOL    HW122253   3.877   4.532   5.907
 7118SOL    HW222254   3.793   4.402   5.960
 7119SOL     OW22255   3.284   0.075   5.007
 7119SOL    HW122256   3.332   0.012   4.946
 7119SOL    HW222257   3.322   0.167   4.998
 7120SOL     OW22258   4.370   0.393   0.383
 7120SOL    HW122259   4.456   0.434   0.354
 7120SOL    HW222260   4.294   0.432   0.330
 7121SOL     OW22261   1.551   5.753   2.047
 7121SOL    HW122262   1.495   5.778   1.968
 7121SOL    HW222263   1.640   5.720   2.015
 7122SOL     OW22264   3.531   1.993   0.031
 7122SOL    HW122265   3.584   1.928   0.085
 7122SOL    HW222266   3.453   2.025   0.084
 7123SOL     OW22267   5.177   5.201   6.113
 7123SOL    HW122268   5.078   5.213   6.120
 7123SOL    HW222269   5.197   5.114   6.068
 7124SOL     OW22270   1.095   2.046   1.477
 7124SOL    HW122271   1.027   2.076   1.543
 7124SOL    HW222272   1.051   1.993   1.405
 7125SOL     OW22273   0.451   6.176   2.184
 7125SOL    HW122274   0.468   6.101   2.247
 7125SOL    HW222275   0.500   6.258   2.216
 7126SOL     OW22276   3.230   5.178   1.179
 7126SOL    HW122277   3.290   5.127   1.118
 7126SOL    HW222278   3.252   5.155   1.274
 7127SOL     OW22279   2.495   6.403   5.861
 7127SOL    HW122280   2.542   6.343   5.797
 7127SOL    HW222281   2.561   6.463   5.905
 7128SOL     OW22282   4.130   4.560   6.451
 7128SOL    HW122283   4.173   4.645   6.482
 7128SOL    HW222284   4.085   4.576   6.364
 7129SOL     OW22285   0.542   0.004   0.718
 7129SOL    HW122286   0.465   6.971   0.687
 7129SOL    HW222287   0.522   0.043   0.808
 7130SOL     OW22288   3.400   6.391   4.035
 7130SOL    HW122289   3.355   6.366   4.121
 7130SOL    HW222290   3.381   6.322   3.966
 7131SOL     OW22291   2.705   1.305   2.130
 7131SOL    HW122292   2.668   1.288   2.039
 7131SOL    HW222293   2.804   1.315   2.124
 7132SOL     OW22294   5.372   4.632   0.398
 7132SOL    HW122295   5.426   4.709   0.363
 7132SOL    HW222296   5.431   4.551   0.406
 7133SOL     OW22297   5.263   5.860   2.821
 7133SOL    HW122298   5.345   5.871   2.877
 7133SOL    HW222299   5.246   5.762   2.807
 7134SOL     OW22300   4.622   5.000   0.110
 7134SOL    HW122301   4.647   4.980   0.015
 7134SOL    HW222302   4.694   4.966   0.171
 7135SOL     OW22303   1.811   3.448   1.071
 7135SOL    HW122304   1.727   3.407   1.035
 7135SOL    HW222305   1.878   3.458   0.997
 7136SOL     OW22306   1.383   1.901   1.902
 7136SOL    HW122307   1.412   1.806   1.903
 7136SOL    HW222308   1.408   1.945   1.988
 7137SOL     OW22309   2.720   1.565   1.689
 7137SOL    HW122310   2.691   1.617   1.770
 7137SOL    HW222311   2.811   1.527   1.706
 7138SOL     OW22312   0.772   2.457   0.315
 7138SOL    HW122313   0.871   2.464   0.320
 7138SOL    HW222314   0.731   2.548   0.330
 7139SOL     OW22315   5.986   6.482   0.781
 7139SOL    HW122316   5.990   6.391   0.740
 7139SOL    HW222317   5.914   6.484   0.851
 7140SOL     OW22318   6.205   3.580   0.095
 7140SOL    HW122319   6.183   3.588   7.021
 7140SOL    HW222320   6.302   3.556   0.106
 7141SOL     OW22321   3.495   0.387   1.094
 7141SOL    HW122322   3.468   0.410   1.187
 7141SOL    HW222323   3.422   0.415   1.031
 7142SOL     OW22324   3.273   0.482   4.764
 7142SOL    HW122325   3.221   0.463   4.847
 7142SOL    HW222326   3.295   0.579   4.759
 7143SOL     OW22327   2.614   4.073   6.604
 7143SOL    HW122328   2.641   4.010   6.531
 7143SOL    HW222329   2.517   4.062   6.624
 7144SOL     OW22330   6.653   0.884   5.986
 7144SOL    HW122331   6.681   0.830   5.907
 7144SOL    HW222332   6.557   0.862   6.008
 7145SOL     OW22333   5.200   2.012   6.354
 7145SOL    HW122334   5.289   1.983   6.389
 7145SOL    HW222335   5.182   1.965   6.267
 7146SOL     OW22336   1.135   2.172   5.762
 7146SOL    HW122337   1.132   2.270   5.746
 7146SOL    HW222338   1.120   2.154   5.860
 7147SOL     OW22339   6.418   6.749   2.012
 7147SOL    HW122340   6.514   6.764   1.988
 7147SOL    HW222341   6.360   6.808   1.956
 7148SOL     OW22342   6.157   7.014   1.060
 7148SOL    HW122343   6.100   6.938   1.090
 7148SOL    HW222344   6.106   0.077   1.068
 7149SOL     OW22345   5.324   4.694   5.893
 7149SOL    HW122346   5.386   4.616   5.901
 7149SOL    HW222347   5.256   4.675   5.822
 7150SOL     OW22348   3.501   3.495   6.648
 7150SOL    HW122349   3.409   3.505   6.686
 7150SOL    HW222350   3.496   3.447   6.560
 7151SOL     OW22351   4.091   1.400   0.560
 7151SOL    HW122352   4.065   1.392   0.463
 7151SOL    HW222353   4.034   1.339   0.615
 7152SOL     OW22354   6.236   1.163   6.679
 7152SOL    HW122355   6.241   1.082   6.738
 7152SOL    HW222356   6.313   1.224   6.699
 7153SOL     OW22357   3.727   5.852   0.648
 7153SOL    HW122358   3.743   5.760   0.684
 7153SOL    HW222359   3.682   5.845   0.559
 7154SOL     OW22360   3.725   1.949   1.759
 7154SOL    HW122361   3.677   1.923   1.843
 7154SOL    HW222362   3.680   2.028   1.718
 7155SOL     OW22363   1.120   1.458   1.740
 7155SOL    HW122364   1.121   1.555   1.715
 7155SOL    HW222365   1.111   1.450   1.839
 7156SOL     OW22366   6.083   3.132   5.463
 7156SOL    HW122367   6.051   3.197   5.396
 7156SOL    HW222368   6.061   3.039   5.433
 7157SOL     OW22369   6.670   4.171   5.866
 7157SOL    HW122370   6.694   4.104   5.796
 7157SOL    HW222371   6.693   4.135   5.956
 7158SOL     OW22372   4.593   0.073   4.101
 7158SOL    HW122373   4.504   0.117   4.085
 7158SOL    HW222374   4.663   0.119   4.047
 7159SOL     OW22375   7.021   6.344   3.322
 7159SOL    HW122376   6.956   6.407   3.280
 7159SOL    HW222377   6.993   6.250   3.302
 7160SOL     OW22378   6.657   0.181   3.572
 7160SOL    HW122379   6.622   0.234   3.649
 7160SOL    HW222380   6.743   0.136   3.598
 7161SOL     OW22381   3.926   3.295   3.137
 7161SOL    HW122382   3.998   3.362   3.122
 7161SOL    HW222383   3.942   3.248   3.224
 7162SOL     OW22384   0.845   5.745   1.639
 7162SOL    HW122385   0.870   5.831   1.594
 7162SOL    HW222386   0.898   5.734   1.723
 7163SOL     OW22387   0.063   0.824   1.349
 7163SOL    HW122388   0.043   0.904   1.292
 7163SOL    HW222389   7.013   0.811   1.416
 7164SOL     OW22390   2.177   1.269   6.520
 7164SOL    HW122391   2.183   1.351   6.464
 7164SOL    HW222392   2.235   1.197   6.481
 7165SOL     OW22393   6.173   1.717   0.602
 7165SOL    HW122394   6.105   1.662   0.650
 7165SOL    HW222395   6.176   1.809   0.642
 7166SOL     OW22396   6.881   5.657   5.868
 7166SOL    HW122397   6.863   5.746   5.825
 7166SOL    HW222398   6.930   5.672   5.954
 7167SOL     OW22399   6.287   2.778   5.016
 7167SOL    HW122400   6.330   2.694   5.051
 7167SOL    HW222401   6.307   2.787   4.918
 7168SOL     OW22402   2.019   0.951   2.014
 7168SOL    HW122403   2.034   0.918   1.921
 7168SOL    HW222404   2.076   0.899   2.077
 7169SOL     OW22405   2.196   3.904   6.072
 7169SOL    HW122406   2.268   3.965   6.037
 7169SOL    HW222407   2.115   3.913   6.015
 7170SOL     OW22408   3.855   1.549   0.764
 7170SOL    HW122409   3.814   1.462   0.736
 7170SOL    HW222410   3.857   1.554   0.863
 7171SOL     OW22411   0.033   3.847   0.741
 7171SOL    HW122412   0.048   3.749   0.735
 7171SOL    HW222413   0.121   3.894   0.750
 7172SOL     OW22414   1.092   2.680   3.884
 7172SOL    HW122415   0.999   2.652   3.861
 7172SOL    HW222416   1.157   2.608   3.857
 7173SOL     OW22417   4.787   5.642   5.888
 7173SOL    HW122418   4.712   5.587   5.923
 7173SOL    HW222419   4.751   5.724   5.844
 7174SOL     OW22420   6.520   4.422   2.015
 7174SOL    HW122421   6.512   4.509   2.062
 7174SOL    HW222422   6.429   4.388   1.990
 7175SOL     OW22423   7.009   3.292   6.026
 7175SOL    HW122424   6.931   3.281   6.087
 7175SOL    HW222425   0.028   3.382   6.041
 7176SOL     OW22426   0.679   0.425   5.461
 7176SOL    HW122427   0.745   0.499   5.472
 7176SOL    HW222428   0.637   0.432   5.370
 7177SOL     OW22429   1.364   6.002   4.078
 7177SOL    HW122430   1.382   5.989   3.981
 7177SOL    HW222431   1.398   5.924   4.130
 7178SOL     OW22432   2.121   6.546   4.839
 7178SOL    HW122433   2.107   6.636   4.799
 7178SOL    HW222434   2.037   6.492   4.832
 7179SOL     OW22435   3.606   5.500   6.218
 7179SOL    HW122436   3.620   5.586   6.267
 7179SOL    HW222437   3.653   5.503   6.130
 7180SOL     OW22438   1.881   3.069   1.291
 7180SOL    HW122439   1.902   3.165   1.311
 7180SOL    HW222440   1.828   3.031   1.367
 7181SOL     OW22441   2.620   1.614   6.190
 7181SOL    HW122442   2.640   1.526   6.232
 7181SOL    HW222443   2.573   1.599   6.103
 7182SOL     OW22444   1.837   1.503   4.057
 7182SOL    HW122445   1.899   1.546   3.992
 7182SOL    HW222446   1.888   1.469   4.136
 7183SOL     OW22447   0.822   6.490   1.727
 7183SOL    HW122448   0.891   6.547   1.772
 7183SOL    HW222449   0.813   6.518   1.631
 7184SOL     OW22450   6.588   0.262   4.049
 7184SOL    HW122451   6.498   0.221   4.059
 7184SOL    HW222452   6.646   0.233   4.125
 7185SOL     OW22453   4.403   0.918   4.640
 7185SOL    HW122454   4.441   0.929   4.732
 7185SOL    HW222455   4.312   0.958   4.636
 7186SOL     OW22456   6.743   0.531   6.853
 7186SOL    HW122457   6.714   0.585   6.774
 7186SOL    HW222458   6.722   0.435   6.838
 7187SOL     OW22459   3.100   3.049   3.842
 7187SOL    HW122460   3.181   3.101   3.871
 7187SOL    HW222461   3.052   3.015   3.922
 7188SOL     OW22462   4.217   4.324   7.021
 7188SOL    HW122463   4.185   4.285   0.085
 7188SOL    HW222464   4.163   4.405   6.999
 7189SOL     OW22465   6.467   2.611   5.894
 7189SOL    HW122466   6.389   2.610   5.956
 7189SOL    HW222467   6.476   2.521   5.850
 7190SOL     OW22468   5.887   4.902   0.537
 7190SOL    HW122469   5.966   4.901   0.476
 7190SOL    HW222470   5.832   4.983   0.518
 7191SOL     OW22471   6.378   4.940   3.875
 7191SOL    HW122472   6.344   5.008   3.810
 7191SOL    HW222473   6.394   4.854   3.827
 7192SOL     OW22474   2.905   4.398   6.629
 7192SOL    HW122475   2.946   4.426   6.543
 7192SOL    HW222476   2.935   4.305   6.651
 7193SOL     OW22477   3.070   1.948   2.732
 7193SOL    HW122478   3.158   1.934   2.778
 7193SOL    HW222479   3.078   2.025   2.669
 7194SOL     OW22480   3.153   2.727   6.319
 7194SOL    HW122481   3.194   2.691   6.235
 7194SOL    HW222482   3.074   2.784   6.295
 7195SOL     OW22483   0.924   5.240   4.986
 7195SOL    HW122484   0.847   5.190   5.026
 7195SOL    HW222485   0.989   5.263   5.058
 7196SOL     OW22486   3.310   3.998   2.113
 7196SOL    HW122487   3.283   3.992   2.017
 7196SOL    HW222488   3.239   3.958   2.171
 7197SOL     OW22489   3.150   4.721   6.530
 7197SOL    HW122490   3.235   4.769   6.509
 7197SOL    HW222491   3.116   4.750   6.620
 7198SOL     OW22492   0.705   0.668   2.343
 7198SOL    HW122493   0.751   0.722   2.273
 7198SOL    HW222494   0.635   0.723   2.388
 7199SOL     OW22495   6.119   1.359   2.425
 7199SOL    HW122496   6.077   1.285   2.478
 7199SOL    HW222497   6.072   1.369   2.338
 7200SOL     OW22498   0.932   2.456   0.639
 7200SOL    HW122499   0.912   2.385   0.571
 7200SOL    HW222500   0.849   2.508   0.659
 7201SOL     OW22501   5.395   5.433   4.033
 7201SOL    HW122502   5.441   5.373   4.097
 7201SOL    HW222503   5.454   5.511   4.011
 7202SOL     OW22504   4.829   0.691   6.071
 7202SOL    HW122505   4.916   0.737   6.086
 7202SOL    HW222506   4.761   0.723   6.137
 7203SOL     OW22507   0.376   1.175   1.116
 7203SOL    HW122508   0.439   1.233   1.168
 7203SOL    HW222509   0.429   1.108   1.064
 7204SOL     OW22510   6.212   0.534   2.215
 7204SOL    HW122511   6.157   0.543   2.132
 7204SOL    HW222512   6.307   0.557   2.195
 7205SOL     OW22513   2.773   2.088   3.659
 7205SOL    HW122514   2.681   2.092   3.698
 7205SOL    HW222515   2.834   2.041   3.724
 7206SOL     OW22516   2.060   3.394   0.320
 7206SOL    HW122517   2.021   3.405   0.412
 7206SOL    HW222518   1.987   3.371   0.256
 7207SOL     OW22519   1.752   1.067   3.561
 7207SOL    HW122520   1.728   1.114   3.476
 7207SOL    HW222521   1.685   0.995   3.578
 7208SOL     OW22522   2.456   0.582   4.454
 7208SOL    HW122523   2.461   0.630   4.367
 7208SOL    HW222524   2.488   0.642   4.527
 7209SOL     OW22525   3.610   1.230   1.869
 7209SOL    HW122526   3.612   1.280   1.955
 7209SOL    HW222527   3.704   1.211   1.839
 7210SOL     OW22528   2.698   1.585   3.209
 7210SOL    HW122529   2.699   1.523   3.288
 7210SOL    HW222530   2.629   1.554   3.144
 7211SOL     OW22531   4.470   6.331   4.826
 7211SOL    HW122532   4.506   6.354   4.916
 7211SOL    HW222533   4.513   6.390   4.757
 7212SOL     OW22534   0.112   4.512   5.968
 7212SOL    HW122535   0.146   4.473   5.882
 7212SOL    HW222536   0.157   4.599   5.986
 7213SOL     OW22537   3.610   2.185   6.795
 7213SOL    HW122538   3.567   2.202   6.884
 7213SOL    HW222539   3.591   2.090   6.767
 7214SOL     OW22540   6.796   0.383   6.313
 7214SOL    HW122541   6.793   0.481   6.331
 7214SOL    HW222542   6.834   0.366   6.223
 7215SOL     OW22543   6.038   2.355   2.647
 7215SOL    HW122544   5.960   2.368   2.585
 7215SOL    HW222545   6.094   2.279   2.615
 7216SOL     OW22546   3.649   6.535   3.522
 7216SOL    HW122547   3.553   6.511   3.537
 7216SOL    HW222548   3.703   6.513   3.603
 7217SOL     OW22549   1.447   2.969   2.952
 7217SOL    HW122550   1.444   3.011   3.043
 7217SOL    HW222551   1.519   3.011   2.898
 7218SOL     OW22552   6.277   3.259   4.568
 7218SOL    HW122553   6.289   3.357   4.582
 7218SOL    HW222554   6.255   3.214   4.655
 7219SOL     OW22555   3.552   6.055   2.726
 7219SOL    HW122556   3.503   6.095   2.649
 7219SOL    HW222557   3.646   6.033   2.698
 7220SOL     OW22558   6.479   4.852   4.093
 7220SOL    HW122559   6.410   4.809   4.152
 7220SOL    HW222560   6.435   4.893   4.013
 7221SOL     OW22561   3.639   6.138   3.814
 7221SOL    HW122562   3.719   6.147   3.874
 7221SOL    HW222563   3.580   6.064   3.847
 7222SOL     OW22564   6.957   5.740   4.756
 7222SOL    HW122565   7.017   5.717   4.679
 7222SOL    HW222566   6.893   5.811   4.728
 7223SOL     OW22567   6.674   4.060   1.674
 7223SOL    HW122568   6.650   4.030   1.581
 7223SOL    HW222569   6.689   3.980   1.732
 7224SOL     OW22570   3.875   1.784   2.452
 7224SOL    HW122571   3.899   1.881   2.457
 7224SOL    HW222572   3.958   1.729   2.456
 7225SOL     OW22573   1.746   6.214   0.826
 7225SOL    HW122574   1.724   6.255   0.738
 7225SOL    HW222575   1.703   6.124   0.832
 7226SOL     OW22576   6.456   6.467   0.718
 7226SOL    HW122577   6.518   6.546   0.721
 7226SOL    HW222578   6.363   6.497   0.736
 7227SOL     OW22579   2.176   0.667   2.524
 7227SOL    HW122580   2.205   0.661   2.619
 7227SOL    HW222581   2.250   0.635   2.465
 7228SOL     OW22582   7.017   2.954   2.129
 7228SOL    HW122583   0.029   3.038   2.170
 7228SOL    HW222584   6.918   2.962   2.116
 7229SOL     OW22585   6.614   0.996   5.525
 7229SOL    HW122586   6.606   0.930   5.450
 7229SOL    HW222587   6.654   0.950   5.605
 7230SOL     OW22588   1.666   5.558   4.343
 7230SOL    HW122589   1.576   5.544   4.384
 7230SOL    HW222590   1.734   5.572   4.416
 7231SOL     OW22591   4.349   2.167   6.373
 7231SOL    HW122592   4.366   2.256   6.414
 7231SOL    HW222593   4.350   2.176   6.273
 7232SOL     OW22594   5.259   0.132   3.358
 7232SOL    HW122595   5.190   0.062   3.372
 7232SOL    HW222596   5.215   0.220   3.342
 7233SOL     OW22597   0.072   1.166   4.921
 7233SOL    HW122598   0.064   1.230   4.997
 7233SOL    HW222599   0.117   1.082   4.951
 7234SOL     OW22600   4.951   4.072   3.315
 7234SOL    HW122601   4.878   4.073   3.248
 7234SOL    HW222602   4.996   4.161   3.318
 7235SOL     OW22603   6.995   5.338   1.610
 7235SOL    HW122604   6.922   5.407   1.610
 7235SOL    HW222605   0.050   5.373   1.559
 7236SOL     OW22606   1.334   3.291   2.701
 7236SOL    HW122607   1.349   3.390   2.706
 7236SOL    HW222608   1.333   3.262   2.606
 7237SOL     OW22609   5.583   1.049   0.237
 7237SOL    HW122610   5.561   0.961   0.281
 7237SOL    HW222611   5.579   1.038   0.138
 7238SOL     OW22612   3.779   3.036   6.915
 7238SOL    HW122613   3.717   2.989   6.978
 7238SOL    HW222614   3.852   2.974   6.887
 7239SOL     OW22615   0.371   2.444   2.206
 7239SOL    HW122616   0.413   2.363   2.165
 7239SOL    HW222617   0.401   2.452   2.301
 7240SOL     OW22618   6.537   2.007   6.793
 7240SOL    HW122619   6.528   2.047   6.702
 7240SOL    HW222620   6.604   1.932   6.789
 7241SOL     OW22621   2.214   1.393   1.199
 7241SOL    HW122622   2.141   1.409   1.133
 7241SOL    HW222623   2.256   1.480   1.224
 7242SOL     OW22624   6.582   5.053   4.672
 7242SOL    HW122625   6.614   5.143   4.642
 7242SOL    HW222626   6.608   4.984   4.605
 7243SOL     OW22627   5.867   4.368   6.169
 7243SOL    HW122628   5.886   4.337   6.262
 7243SOL    HW222629   5.931   4.440   6.144
 7244SOL     OW22630   0.629   5.610   6.882
 7244SOL    HW122631   0.567   5.667   6.828
 7244SOL    HW222632   0.716   5.600   6.834
 7245SOL     OW22633   0.782   3.239   0.349
 7245SOL    HW122634   0.762   3.306   0.277
 7245SOL    HW222635   0.859   3.272   0.403
 7246SOL     OW22636   3.517   6.624   3.933
 7246SOL    HW122637   3.477   6.537   3.962
 7246SOL    HW222638   3.597   6.606   3.876
 7247SOL     OW22639   3.059   3.848   5.348
 7247SOL    HW122640   2.970   3.840   5.304
 7247SOL    HW222641   3.096   3.756   5.364
 7248SOL     OW22642   3.465   1.237   4.955
 7248SOL    HW122643   3.378   1.205   4.919
 7248SOL    HW222644   3.506   1.302   4.891
 7249SOL     OW22645   3.926   5.350   2.401
 7249SOL    HW122646   3.852   5.382   2.341
 7249SOL    HW222647   3.893   5.345   2.495
 7250SOL     OW22648   5.122   5.382   5.799
 7250SOL    HW122649   5.193   5.416   5.860
 7250SOL    HW222650   5.154   5.389   5.704
 7251SOL     OW22651   0.092   5.661   5.635
 7251SOL    HW122652   0.056   5.682   5.544
 7251SOL    HW222653   0.024   5.686   5.705
 7252SOL     OW22654   3.437   4.132   2.316
 7252SOL    HW122655   3.420   4.085   2.229
 7252SOL    HW222656   3.431   4.231   2.302
 7253SOL     OW22657   1.563   5.722   5.218
 7253SOL    HW122658   1.577   5.821   5.216
 7253SOL    HW222659   1.645   5.676   5.184
 7254SOL     OW22660   5.335   3.595   3.770
 7254SOL    HW122661   5.290   3.509   3.745
 7254SOL    HW222662   5.404   3.618   3.701
 7255SOL     OW22663   5.013   3.342   6.433
 7255SOL    HW122664   4.928   3.395   6.435
 7255SOL    HW222665   5.091   3.402   6.450
 7256SOL     OW22666   3.301   0.129   5.715
 7256SOL    HW122667   3.308   0.180   5.630
 7256SOL    HW222668   3.231   0.058   5.706
 7257SOL     OW22669   0.813   1.855   4.402
 7257SOL    HW122670   0.753   1.775   4.400
 7257SOL    HW222671   0.757   1.938   4.403
 7258SOL     OW22672   6.105   2.331   3.298
 7258SOL    HW122673   6.078   2.277   3.378
 7258SOL    HW222674   6.076   2.284   3.215
 7259SOL     OW22675   1.336   4.449   2.938
 7259SOL    HW122676   1.357   4.513   2.864
 7259SOL    HW222677   1.396   4.467   3.016
 7260SOL     OW22678   5.837   3.291   1.386
 7260SOL    HW122679   5.774   3.224   1.346
 7260SOL    HW222680   5.791   3.338   1.462
 7261SOL     OW22681   6.872   4.091   6.595
 7261SOL    HW122682   6.883   4.148   6.677
 7261SOL    HW222683   6.776   4.065   6.586
 7262SOL     OW22684   6.568   1.497   5.585
 7262SOL    HW122685   6.473   1.498   5.618
 7262SOL    HW222686   6.623   1.561   5.639
 7263SOL     OW22687   0.079   5.117   0.036
 7263SOL    HW122688   0.101   5.025   0.068
 7263SOL    HW222689   0.026   5.165   0.106
 7264SOL     OW22690   6.327   1.436   0.781
 7264SOL    HW122691   6.232   1.446   0.750
 7264SOL    HW222692   6.340   1.490   0.864
 7265SOL     OW22693   4.362   5.731   5.768
 7265SOL    HW122694   4.413   5.804   5.723
 7265SOL    HW222695   4.275   5.717   5.722
 7266SOL     OW22696   0.104   0.864   3.699
 7266SOL    HW122697   0.114   0.830   3.605
 7266SOL    HW222698   0.131   0.792   3.763
 7267SOL     OW22699   6.333   5.414   4.400
 7267SOL    HW122700   6.264   5.408   4.328
 7267SOL    HW222701   6.304   5.361   4.480
 7268SOL     OW22702   6.172   6.213   4.178
 7268SOL    HW122703   6.087   6.206   4.126
 7268SOL    HW222704   6.185   6.308   4.209
 7269SOL     OW22705   2.427   4.554   4.953
 7269SOL    HW122706   2.409   4.473   5.008
 7269SOL    HW222707   2.514   4.595   4.980
 7270SOL     OW22708   0.629   1.649   4.428
 7270SOL    HW122709   0.662   1.554   4.430
 7270SOL    HW222710   0.535   1.652   4.461
 7271SOL     OW22711   0.770   4.122   3.828
 7271SOL    HW122712   0.723   4.193   3.775
 7271SOL    HW222713   0.820   4.164   3.903
 7272SOL     OW22714   5.984   5.343   2.947
 7272SOL    HW122715   6.069   5.296   2.923
 7272SOL    HW222716   5.910   5.276   2.954
 7273SOL     OW22717   0.013   2.531   5.544
 7273SOL    HW122718   6.947   2.544   5.588
 7273SOL    HW222719   0.023   2.436   5.516
 7274SOL     OW22720   0.420   4.349   7.014
 7274SOL    HW122721   0.404   4.254   6.986
 7274SOL    HW222722   0.341   4.384   0.041
 7275SOL     OW22723   6.514   0.037   2.761
 7275SOL    HW122724   6.446   6.987   2.763
 7275SOL    HW222725   6.597   0.003   2.716
 7276SOL     OW22726   4.749   6.789   3.853
 7276SOL    HW122727   4.693   6.780   3.935
 7276SOL    HW222728   4.690   6.793   3.772
 7277SOL     OW22729   4.399   0.535   5.953
 7277SOL    HW122730   4.480   0.589   5.976
 7277SOL    HW222731   4.339   0.589   5.894
 7278SOL     OW22732   2.943   3.690   2.701
 7278SOL    HW122733   2.885   3.721   2.776
 7278SOL    HW222734   3.005   3.619   2.734
 7279SOL     OW22735   3.704   6.310   6.094
 7279SOL    HW122736   3.651   6.344   6.016
 7279SOL    HW222737   3.681   6.363   6.176
 7280SOL     OW22738   4.805   1.382   6.003
 7280SOL    HW122739   4.757   1.348   6.084
 7280SOL    HW222740   4.903   1.361   6.011
 7281SOL     OW22741   4.402   1.279   6.959
 7281SOL    HW122742   4.394   1.360   7.017
 7281SOL    HW222743   4.461   1.299   6.881
 7282SOL     OW22744   6.490   5.518   1.870
 7282SOL    HW122745   6.567   5.473   1.825
 7282SOL    HW222746   6.502   5.513   1.969
 7283SOL     OW22747   1.983   0.781   3.989
 7283SOL    HW122748   2.081   0.773   4.005
 7283SOL    HW222749   1.967   0.841   3.911
 7284SOL     OW22750   7.021   4.063   5.279
 7284SOL    HW122751   7.015   3.973   5.322
 7284SOL    HW222752   6.941   4.078   5.221
 7285SOL     OW22753   5.481   5.557   2.110
 7285SOL    HW122754   5.575   5.576   2.083
 7285SOL    HW222755   5.434   5.644   2.128
 7286SOL     OW22756   2.120   2.965   1.187
 7286SOL    HW122757   2.163   3.048   1.152
 7286SOL    HW222758   2.023   2.984   1.206
 7287SOL     OW22759   6.414   1.029   6.364
 7287SOL    HW122760   6.395   1.102   6.430
 7287SOL    HW222761   6.329   0.984   6.338
 7288SOL     OW22762   4.025   6.938   6.722
 7288SOL    HW122763   3.999   6.984   6.637
 7288SOL    HW222764   4.043   7.007   6.792
 7289SOL     OW22765   4.907   1.976   3.367
 7289SOL    HW122766   4.848   2.056   3.379
 7289SOL    HW222767   4.998   1.995   3.403
 7290SOL     OW22768   2.532   5.068   4.592
 7290SOL    HW122769   2.563   5.116   4.674
 7290SOL    HW222770   2.433   5.072   4.586
 7291SOL     OW22771   2.688   6.064   1.680
 7291SOL    HW122772   2.687   5.964   1.674
 7291SOL    HW222773   2.609   6.101   1.630
 7292SOL     OW22774   2.370   6.582   3.826
 7292SOL    HW122775   2.273   6.558   3.829
 7292SOL    HW222776   2.424   6.503   3.857
 7293SOL     OW22777   1.633   2.095   5.308
 7293SOL    HW122778   1.533   2.085   5.304
 7293SOL    HW222779   1.656   2.187   5.339
 7294SOL     OW22780   2.987   4.653   0.625
 7294SOL    HW122781   2.971   4.575   0.685
 7294SOL    HW222782   3.012   4.620   0.534
 7295SOL     OW22783   6.622   0.588   0.953
 7295SOL    HW122784   6.686   0.522   0.914
 7295SOL    HW222785   6.671   0.670   0.983
 7296SOL     OW22786   3.084   4.704   0.962
 7296SOL    HW122787   2.991   4.670   0.943
 7296SOL    HW222788   3.079   4.778   1.029
 7297SOL     OW22789   4.848   6.728   1.642
 7297SOL    HW122790   4.804   6.753   1.728
 7297SOL    HW222791   4.805   6.645   1.605
 7298SOL     OW22792   6.035   3.784   4.417
 7298SOL    HW122793   6.018   3.861   4.356
 7298SOL    HW222794   5.999   3.700   4.376
 7299SOL     OW22795   6.357   3.396   6.853
 7299SOL    HW122796   6.343   3.299   6.831
 7299SOL    HW222797   6.274   3.447   6.831
 7300SOL     OW22798   5.194   5.320   1.035
 7300SOL    HW122799   5.258   5.367   0.973
 7300SOL    HW222800   5.214   5.222   1.036
 7301SOL     OW22801   6.878   6.972   5.976
 7301SOL    HW122802   6.909   6.877   5.970
 7301SOL    HW222803   6.785   6.975   6.013
 7302SOL     OW22804   5.809   0.845   6.499
 7302SOL    HW122805   5.834   0.757   6.458
 7302SOL    HW222806   5.891   0.902   6.508
 7303SOL     OW22807   3.210   0.512   0.050
 7303SOL    HW122808   3.189   0.414   0.059
 7303SOL    HW222809   3.177   0.545   6.984
 7304SOL     OW22810   4.557   3.967   5.958
 7304SOL    HW122811   4.560   4.028   5.879
 7304SOL    HW222812   4.552   4.021   6.042
 7305SOL     OW22813   4.822   1.302   0.732
 7305SOL    HW122814   4.922   1.300   0.734
 7305SOL    HW222815   4.791   1.347   0.649
 7306SOL     OW22816   4.543   5.412   1.714
 7306SOL    HW122817   4.513   5.399   1.809
 7306SOL    HW222818   4.469   5.454   1.661
 7307SOL     OW22819   4.099   6.597   2.001
 7307SOL    HW122820   4.147   6.657   1.937
 7307SOL    HW222821   4.004   6.585   1.972
 7308SOL     OW22822   6.640   3.053   4.749
 7308SOL    HW122823   6.602   3.105   4.825
 7308SOL    HW222824   6.591   3.076   4.665
 7309SOL     OW22825   5.033   6.717   1.297
 7309SOL    HW122826   5.054   6.650   1.368
 7309SOL    HW222827   4.980   6.792   1.335
 7310SOL     OW22828   3.165   5.202   1.464
 7310SOL    HW122829   3.107   5.226   1.541
 7310SOL    HW222830   3.222   5.281   1.439
 7311SOL     OW22831   2.691   2.165   1.967
 7311SOL    HW122832   2.767   2.211   2.012
 7311SOL    HW222833   2.680   2.201   1.874
 7312SOL     OW22834   6.627   1.644   5.815
 7312SOL    HW122835   6.645   1.735   5.777
 7312SOL    HW222836   6.656   1.640   5.910
 7313SOL     OW22837   3.931   2.520   6.540
 7313SOL    HW122838   3.956   2.492   6.633
 7313SOL    HW222839   3.840   2.562   6.540
 7314SOL     OW22840   0.211   3.397   4.881
 7314SOL    HW122841   0.123   3.443   4.894
 7314SOL    HW222842   0.231   3.339   4.960
 7315SOL     OW22843   6.595   6.992   3.798
 7315SOL    HW122844   6.622   0.035   3.727
 7315SOL    HW222845   6.567   6.906   3.755
 7316SOL     OW22846   3.640   3.557   5.732
 7316SOL    HW122847   3.541   3.572   5.734
 7316SOL    HW222848   3.659   3.460   5.718
 7317SOL     OW22849   3.350   0.969   3.322
 7317SOL    HW122850   3.258   0.956   3.358
 7317SOL    HW222851   3.390   0.880   3.299
 7318SOL     OW22852   1.281   2.453   1.214
 7318SOL    HW122853   1.241   2.525   1.271
 7318SOL    HW222854   1.380   2.461   1.215
 7319SOL     OW22855   5.968   4.385   6.712
 7319SOL    HW122856   5.969   4.427   6.622
 7319SOL    HW222857   6.048   4.416   6.765
 7320SOL     OW22858   0.158   3.275   2.426
 7320SOL    HW122859   0.236   3.325   2.465
 7320SOL    HW222860   0.114   3.221   2.497
 7321SOL     OW22861   2.337   1.359   4.492
 7321SOL    HW122862   2.352   1.333   4.397
 7321SOL    HW222863   2.273   1.436   4.496
 7322SOL     OW22864   0.681   4.172   2.979
 7322SOL    HW122865   0.653   4.128   2.893
 7322SOL    HW222866   0.732   4.256   2.958
 7323SOL     OW22867   1.928   2.640   3.661
 7323SOL    HW122868   1.926   2.542   3.682
 7323SOL    HW222869   1.870   2.689   3.727
 7324SOL     OW22870   6.442   0.628   3.158
 7324SOL    HW122871   6.485   0.642   3.248
 7324SOL    HW222872   6.485   0.688   3.091
 7325SOL     OW22873   3.423   6.655   6.449
 7325SOL    HW122874   3.351   6.642   6.517
 7325SOL    HW222875   3.508   6.682   6.495
 7326SOL     OW22876   2.673   6.725   5.762
 7326SOL    HW122877   2.656   6.817   5.726
 7326SOL    HW222878   2.708   6.667   5.689
 7327SOL     OW22879   1.510   2.765   6.395
 7327SOL    HW122880   1.461   2.849   6.371
 7327SOL    HW222881   1.590   2.787   6.451
 7328SOL     OW22882   2.218   6.992   6.498
 7328SOL    HW122883   2.283   6.961   6.567
 7328SOL    HW222884   2.157   6.916   6.474
 7329SOL     OW22885   3.811   3.319   1.133
 7329SOL    HW122886   3.871   3.389   1.094
 7329SOL    HW222887   3.867   3.251   1.181
 7330SOL     OW22888   3.696   1.202   6.797
 7330SOL    HW122889   3.604   1.176   6.768
 7330SOL    HW222890   3.743   1.122   6.835
 7331SOL     OW22891   4.976   0.761   2.513
 7331SOL    HW122892   4.904   0.754   2.583
 7331SOL    HW222893   5.063   0.731   2.551
 7332SOL     OW22894   3.362   5.554   0.536
 7332SOL    HW122895   3.421   5.475   0.555
 7332SOL    HW222896   3.312   5.578   0.619
 7333SOL     OW22897   1.079   4.801   2.834
 7333SOL    HW122898   1.106   4.745   2.912
 7333SOL    HW222899   1.071   4.743   2.753
 7334SOL     OW22900   3.819   6.232   5.114
 7334SOL    HW122901   3.758   6.184   5.052
 7334SOL    HW222902   3.870   6.166   5.169
 7335SOL     OW22903   2.112   1.933   2.620
 7335SOL    HW122904   2.113   2.033   2.621
 7335SOL    HW222905   2.037   1.900   2.677
 7336SOL     OW22906   2.371   6.018   4.195
 7336SOL    HW122907   2.366   5.974   4.285
 7336SOL    HW222908   2.386   6.116   4.207
 7337SOL     OW22909   0.040   3.215   2.181
 7337SOL    HW122910   0.092   3.251   2.258
 7337SOL    HW222911   6.972   3.256   2.181
 7338SOL     OW22912   6.779   2.097   0.986
 7338SOL    HW122913   6.755   2.143   1.072
 7338SOL    HW222914   6.845   2.024   1.004
 7339SOL     OW22915   6.618   5.655   4.731
 7339SOL    HW122916   6.559   5.684   4.655
 7339SOL    HW222917   6.598   5.560   4.755
 7340SOL     OW22918   1.959   6.783   0.060
 7340SOL    HW122919   2.023   6.792   0.136
 7340SOL    HW222920   1.902   6.702   0.073
 7341SOL     OW22921   6.135   2.230   6.563
 7341SOL    HW122922   6.227   2.211   6.530
 7341SOL    HW222923   6.137   2.244   6.662
 7342SOL     OW22924   0.142   7.000   2.567
 7342SOL    HW122925   0.121   0.008   2.474
 7342SOL    HW222926   0.079   0.018   2.632
 7343SOL     OW22927   5.365   3.565   0.660
 7343SOL    HW122928   5.411   3.654   0.656
 7343SOL    HW222929   5.369   3.522   0.570
 7344SOL     OW22930   1.359   6.002   6.364
 7344SOL    HW122931   1.381   6.099   6.363
 7344SOL    HW222932   1.441   5.949   6.386
 7345SOL     OW22933   3.551   4.754   5.751
 7345SOL    HW122934   3.566   4.729   5.655
 7345SOL    HW222935   3.559   4.672   5.808
 7346SOL     OW22936   4.896   5.318   3.167
 7346SOL    HW122937   4.896   5.417   3.152
 7346SOL    HW222938   4.841   5.274   3.096
 7347SOL     OW22939   5.937   2.476   6.226
 7347SOL    HW122940   5.992   2.491   6.309
 7347SOL    HW222941   5.912   2.564   6.187
 7348SOL     OW22942   0.909   4.564   2.331
 7348SOL    HW122943   0.862   4.639   2.376
 7348SOL    HW222944   0.842   4.505   2.285
 7349SOL     OW22945   3.801   1.663   1.436
 7349SOL    HW122946   3.733   1.705   1.377
 7349SOL    HW222947   3.849   1.591   1.385
 7350SOL     OW22948   3.050   0.417   5.440
 7350SOL    HW122949   3.044   0.490   5.509
 7350SOL    HW222950   3.052   0.458   5.349
 7351SOL     OW22951   3.635   4.990   4.105
 7351SOL    HW122952   3.645   5.088   4.085
 7351SOL    HW222953   3.578   4.978   4.185
 7352SOL     OW22954   6.957   2.542   3.434
 7352SOL    HW122955   0.009   2.593   3.392
 7352SOL    HW222956   6.882   2.604   3.455
 7353SOL     OW22957   6.306   0.454   6.663
 7353SOL    HW122958   6.320   0.520   6.589
 7353SOL    HW222959   6.305   0.501   6.751
 7354SOL     OW22960   1.039   1.100   2.720
 7354SOL    HW122961   1.118   1.080   2.662
 7354SOL    HW222962   1.056   1.183   2.773
 7355SOL     OW22963   1.014   2.187   6.909
 7355SOL    HW122964   1.045   2.194   7.003
 7355SOL    HW222965   0.935   2.247   6.895
 7356SOL     OW22966   4.326   3.815   5.958
 7356SOL    HW122967   4.276   3.795   5.873
 7356SOL    HW222968   4.407   3.870   5.936
 7357SOL     OW22969   5.201   6.259   2.428
 7357SOL    HW122970   5.176   6.304   2.513
 7357SOL    HW222971   5.260   6.319   2.374
 7358SOL     OW22972   5.235   1.403   3.427
 7358SOL    HW122973   5.163   1.335   3.438
 7358SOL    HW222974   5.195   1.489   3.395
 7359SOL     OW22975   4.945   0.181   7.015
 7359SOL    HW122976   4.855   0.223   7.002
 7359SOL    HW222977   4.947   0.092   6.970
 7360SOL     OW22978   2.879   3.334   5.172
 7360SOL    HW122979   2.873   3.269   5.247
 7360SOL    HW222980   2.915   3.288   5.091
 7361SOL     OW22981   5.194   0.476   2.802
 7361SOL    HW122982   5.224   0.510   2.891
 7361SOL    HW222983   5.242   0.391   2.781
 7362SOL     OW22984   3.736   5.235   6.787
 7362SOL    HW122985   3.669   5.296   6.827
 7362SOL    HW222986   3.798   5.287   6.728
 7363SOL     OW22987   3.852   6.922   1.650
 7363SOL    HW122988   3.792   6.989   1.606
 7363SOL    HW222989   3.923   6.894   1.586
 7364SOL     OW22990   5.320   0.139   1.698
 7364SOL    HW122991   5.308   0.231   1.737
 7364SOL    HW222992   5.316   0.144   1.599
 7365SOL     OW22993   5.667   4.927   1.895
 7365SOL    HW122994   5.614   5.003   1.857
 7365SOL    HW222995   5.665   4.850   1.832
 7366SOL     OW22996   2.059   1.393   4.304
 7366SOL    HW122997   2.104   1.377   4.217
 7366SOL    HW222998   2.029   1.305   4.343
 7367SOL     OW22999   4.477   0.611   6.484
 7367SOL    HW123000   4.501   0.633   6.579
 7367SOL    HW223001   4.469   0.695   6.431
 7368SOL     OW23002   4.104   3.514   3.136
 7368SOL    HW123003   4.087   3.606   3.171
 7368SOL    HW223004   4.099   3.515   3.036
 7369SOL     OW23005   5.996   2.553   1.242
 7369SOL    HW123006   5.934   2.484   1.204
 7369SOL    HW223007   6.078   2.508   1.278
 7370SOL     OW23008   2.090   1.838   4.376
 7370SOL    HW123009   2.001   1.881   4.358
 7370SOL    HW223010   2.138   1.891   4.447
 7371SOL     OW23011   4.241   0.672   3.916
 7371SOL    HW123012   4.271   0.754   3.868
 7371SOL    HW223013   4.173   0.697   3.985
 7372SOL     OW23014   4.978   0.594   4.875
 7372SOL    HW123015   5.000   0.675   4.929
 7372SOL    HW223016   5.044   0.585   4.800
 7373SOL     OW23017   5.614   3.368   4.541
 7373SOL    HW123018   5.709   3.386   4.515
 7373SOL    HW223019   5.607   3.366   4.640
 7374SOL     OW23020   7.012   1.931   5.722
 7374SOL    HW123021   6.973   1.895   5.807
 7374SOL    HW223022   0.022   2.024   5.738
 7375SOL     OW23023   2.082   3.208   2.259
 7375SOL    HW123024   2.115   3.219   2.165
 7375SOL    HW223025   2.100   3.115   2.290
 7376SOL     OW23026   0.258   3.990   0.364
 7376SOL    HW123027   0.271   3.989   0.265
 7376SOL    HW223028   0.185   4.054   0.387
 7377SOL     OW23029   3.015   5.871   0.281
 7377SOL    HW123030   2.937   5.853   0.221
 7377SOL    HW223031   3.082   5.797   0.274
 7378SOL     OW23032   1.263   6.228   4.185
 7378SOL    HW123033   1.296   6.159   4.122
 7378SOL    HW223034   1.196   6.287   4.139
 7379SOL     OW23035   3.822   0.873   0.972
 7379SOL    HW123036   3.780   0.849   0.885
 7379SOL    HW223037   3.922   0.877   0.960
 7380SOL     OW23038   5.055   3.255   2.501
 7380SOL    HW123039   5.004   3.204   2.571
 7380SOL    HW223040   5.066   3.198   2.420
 7381SOL     OW23041   3.862   1.114   0.577
 7381SOL    HW123042   3.847   1.081   0.484
 7381SOL    HW223043   3.934   1.060   0.621
 7382SOL     OW23044   6.694   1.108   6.248
 7382SOL    HW123045   6.720   1.196   6.288
 7382SOL    HW223046   6.633   1.060   6.311
 7383SOL     OW23047   2.242   6.721   0.574
 7383SOL    HW123048   2.220   6.643   0.632
 7383SOL    HW223049   2.294   6.788   0.627
 7384SOL     OW23050   0.362   0.235   0.943
 7384SOL    HW123051   0.431   0.193   1.002
 7384SOL    HW223052   0.327   0.318   0.986
 7385SOL     OW23053   5.971   4.518   2.862
 7385SOL    HW123054   5.953   4.557   2.952
 7385SOL    HW223055   5.906   4.444   2.844
 7386SOL     OW23056   6.102   3.907   0.637
 7386SOL    HW123057   6.092   3.858   0.723
 7386SOL    HW223058   6.105   4.006   0.655
 7387SOL     OW23059   6.433   5.687   5.527
 7387SOL    HW123060   6.491   5.735   5.593
 7387SOL    HW223061   6.459   5.714   5.435
 7388SOL     OW23062   2.187   5.801   2.551
 7388SOL    HW123063   2.114   5.825   2.615
 7388SOL    HW223064   2.274   5.837   2.586
 7389SOL     OW23065   5.695   3.433   0.497
 7389SOL    HW123066   5.746   3.348   0.510
 7389SOL    HW223067   5.602   3.412   0.468
 7390SOL     OW23068   2.265   1.939   2.876
 7390SOL    HW123069   2.305   2.000   2.808
 7390SOL    HW223070   2.255   1.847   2.837
 7391SOL     OW23071   3.737   3.299   3.573
 7391SOL    HW123072   3.814   3.240   3.552
 7391SOL    HW223073   3.767   3.394   3.575
 7392SOL     OW23074   3.221   6.131   6.713
 7392SOL    HW123075   3.310   6.096   6.741
 7392SOL    HW223076   3.148   6.076   6.753
 7393SOL     OW23077   5.228   5.515   4.312
 7393SOL    HW123078   5.244   5.607   4.350
 7393SOL    HW223079   5.214   5.522   4.214
 7394SOL     OW23080   2.371   1.992   5.846
 7394SOL    HW123081   2.332   2.062   5.907
 7394SOL    HW223082   2.320   1.991   5.760
 7395SOL     OW23083   2.727   5.445   0.777
 7395SOL    HW123084   2.646   5.425   0.722
 7395SOL    HW223085   2.703   5.510   0.849
 7396SOL     OW23086   2.592   5.409   1.908
 7396SOL    HW123087   2.513   5.462   1.940
 7396SOL    HW223088   2.560   5.334   1.850
 7397SOL     OW23089   5.368   4.029   3.877
 7397SOL    HW123090   5.305   4.103   3.903
 7397SOL    HW223091   5.461   4.053   3.905
 7398SOL     OW23092   2.384   4.367   2.728
 7398SOL    HW123093   2.287   4.349   2.741
 7398SOL    HW223094   2.430   4.283   2.699
 7399SOL     OW23095   5.096   2.279   5.038
 7399SOL    HW123096   5.079   2.356   5.101
 7399SOL    HW223097   5.125   2.199   5.091
 7400SOL     OW23098   5.538   2.937   5.797
 7400SOL    HW123099   5.588   2.958   5.713
 7400SOL    HW223100   5.548   2.840   5.817
 7401SOL     OW23101   1.372   2.715   3.967
 7401SOL    HW123102   1.307   2.764   3.910
 7401SOL    HW223103   1.457   2.768   3.973
 7402SOL     OW23104   3.511   6.219   5.290
 7402SOL    HW123105   3.534   6.273   5.371
 7402SOL    HW223106   3.457   6.140   5.317
 7403SOL     OW23107   1.245   3.610   4.646
 7403SOL    HW123108   1.203   3.527   4.683
 7403SOL    HW223109   1.175   3.679   4.630
 7404SOL     OW23110   3.166   3.912   0.745
 7404SOL    HW123111   3.128   3.821   0.732
 7404SOL    HW223112   3.093   3.976   0.769
 7405SOL     OW23113   3.503   6.245   4.817
 7405SOL    HW123114   3.516   6.336   4.854
 7405SOL    HW223115   3.422   6.203   4.859
 7406SOL     OW23116   0.913   1.190   4.616
 7406SOL    HW123117   0.940   1.286   4.616
 7406SOL    HW223118   0.975   1.138   4.675
 7407SOL     OW23119   0.836   5.754   5.630
 7407SOL    HW123120   0.790   5.740   5.717
 7407SOL    HW223121   0.768   5.765   5.557
 7408SOL     OW23122   3.331   4.408   5.366
 7408SOL    HW123123   3.362   4.488   5.315
 7408SOL    HW223124   3.234   4.391   5.345
 7409SOL     OW23125   6.340   3.716   0.593
 7409SOL    HW123126   6.425   3.754   0.629
 7409SOL    HW223127   6.279   3.790   0.565
 7410SOL     OW23128   0.258   0.287   1.249
 7410SOL    HW123129   0.335   0.344   1.274
 7410SOL    HW223130   0.188   0.291   1.320
 7411SOL     OW23131   1.710   2.104   4.993
 7411SOL    HW123132   1.662   2.035   4.939
 7411SOL    HW223133   1.704   2.081   5.090
 7412SOL     OW23134   4.583   6.716   6.769
 7412SOL    HW123135   4.575   6.617   6.776
 7412SOL    HW223136   4.659   6.740   6.708
 7413SOL     OW23137   4.276   6.899   3.171
 7413SOL    HW123138   4.339   6.836   3.126
 7413SOL    HW223139   4.191   6.851   3.194
 7414SOL     OW23140   2.712   2.063   4.202
 7414SOL    HW123141   2.758   2.152   4.200
 7414SOL    HW223142   2.766   1.997   4.149
 7415SOL     OW23143   3.840   6.466   6.403
 7415SOL    HW123144   3.836   6.367   6.392
 7415SOL    HW223145   3.884   6.489   6.490
 7416SOL     OW23146   0.800   0.913   2.234
 7416SOL    HW123147   0.792   0.927   2.333
 7416SOL    HW223148   0.793   1.000   2.187
 7417SOL     OW23149   0.569   1.207   3.778
 7417SOL    HW123150   0.575   1.107   3.778
 7417SOL    HW223151   0.543   1.239   3.688
 7418SOL     OW23152   1.947   3.953   5.946
 7418SOL    HW123153   1.874   3.940   6.014
 7418SOL    HW223154   1.928   3.897   5.866
 7419SOL     OW23155   6.969   3.472   3.853
 7419SOL    HW123156   6.880   3.479   3.806
 7419SOL    HW223157   7.016   3.560   3.846
 7420SOL     OW23158   6.562   6.873   1.576
 7420SOL    HW123159   6.480   6.817   1.586
 7420SOL    HW223160   6.602   6.857   1.485
 7421SOL     OW23161   4.917   4.035   1.748
 7421SOL    HW123162   4.920   4.057   1.650
 7421SOL    HW223163   4.867   4.105   1.797
 7422SOL     OW23164   5.111   1.958   2.980
 7422SOL    HW123165   5.167   1.905   2.916
 7422SOL    HW223166   5.082   1.899   3.056
 7423SOL     OW23167   5.516   1.816   6.198
 7423SOL    HW123168   5.489   1.813   6.294
 7423SOL    HW223169   5.609   1.852   6.190
 7424SOL     OW23170   1.064   1.801   3.941
 7424SOL    HW123171   1.030   1.825   4.032
 7424SOL    HW223172   0.996   1.744   3.894
 7425SOL     OW23173   5.914   0.545   0.504
 7425SOL    HW123174   5.816   0.552   0.491
 7425SOL    HW223175   5.960   0.621   0.457
 7426SOL     OW23176   3.861   3.489   6.191
 7426SOL    HW123177   3.795   3.443   6.252
 7426SOL    HW223178   3.811   3.537   6.119
 7427SOL     OW23179   2.819   1.316   4.021
 7427SOL    HW123180   2.837   1.236   4.078
 7427SOL    HW223181   2.828   1.399   4.076
 7428SOL     OW23182   4.612   6.167   5.382
 7428SOL    HW123183   4.591   6.263   5.361
 7428SOL    HW223184   4.649   6.160   5.474
 7429SOL     OW23185   1.507   6.642   2.548
 7429SOL    HW123186   1.542   6.733   2.571
 7429SOL    HW223187   1.407   6.641   2.557
 7430SOL     OW23188   6.665   5.186   2.724
 7430SOL    HW123189   6.739   5.134   2.682
 7430SOL    HW223190   6.645   5.267   2.670
 7431SOL     OW23191   1.652   1.365   3.708
 7431SOL    HW123192   1.740   1.327   3.680
 7431SOL    HW223193   1.607   1.302   3.771
 7432SOL     OW23194   2.241   0.047   3.225
 7432SOL    HW123195   2.321   7.017   3.251
 7432SOL    HW223196   2.199   0.086   3.308
 7433SOL     OW23197   2.844   0.119   6.469
 7433SOL    HW123198   2.856   0.103   6.370
 7433SOL    HW223199   2.856   0.032   6.517
 7434SOL     OW23200   4.208   6.527   5.302
 7434SOL    HW123201   4.266   6.581   5.363
 7434SOL    HW223202   4.115   6.564   5.303
 7435SOL     OW23203   4.859   4.849   3.351
 7435SOL    HW123204   4.927   4.889   3.413
 7435SOL    HW223205   4.851   4.751   3.369
 7436SOL     OW23206   5.385   2.620   6.452
 7436SOL    HW123207   5.312   2.674   6.495
 7436SOL    HW223208   5.472   2.666   6.466
 7437SOL     OW23209   3.823   6.774   0.827
 7437SOL    HW123210   3.800   6.716   0.904
 7437SOL    HW223211   3.899   6.733   0.776
 7438SOL     OW23212   2.556   0.512   0.231
 7438SOL    HW123213   2.575   0.608   0.211
 7438SOL    HW223214   2.528   0.465   0.147
 7439SOL     OW23215   0.947   4.372   6.102
 7439SOL    HW123216   1.025   4.416   6.057
 7439SOL    HW223217   0.977   4.328   6.187
 7440SOL     OW23218   5.613   3.830   4.360
 7440SOL    HW123219   5.587   3.742   4.399
 7440SOL    HW223220   5.552   3.902   4.394
 7441SOL     OW23221   5.955   5.775   1.190
 7441SOL    HW123222   6.016   5.801   1.265
 7441SOL    HW223223   5.925   5.857   1.142
 7442SOL     OW23224   5.080   1.045   5.478
 7442SOL    HW123225   5.080   1.121   5.543
 7442SOL    HW223226   5.137   1.068   5.399
 7443SOL     OW23227   0.251   0.818   1.735
 7443SOL    HW123228   0.262   0.915   1.713
 7443SOL    HW223229   0.340   0.772   1.728
 7444SOL     OW23230   1.615   6.181   6.763
 7444SOL    HW123231   1.520   6.192   6.734
 7444SOL    HW223232   1.660   6.271   6.763
 7445SOL     OW23233   4.924   6.338   1.489
 7445SOL    HW123234   4.879   6.252   1.466
 7445SOL    HW223235   4.854   6.409   1.502
 7446SOL     OW23236   5.320   3.901   0.133
 7446SOL    HW123237   5.305   3.810   0.170
 7446SOL    HW223238   5.370   3.957   0.200
 7447SOL     OW23239   0.738   4.456   1.052
 7447SOL    HW123240   0.653   4.468   1.103
 7447SOL    HW223241   0.782   4.545   1.038
 7448SOL     OW23242   4.671   4.944   6.525
 7448SOL    HW123243   4.752   4.986   6.485
 7448SOL    HW223244   4.614   4.904   6.453
 7449SOL     OW23245   0.445   4.466   6.736
 7449SOL    HW123246   0.488   4.387   6.694
 7449SOL    HW223247   0.436   4.451   6.835
 7450SOL     OW23248   5.555   2.279   5.115
 7450SOL    HW123249   5.644   2.251   5.081
 7450SOL    HW223250   5.486   2.211   5.087
 7451SOL     OW23251   5.389   4.819   3.233
 7451SOL    HW123252   5.395   4.907   3.187
 7451SOL    HW223253   5.479   4.775   3.233
 7452SOL     OW23254   6.046   5.273   5.281
 7452SOL    HW123255   6.091   5.305   5.198
 7452SOL    HW223256   6.110   5.277   5.358
 7453SOL     OW23257   3.957   6.270   5.991
 7453SOL    HW123258   3.867   6.276   6.033
 7453SOL    HW223259   3.965   6.185   5.940
 7454SOL     OW23260   4.090   2.381   0.862
 7454SOL    HW123261   4.185   2.386   0.893
 7454SOL    HW223262   4.083   2.411   0.767
 7455SOL     OW23263   6.952   2.842   3.300
 7455SOL    HW123264   6.986   2.864   3.208
 7455SOL    HW223265   6.878   2.905   3.323
 7456SOL     OW23266   3.083   2.270   5.539
 7456SOL    HW123267   3.113   2.205   5.469
 7456SOL    HW223268   2.984   2.282   5.532
 7457SOL     OW23269   2.455   0.375   2.940
 7457SOL    HW123270   2.384   0.376   3.010
 7457SOL    HW223271   2.447   0.458   2.884
 7458SOL     OW23272   1.709   5.323   5.599
 7458SOL    HW123273   1.775   5.397   5.609
 7458SOL    HW223274   1.616   5.361   5.599
 7459SOL     OW23275   5.819   0.739   2.867
 7459SOL    HW123276   5.817   0.795   2.949
 7459SOL    HW223277   5.727   0.737   2.826
 7460SOL     OW23278   1.928   6.493   1.107
 7460SOL    HW123279   1.865   6.569   1.091
 7460SOL    HW223280   1.931   6.472   1.205
 7461SOL     OW23281   1.620   4.839   6.097
 7461SOL    HW123282   1.652   4.929   6.066
 7461SOL    HW223283   1.544   4.851   6.161
 7462SOL     OW23284   1.382   4.709   0.198
 7462SOL    HW123285   1.302   4.752   0.239
 7462SOL    HW223286   1.431   4.657   0.268
 7463SOL     OW23287   3.442   5.038   1.094
 7463SOL    HW123288   3.504   5.114   1.112
 7463SOL    HW223289   3.488   4.951   1.114
 7464SOL     OW23290   6.162   5.776   5.326
 7464SOL    HW123291   6.150   5.777   5.425
 7464SOL    HW223292   6.085   5.824   5.283
 7465SOL     OW23293   1.722   5.208   0.122
 7465SOL    HW123294   1.703   5.287   0.180
 7465SOL    HW223295   1.784   5.146   0.170
 7466SOL     OW23296   0.593   6.815   4.967
 7466SOL    HW123297   0.544   6.902   4.975
 7466SOL    HW223298   0.683   6.832   4.928
 7467SOL     OW23299   0.348   2.847   5.834
 7467SOL    HW123300   0.331   2.824   5.930
 7467SOL    HW223301   0.273   2.811   5.778
 7468SOL     OW23302   5.915   3.911   6.069
 7468SOL    HW123303   5.992   3.974   6.055
 7468SOL    HW223304   5.852   3.917   5.992
 7469SOL     OW23305   6.450   2.134   1.294
 7469SOL    HW123306   6.537   2.144   1.245
 7469SOL    HW223307   6.387   2.080   1.238
 7470SOL     OW23308   5.818   2.753   3.852
 7470SOL    HW123309   5.793   2.806   3.932
 7470SOL    HW223310   5.906   2.707   3.868
 7471SOL     OW23311   4.821   6.310   5.923
 7471SOL    HW123312   4.739   6.364   5.906
 7471SOL    HW223313   4.797   6.213   5.924
 7472SOL     OW23314   6.093   6.109   5.254
 7472SOL    HW123315   6.069   6.162   5.335
 7472SOL    HW223316   6.023   6.122   5.184
 7473SOL     OW23317   4.403   5.738   4.218
 7473SOL    HW123318   4.310   5.763   4.192
 7473SOL    HW223319   4.459   5.820   4.226
 7474SOL     OW23320   5.927   2.013   5.949
 7474SOL    HW123321   5.995   2.054   6.010
 7474SOL    HW223322   5.933   2.056   5.859
 7475SOL     OW23323   4.688   2.559   0.509
 7475SOL    HW123324   4.708   2.569   0.411
 7475SOL    HW223325   4.648   2.644   0.543
 7476SOL     OW23326   1.686   0.402   2.829
 7476SOL    HW123327   1.646   0.313   2.851
 7476SOL    HW223328   1.775   0.389   2.786
 7477SOL     OW23329   0.683   4.394   4.928
 7477SOL    HW123330   0.779   4.371   4.948
 7477SOL    HW223331   0.673   4.409   4.830
 7478SOL     OW23332   0.851   0.613   5.505
 7478SOL    HW123333   0.850   0.633   5.603
 7478SOL    HW223334   0.845   0.698   5.454
 7479SOL     OW23335   5.891   2.942   0.058
 7479SOL    HW123336   5.921   2.880   0.131
 7479SOL    HW223337   5.955   2.936   7.005
 7480SOL     OW23338   3.756   5.004   2.607
 7480SOL    HW123339   3.688   5.052   2.662
 7480SOL    HW223340   3.715   4.977   2.519
 7481SOL     OW23341   0.246   4.019   6.463
 7481SOL    HW123342   0.203   3.933   6.491
 7481SOL    HW223343   0.341   4.001   6.437
 7482SOL     OW23344   4.126   2.030   2.830
 7482SOL    HW123345   4.112   1.960   2.900
 7482SOL    HW223346   4.198   2.001   2.767
 7483SOL     OW23347   5.206   2.289   5.793
 7483SOL    HW123348   5.118   2.282   5.841
 7483SOL    HW223349   5.210   2.219   5.721
 7484SOL     OW23350   3.271   6.983   4.072
 7484SOL    HW123351   3.370   6.986   4.084
 7484SOL    HW223352   3.249   6.979   3.974
 7485SOL     OW23353   3.280   0.243   5.442
 7485SOL    HW123354   3.359   0.285   5.397
 7485SOL    HW223355   3.208   0.311   5.455
 7486SOL     OW23356   2.917   6.337   1.257
 7486SOL    HW123357   2.896   6.359   1.162
 7486SOL    HW223358   2.924   6.421   1.310
 7487SOL     OW23359   4.469   6.818   4.357
 7487SOL    HW123360   4.371   6.810   4.375
 7487SOL    HW223361   4.521   6.790   4.438
 7488SOL     OW23362   1.105   5.941   4.159
 7488SOL    HW123363   1.196   5.965   4.124
 7488SOL    HW223364   1.068   5.865   4.106
 7489SOL     OW23365   5.682   3.339   6.685
 7489SOL    HW123366   5.650   3.418   6.736
 7489SOL    HW223367   5.765   3.303   6.726
 7490SOL     OW23368   1.165   2.617   2.432
 7490SOL    HW123369   1.232   2.665   2.377
 7490SOL    HW223370   1.212   2.555   2.496
 7491SOL     OW23371   4.275   2.882   7.012
 7491SOL    HW123372   4.353   2.934   6.977
 7491SOL    HW223373   4.190   2.923   6.977
 7492SOL     OW23374   1.357   0.401   4.128
 7492SOL    HW123375   1.339   0.479   4.189
 7492SOL    HW223376   1.280   0.338   4.131
 7493SOL     OW23377   6.886   4.350   5.093
 7493SOL    HW123378   6.951   4.422   5.115
 7493SOL    HW223379   6.813   4.349   5.162
 7494SOL     OW23380   6.503   1.062   2.487
 7494SOL    HW123381   6.435   1.009   2.437
 7494SOL    HW223382   6.590   1.059   2.439
 7495SOL     OW23383   1.385   3.452   5.445
 7495SOL    HW123384   1.480   3.475   5.465
 7495SOL    HW223385   1.362   3.363   5.484
 7496SOL     OW23386   5.721   4.694   2.677
 7496SOL    HW123387   5.805   4.701   2.731
 7496SOL    HW223388   5.677   4.783   2.671
 7497SOL     OW23389   0.234   6.155   0.454
 7497SOL    HW123390   0.239   6.210   0.537
 7497SOL    HW223391   0.176   6.201   0.387
 7498SOL     OW23392   2.633   6.825   2.839
 7498SOL    HW123393   2.707   6.758   2.833
 7498SOL    HW223394   2.632   6.880   2.756
 7499SOL     OW23395   3.641   1.884   3.748
 7499SOL    HW123396   3.725   1.866   3.698
 7499SOL    HW223397   3.655   1.863   3.845
 7500SOL     OW23398   3.468   6.719   3.011
 7500SOL    HW123399   3.462   6.819   3.002
 7500SOL    HW223400   3.537   6.696   3.079
 7501SOL     OW23401   6.181   2.410   5.041
 7501SOL    HW123402   6.155   2.357   5.122
 7501SOL    HW223403   6.273   2.445   5.052
 7502SOL     OW23404   4.228   0.603   4.378
 7502SOL    HW123405   4.292   0.571   4.308
 7502SOL    HW223406   4.275   0.609   4.466
 7503SOL     OW23407   1.824   6.270   1.569
 7503SOL    HW123408   1.891   6.200   1.592
 7503SOL    HW223409   1.855   6.359   1.603
 7504SOL     OW23410   6.511   6.436   3.954
 7504SOL    HW123411   6.560   6.409   4.037
 7504SOL    HW223412   6.450   6.512   3.975
 7505SOL     OW23413   0.567   6.323   5.076
 7505SOL    HW123414   0.605   6.297   5.165
 7505SOL    HW223415   0.513   6.407   5.086
 7506SOL     OW23416   3.019   1.894   3.089
 7506SOL    HW123417   2.984   1.808   3.125
 7506SOL    HW223418   3.103   1.877   3.038
 7507SOL     OW23419   6.424   4.192   5.151
 7507SOL    HW123420   6.381   4.107   5.120
 7507SOL    HW223421   6.355   4.252   5.191
 7508SOL     OW23422   2.591   5.862   7.015
 7508SOL    HW123423   2.508   5.857   0.047
 7508SOL    HW223424   2.592   5.947   6.963
 7509SOL     OW23425   6.078   4.647   1.059
 7509SOL    HW123426   6.050   4.594   0.979
 7509SOL    HW223427   6.004   4.648   1.126
 7510SOL     OW23428   3.800   3.547   3.628
 7510SOL    HW123429   3.714   3.533   3.678
 7510SOL    HW223430   3.865   3.594   3.687
 7511SOL     OW23431   3.968   6.355   3.608
 7511SOL    HW123432   3.978   6.384   3.513
 7511SOL    HW223433   4.057   6.328   3.645
 7512SOL     OW23434   3.801   0.405   6.463
 7512SOL    HW123435   3.861   0.472   6.507
 7512SOL    HW223436   3.786   0.328   6.525
 7513SOL     OW23437   1.157   2.098   2.467
 7513SOL    HW123438   1.095   2.020   2.478
 7513SOL    HW223439   1.198   2.095   2.375
 7514SOL     OW23440   1.030   4.565   1.669
 7514SOL    HW123441   0.941   4.585   1.628
 7514SOL    HW223442   1.031   4.470   1.702
 7515SOL     OW23443   0.098   5.300   4.839
 7515SOL    HW123444   0.150   5.240   4.779
 7515SOL    HW223445   0.147   5.386   4.852
 7516SOL     OW23446   1.623   6.601   4.896
 7516SOL    HW123447   1.711   6.647   4.882
 7516SOL    HW223448   1.551   6.670   4.907
 7517SOL     OW23449   0.546   1.234   6.547
 7517SOL    HW123450   0.543   1.247   6.448
 7517SOL    HW223451   0.511   1.143   6.570
 7518SOL     OW23452   4.452   2.475   3.384
 7518SOL    HW123453   4.447   2.436   3.292
 7518SOL    HW223454   4.378   2.541   3.397
 7519SOL     OW23455   3.675   5.981   4.470
 7519SOL    HW123456   3.673   5.951   4.374
 7519SOL    HW223457   3.711   6.075   4.474
 7520SOL     OW23458   1.789   2.152   0.638
 7520SOL    HW123459   1.820   2.209   0.714
 7520SOL    HW223460   1.752   2.066   0.673
 7521SOL     OW23461   3.774   1.844   5.287
 7521SOL    HW123462   3.717   1.796   5.353
 7521SOL    HW223463   3.720   1.915   5.241
 7522SOL     OW23464   2.397   6.835   3.557
 7522SOL    HW123465   2.406   6.871   3.650
 7522SOL    HW223466   2.315   6.779   3.551
 7523SOL     OW23467   5.771   1.231   0.308
 7523SOL    HW123468   5.795   1.293   0.233
 7523SOL    HW223469   5.719   1.154   0.271
 7524SOL     OW23470   7.021   3.255   4.490
 7524SOL    HW123471   0.058   3.237   4.567
 7524SOL    HW223472   6.927   3.232   4.515
 7525SOL     OW23473   4.631   5.740   6.541
 7525SOL    HW123474   4.645   5.772   6.447
 7525SOL    HW223475   4.540   5.768   6.572
 7526SOL     OW23476   2.456   3.300   1.636
 7526SOL    HW123477   2.437   3.351   1.720
 7526SOL    HW223478   2.444   3.360   1.557
 7527SOL     OW23479   3.967   4.800   3.481
 7527SOL    HW123480   4.064   4.802   3.504
 7527SOL    HW223481   3.957   4.783   3.382
 7528SOL     OW23482   6.059   3.345   6.591
 7528SOL    HW123483   6.010   3.314   6.509
 7528SOL    HW223484   6.015   3.427   6.627
 7529SOL     OW23485   6.215   2.912   4.488
 7529SOL    HW123486   6.203   2.965   4.572
 7529SOL    HW223487   6.131   2.862   4.468
 7530SOL     OW23488   0.570   1.965   1.875
 7530SOL    HW123489   0.529   1.961   1.784
 7530SOL    HW223490   0.639   2.038   1.877
 7531SOL     OW23491   4.063   2.183   3.268
 7531SOL    HW123492   3.977   2.163   3.221
 7531SOL    HW223493   4.132   2.210   3.200
 7532SOL     OW23494   4.695   5.253   6.624
 7532SOL    HW123495   4.651   5.175   6.579
 7532SOL    HW223496   4.654   5.267   6.714
 7533SOL     OW23497   4.521   4.434   1.424
 7533SOL    HW123498   4.588   4.501   1.392
 7533SOL    HW223499   4.526   4.427   1.524
 7534SOL     OW23500   4.143   0.067   4.608
 7534SOL    HW123501   4.079   0.052   4.533
 7534SOL    HW223502   4.161   0.165   4.617
 7535SOL     OW23503   0.809   5.772   3.843
 7535SOL    HW123504   0.891   5.822   3.817
 7535SOL    HW223505   0.824   5.674   3.829
 7536SOL     OW23506   4.838   6.279   4.836
 7536SOL    HW123507   4.801   6.370   4.819
 7536SOL    HW223508   4.775   6.210   4.800
 7537SOL     OW23509   2.742   6.477   3.385
 7537SOL    HW123510   2.798   6.477   3.468
 7537SOL    HW223511   2.648   6.501   3.408
 7538SOL     OW23512   0.500   4.149   0.823
 7538SOL    HW123513   0.516   4.080   0.752
 7538SOL    HW223514   0.406   4.183   0.814
 7539SOL     OW23515   0.271   6.830   3.708
 7539SOL    HW123516   0.182   6.832   3.753
 7539SOL    HW223517   0.341   6.868   3.769
 7540SOL     OW23518   6.375   5.378   2.673
 7540SOL    HW123519   6.465   5.340   2.651
 7540SOL    HW223520   6.308   5.342   2.608
 7541SOL     OW23521   1.774   4.565   6.854
 7541SOL    HW123522   1.723   4.641   6.894
 7541SOL    HW223523   1.842   4.600   6.789
 7542SOL     OW23524   5.872   5.828   5.018
 7542SOL    HW123525   5.945   5.760   5.022
 7542SOL    HW223526   5.796   5.792   4.963
 7543SOL     OW23527   2.171   0.891   6.822
 7543SOL    HW123528   2.112   0.969   6.801
 7543SOL    HW223529   2.234   0.915   6.896
 7544SOL     OW23530   6.888   2.422   4.371
 7544SOL    HW123531   6.825   2.434   4.448
 7544SOL    HW223532   6.853   2.472   4.291
 7545SOL     OW23533   0.962   4.922   6.496
 7545SOL    HW123534   0.907   5.004   6.514
 7545SOL    HW223535   0.907   4.854   6.448
 7546SOL     OW23536   3.028   2.831   1.563
 7546SOL    HW123537   3.017   2.780   1.648
 7546SOL    HW223538   3.110   2.888   1.569
 7547SOL     OW23539   4.928   0.294   1.504
 7547SOL    HW123540   4.843   0.247   1.484
 7547SOL    HW223541   4.909   0.382   1.547
 7548SOL     OW23542   3.640   2.278   6.289
 7548SOL    HW123543   3.700   2.221   6.344
 7548SOL    HW223544   3.646   2.373   6.320
 7549SOL     OW23545   5.200   2.300   4.394
 7549SOL    HW123546   5.109   2.316   4.356
 7549SOL    HW223547   5.250   2.387   4.397
 7550SOL     OW23548   2.350   4.342   4.551
 7550SOL    HW123549   2.380   4.354   4.456
 7550SOL    HW223550   2.345   4.432   4.595
 7551SOL     OW23551   6.037   2.912   5.900
 7551SOL    HW123552   6.002   2.932   5.991
 7551SOL    HW223553   5.989   2.833   5.862
 7552SOL     OW23554   2.632   6.376   5.199
 7552SOL    HW123555   2.724   6.376   5.238
 7552SOL    HW223556   2.601   6.282   5.184
 7553SOL     OW23557   5.986   6.395   5.898
 7553SOL    HW123558   6.019   6.447   5.977
 7553SOL    HW223559   5.907   6.341   5.926
 7554SOL     OW23560   4.630   0.754   1.141
 7554SOL    HW123561   4.544   0.742   1.092
 7554SOL    HW223562   4.612   0.791   1.233
 7555SOL     OW23563   3.691   4.897   5.199
 7555SOL    HW123564   3.753   4.922   5.125
 7555SOL    HW223565   3.597   4.895   5.165
 7556SOL     OW23566   0.436   6.516   0.556
 7556SOL    HW123567   0.514   6.553   0.606
 7556SOL    HW223568   0.403   6.433   0.602
 7557SOL     OW23569   4.696   0.324   0.194
 7557SOL    HW123570   4.654   0.234   0.192
 7557SOL    HW223571   4.748   0.335   0.279
 7558SOL     OW23572   1.319   1.538   4.102
 7558SOL    HW123573   1.404   1.545   4.049
 7558SOL    HW223574   1.314   1.616   4.166
 7559SOL     OW23575   3.209   1.466   4.666
 7559SOL    HW123576   3.261   1.537   4.714
 7559SOL    HW223577   3.155   1.414   4.732
 7560SOL     OW23578   0.781   1.319   5.701
 7560SOL    HW123579   0.747   1.352   5.613
 7560SOL    HW223580   0.716   1.342   5.773
 7561SOL     OW23581   5.774   2.170   5.495
 7561SOL    HW123582   5.693   2.226   5.474
 7561SOL    HW223583   5.803   2.122   5.412
 7562SOL     OW23584   1.571   5.427   4.044
 7562SOL    HW123585   1.586   5.483   4.126
 7562SOL    HW223586   1.499   5.360   4.064
 7563SOL     OW23587   3.568   5.338   2.765
 7563SOL    HW123588   3.538   5.243   2.762
 7563SOL    HW223589   3.499   5.396   2.723
 7564SOL     OW23590   4.018   1.688   5.110
 7564SOL    HW123591   3.941   1.734   5.153
 7564SOL    HW223592   4.088   1.755   5.085
 7565SOL     OW23593   6.132   4.075   6.158
 7565SOL    HW123594   6.097   4.103   6.248
 7565SOL    HW223595   6.196   4.145   6.124
 7566SOL     OW23596   4.495   4.695   1.669
 7566SOL    HW123597   4.516   4.598   1.679
 7566SOL    HW223598   4.574   4.742   1.630
 7567SOL     OW23599   1.656   0.761   4.262
 7567SOL    HW123600   1.694   0.750   4.170
 7567SOL    HW223601   1.643   0.858   4.281
 7568SOL     OW23602   6.055   5.445   1.689
 7568SOL    HW123603   6.059   5.457   1.789
 7568SOL    HW223604   6.050   5.535   1.645
 7569SOL     OW23605   4.248   3.973   0.214
 7569SOL    HW123606   4.285   3.882   0.233
 7569SOL    HW223607   4.175   3.994   0.280
 7570SOL     OW23608   0.373   2.595   2.654
 7570SOL    HW123609   0.437   2.621   2.726
 7570SOL    HW223610   0.425   2.561   2.575
 7571SOL     OW23611   4.577   2.167   2.991
 7571SOL    HW123612   4.655   2.103   2.990
 7571SOL    HW223613   4.541   2.176   2.898
 7572SOL     OW23614   4.208   0.069   2.975
 7572SOL    HW123615   4.232   7.011   3.028
 7572SOL    HW223616   4.230   0.054   2.879
 7573SOL     OW23617   5.371   6.682   5.652
 7573SOL    HW123618   5.393   6.753   5.718
 7573SOL    HW223619   5.312   6.720   5.580
 7574SOL     OW23620   0.611   1.611   3.775
 7574SOL    HW123621   0.695   1.557   3.767
 7574SOL    HW223622   0.533   1.549   3.788
 7575SOL     OW23623   0.399   6.627   1.786
 7575SOL    HW123624   0.308   6.642   1.824
 7575SOL    HW223625   0.405   6.668   1.695
 7576SOL     OW23626   5.414   3.167   0.736
 7576SOL    HW123627   5.487   3.194   0.674
 7576SOL    HW223628   5.431   3.206   0.827
 7577SOL     OW23629   1.272   7.004   0.916
 7577SOL    HW123630   1.317   6.937   0.976
 7577SOL    HW223631   1.330   0.062   0.907
 7578SOL     OW23632   6.812   5.773   3.424
 7578SOL    HW123633   6.760   5.806   3.503
 7578SOL    HW223634   6.773   5.686   3.394
 7579SOL     OW23635   0.377   1.067   0.228
 7579SOL    HW123636   0.278   1.067   0.238
 7579SOL    HW223637   0.412   1.160   0.245
 7580SOL     OW23638   2.210   4.729   3.532
 7580SOL    HW123639   2.294   4.675   3.541
 7580SOL    HW223640   2.176   4.753   3.623
 7581SOL     OW23641   6.868   1.023   2.654
 7581SOL    HW123642   6.911   0.946   2.702
 7581SOL    HW223643   6.785   1.050   2.703
 7582SOL     OW23644   3.005   1.611   5.708
 7582SOL    HW123645   3.027   1.647   5.798
 7582SOL    HW223646   3.036   1.675   5.638
 7583SOL     OW23647   5.135   2.858   1.893
 7583SOL    HW123648   5.190   2.777   1.873
 7583SOL    HW223649   5.105   2.855   1.988
 7584SOL     OW23650   0.274   1.081   3.740
 7584SOL    HW123651   0.217   1.009   3.699
 7584SOL    HW223652   0.370   1.051   3.741
 7585SOL     OW23653   1.195   0.990   7.015
 7585SOL    HW123654   1.182   0.897   0.027
 7585SOL    HW223655   1.157   1.055   0.058
 7586SOL     OW23656   1.185   1.435   2.377
 7586SOL    HW123657   1.183   1.336   2.363
 7586SOL    HW223658   1.135   1.481   2.304
 7587SOL     OW23659   4.077   0.477   1.353
 7587SOL    HW123660   4.159   0.456   1.406
 7587SOL    HW223661   4.070   0.576   1.339
 7588SOL     OW23662   1.773   2.486   4.582
 7588SOL    HW123663   1.729   2.569   4.549
 7588SOL    HW223664   1.706   2.430   4.631
 7589SOL     OW23665   0.048   0.760   3.107
 7589SOL    HW123666   0.073   0.836   3.168
 7589SOL    HW223667   6.980   0.727   3.132
 7590SOL     OW23668   6.854   1.103   6.876
 7590SOL    HW123669   6.883   1.142   6.789
 7590SOL    HW223670   6.892   1.157   6.951
 7591SOL     OW23671   4.039   3.157   5.256
 7591SOL    HW123672   4.053   3.250   5.289
 7591SOL    HW223673   4.016   3.160   5.159
 7592SOL     OW23674   6.999   6.590   5.131
 7592SOL    HW123675   6.996   6.494   5.103
 7592SOL    HW223676   6.958   6.599   5.222
 7593SOL     OW23677   1.170   1.397   5.997
 7593SOL    HW123678   1.266   1.383   6.022
 7593SOL    HW223679   1.153   1.360   5.906
 7594SOL     OW23680   7.015   4.778   6.716
 7594SOL    HW123681   0.036   4.707   6.772
 7594SOL    HW223682   0.036   4.866   6.734
 7595SOL     OW23683   0.573   2.700   6.401
 7595SOL    HW123684   0.542   2.636   6.471
 7595SOL    HW223685   0.634   2.768   6.442
 7596SOL     OW23686   3.408   0.820   5.600
 7596SOL    HW123687   3.386   0.801   5.504
 7596SOL    HW223688   3.506   0.836   5.610
 7597SOL     OW23689   2.016   4.546   2.238
 7597SOL    HW123690   2.081   4.623   2.240
 7597SOL    HW223691   2.025   4.497   2.152
 7598SOL     OW23692   6.502   1.363   3.375
 7598SOL    HW123693   6.458   1.339   3.288
 7598SOL    HW223694   6.447   1.329   3.451
 7599SOL     OW23695   3.655   3.255   0.469
 7599SOL    HW123696   3.658   3.171   0.523
 7599SOL    HW223697   3.610   3.328   0.521
 7600SOL     OW23698   1.475   6.459   4.595
 7600SOL    HW123699   1.503   6.468   4.690
 7600SOL    HW223700   1.397   6.396   4.589
 7601SOL     OW23701   3.485   6.706   2.388
 7601SOL    HW123702   3.453   6.705   2.294
 7601SOL    HW223703   3.537   6.623   2.408
 7602SOL     OW23704   6.868   1.359   0.715
 7602SOL    HW123705   6.967   1.347   0.727
 7602SOL    HW223706   6.823   1.270   0.719
 7603SOL     OW23707   3.603   0.290   5.485
 7603SOL    HW123708   3.662   0.237   5.425
 7603SOL    HW223709   3.553   0.358   5.432
 7604SOL     OW23710   0.158   2.368   5.083
 7604SOL    HW123711   0.119   2.389   5.173
 7604SOL    HW223712   0.125   2.434   5.016
 7605SOL     OW23713   1.917   6.861   0.590
 7605SOL    HW123714   1.940   6.843   0.495
 7605SOL    HW223715   1.989   6.825   0.650
 7606SOL     OW23716   6.687   1.688   3.036
 7606SOL    HW123717   6.661   1.778   3.002
 7606SOL    HW223718   6.625   1.660   3.109
 7607SOL     OW23719   2.510   6.132   5.926
 7607SOL    HW123720   2.479   6.222   5.896
 7607SOL    HW223721   2.441   6.063   5.905
 7608SOL     OW23722   5.792   2.750   6.110
 7608SOL    HW123723   5.693   2.745   6.121
 7608SOL    HW223724   5.823   2.844   6.123
 7609SOL     OW23725   0.786   1.810   4.700
 7609SOL    HW123726   0.773   1.793   4.602
 7609SOL    HW223727   0.760   1.904   4.721
 7610SOL     OW23728   3.861   4.967   5.005
 7610SOL    HW123729   3.943   4.928   4.963
 7610SOL    HW223730   3.785   4.963   4.939
 7611SOL     OW23731   4.911   3.517   0.465
 7611SOL    HW123732   4.883   3.597   0.519
 7611SOL    HW223733   4.991   3.475   0.506
 7612SOL     OW23734   3.386   1.831   3.218
 7612SOL    HW123735   3.354   1.769   3.289
 7612SOL    HW223736   3.350   1.802   3.129
 7613SOL     OW23737   0.740   1.209   1.661
 7613SOL    HW123738   0.718   1.306   1.653
 7613SOL    HW223739   0.829   1.192   1.619
 7614SOL     OW23740   4.493   3.932   0.512
 7614SOL    HW123741   4.451   3.943   0.602
 7614SOL    HW223742   4.427   3.958   0.442
 7615SOL     OW23743   6.048   3.618   5.012
 7615SOL    HW123744   5.970   3.557   5.025
 7615SOL    HW223745   6.087   3.603   4.921
 7616SOL     OW23746   6.518   0.235   3.239
 7616SOL    HW123747   6.590   0.303   3.251
 7616SOL    HW223748   6.444   0.273   3.184
 7617SOL     OW23749   5.581   4.830   3.618
 7617SOL    HW123750   5.646   4.753   3.612
 7617SOL    HW223751   5.543   4.834   3.710
 7618SOL     OW23752   2.661   2.198   0.708
 7618SOL    HW123753   2.598   2.133   0.751
 7618SOL    HW223754   2.622   2.290   0.712
 7619SOL     OW23755   1.039   1.771   4.516
 7619SOL    HW123756   0.963   1.816   4.468
 7619SOL    HW223757   1.003   1.698   4.574
 7620SOL     OW23758   3.996   4.365   1.327
 7620SOL    HW123759   3.958   4.323   1.244
 7620SOL    HW223760   3.959   4.320   1.408
 7621SOL     OW23761   6.110   4.090   0.049
 7621SOL    HW123762   6.115   4.178   0.097
 7621SOL    HW223763   6.140   4.101   6.977
 7622SOL     OW23764   3.145   3.722   1.428
 7622SOL    HW123765   3.130   3.760   1.337
 7622SOL    HW223766   3.075   3.756   1.490
 7623SOL     OW23767   4.620   4.554   0.818
 7623SOL    HW123768   4.687   4.610   0.768
 7623SOL    HW223769   4.649   4.458   0.817
 7624SOL     OW23770   0.745   3.296   2.353
 7624SOL    HW123771   0.764   3.207   2.394
 7624SOL    HW223772   0.700   3.355   2.420
 7625SOL     OW23773   5.391   0.696   1.432
 7625SOL    HW123774   5.399   0.668   1.336
 7625SOL    HW223775   5.446   0.778   1.448
 7626SOL     OW23776   4.645   1.465   5.459
 7626SOL    HW123777   4.554   1.436   5.429
 7626SOL    HW223778   4.685   1.393   5.515
 7627SOL     OW23779   4.313   2.431   6.721
 7627SOL    HW123780   4.322   2.435   6.622
 7627SOL    HW223781   4.382   2.490   6.763
 7628SOL     OW23782   3.366   2.531   0.266
 7628SOL    HW123783   3.427   2.459   0.232
 7628SOL    HW223784   3.299   2.554   0.196
 7629SOL     OW23785   6.340   3.143   3.496
 7629SOL    HW123786   6.265   3.123   3.559
 7629SOL    HW223787   6.346   3.070   3.428
 7630SOL     OW23788   1.043   6.536   5.080
 7630SOL    HW123789   1.123   6.565   5.027
 7630SOL    HW223790   0.970   6.603   5.069
 7631SOL     OW23791   1.446   0.815   5.943
 7631SOL    HW123792   1.372   0.861   5.894
 7631SOL    HW223793   1.521   0.881   5.960
 7632SOL     OW23794   5.064   5.731   0.253
 7632SOL    HW123795   5.133   5.741   0.182
 7632SOL    HW223796   5.090   5.785   0.333
 7633SOL     OW23797   6.472   1.021   1.287
 7633SOL    HW123798   6.392   0.966   1.266
 7633SOL    HW223799   6.481   1.030   1.386
 7634SOL     OW23800   6.795   2.322   0.344
 7634SOL    HW123801   6.856   2.396   0.372
 7634SOL    HW223802   6.765   2.271   0.425
 7635SOL     OW23803   2.518   3.960   5.586
 7635SOL    HW123804   2.611   3.941   5.618
 7635SOL    HW223805   2.490   4.051   5.615
 7636SOL     OW23806   0.184   4.118   4.299
 7636SOL    HW123807   0.258   4.055   4.325
 7636SOL    HW223808   0.223   4.207   4.275
 7637SOL     OW23809   0.825   6.334   4.306
 7637SOL    HW123810   0.888   6.405   4.338
 7637SOL    HW223811   0.738   6.342   4.355
 7638SOL     OW23812   0.479   6.311   1.529
 7638SOL    HW123813   0.457   6.375   1.455
 7638SOL    HW223814   0.550   6.351   1.587
 7639SOL     OW23815   1.393   0.863   0.208
 7639SOL    HW123816   1.414   0.958   0.185
 7639SOL    HW223817   1.333   0.860   0.289
 7640SOL     OW23818   3.031   0.973   0.382
 7640SOL    HW123819   3.102   0.953   0.315
 7640SOL    HW223820   2.979   0.890   0.403
 7641SOL     OW23821   0.418   4.487   3.552
 7641SOL    HW123822   0.338   4.428   3.559
 7641SOL    HW223823   0.421   4.528   3.461
 7642SOL     OW23824   6.028   0.973   3.373
 7642SOL    HW123825   6.008   0.900   3.438
 7642SOL    HW223826   5.957   1.043   3.378
 7643SOL     OW23827   5.354   3.821   2.952
 7643SOL    HW123828   5.376   3.828   3.050
 7643SOL    HW223829   5.267   3.774   2.942
 7644SOL     OW23830   5.437   3.715   1.087
 7644SOL    HW123831   5.528   3.727   1.125
 7644SOL    HW223832   5.414   3.617   1.084
 7645SOL     OW23833   3.432   5.045   6.339
 7645SOL    HW123834   3.423   4.978   6.412
 7645SOL    HW223835   3.368   5.024   6.266
 7646SOL     OW23836   6.743   2.225   1.528
 7646SOL    HW123837   6.835   2.240   1.564
 7646SOL    HW223838   6.682   2.199   1.602
 7647SOL     OW23839   6.603   2.631   5.327
 7647SOL    HW123840   6.580   2.711   5.383
 7647SOL    HW223841   6.663   2.659   5.252
 7648SOL     OW23842   2.979   1.500   1.699
 7648SOL    HW123843   3.050   1.434   1.677
 7648SOL    HW223844   3.020   1.592   1.704
 7649SOL     OW23845   4.359   1.738   5.501
 7649SOL    HW123846   4.369   1.837   5.505
 7649SOL    HW223847   4.413   1.696   5.574
 7650SOL     OW23848   3.742   2.251   0.584
 7650SOL    HW123849   3.800   2.203   0.518
 7650SOL    HW223850   3.729   2.346   0.554
 7651SOL     OW23851   3.104   5.031   5.917
 7651SOL    HW123852   3.096   4.932   5.899
 7651SOL    HW223853   3.026   5.078   5.875
 7652SOL     OW23854   0.386   1.165   4.251
 7652SOL    HW123855   0.293   1.173   4.214
 7652SOL    HW223856   0.434   1.091   4.204
 7653SOL     OW23857   1.043   1.109   6.373
 7653SOL    HW123858   1.033   1.208   6.383
 7653SOL    HW223859   1.048   1.067   6.464
 7654SOL     OW23860   5.712   2.131   6.348
 7654SOL    HW123861   5.663   2.139   6.435
 7654SOL    HW223862   5.684   2.206   6.287
 7655SOL     OW23863   2.986   1.533   2.884
 7655SOL    HW123864   2.974   1.601   2.812
 7655SOL    HW223865   2.935   1.450   2.862
 7656SOL     OW23866   0.150   3.115   6.420
 7656SOL    HW123867   0.074   3.056   6.394
 7656SOL    HW223868   0.227   3.098   6.358
 7657SOL     OW23869   1.083   4.458   4.482
 7657SOL    HW123870   1.039   4.393   4.544
 7657SOL    HW223871   1.112   4.539   4.534
 7658SOL     OW23872   2.242   1.065   0.851
 7658SOL    HW123873   2.282   1.138   0.906
 7658SOL    HW223874   2.296   1.052   0.768
 7659SOL     OW23875   4.888   3.669   5.600
 7659SOL    HW123876   4.838   3.692   5.517
 7659SOL    HW223877   4.942   3.748   5.629
 7660SOL     OW23878   6.838   5.445   4.706
 7660SOL    HW123879   6.929   5.422   4.739
 7660SOL    HW223880   6.821   5.543   4.718
 7661SOL     OW23881   4.564   2.247   5.565
 7661SOL    HW123882   4.558   2.158   5.521
 7661SOL    HW223883   4.656   2.285   5.552
 7662SOL     OW23884   6.665   0.289   1.159
 7662SOL    HW123885   6.658   0.312   1.062
 7662SOL    HW223886   6.760   0.296   1.188
 7663SOL     OW23887   6.868   5.883   5.687
 7663SOL    HW123888   6.926   5.943   5.742
 7663SOL    HW223889   6.906   5.875   5.595
 7664SOL     OW23890   4.011   1.937   1.920
 7664SOL    HW123891   4.015   2.037   1.909
 7664SOL    HW223892   4.070   1.894   1.852
 7665SOL     OW23893   4.620   0.691   5.170
 7665SOL    HW123894   4.577   0.725   5.254
 7665SOL    HW223895   4.550   0.650   5.111
 7666SOL     OW23896   5.412   4.504   3.826
 7666SOL    HW123897   5.468   4.421   3.831
 7666SOL    HW223898   5.352   4.499   3.746
 7667SOL     OW23899   4.176   5.933   1.861
 7667SOL    HW123900   4.133   5.856   1.815
 7667SOL    HW223901   4.126   5.953   1.946
 7668SOL     OW23902   2.102   5.929   0.233
 7668SOL    HW123903   2.132   5.841   0.195
 7668SOL    HW223904   2.175   5.967   0.289
 7669SOL     OW23905   2.390   1.087   5.840
 7669SOL    HW123906   2.357   1.144   5.764
 7669SOL    HW223907   2.489   1.095   5.846
 7670SOL     OW23908   0.762   6.652   0.290
 7670SOL    HW123909   0.789   6.575   0.232
 7670SOL    HW223910   0.843   6.692   0.333
 7671SOL     OW23911   3.788   6.722   1.187
 7671SOL    HW123912   3.756   6.644   1.133
 7671SOL    HW223913   3.717   6.793   1.188
 7672SOL     OW23914   4.753   5.174   2.997
 7672SOL    HW123915   4.745   5.089   3.050
 7672SOL    HW223916   4.778   5.153   2.903
 7673SOL     OW23917   1.798   6.308   4.526
 7673SOL    HW123918   1.882   6.255   4.512
 7673SOL    HW223919   1.739   6.260   4.591
 7674SOL     OW23920   4.463   6.172   4.479
 7674SOL    HW123921   4.546   6.138   4.524
 7674SOL    HW223922   4.485   6.255   4.428
 7675SOL     OW23923   4.912   6.286   3.704
 7675SOL    HW123924   4.846   6.237   3.761
 7675SOL    HW223925   4.948   6.365   3.755
 7676SOL     OW23926   3.377   3.010   5.661
 7676SOL    HW123927   3.357   3.020   5.758
 7676SOL    HW223928   3.441   2.934   5.647
 7677SOL     OW23929   5.840   4.655   0.382
 7677SOL    HW123930   5.858   4.742   0.428
 7677SOL    HW223931   5.916   4.633   0.321
 7678SOL     OW23932   1.638   0.741   4.567
 7678SOL    HW123933   1.628   0.840   4.566
 7678SOL    HW223934   1.724   0.716   4.611
 7679SOL     OW23935   3.111   5.513   5.632
 7679SOL    HW123936   3.116   5.611   5.653
 7679SOL    HW223937   3.027   5.475   5.672
 7680SOL     OW23938   2.237   6.913   5.055
 7680SOL    HW123939   2.196   6.954   5.137
 7680SOL    HW223940   2.277   6.984   4.997
 7681SOL     OW23941   2.676   3.463   6.613
 7681SOL    HW123942   2.753   3.425   6.665
 7681SOL    HW223943   2.631   3.390   6.563
 7682SOL     OW23944   2.678   1.347   2.489
 7682SOL    HW123945   2.603   1.351   2.423
 7682SOL    HW223946   2.739   1.271   2.466
 7683SOL     OW23947   0.502   5.963   4.337
 7683SOL    HW123948   0.569   5.899   4.373
 7683SOL    HW223949   0.433   5.912   4.285
 7684SOL     OW23950   3.945   2.923   1.316
 7684SOL    HW123951   4.028   2.868   1.307
 7684SOL    HW223952   3.941   2.964   1.406
 7685SOL     OW23953   2.907   0.495   6.984
 7685SOL    HW123954   2.973   0.549   6.931
 7685SOL    HW223955   2.819   0.496   6.937
 7686SOL     OW23956   6.036   0.113   4.427
 7686SOL    HW123957   5.996   0.026   4.456
 7686SOL    HW223958   6.082   0.156   4.504
 7687SOL     OW23959   5.953   4.712   5.458
 7687SOL    HW123960   5.920   4.692   5.550
 7687SOL    HW223961   5.876   4.721   5.395
 7688SOL     OW23962   6.988   4.207   6.103
 7688SOL    HW123963   7.018   4.196   6.198
 7688SOL    HW223964   6.930   4.288   6.095
 7689SOL     OW23965   4.869   0.530   1.596
 7689SOL    HW123966   4.915   0.606   1.642
 7689SOL    HW223967   4.773   0.527   1.624
 7690SOL     OW23968   6.057   5.301   1.234
 7690SOL    HW123969   6.031   5.276   1.327
 7690SOL    HW223970   6.056   5.400   1.224
 7691SOL     OW23971   4.687   4.418   3.227
 7691SOL    HW123972   4.605   4.451   3.181
 7691SOL    HW223973   4.731   4.348   3.171
 7692SOL     OW23974   2.247   6.906   2.779
 7692SOL    HW123975   2.304   6.834   2.820
 7692SOL    HW223976   2.263   6.993   2.826
 7693SOL     OW23977   2.138   1.662   0.736
 7693SOL    HW123978   2.069   1.590   0.743
 7693SOL    HW223979   2.092   1.751   0.734
 7694SOL     OW23980   5.277   1.467   5.340
 7694SOL    HW123981   5.361   1.489   5.390
 7694SOL    HW223982   5.203   1.448   5.406
 7695SOL     OW23983   4.750   0.231   3.918
 7695SOL    HW123984   4.844   0.251   3.890
 7695SOL    HW223985   4.688   0.294   3.872
 7696SOL     OW23986   1.430   2.977   5.995
 7696SOL    HW123987   1.422   3.077   5.991
 7696SOL    HW223988   1.387   2.937   5.914
 7697SOL     OW23989   4.705   0.052   3.257
 7697SOL    HW123990   4.609   0.051   3.284
 7697SOL    HW223991   4.735   0.147   3.247
 7698SOL     OW23992   6.424   2.934   0.546
 7698SOL    HW123993   6.507   2.933   0.490
 7698SOL    HW223994   6.354   2.878   0.502
 7699SOL     OW23995   4.536   6.132   6.121
 7699SOL    HW123996   4.623   6.135   6.170
 7699SOL    HW223997   4.514   6.038   6.098
 7700SOL     OW23998   5.473   6.299   2.792
 7700SOL    HW123999   5.378   6.304   2.823
 7700SOL    HW224000   5.533   6.288   2.872
 7701SOL     OW24001   1.092   2.577   6.649
 7701SOL    HW124002   1.084   2.479   6.669
 7701SOL    HW224003   1.187   2.606   6.663
 7702SOL     OW24004   4.480   0.058   4.459
 7702SOL    HW124005   4.557   7.020   4.440
 7702SOL    HW224006   4.394   0.008   4.450
 7703SOL     OW24007   6.457   7.002   4.977
 7703SOL    HW124008   6.392   7.009   4.902
 7703SOL    HW224009   6.408   6.995   5.064
 7704SOL     OW24010   0.146   1.530   4.858
 7704SOL    HW124011   0.175   1.467   4.931
 7704SOL    HW224012   0.202   1.612   4.861
 7705SOL     OW24013   0.850   5.238   6.728
 7705SOL    HW124014   0.897   5.221   6.642
 7705SOL    HW224015   0.883   5.174   6.798
 7706SOL     OW24016   3.233   2.926   2.510
 7706SOL    HW124017   3.264   2.869   2.434
 7706SOL    HW224018   3.138   2.955   2.493
 7707SOL     OW24019   6.648   4.205   6.406
 7707SOL    HW124020   6.717   4.278   6.411
 7707SOL    HW224021   6.646   4.168   6.314
 7708SOL     OW24022   2.557   0.070   4.493
 7708SOL    HW124023   2.641   0.016   4.486
 7708SOL    HW224024   2.579   0.162   4.527
 7709SOL     OW24025   0.009   4.720   1.545
 7709SOL    HW124026   6.995   4.772   1.468
 7709SOL    HW224027   0.100   4.754   1.569
 7710SOL     OW24028   0.118   2.936   1.119
 7710SOL    HW124029   0.167   3.021   1.138
 7710SOL    HW224030   0.134   2.871   1.194
 7711SOL     OW24031   0.319   4.851   4.982
 7711SOL    HW124032   0.385   4.780   5.008
 7711SOL    HW224033   0.357   4.909   4.911
 7712SOL     OW24034   0.195   4.848   5.684
 7712SOL    HW124035   0.157   4.940   5.680
 7712SOL    HW224036   0.294   4.852   5.673
 7713SOL     OW24037   1.958   4.533   0.031
 7713SOL    HW124038   1.890   4.545   6.982
 7713SOL    HW224039   1.920   4.565   0.118
 7714SOL     OW24040   6.040   1.274   5.215
 7714SOL    HW124041   6.063   1.183   5.251
 7714SOL    HW224042   5.962   1.310   5.266
 7715SOL     OW24043   3.488   3.193   5.508
 7715SOL    HW124044   3.559   3.226   5.570
 7715SOL    HW224045   3.450   3.107   5.542
 7716SOL     OW24046   1.233   6.484   5.857
 7716SOL    HW124047   1.306   6.416   5.870
 7716SOL    HW224048   1.221   6.501   5.759
 7717SOL     OW24049   6.998   1.733   6.758
 7717SOL    HW124050   7.009   1.718   6.857
 7717SOL    HW224051   6.994   1.831   6.739
 7718SOL     OW24052   1.177   3.768   2.915
 7718SOL    HW124053   1.217   3.859   2.917
 7718SOL    HW224054   1.081   3.773   2.940
 7719SOL     OW24055   1.971   4.694   4.951
 7719SOL    HW124056   2.068   4.717   4.941
 7719SOL    HW224057   1.963   4.602   4.989
 7720SOL     OW24058   4.835   0.946   0.042
 7720SOL    HW124059   4.784   0.869   0.080
 7720SOL    HW224060   4.831   0.942   6.966
 7721SOL     OW24061   0.203   0.811   2.628
 7721SOL    HW124062   0.292   0.774   2.602
 7721SOL    HW224063   0.175   0.880   2.562
 7722SOL     OW24064   1.180   6.403   3.609
 7722SOL    HW124065   1.242   6.482   3.609
 7722SOL    HW224066   1.183   6.359   3.699
 7723SOL     OW24067   4.848   4.286   0.222
 7723SOL    HW124068   4.778   4.239   0.275
 7723SOL    HW224069   4.864   4.237   0.137
 7724SOL     OW24070   1.891   3.812   1.247
 7724SOL    HW124071   1.824   3.809   1.321
 7724SOL    HW224072   1.972   3.758   1.273
 7725SOL     OW24073   5.392   3.021   3.220
 7725SOL    HW124074   5.341   2.942   3.186
 7725SOL    HW224075   5.426   3.002   3.312
 7726SOL     OW24076   0.824   3.187   5.981
 7726SOL    HW124077   0.907   3.140   6.011
 7726SOL    HW224078   0.842   3.284   5.970
 7727SOL     OW24079   4.445   0.900   2.280
 7727SOL    HW124080   4.435   0.805   2.250
 7727SOL    HW224081   4.542   0.924   2.283
 7728SOL     OW24082   1.803   3.210   4.551
 7728SOL    HW124083   1.832   3.187   4.644
 7728SOL    HW224084   1.873   3.182   4.486
 7729SOL     OW24085   0.156   1.856   3.944
 7729SOL    HW124086   0.179   1.882   3.851
 7729SOL    HW224087   0.074   1.904   3.973
 7730SOL     OW24088   6.506   4.325   4.860
 7730SOL    HW124089   6.538   4.375   4.780
 7730SOL    HW224090   6.538   4.370   4.943
 7731SOL     OW24091   6.718   6.434   6.691
 7731SOL    HW124092   6.645   6.418   6.757
 7731SOL    HW224093   6.797   6.472   6.737
 7732SOL     OW24094   4.148   6.727   6.481
 7732SOL    HW124095   4.069   6.673   6.512
 7732SOL    HW224096   4.178   6.787   6.555
 7733SOL     OW24097   6.141   5.709   1.584
 7733SOL    HW124098   6.212   5.725   1.652
 7733SOL    HW224099   6.069   5.777   1.594
 7734SOL     OW24100   3.274   3.866   4.881
 7734SOL    HW124101   3.188   3.849   4.833
 7734SOL    HW224102   3.282   3.804   4.959
 7735SOL     OW24103   6.867   5.801   0.560
 7735SOL    HW124104   6.886   5.889   0.604
 7735SOL    HW224105   6.930   5.732   0.596
 7736SOL     OW24106   2.184   2.903   0.227
 7736SOL    HW124107   2.193   2.811   0.188
 7736SOL    HW224108   2.270   2.928   0.272
 7737SOL     OW24109   4.306   5.179   1.016
 7737SOL    HW124110   4.323   5.123   1.096
 7737SOL    HW224111   4.257   5.126   0.947
 7738SOL     OW24112   2.088   0.354   5.531
 7738SOL    HW124113   2.066   0.350   5.434
 7738SOL    HW224114   2.035   0.285   5.580
 7739SOL     OW24115   1.595   1.968   0.712
 7739SOL    HW124116   1.616   1.896   0.778
 7739SOL    HW224117   1.562   1.927   0.627
 7740SOL     OW24118   1.470   0.614   4.758
 7740SOL    HW124119   1.529   0.659   4.691
 7740SOL    HW224120   1.376   0.646   4.747
 7741SOL     OW24121   1.725   4.234   6.605
 7741SOL    HW124122   1.817   4.273   6.604
 7741SOL    HW224123   1.689   4.239   6.698
 7742SOL     OW24124   4.241   2.129   4.334
 7742SOL    HW124125   4.204   2.040   4.307
 7742SOL    HW224126   4.280   2.123   4.425
 7743SOL     OW24127   5.056   1.837   5.707
 7743SOL    HW124128   5.072   1.891   5.789
 7743SOL    HW224129   5.015   1.749   5.731
 7744SOL     OW24130   0.423   6.053   4.732
 7744SOL    HW124131   0.353   6.112   4.771
 7744SOL    HW224132   0.510   6.102   4.728
 7745SOL     OW24133   2.594   6.784   0.828
 7745SOL    HW124134   2.502   6.822   0.819
 7745SOL    HW224135   2.641   6.828   0.905
 7746SOL     OW24136   1.101   5.951   0.863
 7746SOL    HW124137   1.033   5.878   0.865
 7746SOL    HW224138   1.055   6.039   0.852
 7747SOL     OW24139   0.903   6.041   0.002
 7747SOL    HW124140   0.954   5.956   7.019
 7747SOL    HW224141   0.817   6.025   0.050
 7748SOL     OW24142   4.732   2.283   6.078
 7748SOL    HW124143   4.739   2.229   5.994
 7748SOL    HW224144   4.649   2.258   6.127
 7749SOL     OW24145   3.973   3.985   4.506
 7749SOL    HW124146   4.010   4.071   4.542
 7749SOL    HW224147   3.951   3.924   4.582
 7750SOL     OW24148   5.805   4.388   5.334
 7750SOL    HW124149   5.886   4.362   5.386
 7750SOL    HW224150   5.794   4.327   5.256
 7751SOL     OW24151   6.782   1.099   5.188
 7751SOL    HW124152   6.812   1.003   5.189
 7751SOL    HW224153   6.746   1.121   5.097
 7752SOL     OW24154   6.445   5.743   5.277
 7752SOL    HW124155   6.345   5.741   5.267
 7752SOL    HW224156   6.478   5.836   5.260
 7753SOL     OW24157   2.374   1.216   4.732
 7753SOL    HW124158   2.314   1.145   4.695
 7753SOL    HW224159   2.390   1.285   4.661
 7754SOL     OW24160   6.636   0.656   1.640
 7754SOL    HW124161   6.562   0.613   1.692
 7754SOL    HW224162   6.620   0.644   1.542
 7755SOL     OW24163   1.214   5.824   5.444
 7755SOL    HW124164   1.207   5.836   5.345
 7755SOL    HW224165   1.248   5.732   5.464
 7756SOL     OW24166   3.738   5.715   2.103
 7756SOL    HW124167   3.695   5.696   2.015
 7756SOL    HW224168   3.817   5.655   2.115
 7757SOL     OW24169   4.925   6.566   5.716
 7757SOL    HW124170   4.981   6.494   5.757
 7757SOL    HW224171   4.882   6.531   5.633
 7758SOL     OW24172   2.218   2.199   5.241
 7758SOL    HW124173   2.125   2.223   5.216
 7758SOL    HW224174   2.270   2.283   5.260
 7759SOL     OW24175   1.996   0.682   5.338
 7759SOL    HW124176   2.080   0.681   5.283
 7759SOL    HW224177   1.927   0.737   5.292
 7760SOL     OW24178   4.828   2.936   2.437
 7760SOL    HW124179   4.754   2.874   2.463
 7760SOL    HW224180   4.916   2.889   2.446
 7761SOL     OW24181   3.669   7.007   6.531
 7761SOL    HW124182   3.644   0.048   6.604
 7761SOL    HW224183   3.761   0.006   6.497
 7762SOL     OW24184   3.202   1.547   0.652
 7762SOL    HW124185   3.169   1.582   0.740
 7762SOL    HW224186   3.296   1.576   0.638
 7763SOL     OW24187   1.751   1.805   0.904
 7763SOL    HW124188   1.744   1.812   1.003
 7763SOL    HW224189   1.841   1.837   0.874
 7764SOL     OW24190   2.991   3.198   2.701
 7764SOL    HW124191   2.956   3.169   2.612
 7764SOL    HW224192   2.946   3.283   2.728
 7765SOL     OW24193   7.020   2.496   2.511
 7765SOL    HW124194   0.047   2.576   2.545
 7765SOL    HW224195   7.015   2.500   2.411
 7766SOL     OW24196   6.904   2.745   6.740
 7766SOL    HW124197   6.839   2.778   6.808
 7766SOL    HW224198   6.887   2.649   6.719
 7767SOL     OW24199   5.211   4.838   4.973
 7767SOL    HW124200   5.256   4.915   4.927
 7767SOL    HW224201   5.142   4.874   5.036
 7768SOL     OW24202   3.494   5.160   2.479
 7768SOL    HW124203   3.449   5.088   2.532
 7768SOL    HW224204   3.430   5.197   2.411
 7769SOL     OW24205   5.969   1.735   1.548
 7769SOL    HW124206   5.890   1.693   1.503
 7769SOL    HW224207   5.937   1.808   1.609
 7770SOL     OW24208   3.584   5.262   1.156
 7770SOL    HW124209   3.648   5.254   1.079
 7770SOL    HW224210   3.555   5.358   1.166
 7771SOL     OW24211   2.342   1.538   5.279
 7771SOL    HW124212   2.358   1.536   5.181
 7771SOL    HW224213   2.429   1.533   5.327
 7772SOL     OW24214   5.323   1.561   4.486
 7772SOL    HW124215   5.401   1.558   4.547
 7772SOL    HW224216   5.317   1.652   4.444
 7773SOL     OW24217   4.080   4.596   5.794
 7773SOL    HW124218   4.023   4.632   5.721
 7773SOL    HW224219   4.103   4.670   5.858
 7774SOL     OW24220   4.800   1.754   6.328
 7774SOL    HW124221   4.843   1.715   6.409
 7774SOL    HW224222   4.804   1.854   6.333
 7775SOL     OW24223   2.967   6.850   2.601
 7775SOL    HW124224   2.902   6.778   2.626
 7775SOL    HW224225   3.058   6.827   2.636
 7776SOL     OW24226   3.837   3.774   6.787
 7776SOL    HW124227   3.791   3.780   6.875
 7776SOL    HW224228   3.839   3.679   6.756
 7777SOL     OW24229   1.834   1.210   6.945
 7777SOL    HW124230   1.797   1.126   6.984
 7777SOL    HW224231   1.891   1.188   6.866
 7778SOL     OW24232   6.047   0.790   0.280
 7778SOL    HW124233   6.000   0.759   0.197
 7778SOL    HW224234   5.979   0.818   0.348
 7779SOL     OW24235   4.040   3.301   6.369
 7779SOL    HW124236   3.995   3.391   6.374
 7779SOL    HW224237   4.041   3.270   6.274
 7780SOL     OW24238   1.616   6.646   4.454
 7780SOL    HW124239   1.694   6.702   4.481
 7780SOL    HW224240   1.606   6.570   4.518
 7781SOL     OW24241   1.582   4.894   4.685
 7781SOL    HW124242   1.629   4.853   4.763
 7781SOL    HW224243   1.498   4.939   4.718
 7782SOL     OW24244   3.319   4.396   6.422
 7782SOL    HW124245   3.250   4.467   6.409
 7782SOL    HW224246   3.275   4.313   6.455
 7783SOL     OW24247   3.169   5.163   6.449
 7783SOL    HW124248   3.223   5.233   6.403
 7783SOL    HW224249   3.224   5.120   6.521
 7784SOL     OW24250   0.428   2.423   6.854
 7784SOL    HW124251   0.462   2.475   6.932
 7784SOL    HW224252   0.343   2.376   6.880
 7785SOL     OW24253   2.712   5.811   4.349
 7785SOL    HW124254   2.697   5.899   4.304
 7785SOL    HW224255   2.653   5.742   4.308
 7786SOL     OW24256   3.004   4.073   5.101
 7786SOL    HW124257   2.973   3.978   5.101
 7786SOL    HW224258   2.993   4.112   5.010
 7787SOL     OW24259   2.703   2.588   5.355
 7787SOL    HW124260   2.675   2.670   5.305
 7787SOL    HW224261   2.788   2.607   5.404
 7788SOL     OW24262   0.947   1.423   0.047
 7788SOL    HW124263   1.024   1.412   7.008
 7788SOL    HW224264   0.863   1.396   0.000
 7789SOL     OW24265   2.367   0.507   1.049
 7789SOL    HW124266   2.343   0.596   1.088
 7789SOL    HW224267   2.289   0.445   1.059
 7790SOL     OW24268   5.461   3.217   2.504
 7790SOL    HW124269   5.475   3.261   2.415
 7790SOL    HW224270   5.381   3.257   2.548
 7791SOL     OW24271   1.642   4.906   5.248
 7791SOL    HW124272   1.730   4.892   5.202
 7791SOL    HW224273   1.658   4.937   5.341
 7792SOL     OW24274   2.557   5.533   6.082
 7792SOL    HW124275   2.466   5.540   6.122
 7792SOL    HW224276   2.618   5.600   6.125
 7793SOL     OW24277   1.033   1.133   6.087
 7793SOL    HW124278   1.086   1.211   6.052
 7793SOL    HW224279   1.073   1.101   6.173
 7794SOL     OW24280   5.505   5.722   3.552
 7794SOL    HW124281   5.524   5.718   3.650
 7794SOL    HW224282   5.532   5.635   3.509
 7795SOL     OW24283   2.442   4.520   5.613
 7795SOL    HW124284   2.366   4.581   5.635
 7795SOL    HW224285   2.406   4.430   5.587
 7796SOL     OW24286   4.058   3.709   3.510
 7796SOL    HW124287   4.046   3.624   3.459
 7796SOL    HW224288   4.055   3.690   3.608
 7797SOL     OW24289   0.774   0.279   2.610
 7797SOL    HW124290   0.723   0.192   2.609
 7797SOL    HW224291   0.785   0.309   2.705
 7798SOL     OW24292   3.782   5.606   0.008
 7798SOL    HW124293   3.831   5.525   6.999
 7798SOL    HW224294   3.838   5.655   0.075
 7799SOL     OW24295   0.274   5.208   1.677
 7799SOL    HW124296   0.343   5.171   1.739
 7799SOL    HW224297   0.244   5.298   1.710
 7800SOL     OW24298   0.885   5.873   2.263
 7800SOL    HW124299   0.846   5.960   2.233
 7800SOL    HW224300   0.812   5.809   2.285
 7801SOL     OW24301   3.750   2.036   6.376
 7801SOL    HW124302   3.847   2.010   6.371
 7801SOL    HW224303   3.716   2.021   6.469
 7802SOL     OW24304   5.861   1.857   1.981
 7802SOL    HW124305   5.914   1.773   1.981
 7802SOL    HW224306   5.895   1.919   2.051
 7803SOL     OW24307   4.093   4.336   5.554
 7803SOL    HW124308   4.070   4.404   5.484
 7803SOL    HW224309   4.192   4.332   5.566
 7804SOL     OW24310   4.655   2.209   6.369
 7804SOL    HW124311   4.647   2.263   6.452
 7804SOL    HW224312   4.569   2.159   6.353
 7805SOL     OW24313   4.956   3.601   1.962
 7805SOL    HW124314   4.903   3.676   1.923
 7805SOL    HW224315   4.950   3.521   1.901
 7806SOL     OW24316   5.414   2.599   6.741
 7806SOL    HW124317   5.439   2.631   6.649
 7806SOL    HW224318   5.347   2.526   6.733
 7807SOL     OW24319   0.296   4.277   6.509
 7807SOL    HW124320   0.340   4.321   6.430
 7807SOL    HW224321   0.264   4.186   6.483
 7808SOL     OW24322   0.353   1.553   5.115
 7808SOL    HW124323   0.435   1.609   5.130
 7808SOL    HW224324   0.272   1.605   5.142
 7809SOL     OW24325   2.261   5.275   4.826
 7809SOL    HW124326   2.207   5.314   4.751
 7809SOL    HW224327   2.199   5.245   4.899
 7810SOL     OW24328   2.857   0.928   6.812
 7810SOL    HW124329   2.764   0.923   6.775
 7810SOL    HW224330   2.861   0.880   6.900
 7811SOL     OW24331   6.600   4.562   3.852
 7811SOL    HW124332   6.636   4.633   3.791
 7811SOL    HW224333   6.553   4.493   3.797
 7812SOL     OW24334   1.532   1.721   3.427
 7812SOL    HW124335   1.605   1.763   3.374
 7812SOL    HW224336   1.536   1.753   3.522
 7813SOL     OW24337   6.375   3.462   0.525
 7813SOL    HW124338   6.295   3.414   0.491
 7813SOL    HW224339   6.350   3.555   0.551
 7814SOL     OW24340   0.666   3.790   3.132
 7814SOL    HW124341   0.649   3.693   3.147
 7814SOL    HW224342   0.600   3.844   3.186
 7815SOL     OW24343   6.718   1.699   6.071
 7815SOL    HW124344   6.662   1.771   6.111
 7815SOL    HW224345   6.814   1.727   6.074
 7816SOL     OW24346   1.199   4.168   5.033
 7816SOL    HW124347   1.275   4.213   4.987
 7816SOL    HW224348   1.222   4.073   5.052
 7817SOL     OW24349   5.806   3.928   4.531
 7817SOL    HW124350   5.742   3.893   4.463
 7817SOL    HW224351   5.889   3.872   4.532
 7818SOL     OW24352   5.325   5.808   2.160
 7818SOL    HW124353   5.332   5.802   2.260
 7818SOL    HW224354   5.233   5.780   2.132
 7819SOL     OW24355   6.688   1.491   1.593
 7819SOL    HW124356   6.725   1.443   1.672
 7819SOL    HW224357   6.646   1.577   1.623
 7820SOL     OW24358   1.735   0.395   6.613
 7820SOL    HW124359   1.831   0.417   6.594
 7820SOL    HW224360   1.724   0.376   6.710
 7821SOL     OW24361   3.297   5.587   2.148
 7821SOL    HW124362   3.248   5.674   2.150
 7821SOL    HW224363   3.311   5.555   2.242
 7822SOL     OW24364   1.434   6.034   4.961
 7822SOL    HW124365   1.349   6.025   5.014
 7822SOL    HW224366   1.512   6.010   5.019
 7823SOL     OW24367   1.526   4.871   5.008
 7823SOL    HW124368   1.587   4.894   5.084
 7823SOL    HW224369   1.565   4.796   4.955
 7824SOL     OW24370   0.265   2.611   5.619
 7824SOL    HW124371   0.339   2.547   5.598
 7824SOL    HW224372   0.178   2.573   5.587
 7825SOL     OW24373   2.946   1.187   6.815
 7825SOL    HW124374   3.021   1.186   6.749
 7825SOL    HW224375   2.916   1.094   6.834
 7826SOL     OW24376   0.769   3.036   6.389
 7826SOL    HW124377   0.802   3.113   6.443
 7826SOL    HW224378   0.690   2.995   6.434
 7827SOL     OW24379   6.543   6.061   4.493
 7827SOL    HW124380   6.519   6.132   4.559
 7827SOL    HW224381   6.464   6.000   4.478
 7828SOL     OW24382   0.798   4.894   6.803
 7828SOL    HW124383   0.765   4.865   6.892
 7828SOL    HW224384   0.897   4.878   6.797
 7829SOL     OW24385   4.005   3.028   0.861
 7829SOL    HW124386   3.989   2.929   0.858
 7829SOL    HW224387   4.103   3.046   0.854
 7830SOL     OW24388   2.630   4.950   4.365
 7830SOL    HW124389   2.588   4.977   4.452
 7830SOL    HW224390   2.730   4.950   4.374
 7831SOL     OW24391   2.025   1.297   0.273
 7831SOL    HW124392   2.095   1.232   0.245
 7831SOL    HW224393   1.981   1.265   0.357
 7832SOL     OW24394   6.517   0.700   4.786
 7832SOL    HW124395   6.505   0.601   4.799
 7832SOL    HW224396   6.591   0.716   4.721
 7833SOL     OW24397   1.431   0.573   3.834
 7833SOL    HW124398   1.421   0.526   3.746
 7833SOL    HW224399   1.488   0.518   3.895
 7834SOL     OW24400   6.497   3.176   4.938
 7834SOL    HW124401   6.524   3.272   4.946
 7834SOL    HW224402   6.406   3.171   4.896
 7835SOL     OW24403   4.066   2.376   5.382
 7835SOL    HW124404   4.096   2.449   5.320
 7835SOL    HW224405   4.146   2.327   5.415
 7836SOL     OW24406   3.408   3.803   4.372
 7836SOL    HW124407   3.493   3.849   4.344
 7836SOL    HW224408   3.403   3.800   4.472
 7837SOL     OW24409   6.855   6.024   6.619
 7837SOL    HW124410   6.872   6.107   6.671
 7837SOL    HW224411   6.939   5.969   6.615
 7838SOL     OW24412   4.849   5.526   1.333
 7838SOL    HW124413   4.822   5.488   1.421
 7838SOL    HW224414   4.937   5.488   1.305
 7839SOL     OW24415   5.972   3.148   4.160
 7839SOL    HW124416   6.062   3.118   4.191
 7839SOL    HW224417   5.921   3.188   4.237
 7840SOL     OW24418   1.794   3.058   3.968
 7840SOL    HW124419   1.834   3.113   4.042
 7840SOL    HW224420   1.867   3.011   3.918
 7841SOL     OW24421   4.549   2.040   6.145
 7841SOL    HW124422   4.614   2.054   6.070
 7841SOL    HW224423   4.475   1.981   6.114
 7842SOL     OW24424   1.486   0.661   2.365
 7842SOL    HW124425   1.568   0.619   2.406
 7842SOL    HW224426   1.489   0.760   2.379
 7843SOL     OW24427   6.829   6.317   2.998
 7843SOL    HW124428   6.793   6.408   2.975
 7843SOL    HW224429   6.921   6.308   2.960
 7844SOL     OW24430   3.338   1.176   2.669
 7844SOL    HW124431   3.256   1.170   2.726
 7844SOL    HW224432   3.418   1.192   2.728
 7845SOL     OW24433   6.705   3.274   1.274
 7845SOL    HW124434   6.797   3.310   1.256
 7845SOL    HW224435   6.711   3.205   1.346
 7846SOL     OW24436   1.318   1.682   0.385
 7846SOL    HW124437   1.220   1.691   0.405
 7846SOL    HW224438   1.355   1.604   0.436
 7847SOL     OW24439   5.553   3.509   5.111
 7847SOL    HW124440   5.584   3.533   5.203
 7847SOL    HW224441   5.476   3.445   5.118
 7848SOL     OW24442   3.451   4.047   1.183
 7848SOL    HW124443   3.467   4.091   1.271
 7848SOL    HW224444   3.360   4.073   1.149
 7849SOL     OW24445   4.563   4.492   0.205
 7849SOL    HW124446   4.547   4.416   0.268
 7849SOL    HW224447   4.517   4.474   0.118
 7850SOL     OW24448   6.776   1.372   3.504
 7850SOL    HW124449   6.813   1.279   3.501
 7850SOL    HW224450   6.694   1.377   3.448
 7851SOL     OW24451   0.721   4.660   2.019
 7851SOL    HW124452   0.726   4.746   1.969
 7851SOL    HW224453   0.793   4.658   2.089
 7852SOL     OW24454   1.431   2.520   0.005
 7852SOL    HW124455   1.395   2.429   0.026
 7852SOL    HW224456   1.382   2.589   0.059
 7853SOL     OW24457   3.884   2.882   1.835
 7853SOL    HW124458   3.859   2.910   1.928
 7853SOL    HW224459   3.980   2.904   1.818
 7854SOL     OW24460   4.639   2.131   6.804
 7854SOL    HW124461   4.626   2.037   6.771
 7854SOL    HW224462   4.655   2.192   6.726
 7855SOL     OW24463   5.273   0.133   4.800
 7855SOL    HW124464   5.199   0.139   4.867
 7855SOL    HW224465   5.360   0.153   4.844
 7856SOL     OW24466   2.154   6.248   4.666
 7856SOL    HW124467   2.078   6.305   4.695
 7856SOL    HW224468   2.141   6.220   4.571
 7857SOL     OW24469   5.893   4.597   1.259
 7857SOL    HW124470   5.957   4.603   1.335
 7857SOL    HW224471   5.801   4.577   1.294
 7858SOL     OW24472   0.579   4.323   5.869
 7858SOL    HW124473   0.587   4.422   5.868
 7858SOL    HW224474   0.501   4.296   5.925
 7859SOL     OW24475   5.633   2.216   0.570
 7859SOL    HW124476   5.544   2.171   0.565
 7859SOL    HW224477   5.628   2.292   0.635
 7860SOL     OW24478   2.613   1.063   4.370
 7860SOL    HW124479   2.683   1.091   4.435
 7860SOL    HW224480   2.550   1.139   4.354
 7861SOL     OW24481   2.393   6.441   0.982
 7861SOL    HW124482   2.452   6.466   1.059
 7861SOL    HW224483   2.300   6.473   1.000
 7862SOL     OW24484   2.305   6.070   0.445
 7862SOL    HW124485   2.333   6.055   0.540
 7862SOL    HW224486   2.367   6.137   0.403
 7863SOL     OW24487   6.873   4.056   3.673
 7863SOL    HW124488   6.832   3.970   3.642
 7863SOL    HW224489   6.855   4.069   3.771
 7864SOL     OW24490   1.759   6.008   5.435
 7864SOL    HW124491   1.808   6.090   5.405
 7864SOL    HW224492   1.771   5.996   5.533
 7865SOL     OW24493   5.694   5.092   3.234
 7865SOL    HW124494   5.691   5.088   3.334
 7865SOL    HW224495   5.685   5.000   3.196
 7866SOL     OW24496   0.413   6.736   5.808
 7866SOL    HW124497   0.435   6.823   5.850
 7866SOL    HW224498   0.471   6.722   5.727
 7867SOL     OW24499   5.601   6.186   3.558
 7867SOL    HW124500   5.696   6.213   3.568
 7867SOL    HW224501   5.595   6.108   3.495
 7868SOL     OW24502   3.135   6.007   1.587
 7868SOL    HW124503   3.044   6.049   1.582
 7868SOL    HW224504   3.152   5.976   1.680
 7869SOL     OW24505   5.514   5.128   5.834
 7869SOL    HW124506   5.448   5.052   5.828
 7869SOL    HW224507   5.595   5.105   5.780
 7870SOL     OW24508   5.449   5.955   4.401
 7870SOL    HW124509   5.493   5.865   4.410
 7870SOL    HW224510   5.448   6.001   4.490
 7871SOL     OW24511   5.448   1.501   1.826
 7871SOL    HW124512   5.540   1.463   1.816
 7871SOL    HW224513   5.403   1.459   1.905
 7872SOL     OW24514   1.840   5.601   2.901
 7872SOL    HW124515   1.765   5.622   2.964
 7872SOL    HW224516   1.926   5.601   2.951
 7873SOL     OW24517   5.998   1.563   0.138
 7873SOL    HW124518   6.067   1.498   0.107
 7873SOL    HW224519   6.042   1.647   0.168
 7874SOL     OW24520   5.527   2.276   0.868
 7874SOL    HW124521   5.547   2.351   0.804
 7874SOL    HW224522   5.428   2.271   0.883
 7875SOL     OW24523   5.777   4.650   6.457
 7875SOL    HW124524   5.707   4.658   6.528
 7875SOL    HW224525   5.738   4.607   6.376
 7876SOL     OW24526   1.122   6.739   2.908
 7876SOL    HW124527   1.221   6.731   2.898
 7876SOL    HW224528   1.101   6.817   2.967
 7877SOL     OW24529   7.003   2.189   2.786
 7877SOL    HW124530   0.007   2.146   2.700
 7877SOL    HW224531   6.960   2.277   2.768
 7878SOL     OW24532   4.106   4.729   2.845
 7878SOL    HW124533   4.038   4.785   2.796
 7878SOL    HW224534   4.059   4.672   2.912
 7879SOL     OW24535   3.127   4.971   3.128
 7879SOL    HW124536   3.045   5.023   3.150
 7879SOL    HW224537   3.100   4.881   3.093
 7880SOL     OW24538   1.385   4.161   2.076
 7880SOL    HW124539   1.433   4.157   1.989
 7880SOL    HW224540   1.450   4.176   2.150
 7881SOL     OW24541   4.794   4.387   4.083
 7881SOL    HW124542   4.880   4.434   4.067
 7881SOL    HW224543   4.810   4.305   4.139
 7882SOL     OW24544   1.442   3.392   0.596
 7882SOL    HW124545   1.424   3.456   0.670
 7882SOL    HW224546   1.539   3.369   0.595
 7883SOL     OW24547   1.044   0.442   5.365
 7883SOL    HW124548   1.138   0.438   5.399
 7883SOL    HW224549   0.994   0.512   5.416
 7884SOL     OW24550   0.828   2.625   4.292
 7884SOL    HW124551   0.863   2.716   4.312
 7884SOL    HW224552   0.728   2.627   4.287
 7885SOL     OW24553   6.438   5.628   6.413
 7885SOL    HW124554   6.533   5.621   6.384
 7885SOL    HW224555   6.416   5.724   6.434
 7886SOL     OW24556   4.683   4.829   0.360
 7886SOL    HW124557   4.594   4.799   0.323
 7886SOL    HW224558   4.670   4.868   0.450
 7887SOL     OW24559   4.666   2.374   6.642
 7887SOL    HW124560   4.629   2.440   6.708
 7887SOL    HW224561   4.748   2.411   6.599
 7888SOL     OW24562   5.175   0.741   4.704
 7888SOL    HW124563   5.194   0.838   4.692
 7888SOL    HW224564   5.232   0.688   4.642
 7889SOL     OW24565   1.264   5.880   2.643
 7889SOL    HW124566   1.211   5.914   2.565
 7889SOL    HW224567   1.322   5.953   2.678
 7890SOL     OW24568   1.699   3.058   2.854
 7890SOL    HW124569   1.749   3.022   2.933
 7890SOL    HW224570   1.718   3.156   2.845
 7891SOL     OW24571   1.412   4.761   3.048
 7891SOL    HW124572   1.339   4.762   2.980
 7891SOL    HW224573   1.374   4.785   3.137
 7892SOL     OW24574   1.985   3.034   5.787
 7892SOL    HW124575   1.957   2.962   5.850
 7892SOL    HW224576   1.981   3.122   5.833
 7893SOL     OW24577   5.988   6.408   1.621
 7893SOL    HW124578   5.999   6.444   1.528
 7893SOL    HW224579   6.024   6.315   1.625
 7894SOL     OW24580   2.871   0.104   1.807
 7894SOL    HW124581   2.773   0.109   1.785
 7894SOL    HW224582   2.923   0.085   1.723
 7895SOL     OW24583   6.912   1.820   3.334
 7895SOL    HW124584   6.821   1.828   3.373
 7895SOL    HW224585   6.941   1.908   3.298
 7896SOL     OW24586   4.457   2.015   5.419
 7896SOL    HW124587   4.437   1.960   5.338
 7896SOL    HW224588   4.371   2.040   5.464
 7897SOL     OW24589   3.032   3.122   6.218
 7897SOL    HW124590   3.112   3.176   6.190
 7897SOL    HW224591   3.009   3.058   6.146
 7898SOL     OW24592   4.474   2.254   3.535
 7898SOL    HW124593   4.384   2.241   3.576
 7898SOL    HW224594   4.469   2.324   3.464
 7899SOL     OW24595   5.173   0.971   2.812
 7899SOL    HW124596   5.259   1.003   2.771
 7899SOL    HW224597   5.190   0.940   2.906
 7900SOL     OW24598   1.766   5.645   0.565
 7900SOL    HW124599   1.680   5.685   0.597
 7900SOL    HW224600   1.794   5.689   0.480
 7901SOL     OW24601   6.212   5.773   0.348
 7901SOL    HW124602   6.180   5.817   0.432
 7901SOL    HW224603   6.150   5.698   0.324
 7902SOL     OW24604   5.164   4.080   6.727
 7902SOL    HW124605   5.153   4.179   6.714
 7902SOL    HW224606   5.261   4.060   6.746
 7903SOL     OW24607   0.439   1.912   0.013
 7903SOL    HW124608   0.459   1.947   6.944
 7903SOL    HW224609   0.442   1.987   0.079
 7904SOL     OW24610   6.346   0.961   2.875
 7904SOL    HW124611   6.262   0.929   2.919
 7904SOL    HW224612   6.322   1.017   2.795
 7905SOL     OW24613   3.484   1.246   0.686
 7905SOL    HW124614   3.578   1.240   0.720
 7905SOL    HW224615   3.421   1.248   0.763
 7906SOL     OW24616   6.388   5.561   6.748
 7906SOL    HW124617   6.409   5.513   6.663
 7906SOL    HW224618   6.305   5.523   6.789
 7907SOL     OW24619   6.746   2.953   2.086
 7907SOL    HW124620   6.719   3.034   2.138
 7907SOL    HW224621   6.673   2.885   2.090
 7908SOL     OW24622   6.002   1.900   3.609
 7908SOL    HW124623   5.939   1.906   3.686
 7908SOL    HW224624   6.079   1.841   3.635
 7909SOL     OW24625   4.592   4.745   5.151
 7909SOL    HW124626   4.576   4.719   5.056
 7909SOL    HW224627   4.524   4.813   5.179
 7910SOL     OW24628   5.670   3.951   5.863
 7910SOL    HW124629   5.697   3.890   5.788
 7910SOL    HW224630   5.670   4.046   5.832
 7911SOL     OW24631   6.097   5.048   6.855
 7911SOL    HW124632   6.102   5.101   6.940
 7911SOL    HW224633   6.154   4.966   6.863
 7912SOL     OW24634   6.474   5.254   5.663
 7912SOL    HW124635   6.451   5.168   5.616
 7912SOL    HW224636   6.569   5.278   5.643
 7913SOL     OW24637   0.669   5.651   6.320
 7913SOL    HW124638   0.612   5.620   6.243
 7913SOL    HW224639   0.666   5.582   6.393
 7914SOL     OW24640   0.024   3.543   2.541
 7914SOL    HW124641   0.003   3.461   2.488
 7914SOL    HW224642   0.029   3.519   2.638
 7915SOL     OW24643   4.307   1.781   2.405
 7915SOL    HW124644   4.241   1.717   2.444
 7915SOL    HW224645   4.287   1.795   2.308
 7916SOL     OW24646   4.772   3.357   5.589
 7916SOL    HW124647   4.760   3.261   5.614
 7916SOL    HW224648   4.737   3.415   5.663
 7917SOL     OW24649   3.412   4.166   4.202
 7917SOL    HW124650   3.331   4.118   4.235
 7917SOL    HW224651   3.480   4.171   4.276
 7918SOL     OW24652   6.169   2.038   2.389
 7918SOL    HW124653   6.176   2.037   2.289
 7918SOL    HW224654   6.150   1.945   2.422
 7919SOL     OW24655   5.772   5.019   1.577
 7919SOL    HW124656   5.700   4.958   1.544
 7919SOL    HW224657   5.846   4.966   1.617
 7920SOL     OW24658   1.225   5.434   1.766
 7920SOL    HW124659   1.208   5.453   1.863
 7920SOL    HW224660   1.217   5.519   1.714
 7921SOL     OW24661   3.376   6.313   1.767
 7921SOL    HW124662   3.360   6.237   1.704
 7921SOL    HW224663   3.472   6.313   1.796
 7922SOL     OW24664   0.363   5.161   7.020
 7922SOL    HW124665   0.264   5.164   0.016
 7922SOL    HW224666   0.386   5.235   6.957
 7923SOL     OW24667   1.202   1.470   3.074
 7923SOL    HW124668   1.260   1.449   3.152
 7923SOL    HW224669   1.218   1.564   3.044
 7924SOL     OW24670   2.195   0.393   4.060
 7924SOL    HW124671   2.272   0.352   4.110
 7924SOL    HW224672   2.229   0.437   3.977
 7925SOL     OW24673   6.921   0.148   6.759
 7925SOL    HW124674   6.953   0.242   6.749
 7925SOL    HW224675   6.822   0.144   6.745
 7926SOL     OW24676   3.006   0.114   1.557
 7926SOL    HW124677   2.926   0.145   1.506
 7926SOL    HW224678   3.076   0.186   1.556
 7927SOL     OW24679   4.399   4.610   4.205
 7927SOL    HW124680   4.378   4.690   4.149
 7927SOL    HW224681   4.339   4.608   4.284
 7928SOL     OW24682   1.619   5.166   1.285
 7928SOL    HW124683   1.654   5.081   1.245
 7928SOL    HW224684   1.636   5.166   1.384
 7929SOL     OW24685   4.010   3.922   4.215
 7929SOL    HW124686   4.034   3.924   4.312
 7929SOL    HW224687   3.938   3.988   4.197
 7930SOL     OW24688   5.254   5.962   4.831
 7930SOL    HW124689   5.185   5.889   4.830
 7930SOL    HW224690   5.209   6.050   4.845
 7931SOL     OW24691   1.678   3.037   0.898
 7931SOL    HW124692   1.758   3.086   0.932
 7931SOL    HW224693   1.649   3.077   0.811
 7932SOL     OW24694   3.316   0.047   0.663
 7932SOL    HW124695   3.277   0.048   0.755
 7932SOL    HW224696   3.377   6.992   0.653
 7933SOL     OW24697   1.484   0.371   0.188
 7933SOL    HW124698   1.460   0.299   0.123
 7933SOL    HW224699   1.484   0.459   0.141
 7934SOL     OW24700   3.344   3.673   5.690
 7934SOL    HW124701   3.411   3.729   5.640
 7934SOL    HW224702   3.331   3.587   5.641
 7935SOL     OW24703   4.170   6.337   1.481
 7935SOL    HW124704   4.140   6.243   1.498
 7935SOL    HW224705   4.203   6.378   1.566
 7936SOL     OW24706   4.482   5.616   3.132
 7936SOL    HW124707   4.514   5.708   3.111
 7936SOL    HW224708   4.503   5.594   3.227
 7937SOL     OW24709   6.408   6.304   5.406
 7937SOL    HW124710   6.339   6.239   5.438
 7937SOL    HW224711   6.377   6.397   5.424
 7938SOL     OW24712   5.943   4.366   4.990
 7938SOL    HW124713   5.901   4.453   4.965
 7938SOL    HW224714   6.042   4.376   4.992
 7939SOL     OW24715   0.799   0.379   4.360
 7939SOL    HW124716   0.807   0.302   4.297
 7939SOL    HW224717   0.785   0.463   4.308
 7940SOL     OW24718   1.694   5.965   0.869
 7940SOL    HW124719   1.675   5.907   0.949
 7940SOL    HW224720   1.765   5.922   0.813
 7941SOL     OW24721   0.264   0.035   0.432
 7941SOL    HW124722   0.332   0.105   0.412
 7941SOL    HW224723   0.211   0.014   0.349
 7942SOL     OW24724   1.419   0.960   1.352
 7942SOL    HW124725   1.451   0.936   1.444
 7942SOL    HW224726   1.319   0.953   1.349
 7943SOL     OW24727   5.818   2.143   1.016
 7943SOL    HW124728   5.806   2.129   0.918
 7943SOL    HW224729   5.787   2.235   1.040
 7944SOL     OW24730   0.702   4.411   2.233
 7944SOL    HW124731   0.678   4.318   2.207
 7944SOL    HW224732   0.620   4.468   2.234
 7945SOL     OW24733   5.425   6.392   1.757
 7945SOL    HW124734   5.393   6.317   1.699
 7945SOL    HW224735   5.480   6.455   1.702
 7946SOL     OW24736   1.376   1.950   5.688
 7946SOL    HW124737   1.462   1.927   5.644
 7946SOL    HW224738   1.303   1.954   5.619
 7947SOL     OW24739   3.809   4.204   6.344
 7947SOL    HW124740   3.870   4.131   6.314
 7947SOL    HW224741   3.716   4.168   6.352
 7948SOL     OW24742   0.736   5.234   0.346
 7948SOL    HW124743   0.688   5.148   0.328
 7948SOL    HW224744   0.732   5.291   0.264
 7949SOL     OW24745   6.497   4.405   4.286
 7949SOL    HW124746   6.558   4.461   4.230
 7949SOL    HW224747   6.476   4.320   4.237
 7950SOL     OW24748   3.031   5.233   4.599
 7950SOL    HW124749   3.026   5.333   4.611
 7950SOL    HW224750   2.960   5.190   4.654
 7951SOL     OW24751   2.901   3.174   1.149
 7951SOL    HW124752   2.984   3.134   1.188
 7951SOL    HW224753   2.857   3.233   1.217
 7952SOL     OW24754   5.070   4.175   0.355
 7952SOL    HW124755   4.988   4.230   0.340
 7952SOL    HW224756   5.049   4.098   0.415
 7953SOL     OW24757   2.100   3.129   2.803
 7953SOL    HW124758   2.163   3.085   2.739
 7953SOL    HW224759   2.132   3.114   2.897
 7954SOL     OW24760   4.778   5.270   5.225
 7954SOL    HW124761   4.725   5.186   5.218
 7954SOL    HW224762   4.811   5.297   5.135
 7955SOL     OW24763   1.233   6.720   6.011
 7955SOL    HW124764   1.320   6.701   6.057
 7955SOL    HW224765   1.219   6.653   5.937
 7956SOL     OW24766   5.923   6.979   3.846
 7956SOL    HW124767   6.014   6.953   3.880
 7956SOL    HW224768   5.932   7.013   3.752
 7957SOL     OW24769   0.891   2.596   1.170
 7957SOL    HW124770   0.809   2.631   1.124
 7957SOL    HW224771   0.951   2.553   1.103
 7958SOL     OW24772   2.539   5.463   2.889
 7958SOL    HW124773   2.444   5.440   2.868
 7958SOL    HW224774   2.600   5.397   2.845
 7959SOL     OW24775   5.270   5.098   0.806
 7959SOL    HW124776   5.361   5.089   0.847
 7959SOL    HW224777   5.265   5.184   0.755
 7960SOL     OW24778   2.248   1.951   1.060
 7960SOL    HW124779   2.305   1.969   1.139
 7960SOL    HW224780   2.229   1.853   1.054
 7961SOL     OW24781   1.979   5.389   6.443
 7961SOL    HW124782   1.961   5.294   6.418
 7961SOL    HW224783   2.078   5.402   6.455
 7962SOL     OW24784   1.348   0.318   2.382
 7962SOL    HW124785   1.301   0.405   2.397
 7962SOL    HW224786   1.304   0.269   2.307
 7963SOL     OW24787   0.652   0.387   4.577
 7963SOL    HW124788   0.708   0.401   4.495
 7963SOL    HW224789   0.680   0.302   4.622
 7964SOL     OW24790   6.137   5.921   3.146
 7964SOL    HW124791   6.192   5.842   3.119
 7964SOL    HW224792   6.044   5.911   3.109
 7965SOL     OW24793   5.385   1.899   0.740
 7965SOL    HW124794   5.298   1.861   0.771
 7965SOL    HW224795   5.454   1.888   0.812
 7966SOL     OW24796   0.258   5.192   3.643
 7966SOL    HW124797   0.333   5.241   3.599
 7966SOL    HW224798   0.294   5.108   3.686
 7967SOL     OW24799   2.914   6.000   2.513
 7967SOL    HW124800   2.989   5.934   2.515
 7967SOL    HW224801   2.928   6.069   2.584
 7968SOL     OW24802   1.738   0.961   1.819
 7968SOL    HW124803   1.642   0.987   1.826
 7968SOL    HW224804   1.774   0.938   1.909
 7969SOL     OW24805   3.307   2.109   2.988
 7969SOL    HW124806   3.328   2.167   2.910
 7969SOL    HW224807   3.213   2.127   3.019
 7970SOL     OW24808   0.645   5.020   3.172
 7970SOL    HW124809   0.610   4.927   3.180
 7970SOL    HW224810   0.590   5.081   3.228
 7971SOL     OW24811   2.601   1.202   1.638
 7971SOL    HW124812   2.566   1.268   1.704
 7971SOL    HW224813   2.659   1.135   1.685
 7972SOL     OW24814   0.592   4.839   2.319
 7972SOL    HW124815   0.545   4.757   2.352
 7972SOL    HW224816   0.568   4.855   2.224
 7973SOL     OW24817   4.619   2.470   2.602
 7973SOL    HW124818   4.610   2.372   2.621
 7973SOL    HW224819   4.618   2.521   2.688
 7974SOL     OW24820   5.288   0.215   4.034
 7974SOL    HW124821   5.335   0.271   3.966
 7974SOL    HW224822   5.343   0.133   4.052
 7975SOL     OW24823   2.428   1.233   3.638
 7975SOL    HW124824   2.367   1.162   3.673
 7975SOL    HW224825   2.398   1.322   3.671
 7976SOL     OW24826   0.556   5.389   6.392
 7976SOL    HW124827   0.534   5.302   6.436
 7976SOL    HW224828   0.638   5.428   6.434
 7977SOL     OW24829   5.223   6.286   1.305
 7977SOL    HW124830   5.322   6.283   1.296
 7977SOL    HW224831   5.181   6.246   1.223
 7978SOL     OW24832   4.392   2.552   5.916
 7978SOL    HW124833   4.472   2.611   5.924
 7978SOL    HW224834   4.397   2.479   5.984
 7979SOL     OW24835   3.866   6.972   4.081
 7979SOL    HW124836   3.834   6.894   4.027
 7979SOL    HW224837   3.964   6.961   4.100
 7980SOL     OW24838   2.814   6.805   1.998
 7980SOL    HW124839   2.774   6.758   2.077
 7980SOL    HW224840   2.843   6.897   2.025
 7981SOL     OW24841   1.207   5.536   3.200
 7981SOL    HW124842   1.140   5.492   3.140
 7981SOL    HW224843   1.297   5.535   3.155
 7982SOL     OW24844   6.754   2.864   0.702
 7982SOL    HW124845   6.764   2.960   0.729
 7982SOL    HW224846   6.730   2.809   0.781
 7983SOL     OW24847   4.887   2.405   2.481
 7983SOL    HW124848   4.844   2.414   2.391
 7983SOL    HW224849   4.906   2.308   2.499
 7984SOL     OW24850   0.766   0.687   0.771
 7984SOL    HW124851   0.718   0.622   0.830
 7984SOL    HW224852   0.861   0.697   0.801
 7985SOL     OW24853   0.541   1.345   1.264
 7985SOL    HW124854   0.626   1.333   1.214
 7985SOL    HW224855   0.524   1.443   1.278
 7986SOL     OW24856   4.030   1.899   0.916
 7986SOL    HW124857   4.004   1.879   1.011
 7986SOL    HW224858   3.980   1.979   0.884
 7987SOL     OW24859   0.365   3.033   4.856
 7987SOL    HW124860   0.367   3.119   4.908
 7987SOL    HW224861   0.326   2.961   4.914
 7988SOL     OW24862   2.739   1.647   5.629
 7988SOL    HW124863   2.828   1.623   5.666
 7988SOL    HW224864   2.749   1.721   5.562
 7989SOL     OW24865   3.005   3.475   5.675
 7989SOL    HW124866   3.001   3.376   5.658
 7989SOL    HW224867   3.082   3.494   5.737
 7990SOL     OW24868   1.986   2.578   5.034
 7990SOL    HW124869   2.047   2.536   4.967
 7990SOL    HW224870   2.032   2.656   5.076
 7991SOL     OW24871   0.201   3.471   5.341
 7991SOL    HW124872   0.299   3.468   5.321
 7991SOL    HW224873   0.164   3.378   5.342
 7992SOL     OW24874   2.673   0.876   0.554
 7992SOL    HW124875   2.652   0.953   0.495
 7992SOL    HW224876   2.740   0.903   0.623
 7993SOL     OW24877   1.624   6.824   6.626
 7993SOL    HW124878   1.630   6.887   6.703
 7993SOL    HW224879   1.652   6.871   6.542
 7994SOL     OW24880   5.621   0.772   3.626
 7994SOL    HW124881   5.587   0.698   3.570
 7994SOL    HW224882   5.602   0.752   3.723
 7995SOL     OW24883   3.896   4.941   2.910
 7995SOL    HW124884   3.857   5.033   2.908
 7995SOL    HW224885   3.933   4.922   3.001
 7996SOL     OW24886   3.374   0.758   4.739
 7996SOL    HW124887   3.398   0.855   4.747
 7996SOL    HW224888   3.453   0.708   4.703
 7997SOL     OW24889   5.684   2.825   1.756
 7997SOL    HW124890   5.608   2.785   1.706
 7997SOL    HW224891   5.771   2.796   1.715
 7998SOL     OW24892   6.157   5.227   6.595
 7998SOL    HW124893   6.081   5.289   6.612
 7998SOL    HW224894   6.159   5.157   6.667
 7999SOL     OW24895   1.878   0.691   5.647
 7999SOL    HW124896   1.817   0.612   5.638
 7999SOL    HW224897   1.972   0.663   5.629
 8000SOL     OW24898   5.974   6.724   5.797
 8000SOL    HW124899   6.064   6.760   5.820
 8000SOL    HW224900   5.983   6.652   5.728
 8001SOL     OW24901   2.315   0.105   1.326
 8001SOL    HW124902   2.298   0.091   1.424
 8001SOL    HW224903   2.229   0.116   1.278
 8002SOL     OW24904   5.524   3.204   5.595
 8002SOL    HW124905   5.569   3.131   5.543
 8002SOL    HW224906   5.425   3.202   5.577
 8003SOL     OW24907   3.836   5.154   3.198
 8003SOL    HW124908   3.934   5.176   3.203
 8003SOL    HW224909   3.796   5.162   3.289
 8004SOL     OW24910   1.813   3.956   2.704
 8004SOL    HW124911   1.805   4.049   2.737
 8004SOL    HW224912   1.900   3.917   2.735
 8005SOL     OW24913   3.063   1.119   1.661
 8005SOL    HW124914   2.987   1.143   1.601
 8005SOL    HW224915   3.143   1.174   1.639
 8006SOL     OW24916   3.160   6.124   0.504
 8006SOL    HW124917   3.156   6.072   0.589
 8006SOL    HW224918   3.223   6.079   0.441
 8007SOL     OW24919   0.254   1.222   4.724
 8007SOL    HW124920   0.206   1.230   4.811
 8007SOL    HW224921   0.234   1.302   4.667
 8008SOL     OW24922   6.473   6.046   0.719
 8008SOL    HW124923   6.530   5.966   0.699
 8008SOL    HW224924   6.530   6.129   0.714
 8009SOL     OW24925   7.010   6.626   3.446
 8009SOL    HW124926   0.016   6.547   3.501
 8009SOL    HW224927   0.052   6.640   3.371
 8010SOL     OW24928   2.548   2.795   6.769
 8010SOL    HW124929   2.516   2.722   6.831
 8010SOL    HW224930   2.508   2.781   6.678
 8011SOL     OW24931   2.921   2.055   0.744
 8011SOL    HW124932   2.958   2.040   0.835
 8011SOL    HW224933   2.849   2.124   0.747
 8012SOL     OW24934   3.163   6.826   2.795
 8012SOL    HW124935   3.136   6.770   2.873
 8012SOL    HW224936   3.263   6.827   2.788
 8013SOL     OW24937   6.243   4.524   5.015
 8013SOL    HW124938   6.249   4.442   4.958
 8013SOL    HW224939   6.322   4.528   5.076
 8014SOL     OW24940   1.936   6.957   6.867
 8014SOL    HW124941   1.970   6.880   6.922
 8014SOL    HW224942   1.914   0.010   6.927
 8015SOL     OW24943   1.801   2.155   6.757
 8015SOL    HW124944   1.773   2.250   6.768
 8015SOL    HW224945   1.722   2.099   6.733
 8016SOL     OW24946   3.662   6.222   1.466
 8016SOL    HW124947   3.739   6.170   1.504
 8016SOL    HW224948   3.584   6.218   1.529
 8017SOL     OW24949   5.874   4.626   4.218
 8017SOL    HW124950   5.941   4.636   4.291
 8017SOL    HW224951   5.783   4.652   4.251
 8018SOL     OW24952   5.854   2.443   4.520
 8018SOL    HW124953   5.794   2.392   4.582
 8018SOL    HW224954   5.949   2.415   4.535
 8019SOL     OW24955   2.376   5.539   1.178
 8019SOL    HW124956   2.450   5.475   1.157
 8019SOL    HW224957   2.411   5.632   1.176
 8020SOL     OW24958   5.793   5.879   6.814
 8020SOL    HW124959   5.869   5.845   6.869
 8020SOL    HW224960   5.824   5.893   6.719
 8021SOL     OW24961   1.016   0.820   0.748
 8021SOL    HW124962   1.066   0.893   0.701
 8021SOL    HW224963   1.051   0.811   0.841
 8022SOL     OW24964   4.579   6.109   3.123
 8022SOL    HW124965   4.625   6.178   3.178
 8022SOL    HW224966   4.506   6.066   3.177
 8023SOL     OW24967   6.560   6.752   3.279
 8023SOL    HW124968   6.609   6.696   3.346
 8023SOL    HW224969   6.555   6.846   3.313
 8024SOL     OW24970   4.539   5.086   5.013
 8024SOL    HW124971   4.554   5.148   4.936
 8024SOL    HW224972   4.461   5.119   5.067
 8025SOL     OW24973   3.784   5.686   0.316
 8025SOL    HW124974   3.695   5.689   0.363
 8025SOL    HW224975   3.799   5.772   0.267
 8026SOL     OW24976   1.202   2.615   0.749
 8026SOL    HW124977   1.176   2.551   0.678
 8026SOL    HW224978   1.298   2.601   0.774
 8027SOL     OW24979   5.211   2.754   5.434
 8027SOL    HW124980   5.220   2.802   5.522
 8027SOL    HW224981   5.211   2.821   5.359
 8028SOL     OW24982   5.750   4.616   6.789
 8028SOL    HW124983   5.691   4.695   6.807
 8028SOL    HW224984   5.838   4.648   6.753
 8029SOL     OW24985   3.084   4.226   0.866
 8029SOL    HW124986   3.170   4.237   0.816
 8029SOL    HW224987   3.019   4.297   0.836
 8030SOL     OW24988   5.755   3.826   6.894
 8030SOL    HW124989   5.765   3.868   6.984
 8030SOL    HW224990   5.798   3.885   6.825
 8031SOL     OW24991   3.979   5.701   1.450
 8031SOL    HW124992   3.942   5.789   1.421
 8031SOL    HW224993   3.930   5.627   1.405
 8032SOL     OW24994   5.230   4.260   6.030
 8032SOL    HW124995   5.252   4.351   6.064
 8032SOL    HW224996   5.314   4.216   5.997
 8033SOL     OW24997   6.180   2.606   0.179
 8033SOL    HW124998   6.176   2.577   0.084
 8033SOL    HW224999   6.098   2.659   0.201
 8034SOL     OW25000   5.942   1.044   5.798
 8034SOL    HW125001   5.884   1.126   5.799
 8034SOL    HW225002   5.886   0.964   5.778
 8035SOL     OW25003   5.684   6.541   0.112
 8035SOL    HW125004   5.632   6.568   0.031
 8035SOL    HW225005   5.680   6.614   0.180
 8036SOL     OW25006   1.957   3.918   1.781
 8036SOL    HW125007   2.001   3.839   1.822
 8036SOL    HW225008   1.967   3.997   1.842
 8037SOL     OW25009   1.733   3.244   1.637
 8037SOL    HW125010   1.675   3.273   1.561
 8037SOL    HW225011   1.791   3.321   1.665
 8038SOL     OW25012   6.889   2.056   4.381
 8038SOL    HW125013   6.892   1.972   4.328
 8038SOL    HW225014   6.970   2.112   4.361
 8039SOL     OW25015   2.578   6.485   4.209
 8039SOL    HW125016   2.489   6.440   4.219
 8039SOL    HW225017   2.582   6.563   4.271
 8040SOL     OW25018   0.181   5.544   0.861
 8040SOL    HW125019   0.121   5.622   0.879
 8040SOL    HW225020   0.255   5.544   0.928
 8041SOL     OW25021   4.650   1.757   0.764
 8041SOL    HW125022   4.631   1.810   0.847
 8041SOL    HW225023   4.571   1.762   0.702
 8042SOL     OW25024   2.863   3.395   1.312
 8042SOL    HW125025   2.954   3.406   1.353
 8042SOL    HW225026   2.798   3.454   1.360
 8043SOL     OW25027   2.363   0.124   1.622
 8043SOL    HW125028   2.282   0.100   1.674
 8043SOL    HW225029   2.352   0.216   1.583
 8044SOL     OW25030   3.125   3.593   2.117
 8044SOL    HW125031   3.211   3.555   2.151
 8044SOL    HW225032   3.049   3.537   2.148
 8045SOL     OW25033   6.221   2.705   3.173
 8045SOL    HW125034   6.230   2.800   3.204
 8045SOL    HW225035   6.312   2.662   3.170
 8046SOL     OW25036   6.759   5.037   6.241
 8046SOL    HW125037   6.837   4.976   6.234
 8046SOL    HW225038   6.674   4.984   6.233
 8047SOL     OW25039   3.723   5.999   4.208
 8047SOL    HW125040   3.796   6.064   4.227
 8047SOL    HW225041   3.756   5.930   4.144
 8048SOL     OW25042   6.893   0.082   5.732
 8048SOL    HW125043   6.963   0.108   5.666
 8048SOL    HW225044   6.935   0.037   5.810
 8049SOL     OW25045   1.635   5.366   0.623
 8049SOL    HW125046   1.670   5.460   0.622
 8049SOL    HW225047   1.628   5.334   0.718
 8050SOL     OW25048   1.621   2.883   1.380
 8050SOL    HW125049   1.579   2.935   1.454
 8050SOL    HW225050   1.590   2.920   1.292
 8051SOL     OW25051   4.244   1.319   3.501
 8051SOL    HW125052   4.204   1.273   3.422
 8051SOL    HW225053   4.277   1.410   3.474
 8052SOL     OW25054   2.986   1.707   2.689
 8052SOL    HW125055   3.026   1.799   2.694
 8052SOL    HW225056   2.905   1.709   2.631
 8053SOL     OW25057   3.892   3.305   2.363
 8053SOL    HW125058   3.938   3.388   2.395
 8053SOL    HW225059   3.943   3.225   2.396
 8054SOL     OW25060   4.071   6.325   4.995
 8054SOL    HW125061   4.021   6.276   5.068
 8054SOL    HW225062   4.057   6.278   4.908
 8055SOL     OW25063   1.251   6.995   5.485
 8055SOL    HW125064   1.337   0.011   5.451
 8055SOL    HW225065   1.228   6.913   5.433
 8056SOL     OW25066   4.148   1.884   3.091
 8056SOL    HW125067   4.142   1.956   3.160
 8056SOL    HW225068   4.056   1.854   3.066
 8057SOL     OW25069   3.723   6.490   3.776
 8057SOL    HW125070   3.701   6.392   3.778
 8057SOL    HW225071   3.817   6.503   3.808
 8058SOL     OW25072   1.890   1.282   3.039
 8058SOL    HW125073   1.804   1.230   3.039
 8058SOL    HW225074   1.937   1.268   3.126
 8059SOL     OW25075   2.753   1.659   3.986
 8059SOL    HW125076   2.796   1.634   3.899
 8059SOL    HW225077   2.671   1.712   3.969
 8060SOL     OW25078   0.617   1.682   4.860
 8060SOL    HW125079   0.598   1.600   4.805
 8060SOL    HW225080   0.689   1.735   4.816
 8061SOL     OW25081   0.675   5.648   1.860
 8061SOL    HW125082   0.597   5.711   1.869
 8061SOL    HW225083   0.742   5.686   1.797
 8062SOL     OW25084   2.171   3.791   3.177
 8062SOL    HW125085   2.082   3.751   3.201
 8062SOL    HW225086   2.216   3.824   3.261
 8063SOL     OW25087   3.048   3.211   0.012
 8063SOL    HW125088   3.083   3.121   0.040
 8063SOL    HW225089   2.952   3.219   0.037
 8064SOL     OW25090   6.730   3.495   0.023
 8064SOL    HW125091   6.776   3.408   0.036
 8064SOL    HW225092   6.717   3.511   6.948
 8065SOL     OW25093   4.772   0.309   5.794
 8065SOL    HW125094   4.810   0.338   5.707
 8065SOL    HW225095   4.718   0.225   5.781
 8066SOL     OW25096   1.865   0.227   1.943
 8066SOL    HW125097   1.878   0.325   1.925
 8066SOL    HW225098   1.933   0.197   2.010
 8067SOL     OW25099   5.217   2.485   1.460
 8067SOL    HW125100   5.125   2.525   1.452
 8067SOL    HW225101   5.210   2.395   1.502
 8068SOL     OW25102   0.836   4.398   4.330
 8068SOL    HW125103   0.783   4.469   4.378
 8068SOL    HW225104   0.930   4.398   4.366
 8069SOL     OW25105   1.805   6.269   2.165
 8069SOL    HW125106   1.877   6.279   2.235
 8069SOL    HW225107   1.820   6.184   2.115
 8070SOL     OW25108   4.107   0.191   1.510
 8070SOL    HW125109   4.204   0.180   1.488
 8070SOL    HW225110   4.052   0.168   1.429
 8071SOL     OW25111   4.026   6.381   6.798
 8071SOL    HW125112   3.959   6.336   6.857
 8071SOL    HW225113   4.059   6.317   6.729
 8072SOL     OW25114   5.408   0.441   1.498
 8072SOL    HW125115   5.399   0.539   1.509
 8072SOL    HW225116   5.334   0.407   1.439
 8073SOL     OW25117   4.245   6.302   5.623
 8073SOL    HW125118   4.339   6.291   5.593
 8073SOL    HW225119   4.241   6.296   5.723
 8074SOL     OW25120   3.184   3.819   0.211
 8074SOL    HW125121   3.210   3.769   0.128
 8074SOL    HW225122   3.105   3.876   0.193
 8075SOL     OW25123   5.810   1.508   2.487
 8075SOL    HW125124   5.714   1.536   2.487
 8075SOL    HW225125   5.850   1.526   2.397
 8076SOL     OW25126   5.649   3.299   6.268
 8076SOL    HW125127   5.607   3.355   6.196
 8076SOL    HW225128   5.618   3.205   6.259
 8077SOL     OW25129   1.285   0.697   0.744
 8077SOL    HW125130   1.201   0.687   0.798
 8077SOL    HW225131   1.345   0.764   0.788
 8078SOL     OW25132   6.108   3.072   0.259
 8078SOL    HW125133   6.021   3.116   0.235
 8078SOL    HW225134   6.153   3.124   0.331
 8079SOL     OW25135   6.516   1.780   1.976
 8079SOL    HW125136   6.568   1.800   2.059
 8079SOL    HW225137   6.460   1.698   1.991
 8080SOL     OW25138   3.473   5.268   0.318
 8080SOL    HW125139   3.408   5.334   0.283
 8080SOL    HW225140   3.460   5.257   0.417
 8081SOL     OW25141   5.754   0.857   5.727
 8081SOL    HW125142   5.735   0.781   5.788
 8081SOL    HW225143   5.669   0.905   5.706
 8082SOL     OW25144   6.604   2.958   4.129
 8082SOL    HW125145   6.572   3.033   4.188
 8082SOL    HW225146   6.610   2.991   4.035
 8083SOL     OW25147   4.819   2.727   3.959
 8083SOL    HW125148   4.884   2.698   4.030
 8083SOL    HW225149   4.728   2.693   3.982
 8084SOL     OW25150   6.695   6.811   1.325
 8084SOL    HW125151   6.680   6.830   1.228
 8084SOL    HW225152   6.780   6.855   1.355
 8085SOL     OW25153   5.862   1.780   1.232
 8085SOL    HW125154   5.947   1.728   1.231
 8085SOL    HW225155   5.800   1.743   1.163
 8086SOL     OW25156   3.519   6.978   5.366
 8086SOL    HW125157   3.468   7.000   5.449
 8086SOL    HW225158   3.617   6.973   5.387
 8087SOL     OW25159   3.252   3.269   1.606
 8087SOL    HW125160   3.272   3.176   1.638
 8087SOL    HW225161   3.328   3.302   1.551
 8088SOL     OW25162   4.221   0.910   3.216
 8088SOL    HW125163   4.209   0.929   3.119
 8088SOL    HW225164   4.313   0.935   3.244
 8089SOL     OW25165   5.912   2.781   0.342
 8089SOL    HW125166   5.814   2.792   0.358
 8089SOL    HW225167   5.958   2.762   0.429
 8090SOL     OW25168   4.809   2.675   5.198
 8090SOL    HW125169   4.736   2.682   5.265
 8090SOL    HW225170   4.778   2.620   5.120
 8091SOL     OW25171   3.389   5.320   6.214
 8091SOL    HW125172   3.445   5.402   6.221
 8091SOL    HW225173   3.429   5.247   6.270
 8092SOL     OW25174   0.957   1.891   4.178
 8092SOL    HW125175   1.032   1.953   4.203
 8092SOL    HW225176   0.904   1.868   4.260
 8093SOL     OW25177   5.760   6.079   1.361
 8093SOL    HW125178   5.745   6.150   1.429
 8093SOL    HW225179   5.675   6.065   1.309
 8094SOL     OW25180   0.915   3.190   5.189
 8094SOL    HW125181   0.825   3.166   5.152
 8094SOL    HW225182   0.919   3.289   5.204
 8095SOL     OW25183   5.774   3.905   4.135
 8095SOL    HW125184   5.721   3.887   4.218
 8095SOL    HW225185   5.861   3.948   4.160
 8096SOL     OW25186   3.940   6.147   1.617
 8096SOL    HW125187   3.934   6.205   1.699
 8096SOL    HW225188   3.871   6.076   1.621
 8097SOL     OW25189   4.926   1.387   4.503
 8097SOL    HW125190   4.864   1.464   4.487
 8097SOL    HW225191   5.003   1.418   4.559
 8098SOL     OW25192   3.012   6.686   3.609
 8098SOL    HW125193   2.932   6.745   3.612
 8098SOL    HW225194   3.035   6.656   3.701
 8099SOL     OW25195   5.445   6.485   4.720
 8099SOL    HW125196   5.411   6.409   4.774
 8099SOL    HW225197   5.455   6.456   4.625
 8100SOL     OW25198   0.859   6.803   0.587
 8100SOL    HW125199   0.825   6.867   0.517
 8100SOL    HW225200   0.796   6.802   0.664
 8101SOL     OW25201   1.644   5.827   3.312
 8101SOL    HW125202   1.641   5.824   3.212
 8101SOL    HW225203   1.551   5.822   3.349
 8102SOL     OW25204   0.005   5.899   5.986
 8102SOL    HW125205   6.976   5.958   6.047
 8102SOL    HW225206   0.047   5.955   5.914
 8103SOL     OW25207   2.826   1.739   2.475
 8103SOL    HW125208   2.747   1.682   2.497
 8103SOL    HW225209   2.808   1.834   2.502
 8104SOL     OW25210   2.283   6.586   6.045
 8104SOL    HW125211   2.300   6.529   5.965
 8104SOL    HW225212   2.354   6.570   6.113
 8105SOL     OW25213   1.469   2.057   2.736
 8105SOL    HW125214   1.523   2.129   2.779
 8105SOL    HW225215   1.376   2.091   2.719
 8106SOL     OW25216   0.637   4.051   4.318
 8106SOL    HW125217   0.729   4.029   4.287
 8106SOL    HW225218   0.615   3.996   4.399
 8107SOL     OW25219   1.831   6.061   6.090
 8107SOL    HW125220   1.775   6.098   6.016
 8107SOL    HW225221   1.833   5.961   6.083
 8108SOL     OW25222   1.348   2.983   4.406
 8108SOL    HW125223   1.436   3.029   4.420
 8108SOL    HW225224   1.304   2.968   4.494
 8109SOL     OW25225   1.310   4.947   5.133
 8109SOL    HW125226   1.400   4.918   5.100
 8109SOL    HW225227   1.257   4.866   5.159
 8110SOL     OW25228   1.882   4.563   1.120
 8110SOL    HW125229   1.937   4.543   1.039
 8110SOL    HW225230   1.843   4.478   1.155
 8111SOL     OW25231   2.538   5.635   4.230
 8111SOL    HW125232   2.523   5.536   4.223
 8111SOL    HW225233   2.492   5.681   4.155
 8112SOL     OW25234   2.914   1.217   5.084
 8112SOL    HW125235   2.931   1.121   5.107
 8112SOL    HW225236   2.897   1.269   5.168
 8113SOL     OW25237   3.829   3.039   6.006
 8113SOL    HW125238   3.815   2.940   5.999
 8113SOL    HW225239   3.741   3.085   6.010
 8114SOL     OW25240   2.729   3.664   1.345
 8114SOL    HW125241   2.649   3.614   1.312
 8114SOL    HW225242   2.777   3.706   1.267
 8115SOL     OW25243   3.928   1.746   1.182
 8115SOL    HW125244   3.857   1.805   1.220
 8115SOL    HW225245   4.009   1.749   1.240
 8116SOL     OW25246   6.063   1.031   5.370
 8116SOL    HW125247   6.104   1.075   5.450
 8116SOL    HW225248   5.987   0.973   5.399
 8117SOL     OW25249   2.261   1.946   5.594
 8117SOL    HW125250   2.183   1.994   5.554
 8117SOL    HW225251   2.313   1.901   5.522
 8118SOL     OW25252   1.117   2.556   4.467
 8118SOL    HW125253   1.114   2.613   4.385
 8118SOL    HW225254   1.104   2.460   4.442
 8119SOL     OW25255   1.468   5.694   2.589
 8119SOL    HW125256   1.459   5.705   2.490
 8119SOL    HW225257   1.415   5.766   2.635
 8120SOL     OW25258   4.429   4.153   1.458
 8120SOL    HW125259   4.465   4.122   1.545
 8120SOL    HW225260   4.496   4.212   1.412
 8121SOL     OW25261   6.798   6.998   2.678
 8121SOL    HW125262   6.748   6.912   2.662
 8121SOL    HW225263   6.850   6.990   2.763
 8122SOL     OW25264   0.570   6.416   1.802
 8122SOL    HW125265   0.661   6.447   1.777
 8122SOL    HW225266   0.506   6.493   1.800
 8123SOL     OW25267   0.637   5.426   0.541
 8123SOL    HW125268   0.540   5.416   0.518
 8123SOL    HW225269   0.692   5.370   0.480
 8124SOL     OW25270   0.856   5.975   2.769
 8124SOL    HW125271   0.796   6.042   2.725
 8124SOL    HW225272   0.944   6.019   2.791
 8125SOL     OW25273   5.289   5.602   2.766
 8125SOL    HW125274   5.279   5.502   2.763
 8125SOL    HW225275   5.384   5.626   2.746
 8126SOL     OW25276   5.798   4.574   2.013
 8126SOL    HW125277   5.792   4.507   2.087
 8126SOL    HW225278   5.809   4.666   2.052
 8127SOL     OW25279   3.322   4.208   0.669
 8127SOL    HW125280   3.270   4.133   0.629
 8127SOL    HW225281   3.401   4.172   0.719
 8128SOL     OW25282   3.709   2.544   5.330
 8128SOL    HW125283   3.789   2.603   5.346
 8128SOL    HW225284   3.640   2.595   5.280
 8129SOL     OW25285   4.984   0.068   0.290
 8129SOL    HW125286   5.009   0.035   0.381
 8129SOL    HW225287   4.938   7.018   0.239
 8130SOL     OW25288   1.149   6.892   0.602
 8130SOL    HW125289   1.200   6.807   0.589
 8130SOL    HW225290   1.066   6.873   0.655
 8131SOL     OW25291   1.338   1.446   0.546
 8131SOL    HW125292   1.334   1.481   0.640
 8131SOL    HW225293   1.412   1.379   0.539
 8132SOL     OW25294   6.485   4.730   3.466
 8132SOL    HW125295   6.545   4.687   3.399
 8132SOL    HW225296   6.518   4.823   3.485
 8133SOL     OW25297   1.101   5.756   2.107
 8133SOL    HW125298   1.166   5.832   2.114
 8133SOL    HW225299   1.016   5.782   2.154
 8134SOL     OW25300   2.046   2.578   2.222
 8134SOL    HW125301   2.141   2.558   2.195
 8134SOL    HW225302   1.990   2.497   2.205
 8135SOL     OW25303   4.281   6.186   2.164
 8135SOL    HW125304   4.209   6.252   2.185
 8135SOL    HW225305   4.244   6.093   2.174
 8136SOL     OW25306   3.937   6.358   0.866
 8136SOL    HW125307   3.953   6.259   0.867
 8136SOL    HW225308   3.935   6.390   0.771
 8137SOL     OW25309   2.769   3.903   5.693
 8137SOL    HW125310   2.761   3.811   5.655
 8137SOL    HW225311   2.858   3.942   5.669
 8138SOL     OW25312   4.684   0.616   3.633
 8138SOL    HW125313   4.641   0.544   3.578
 8138SOL    HW225314   4.684   0.701   3.581
 8139SOL     OW25315   1.776   2.667   3.917
 8139SOL    HW125316   1.862   2.698   3.958
 8139SOL    HW225317   1.705   2.735   3.932
 8140SOL     OW25318   4.510   0.376   0.907
 8140SOL    HW125319   4.498   0.433   0.988
 8140SOL    HW225320   4.491   0.280   0.930
 8141SOL     OW25321   5.253   0.659   4.970
 8141SOL    HW125322   5.314   0.713   5.029
 8141SOL    HW225323   5.227   0.714   4.891
 8142SOL     OW25324   2.186   5.435   1.489
 8142SOL    HW125325   2.099   5.410   1.445
 8142SOL    HW225326   2.185   5.533   1.509
 8143SOL     OW25327   6.359   5.302   1.113
 8143SOL    HW125328   6.273   5.283   1.065
 8143SOL    HW225329   6.357   5.396   1.148
 8144SOL     OW25330   6.911   4.992   0.259
 8144SOL    HW125331   6.934   4.909   0.207
 8144SOL    HW225332   6.988   5.018   0.316
 8145SOL     OW25333   5.619   5.259   6.679
 8145SOL    HW125334   5.655   5.344   6.641
 8145SOL    HW225335   5.688   5.216   6.737
 8146SOL     OW25336   6.086   0.233   4.010
 8146SOL    HW125337   6.105   0.253   3.913
 8146SOL    HW225338   6.145   0.159   4.041
 8147SOL     OW25339   2.461   0.977   6.454
 8147SOL    HW125340   2.440   0.879   6.451
 8147SOL    HW225341   2.557   0.990   6.477
 8148SOL     OW25342   4.394   4.711   0.594
 8148SOL    HW125343   4.347   4.641   0.649
 8148SOL    HW225344   4.385   4.689   0.497
 8149SOL     OW25345   0.470   6.575   4.799
 8149SOL    HW125346   0.521   6.657   4.823
 8149SOL    HW225347   0.372   6.596   4.797
 8150SOL     OW25348   0.184   4.186   1.015
 8150SOL    HW125349   0.262   4.133   1.048
 8150SOL    HW225350   0.195   4.204   0.917
 8151SOL     OW25351   6.374   6.267   2.771
 8151SOL    HW125352   6.406   6.322   2.849
 8151SOL    HW225353   6.373   6.171   2.796
 8152SOL     OW25354   4.600   1.373   2.926
 8152SOL    HW125355   4.579   1.381   2.829
 8152SOL    HW225356   4.620   1.278   2.949
 8153SOL     OW25357   0.475   1.474   1.966
 8153SOL    HW125358   0.431   1.497   2.053
 8153SOL    HW225359   0.522   1.554   1.930
 8154SOL     OW25360   1.908   0.129   3.322
 8154SOL    HW125361   1.950   0.134   3.231
 8154SOL    HW225362   1.971   0.083   3.385
 8155SOL     OW25363   2.107   5.211   3.402
 8155SOL    HW125364   2.020   5.197   3.450
 8155SOL    HW225365   2.172   5.256   3.462
 8156SOL     OW25366   0.634   4.974   1.507
 8156SOL    HW125367   0.724   5.017   1.501
 8156SOL    HW225368   0.628   4.921   1.592
 8157SOL     OW25369   0.264   3.495   4.621
 8157SOL    HW125370   0.301   3.462   4.708
 8157SOL    HW225371   0.164   3.484   4.621
 8158SOL     OW25372   6.161   5.453   6.840
 8158SOL    HW125373   6.109   5.510   6.904
 8158SOL    HW225374   6.098   5.393   6.791
 8159SOL     OW25375   3.158   0.033   5.261
 8159SOL    HW125376   3.203   0.028   5.172
 8159SOL    HW225377   3.208   0.097   5.320
 8160SOL     OW25378   5.351   1.219   2.441
 8160SOL    HW125379   5.425   1.250   2.381
 8160SOL    HW225380   5.267   1.209   2.388
 8161SOL     OW25381   5.686   3.392   1.607
 8161SOL    HW125382   5.695   3.466   1.673
 8161SOL    HW225383   5.601   3.341   1.626
 8162SOL     OW25384   0.560   5.497   5.714
 8162SOL    HW125385   0.506   5.413   5.703
 8162SOL    HW225386   0.498   5.576   5.715
 8163SOL     OW25387   4.667   4.427   5.158
 8163SOL    HW125388   4.764   4.407   5.174
 8163SOL    HW225389   4.649   4.429   5.060
 8164SOL     OW25390   5.441   1.750   1.452
 8164SOL    HW125391   5.430   1.833   1.505
 8164SOL    HW225392   5.393   1.675   1.498
 8165SOL     OW25393   7.016   0.854   0.451
 8165SOL    HW125394   6.919   0.855   0.477
 8165SOL    HW225395   0.041   0.784   0.503
 8166SOL     OW25396   1.492   1.703   5.313
 8166SOL    HW125397   1.430   1.626   5.297
 8166SOL    HW225398   1.482   1.770   5.240
 8167SOL     OW25399   1.693   2.918   4.278
 8167SOL    HW125400   1.643   2.990   4.327
 8167SOL    HW225401   1.694   2.835   4.334
 8168SOL     OW25402   1.780   0.699   2.317
 8168SOL    HW125403   1.747   0.786   2.280
 8168SOL    HW225404   1.838   0.717   2.396
 8169SOL     OW25405   5.183   2.358   0.188
 8169SOL    HW125406   5.122   2.433   0.215
 8169SOL    HW225407   5.155   2.321   0.100
 8170SOL     OW25408   6.603   4.991   2.490
 8170SOL    HW125409   6.600   5.015   2.393
 8170SOL    HW225410   6.534   5.044   2.539
 8171SOL     OW25411   2.036   1.210   0.736
 8171SOL    HW125412   2.100   1.149   0.782
 8171SOL    HW225413   2.082   1.257   0.662
 8172SOL     OW25414   0.663   2.498   0.678
 8172SOL    HW125415   0.634   2.481   0.584
 8172SOL    HW225416   0.616   2.578   0.714
 8173SOL     OW25417   5.693   0.903   1.240
 8173SOL    HW125418   5.635   0.890   1.159
 8173SOL    HW225419   5.778   0.851   1.229
 8174SOL     OW25420   3.098   5.442   3.210
 8174SOL    HW125421   2.999   5.450   3.206
 8174SOL    HW225422   3.139   5.534   3.206
 8175SOL     OW25423   0.529   1.374   5.474
 8175SOL    HW125424   0.461   1.440   5.505
 8175SOL    HW225425   0.511   1.285   5.517
 8176SOL     OW25426   2.468   4.407   0.391
 8176SOL    HW125427   2.379   4.444   0.366
 8176SOL    HW225428   2.469   4.384   0.489
 8177SOL     OW25429   3.092   0.856   3.710
 8177SOL    HW125430   3.146   0.896   3.784
 8177SOL    HW225431   3.063   0.929   3.648
 8178SOL     OW25432   2.739   6.708   1.560
 8178SOL    HW125433   2.759   6.674   1.651
 8178SOL    HW225434   2.640   6.722   1.551
 8179SOL     OW25435   5.567   1.088   3.430
 8179SOL    HW125436   5.608   1.050   3.513
 8179SOL    HW225437   5.498   1.024   3.395
 8180SOL     OW25438   5.147   6.567   0.210
 8180SOL    HW125439   5.201   6.651   0.207
 8180SOL    HW225440   5.073   6.577   0.276
 8181SOL     OW25441   0.456   0.284   0.412
 8181SOL    HW125442   0.416   0.286   0.504
 8181SOL    HW225443   0.497   0.372   0.391
 8182SOL     OW25444   2.959   3.866   4.460
 8182SOL    HW125445   3.048   3.826   4.439
 8182SOL    HW225446   2.913   3.892   4.375
 8183SOL     OW25447   0.222   0.015   5.090
 8183SOL    HW125448   0.183   6.949   5.066
 8183SOL    HW225449   0.180   0.048   5.175
 8184SOL     OW25450   0.748   5.821   6.672
 8184SOL    HW125451   0.707   5.855   6.756
 8184SOL    HW225452   0.676   5.794   6.608
 8185SOL     OW25453   0.416   6.436   6.161
 8185SOL    HW125454   0.498   6.388   6.191
 8185SOL    HW225455   0.439   6.531   6.140
 8186SOL     OW25456   1.813   5.774   6.374
 8186SOL    HW125457   1.716   5.794   6.358
 8186SOL    HW225458   1.861   5.770   6.286
 8187SOL     OW25459   0.927   0.843   5.735
 8187SOL    HW125460   0.837   0.879   5.711
 8187SOL    HW225461   0.944   0.857   5.832
 8188SOL     OW25462   1.870   3.064   3.537
 8188SOL    HW125463   1.907   3.132   3.473
 8188SOL    HW225464   1.842   3.110   3.621
 8189SOL     OW25465   5.619   5.483   3.468
 8189SOL    HW125466   5.689   5.505   3.400
 8189SOL    HW225467   5.553   5.419   3.429
 8190SOL     OW25468   6.977   4.201   2.883
 8190SOL    HW125469   0.043   4.244   2.869
 8190SOL    HW225470   6.989   4.102   2.894
 8191SOL     OW25471   3.791   5.639   0.788
 8191SOL    HW125472   3.878   5.609   0.827
 8191SOL    HW225473   3.758   5.571   0.723
 8192SOL     OW25474   0.585   5.331   3.446
 8192SOL    HW125475   0.684   5.324   3.428
 8192SOL    HW225476   0.571   5.347   3.544
 8193SOL     OW25477   0.667   4.397   4.664
 8193SOL    HW125478   0.641   4.470   4.600
 8193SOL    HW225479   0.644   4.308   4.625
 8194SOL     OW25480   4.237   6.434   1.730
 8194SOL    HW125481   4.209   6.524   1.762
 8194SOL    HW225482   4.243   6.371   1.807
 8195SOL     OW25483   6.111   6.385   2.772
 8195SOL    HW125484   6.086   6.345   2.684
 8195SOL    HW225485   6.197   6.344   2.803
 8196SOL     OW25486   4.831   0.774   0.952
 8196SOL    HW125487   4.753   0.776   1.014
 8196SOL    HW225488   4.827   0.854   0.891
 8197SOL     OW25489   3.558   1.384   2.555
 8197SOL    HW125490   3.509   1.375   2.467
 8197SOL    HW225491   3.524   1.315   2.619
 8198SOL     OW25492   1.324   0.002   1.994
 8198SOL    HW125493   1.275   0.042   2.071
 8198SOL    HW225494   1.422   7.022   2.015
 8199SOL     OW25495   5.382   2.739   6.992
 8199SOL    HW125496   5.383   2.681   6.910
 8199SOL    HW225497   5.291   2.741   0.008
 8200SOL     OW25498   4.402   3.204   0.621
 8200SOL    HW125499   4.393   3.303   0.634
 8200SOL    HW225500   4.498   3.180   0.611
 8201SOL     OW25501   5.988   6.822   5.139
 8201SOL    HW125502   6.025   6.786   5.225
 8201SOL    HW225503   5.934   6.751   5.094
 8202SOL     OW25504   0.689   0.088   2.070
 8202SOL    HW125505   0.615   0.030   2.104
 8202SOL    HW225506   0.773   0.035   2.062
 8203SOL     OW25507   1.319   3.542   1.793
 8203SOL    HW125508   1.392   3.498   1.847
 8203SOL    HW225509   1.315   3.499   1.703
 8204SOL     OW25510   3.005   2.892   1.286
 8204SOL    HW125511   2.920   2.871   1.237
 8204SOL    HW225512   2.993   2.870   1.383
 8205SOL     OW25513   1.062   3.627   0.177
 8205SOL    HW125514   1.114   3.711   0.161
 8205SOL    HW225515   1.121   3.547   0.162
 8206SOL     OW25516   3.786   0.394   0.437
 8206SOL    HW125517   3.805   0.350   0.525
 8206SOL    HW225518   3.745   0.328   0.375
 8207SOL     OW25519   4.270   3.556   5.181
 8207SOL    HW125520   4.190   3.501   5.205
 8207SOL    HW225521   4.346   3.532   5.240
 8208SOL     OW25522   2.646   0.336   0.435
 8208SOL    HW125523   2.731   0.353   0.484
 8208SOL    HW225524   2.629   0.411   0.371
 8209SOL     OW25525   6.031   1.541   5.141
 8209SOL    HW125526   6.051   1.450   5.176
 8209SOL    HW225527   6.034   1.540   5.041
 8210SOL     OW25528   2.032   2.639   6.847
 8210SOL    HW125529   2.100   2.701   6.809
 8210SOL    HW225530   1.985   2.592   6.772
 8211SOL     OW25531   3.405   4.299   1.635
 8211SOL    HW125532   3.440   4.255   1.718
 8211SOL    HW225533   3.399   4.231   1.562
 8212SOL     OW25534   1.551   3.108   3.587
 8212SOL    HW125535   1.642   3.137   3.617
 8212SOL    HW225536   1.498   3.079   3.667
 8213SOL     OW25537   7.012   5.090   1.200
 8213SOL    HW125538   0.059   5.145   1.155
 8213SOL    HW225539   6.994   5.127   1.291
 8214SOL     OW25540   5.824   3.974   3.470
 8214SOL    HW125541   5.797   4.070   3.475
 8214SOL    HW225542   5.818   3.942   3.375
 8215SOL     OW25543   3.690   5.409   3.885
 8215SOL    HW125544   3.640   5.373   3.806
 8215SOL    HW225545   3.683   5.509   3.886
 8216SOL     OW25546   5.731   3.759   3.632
 8216SOL    HW125547   5.743   3.759   3.731
 8216SOL    HW225548   5.795   3.823   3.590
 8217SOL     OW25549   2.325   6.278   0.009
 8217SOL    HW125550   2.389   6.310   6.962
 8217SOL    HW225551   2.312   6.349   0.077
 8218SOL     OW25552   6.925   1.817   0.036
 8218SOL    HW125553   7.015   1.782   0.008
 8218SOL    HW225554   6.937   1.885   0.109
 8219SOL     OW25555   6.223   1.981   6.719
 8219SOL    HW125556   6.314   2.017   6.738
 8219SOL    HW225557   6.219   1.949   6.624
 8220SOL     OW25558   3.767   3.530   2.660
 8220SOL    HW125559   3.780   3.435   2.689
 8220SOL    HW225560   3.670   3.554   2.668
 8221SOL     OW25561   5.300   6.039   3.680
 8221SOL    HW125562   5.261   5.970   3.620
 8221SOL    HW225563   5.397   6.021   3.695
 8222SOL     OW25564   5.713   1.601   1.439
 8222SOL    HW125565   5.627   1.632   1.481
 8222SOL    HW225566   5.699   1.588   1.341
 8223SOL     OW25567   0.402   4.812   5.909
 8223SOL    HW125568   0.415   4.904   5.874
 8223SOL    HW225569   0.345   4.816   5.991
 8224SOL     OW25570   1.135   2.852   4.091
 8224SOL    HW125571   1.195   2.813   4.161
 8224SOL    HW225572   1.118   2.784   4.020
 8225SOL     OW25573   4.750   1.468   0.548
 8225SOL    HW125574   4.836   1.492   0.502
 8225SOL    HW225575   4.676   1.524   0.512
 8226SOL     OW25576   5.028   0.466   0.778
 8226SOL    HW125577   5.050   0.555   0.820
 8226SOL    HW225578   5.031   0.395   0.848
 8227SOL     OW25579   6.316   3.400   3.450
 8227SOL    HW125580   6.386   3.416   3.380
 8227SOL    HW225581   6.321   3.305   3.480
 8228SOL     OW25582   6.351   2.823   5.760
 8228SOL    HW125583   6.285   2.810   5.686
 8228SOL    HW225584   6.406   2.739   5.770
 8229SOL     OW25585   3.911   5.380   0.102
 8229SOL    HW125586   3.963   5.376   0.188
 8229SOL    HW225587   3.822   5.336   0.115
 8230SOL     OW25588   5.366   0.419   4.198
 8230SOL    HW125589   5.308   0.480   4.143
 8230SOL    HW225590   5.340   0.324   4.180
 8231SOL     OW25591   4.888   6.136   0.795
 8231SOL    HW125592   4.821   6.151   0.868
 8231SOL    HW225593   4.848   6.080   0.723
 8232SOL     OW25594   3.280   2.351   6.052
 8232SOL    HW125595   3.245   2.367   5.959
 8232SOL    HW225596   3.355   2.286   6.049
 8233SOL     OW25597   0.211   4.877   0.142
 8233SOL    HW125598   0.263   4.819   0.204
 8233SOL    HW225599   0.118   4.842   0.134
 8234SOL     OW25600   3.362   2.361   6.460
 8234SOL    HW125601   3.273   2.371   6.416
 8234SOL    HW225602   3.360   2.284   6.524
 8235SOL     OW25603   3.980   3.495   0.986
 8235SOL    HW125604   4.067   3.449   1.002
 8235SOL    HW225605   3.984   3.544   0.899
 8236SOL     OW25606   6.221   2.805   0.381
 8236SOL    HW125607   6.151   2.851   0.326
 8236SOL    HW225608   6.177   2.745   0.447
 8237SOL     OW25609   4.541   6.428   5.354
 8237SOL    HW125610   4.470   6.484   5.398
 8237SOL    HW225611   4.631   6.470   5.369
 8238SOL     OW25612   1.944   1.958   6.885
 8238SOL    HW125613   2.022   1.992   6.938
 8238SOL    HW225614   1.888   2.036   6.856
 8239SOL     OW25615   0.543   1.653   5.915
 8239SOL    HW125616   0.488   1.715   5.859
 8239SOL    HW225617   0.640   1.674   5.903
 8240SOL     OW25618   3.907   3.976   3.501
 8240SOL    HW125619   3.917   4.021   3.590
 8240SOL    HW225620   3.960   3.891   3.500
 8241SOL     OW25621   3.995   6.781   0.270
 8241SOL    HW125622   3.988   6.722   0.190
 8241SOL    HW225623   4.079   6.760   0.320
 8242SOL     OW25624   1.063   4.308   5.683
 8242SOL    HW125625   1.097   4.389   5.636
 8242SOL    HW225626   0.964   4.313   5.694
 8243SOL     OW25627   0.856   3.730   5.290
 8243SOL    HW125628   0.757   3.721   5.297
 8243SOL    HW225629   0.900   3.670   5.358
 8244SOL     OW25630   0.282   6.733   4.112
 8244SOL    HW125631   0.225   6.691   4.042
 8244SOL    HW225632   0.250   6.706   4.202
 8245SOL     OW25633   3.488   2.704   0.954
 8245SOL    HW125634   3.550   2.637   0.912
 8245SOL    HW225635   3.436   2.660   1.027
 8246SOL     OW25636   5.407   3.552   5.639
 8246SOL    HW125637   5.395   3.643   5.681
 8246SOL    HW225638   5.318   3.516   5.611
 8247SOL     OW25639   1.111   0.500   1.200
 8247SOL    HW125640   1.145   0.425   1.142
 8247SOL    HW225641   1.047   0.556   1.148
 8248SOL     OW25642   5.703   4.484   3.486
 8248SOL    HW125643   5.746   4.551   3.425
 8248SOL    HW225644   5.604   4.492   3.480
 8249SOL     OW25645   2.240   4.763   4.093
 8249SOL    HW125646   2.293   4.760   4.178
 8249SOL    HW225647   2.240   4.672   4.052
 8250SOL     OW25648   4.114   3.728   2.646
 8250SOL    HW125649   4.098   3.781   2.729
 8250SOL    HW225650   4.113   3.630   2.667
 8251SOL     OW25651   6.050   2.156   4.795
 8251SOL    HW125652   5.992   2.236   4.809
 8251SOL    HW225653   6.080   2.153   4.700
 8252SOL     OW25654   1.757   2.992   5.258
 8252SOL    HW125655   1.796   2.999   5.167
 8252SOL    HW225656   1.800   2.916   5.307
 8253SOL     OW25657   3.196   2.980   5.364
 8253SOL    HW125658   3.198   2.983   5.264
 8253SOL    HW225659   3.225   3.069   5.401
 8254SOL     OW25660   3.844   5.846   4.013
 8254SOL    HW125661   3.780   5.791   3.959
 8254SOL    HW225662   3.935   5.839   3.973
 8255SOL     OW25663   4.863   5.420   3.856
 8255SOL    HW125664   4.939   5.417   3.921
 8255SOL    HW225665   4.832   5.327   3.836
 8256SOL     OW25666   6.974   1.645   4.408
 8256SOL    HW125667   6.992   1.549   4.386
 8256SOL    HW225668   0.035   1.688   4.441
 8257SOL     OW25669   6.467   4.455   3.620
 8257SOL    HW125670   6.429   4.379   3.672
 8257SOL    HW225671   6.559   4.431   3.589
 8258SOL     OW25672   4.333   1.450   0.132
 8258SOL    HW125673   4.233   1.448   0.133
 8258SOL    HW225674   4.365   1.537   0.170
 8259SOL     OW25675   3.771   1.966   2.069
 8259SOL    HW125676   3.742   2.062   2.063
 8259SOL    HW225677   3.860   1.955   2.025
 8260SOL     OW25678   2.713   6.157   0.522
 8260SOL    HW125679   2.760   6.236   0.482
 8260SOL    HW225680   2.719   6.079   0.460
 8261SOL     OW25681   5.327   1.359   2.039
 8261SOL    HW125682   5.304   1.264   2.017
 8261SOL    HW225683   5.251   1.402   2.088
 8262SOL     OW25684   0.989   2.371   1.384
 8262SOL    HW125685   0.925   2.349   1.458
 8262SOL    HW225686   0.960   2.456   1.340
 8263SOL     OW25687   6.518   1.526   1.330
 8263SOL    HW125688   6.590   1.562   1.389
 8263SOL    HW225689   6.454   1.599   1.307
 8264SOL     OW25690   2.052   5.022   3.221
 8264SOL    HW125691   1.992   5.058   3.150
 8264SOL    HW225692   2.077   5.096   3.285
 8265SOL     OW25693   1.910   0.514   2.187
 8265SOL    HW125694   1.925   0.510   2.088
 8265SOL    HW225695   1.844   0.586   2.208
 8266SOL     OW25696   3.432   6.909   2.686
 8266SOL    HW125697   3.502   6.922   2.616
 8266SOL    HW225698   3.458   6.960   2.769
 8267SOL     OW25699   1.198   3.413   0.951
 8267SOL    HW125700   1.256   3.454   1.022
 8267SOL    HW225701   1.142   3.341   0.992
 8268SOL     OW25702   2.497   6.543   5.428
 8268SOL    HW125703   2.530   6.635   5.409
 8268SOL    HW225704   2.573   6.486   5.458
 8269SOL     OW25705   5.760   2.035   1.249
 8269SOL    HW125706   5.777   1.937   1.258
 8269SOL    HW225707   5.792   2.067   1.160
 8270SOL     OW25708   3.659   6.328   4.117
 8270SOL    HW125709   3.579   6.364   4.068
 8270SOL    HW225710   3.723   6.288   4.051
 8271SOL     OW25711   6.751   1.686   2.637
 8271SOL    HW125712   6.756   1.612   2.570
 8271SOL    HW225713   6.785   1.653   2.725
 8272SOL     OW25714   3.265   1.081   2.991
 8272SOL    HW125715   3.311   1.121   3.070
 8272SOL    HW225716   3.291   0.985   2.982
 8273SOL     OW25717   2.431   6.197   0.841
 8273SOL    HW125718   2.438   6.103   0.873
 8273SOL    HW225719   2.377   6.251   0.906
 8274SOL     OW25720   5.411   5.057   3.115
 8274SOL    HW125721   5.477   5.116   3.162
 8274SOL    HW225722   5.447   5.032   3.026
 8275SOL     OW25723   5.079   1.998   5.975
 8275SOL    HW125724   5.043   2.079   6.021
 8275SOL    HW225725   5.173   1.981   6.005
 8276SOL     OW25726   0.834   1.895   3.639
 8276SOL    HW125727   0.778   1.878   3.720
 8276SOL    HW225728   0.911   1.831   3.637
 8277SOL     OW25729   6.584   7.021   6.761
 8277SOL    HW125730   6.485   0.011   6.754
 8277SOL    HW225731   6.612   0.009   6.856
 8278SOL     OW25732   2.365   2.247   0.605
 8278SOL    HW125733   2.301   2.298   0.547
 8278SOL    HW225734   2.447   2.224   0.552
 8279SOL     OW25735   0.267   6.212   4.071
 8279SOL    HW125736   0.347   6.157   4.049
 8279SOL    HW225737   0.184   6.162   4.047
 8280SOL     OW25738   3.185   2.686   5.778
 8280SOL    HW125739   3.151   2.592   5.774
 8280SOL    HW225740   3.245   2.697   5.857
 8281SOL     OW25741   0.072   5.719   1.677
 8281SOL    HW125742   0.156   5.773   1.675
 8281SOL    HW225743   0.057   5.685   1.770
 8282SOL     OW25744   5.193   2.123   5.585
 8282SOL    HW125745   5.245   2.138   5.501
 8282SOL    HW225746   5.114   2.065   5.566
 8283SOL     OW25747   2.067   4.175   6.046
 8283SOL    HW125748   2.158   4.176   6.006
 8283SOL    HW225749   2.011   4.107   5.998
 8284SOL     OW25750   6.960   4.327   2.038
 8284SOL    HW125751   6.956   4.318   2.138
 8284SOL    HW225752   6.949   4.423   2.013
 8285SOL     OW25753   3.581   3.215   5.204
 8285SOL    HW125754   3.508   3.254   5.148
 8285SOL    HW225755   3.554   3.220   5.301
 8286SOL     OW25756   6.499   2.186   6.192
 8286SOL    HW125757   6.420   2.229   6.146
 8286SOL    HW225758   6.583   2.215   6.147
 8287SOL     OW25759   2.012   5.495   5.065
 8287SOL    HW125760   2.073   5.518   5.141
 8287SOL    HW225761   2.047   5.413   5.019
 8288SOL     OW25762   2.374   2.750   3.152
 8288SOL    HW125763   2.446   2.816   3.134
 8288SOL    HW225764   2.313   2.785   3.224
 8289SOL     OW25765   0.632   6.195   0.013
 8289SOL    HW125766   0.552   6.252   0.029
 8289SOL    HW225767   0.663   6.156   0.099
 8290SOL     OW25768   6.554   2.502   0.525
 8290SOL    HW125769   6.510   2.468   0.607
 8290SOL    HW225770   6.486   2.510   0.452
 8291SOL     OW25771   4.638   0.236   6.573
 8291SOL    HW125772   4.633   0.306   6.501
 8291SOL    HW225773   4.545   0.217   6.607
 8292SOL     OW25774   3.291   6.628   6.745
 8292SOL    HW125775   3.328   6.538   6.723
 8292SOL    HW225776   3.202   6.618   6.788
 8293SOL     OW25777   5.363   5.962   6.192
 8293SOL    HW125778   5.279   6.014   6.200
 8293SOL    HW225779   5.347   5.881   6.135
 8294SOL     OW25780   5.416   2.438   7.014
 8294SOL    HW125781   5.406   2.537   7.005
 8294SOL    HW225782   5.355   2.405   0.062
 8295SOL     OW25783   4.853   4.201   1.187
 8295SOL    HW125784   4.873   4.214   1.284
 8295SOL    HW225785   4.902   4.270   1.134
 8296SOL     OW25786   2.012   5.616   6.702
 8296SOL    HW125787   1.959   5.643   6.783
 8296SOL    HW225788   2.105   5.650   6.710
 8297SOL     OW25789   0.011   2.695   3.009
 8297SOL    HW125790   0.074   2.754   3.059
 8297SOL    HW225791   6.966   2.750   2.962
 8298SOL     OW25792   4.877   0.790   1.713
 8298SOL    HW125793   4.788   0.802   1.756
 8298SOL    HW225794   4.882   0.846   1.630
 8299SOL     OW25795   6.206   2.107   1.773
 8299SOL    HW125796   6.243   2.107   1.680
 8299SOL    HW225797   6.246   2.031   1.825
 8300SOL     OW25798   0.712   4.764   4.017
 8300SOL    HW125799   0.721   4.792   3.922
 8300SOL    HW225800   0.657   4.832   4.066
 8301SOL     OW25801   3.688   2.804   0.103
 8301SOL    HW125802   3.600   2.850   0.103
 8301SOL    HW225803   3.680   2.716   0.057
 8302SOL     OW25804   5.910   6.334   6.741
 8302SOL    HW125805   5.993   6.369   6.698
 8302SOL    HW225806   5.839   6.324   6.671
 8303SOL     OW25807   0.273   6.768   4.783
 8303SOL    HW125808   0.344   6.813   4.838
 8303SOL    HW225809   0.267   6.813   4.693
 8304SOL     OW25810   0.853   3.809   6.890
 8304SOL    HW125811   0.889   3.877   6.954
 8304SOL    HW225812   0.871   3.840   6.796
 8305SOL     OW25813   3.612   5.121   3.748
 8305SOL    HW125814   3.639   5.031   3.716
 8305SOL    HW225815   3.520   5.117   3.787
 8306SOL     OW25816   0.762   3.018   3.968
 8306SOL    HW125817   0.663   3.022   3.954
 8306SOL    HW225818   0.783   3.055   4.059
 8307SOL     OW25819   4.371   5.977   1.098
 8307SOL    HW125820   4.409   6.008   1.186
 8307SOL    HW225821   4.422   5.897   1.066
 8308SOL     OW25822   3.848   6.781   2.319
 8308SOL    HW125823   3.791   6.859   2.291
 8308SOL    HW225824   3.834   6.763   2.416
 8309SOL     OW25825   5.724   5.679   2.034
 8309SOL    HW125826   5.792   5.618   1.993
 8309SOL    HW225827   5.746   5.774   2.011
 8310SOL     OW25828   6.980   4.716   0.710
 8310SOL    HW125829   0.009   4.666   0.780
 8310SOL    HW225830   0.020   4.765   0.650
 8311SOL     OW25831   6.569   0.647   0.049
 8311SOL    HW125832   6.644   0.665   7.008
 8311SOL    HW225833   6.565   0.721   0.116
 8312SOL     OW25834   5.510   6.980   1.552
 8312SOL    HW125835   5.432   0.005   1.513
 8312SOL    HW225836   5.595   7.016   1.512
 8313SOL     OW25837   3.177   1.332   2.440
 8313SOL    HW125838   3.193   1.377   2.528
 8313SOL    HW225839   3.263   1.327   2.389
 8314SOL     OW25840   6.573   0.485   2.440
 8314SOL    HW125841   6.524   0.408   2.481
 8314SOL    HW225842   6.512   0.533   2.377
 8315SOL     OW25843   4.890   3.860   0.058
 8315SOL    HW125844   4.965   3.855   7.015
 8315SOL    HW225845   4.838   3.944   0.042
 8316SOL     OW25846   1.240   3.852   0.093
 8316SOL    HW125847   1.302   3.812   0.025
 8316SOL    HW225848   1.278   3.939   0.124
 8317SOL     OW25849   2.358   4.336   2.235
 8317SOL    HW125850   2.336   4.423   2.278
 8317SOL    HW225851   2.446   4.343   2.187
 8318SOL     OW25852   4.064   1.311   4.706
 8318SOL    HW125853   4.015   1.287   4.790
 8318SOL    HW225854   4.131   1.240   4.685
 8319SOL     OW25855   3.284   1.551   5.329
 8319SOL    HW125856   3.312   1.456   5.345
 8319SOL    HW225857   3.185   1.555   5.317
 8320SOL     OW25858   2.998   4.385   1.133
 8320SOL    HW125859   3.089   4.351   1.109
 8320SOL    HW225860   3.006   4.459   1.200
 8321SOL     OW25861   1.018   0.064   1.089
 8321SOL    HW125862   0.981   0.146   1.133
 8321SOL    HW225863   0.955   0.033   1.018
 8322SOL     OW25864   6.478   6.649   6.989
 8322SOL    HW125865   6.484   6.549   6.991
 8322SOL    HW225866   6.452   6.682   0.057
 8323SOL     OW25867   0.850   1.618   2.581
 8323SOL    HW125868   0.847   1.556   2.503
 8323SOL    HW225869   0.765   1.610   2.633
 8324SOL     OW25870   6.263   0.772   2.527
 8324SOL    HW125871   6.283   0.825   2.445
 8324SOL    HW225872   6.299   0.679   2.516
 8325SOL     OW25873   3.349   3.407   4.168
 8325SOL    HW125874   3.300   3.335   4.118
 8325SOL    HW225875   3.435   3.426   4.123
 8326SOL     OW25876   4.271   2.946   5.668
 8326SOL    HW125877   4.209   2.934   5.745
 8326SOL    HW225878   4.258   3.036   5.627
 8327SOL     OW25879   5.439   2.430   6.268
 8327SOL    HW125880   5.435   2.509   6.330
 8327SOL    HW225881   5.533   2.415   6.239
 8328SOL     OW25882   2.254   2.112   6.051
 8328SOL    HW125883   2.262   2.204   6.088
 8328SOL    HW225884   2.159   2.081   6.056
 8329SOL     OW25885   6.735   2.849   5.495
 8329SOL    HW125886   6.775   2.879   5.409
 8329SOL    HW225887   6.688   2.926   5.539
 8330SOL     OW25888   1.988   6.648   0.843
 8330SOL    HW125889   2.019   6.590   0.768
 8330SOL    HW225890   1.901   6.613   0.879
 8331SOL     OW25891   2.703   6.718   1.200
 8331SOL    HW125892   2.792   6.693   1.239
 8331SOL    HW225893   2.693   6.817   1.202
 8332SOL     OW25894   4.506   5.239   2.287
 8332SOL    HW125895   4.509   5.339   2.291
 8332SOL    HW225896   4.581   5.206   2.231
 8333SOL     OW25897   0.485   5.399   6.944
 8333SOL    HW125898   0.529   5.481   6.908
 8333SOL    HW225899   0.394   5.423   6.979
 8334SOL     OW25900   6.243   1.873   3.952
 8334SOL    HW125901   6.185   1.815   4.009
 8334SOL    HW225902   6.233   1.969   3.980
 8335SOL     OW25903   6.229   6.246   5.908
 8335SOL    HW125904   6.186   6.296   5.983
 8335SOL    HW225905   6.207   6.290   5.821
 8336SOL     OW25906   0.830   1.770   1.612
 8336SOL    HW125907   0.780   1.689   1.644
 8336SOL    HW225908   0.928   1.750   1.610
 8337SOL     OW25909   0.702   6.188   2.722
 8337SOL    HW125910   0.777   6.253   2.736
 8337SOL    HW225911   0.637   6.225   2.655
 8338SOL     OW25912   1.607   4.744   1.559
 8338SOL    HW125913   1.660   4.707   1.483
 8338SOL    HW225914   1.513   4.761   1.530
 8339SOL     OW25915   5.221   1.860   2.564
 8339SOL    HW125916   5.278   1.846   2.646
 8339SOL    HW225917   5.209   1.772   2.517
 8340SOL     OW25918   4.894   4.075   0.696
 8340SOL    HW125919   4.855   4.150   0.643
 8340SOL    HW225920   4.948   4.016   0.636
 8341SOL     OW25921   2.699   5.962   1.250
 8341SOL    HW125922   2.726   5.918   1.336
 8341SOL    HW225923   2.697   6.061   1.262
 8342SOL     OW25924   4.027   0.931   0.705
 8342SOL    HW125925   4.078   0.908   0.622
 8342SOL    HW225926   4.081   0.905   0.785
 8343SOL     OW25927   1.201   5.237   6.033
 8343SOL    HW125928   1.187   5.139   6.024
 8343SOL    HW225929   1.170   5.267   6.123
 8344SOL     OW25930   4.532   6.334   5.664
 8344SOL    HW125931   4.544   6.400   5.737
 8344SOL    HW225932   4.622   6.297   5.638
 8345SOL     OW25933   5.917   1.224   2.886
 8345SOL    HW125934   5.861   1.156   2.933
 8345SOL    HW225935   5.859   1.288   2.836
 8346SOL     OW25936   2.932   5.497   1.449
 8346SOL    HW125937   2.968   5.446   1.370
 8346SOL    HW225938   2.984   5.473   1.530
 8347SOL     OW25939   3.838   6.911   5.339
 8347SOL    HW125940   3.922   6.939   5.384
 8347SOL    HW225941   3.857   6.889   5.243
 8348SOL     OW25942   0.846   0.761   0.417
 8348SOL    HW125943   0.782   0.810   0.477
 8348SOL    HW225944   0.885   0.683   0.467
 8349SOL     OW25945   5.536   4.057   1.281
 8349SOL    HW125946   5.588   4.019   1.204
 8349SOL    HW225947   5.548   3.999   1.361
 8350SOL     OW25948   6.523   1.176   5.202
 8350SOL    HW125949   6.459   1.106   5.234
 8350SOL    HW225950   6.617   1.145   5.217
 8351SOL     OW25951   3.447   6.066   4.153
 8351SOL    HW125952   3.455   6.067   4.054
 8351SOL    HW225953   3.538   6.062   4.194
 8352SOL     OW25954   6.793   6.077   2.311
 8352SOL    HW125955   6.877   6.033   2.342
 8352SOL    HW225956   6.809   6.121   2.223
 8353SOL     OW25957   6.857   3.317   2.633
 8353SOL    HW125958   6.872   3.233   2.582
 8353SOL    HW225959   6.928   3.328   2.702
 8354SOL     OW25960   2.563   1.046   0.044
 8354SOL    HW125961   2.604   1.046   6.976
 8354SOL    HW225962   2.623   1.094   0.108
 8355SOL     OW25963   3.843   6.746   6.838
 8355SOL    HW125964   3.752   6.785   6.853
 8355SOL    HW225965   3.907   6.819   6.816
 8356SOL     OW25966   2.189   6.051   7.021
 8356SOL    HW125967   2.237   6.138   7.009
 8356SOL    HW225968   2.161   6.041   0.093
 8357SOL     OW25969   4.506   5.902   4.899
 8357SOL    HW125970   4.407   5.886   4.896
 8357SOL    HW225971   4.552   5.839   4.837
 8358SOL     OW25972   1.816   3.069   5.593
 8358SOL    HW125973   1.893   3.056   5.656
 8358SOL    HW225974   1.802   2.986   5.539
 8359SOL     OW25975   4.490   5.167   4.562
 8359SOL    HW125976   4.527   5.197   4.474
 8359SOL    HW225977   4.534   5.218   4.636
 8360SOL     OW25978   5.446   0.013   2.927
 8360SOL    HW125979   5.413   6.947   2.895
 8360SOL    HW225980   5.531   0.035   2.879
 8361SOL     OW25981   1.885   0.369   2.605
 8361SOL    HW125982   1.946   0.448   2.613
 8361SOL    HW225983   1.938   0.285   2.612
 8362SOL     OW25984   2.728   1.888   0.620
 8362SOL    HW125985   2.792   1.953   0.661
 8362SOL    HW225986   2.650   1.937   0.583
 8363SOL     OW25987   0.085   2.964   0.012
 8363SOL    HW125988   0.070   2.951   0.110
 8363SOL    HW225989   0.107   2.877   6.992
 8364SOL     OW25990   6.654   3.739   3.199
 8364SOL    HW125991   6.697   3.649   3.210
 8364SOL    HW225992   6.564   3.738   3.242
 8365SOL     OW25993   1.708   3.455   6.439
 8365SOL    HW125994   1.772   3.531   6.428
 8365SOL    HW225995   1.753   3.382   6.490
 8366SOL     OW25996   3.559   6.593   2.761
 8366SOL    HW125997   3.571   6.502   2.800
 8366SOL    HW225998   3.533   6.657   2.833
 8367SOL     OW25999   5.626   6.372   4.157
 8367SOL    HW126000   5.638   6.412   4.067
 8367SOL    HW226001   5.529   6.352   4.172
 8368SOL     OW26002   2.744   5.672   5.902
 8368SOL    HW126003   2.676   5.685   5.975
 8368SOL    HW226004   2.708   5.606   5.836
 8369SOL     OW26005   1.685   1.606   0.529
 8369SOL    HW126006   1.669   1.532   0.463
 8369SOL    HW226007   1.690   1.693   0.482
 8370SOL     OW26008   1.290   1.547   6.305
 8370SOL    HW126009   1.302   1.455   6.342
 8370SOL    HW226010   1.238   1.602   6.370
 8371SOL     OW26011   1.557   2.988   1.143
 8371SOL    HW126012   1.461   2.989   1.115
 8371SOL    HW226013   1.616   3.002   1.063
 8372SOL     OW26014   6.584   0.774   3.012
 8372SOL    HW126015   6.572   0.869   3.041
 8372SOL    HW226016   6.573   0.767   2.913
 8373SOL     OW26017   1.624   5.724   5.511
 8373SOL    HW126018   1.588   5.713   5.418
 8373SOL    HW226019   1.706   5.668   5.522
 8374SOL     OW26020   6.577   0.112   0.057
 8374SOL    HW126021   6.563   0.207   0.029
 8374SOL    HW226022   6.659   0.105   0.114
 8375SOL     OW26023   3.798   6.825   6.134
 8375SOL    HW126024   3.772   6.897   6.070
 8375SOL    HW226025   3.805   6.738   6.085
 8376SOL     OW26026   2.854   1.107   4.171
 8376SOL    HW126027   2.863   1.015   4.132
 8376SOL    HW226028   2.829   1.099   4.268
 8377SOL     OW26029   5.761   4.617   1.586
 8377SOL    HW126030   5.791   4.525   1.611
 8377SOL    HW226031   5.684   4.611   1.522
 8378SOL     OW26032   4.850   3.055   3.101
 8378SOL    HW126033   4.913   3.039   3.177
 8378SOL    HW226034   4.858   3.150   3.071
 8379SOL     OW26035   6.294   2.890   2.210
 8379SOL    HW126036   6.196   2.872   2.224
 8379SOL    HW226037   6.306   2.985   2.182
 8380SOL     OW26038   4.196   1.970   3.415
 8380SOL    HW126039   4.177   2.052   3.361
 8380SOL    HW226040   4.113   1.941   3.462
 8381SOL     OW26041   1.845   5.279   5.332
 8381SOL    HW126042   1.928   5.234   5.366
 8381SOL    HW226043   1.774   5.275   5.403
 8382SOL     OW26044   1.095   3.144   2.260
 8382SOL    HW126045   1.173   3.138   2.198
 8382SOL    HW226046   1.012   3.118   2.211
 8383SOL     OW26047   2.840   2.456   5.916
 8383SOL    HW126048   2.741   2.469   5.911
 8383SOL    HW226049   2.877   2.508   5.992
 8384SOL     OW26050   0.583   6.722   1.959
 8384SOL    HW126051   0.495   6.683   1.934
 8384SOL    HW226052   0.628   6.760   1.878
 8385SOL     OW26053   4.869   2.578   1.767
 8385SOL    HW126054   4.882   2.677   1.759
 8385SOL    HW226055   4.882   2.536   1.678
 8386SOL     OW26056   1.115   4.317   2.884
 8386SOL    HW126057   1.108   4.272   2.795
 8386SOL    HW226058   1.208   4.351   2.898
 8387SOL     OW26059   0.521   2.938   1.357
 8387SOL    HW126060   0.479   2.848   1.343
 8387SOL    HW226061   0.529   2.956   1.455
 8388SOL     OW26062   2.153   0.725   2.129
 8388SOL    HW126063   2.138   0.630   2.156
 8388SOL    HW226064   2.245   0.736   2.092
 8389SOL     OW26065   5.406   2.962   1.569
 8389SOL    HW126066   5.422   2.871   1.606
 8389SOL    HW226067   5.378   2.955   1.473
 8390SOL     OW26068   5.498   1.858   5.399
 8390SOL    HW126069   5.579   1.847   5.457
 8390SOL    HW226070   5.424   1.802   5.435
 8391SOL     OW26071   6.385   0.742   0.990
 8391SOL    HW126072   6.470   0.689   0.997
 8391SOL    HW226073   6.323   0.698   0.925
 8392SOL     OW26074   5.637   3.179   5.003
 8392SOL    HW126075   5.585   3.153   5.085
 8392SOL    HW226076   5.589   3.252   4.955
 8393SOL     OW26077   5.275   0.092   1.378
 8393SOL    HW126078   5.271   0.192   1.372
 8393SOL    HW226079   5.201   0.052   1.324
 8394SOL     OW26080   6.073   3.377   1.473
 8394SOL    HW126081   5.988   3.343   1.433
 8394SOL    HW226082   6.106   3.311   1.540
 8395SOL     OW26083   1.926   0.964   4.903
 8395SOL    HW126084   1.828   0.980   4.891
 8395SOL    HW226085   1.950   0.979   4.999
 8396SOL     OW26086   4.323   5.732   5.147
 8396SOL    HW126087   4.275   5.816   5.125
 8396SOL    HW226088   4.422   5.749   5.145
 8397SOL     OW26089   6.521   1.043   3.061
 8397SOL    HW126090   6.465   1.023   2.981
 8397SOL    HW226091   6.480   1.119   3.112
 8398SOL     OW26092   4.989   2.212   6.163
 8398SOL    HW126093   4.898   2.255   6.160
 8398SOL    HW226094   5.059   2.281   6.145
 8399SOL     OW26095   0.020   5.043   0.696
 8399SOL    HW126096   0.033   5.012   0.790
 8399SOL    HW226097   6.992   5.129   0.695
 8400SOL     OW26098   1.341   2.176   4.677
 8400SOL    HW126099   1.386   2.172   4.587
 8400SOL    HW226100   1.384   2.109   4.738
 8401SOL     OW26101   2.596   0.214   5.704
 8401SOL    HW126102   2.517   0.273   5.718
 8401SOL    HW226103   2.679   0.261   5.734
 8402SOL     OW26104   3.959   0.822   5.514
 8402SOL    HW126105   4.052   0.835   5.548
 8402SOL    HW226106   3.897   0.809   5.591
 8403SOL     OW26107   6.093   5.379   4.276
 8403SOL    HW126108   5.999   5.407   4.293
 8403SOL    HW226109   6.094   5.287   4.236
 8404SOL     OW26110   1.915   1.758   6.694
 8404SOL    HW126111   1.863   1.681   6.731
 8404SOL    HW226112   1.924   1.829   6.763
 8405SOL     OW26113   3.919   1.033   5.021
 8405SOL    HW126114   3.872   1.108   4.973
 8405SOL    HW226115   3.966   1.069   5.101
 8406SOL     OW26116   4.540   1.003   6.155
 8406SOL    HW126117   4.530   1.101   6.170
 8406SOL    HW226118   4.636   0.977   6.168
 8407SOL     OW26119   3.551   6.975   4.136
 8407SOL    HW126120   3.597   0.041   4.129
 8407SOL    HW226121   3.610   6.911   4.185
 8408SOL     OW26122   4.277   1.052   1.872
 8408SOL    HW126123   4.310   1.096   1.789
 8408SOL    HW226124   4.199   1.103   1.908
 8409SOL     OW26125   4.603   2.476   1.880
 8409SOL    HW126126   4.527   2.483   1.815
 8409SOL    HW226127   4.679   2.534   1.850
 8410SOL     OW26128   6.970   1.635   1.830
 8410SOL    HW126129   0.021   1.697   1.855
 8410SOL    HW226130   6.996   1.583   1.749
 8411SOL     OW26131   1.516   5.697   0.216
 8411SOL    HW126132   1.443   5.665   0.277
 8411SOL    HW226133   1.534   5.794   0.234
 8412SOL     OW26134   3.236   2.621   6.074
 8412SOL    HW126135   3.137   2.634   6.062
 8412SOL    HW226136   3.254   2.527   6.103
 8413SOL     OW26137   4.121   5.421   5.489
 8413SOL    HW126138   4.086   5.419   5.583
 8413SOL    HW226139   4.188   5.348   5.477
 8414SOL     OW26140   0.965   0.857   1.991
 8414SOL    HW126141   0.899   0.864   2.066
 8414SOL    HW226142   0.962   0.764   1.953
 8415SOL     OW26143   2.154   0.659   5.119
 8415SOL    HW126144   2.156   0.615   5.029
 8415SOL    HW226145   2.216   0.738   5.119
 8416SOL     OW26146   6.594   1.534   5.291
 8416SOL    HW126147   6.620   1.612   5.348
 8416SOL    HW226148   6.510   1.494   5.326
 8417SOL     OW26149   1.586   4.268   5.428
 8417SOL    HW126150   1.625   4.359   5.413
 8417SOL    HW226151   1.572   4.223   5.340
 8418SOL     OW26152   1.266   6.266   2.431
 8418SOL    HW126153   1.201   6.193   2.452
 8418SOL    HW226154   1.358   6.227   2.423
 8419SOL     OW26155   4.861   1.658   3.699
 8419SOL    HW126156   4.869   1.633   3.796
 8419SOL    HW226157   4.791   1.601   3.656
 8420SOL     OW26158   2.578   0.136   2.888
 8420SOL    HW126159   2.548   0.231   2.899
 8420SOL    HW226160   2.618   0.124   2.798
 8421SOL     OW26161   4.616   6.489   5.909
 8421SOL    HW126162   4.670   6.565   5.946
 8421SOL    HW226163   4.548   6.461   5.977
 8422SOL     OW26164   4.630   2.586   3.089
 8422SOL    HW126165   4.559   2.535   3.138
 8422SOL    HW226166   4.642   2.676   3.133
 8423SOL     OW26167   6.340   4.901   6.596
 8423SOL    HW126168   6.368   4.805   6.595
 8423SOL    HW226169   6.265   4.915   6.530
 8424SOL     OW26170   2.151   0.139   3.927
 8424SOL    HW126171   2.203   0.216   3.893
 8424SOL    HW226172   2.178   0.119   4.021
 8425SOL     OW26173   3.885   3.118   2.934
 8425SOL    HW126174   3.885   3.180   3.012
 8425SOL    HW226175   3.859   3.026   2.964
 8426SOL     OW26176   3.275   2.878   2.245
 8426SOL    HW126177   3.321   2.828   2.172
 8426SOL    HW226178   3.211   2.944   2.205
 8427SOL     OW26179   3.416   3.930   3.623
 8427SOL    HW126180   3.462   3.894   3.542
 8427SOL    HW226181   3.395   3.855   3.685
 8428SOL     OW26182   6.834   6.871   0.559
 8428SOL    HW126183   6.883   6.800   0.509
 8428SOL    HW226184   6.844   6.854   0.658
 8429SOL     OW26185   1.957   5.524   6.195
 8429SOL    HW126186   1.877   5.470   6.171
 8429SOL    HW226187   2.016   5.472   6.256
 8430SOL     OW26188   3.869   6.900   5.052
 8430SOL    HW126189   3.862   6.823   4.989
 8430SOL    HW226190   3.780   6.944   5.062
 8431SOL     OW26191   3.350   4.009   6.068
 8431SOL    HW126192   3.311   4.083   6.013
 8431SOL    HW226193   3.449   4.003   6.052
 8432SOL     OW26194   6.056   5.658   6.188
 8432SOL    HW126195   5.977   5.715   6.166
 8432SOL    HW226196   6.133   5.684   6.129
 8433SOL     OW26197   5.257   2.781   0.674
 8433SOL    HW126198   5.184   2.799   0.608
 8433SOL    HW226199   5.270   2.682   0.683
 8434SOL     OW26200   2.713   5.949   5.480
 8434SOL    HW126201   2.653   5.897   5.541
 8434SOL    HW226202   2.760   6.020   5.533
 8435SOL     OW26203   4.707   1.131   3.024
 8435SOL    HW126204   4.760   1.051   2.997
 8435SOL    HW226205   4.704   1.137   3.123
 8436SOL     OW26206   2.407   6.019   2.449
 8436SOL    HW126207   2.499   5.979   2.457
 8436SOL    HW226208   2.406   6.107   2.495
 8437SOL     OW26209   2.100   3.939   2.312
 8437SOL    HW126210   2.112   3.874   2.388
 8437SOL    HW226211   2.116   3.893   2.226
 8438SOL     OW26212   1.520   4.248   2.335
 8438SOL    HW126213   1.595   4.309   2.364
 8438SOL    HW226214   1.434   4.279   2.376
 8439SOL     OW26215   6.154   5.303   3.793
 8439SOL    HW126216   6.182   5.394   3.822
 8439SOL    HW226217   6.055   5.292   3.804
 8440SOL     OW26218   1.862   1.251   2.641
 8440SOL    HW126219   1.820   1.177   2.693
 8440SOL    HW226220   1.915   1.213   2.565
 8441SOL     OW26221   5.884   1.069   4.386
 8441SOL    HW126222   5.843   1.033   4.470
 8441SOL    HW226223   5.856   1.164   4.374
 8442SOL     OW26224   3.361   1.439   5.708
 8442SOL    HW126225   3.292   1.386   5.659
 8442SOL    HW226226   3.340   1.537   5.701
 8443SOL     OW26227   0.933   3.943   2.785
 8443SOL    HW126228   0.970   3.903   2.701
 8443SOL    HW226229   0.928   3.873   2.856
 8444SOL     OW26230   4.933   5.015   4.351
 8444SOL    HW126231   4.888   5.072   4.419
 8444SOL    HW226232   4.943   5.066   4.265
 8445SOL     OW26233   4.307   6.074   6.741
 8445SOL    HW126234   4.265   6.017   6.812
 8445SOL    HW226235   4.404   6.086   6.762
 8446SOL     OW26236   6.748   5.896   4.642
 8446SOL    HW126237   6.695   5.944   4.572
 8446SOL    HW226238   6.690   5.830   4.689
 8447SOL     OW26239   3.573   2.097   2.954
 8447SOL    HW126240   3.588   2.155   2.874
 8447SOL    HW226241   3.475   2.088   2.970
 8448SOL     OW26242   4.745   6.294   3.243
 8448SOL    HW126243   4.764   6.370   3.305
 8448SOL    HW226244   4.784   6.313   3.153
 8449SOL     OW26245   2.102   2.533   3.162
 8449SOL    HW126246   2.183   2.591   3.173
 8449SOL    HW226247   2.125   2.439   3.188
 8450SOL     OW26248   0.079   0.939   0.004
 8450SOL    HW126249   0.008   0.871   0.023
 8450SOL    HW226250   0.048   1.029   0.033
 8451SOL     OW26251   4.346   2.460   1.079
 8451SOL    HW126252   4.410   2.490   1.151
 8451SOL    HW226253   4.285   2.536   1.056
 8452SOL     OW26254   5.386   2.119   5.367
 8452SOL    HW126255   5.440   2.199   5.342
 8452SOL    HW226256   5.447   2.040   5.379
 8453SOL     OW26257   0.503   6.113   0.637
 8453SOL    HW126258   0.425   6.116   0.574
 8453SOL    HW226259   0.543   6.021   0.637
 8454SOL     OW26260   6.873   4.070   0.034
 8454SOL    HW126261   6.789   4.054   7.005
 8454SOL    HW226262   6.857   4.049   0.130
 8455SOL     OW26263   0.247   0.694   2.950
 8455SOL    HW126264   0.185   0.726   3.022
 8455SOL    HW226265   0.195   0.643   2.882
 8456SOL     OW26266   5.903   1.200   3.558
 8456SOL    HW126267   5.903   1.245   3.647
 8456SOL    HW226268   5.826   1.136   3.553
 8457SOL     OW26269   6.551   6.581   4.645
 8457SOL    HW126270   6.586   6.525   4.570
 8457SOL    HW226271   6.622   6.592   4.714
 8458SOL     OW26272   0.441   6.551   6.835
 8458SOL    HW126273   0.379   6.492   6.887
 8458SOL    HW226274   0.531   6.552   6.879
 8459SOL     OW26275   1.901   6.111   3.560
 8459SOL    HW126276   1.981   6.052   3.567
 8459SOL    HW226277   1.891   6.164   3.644
 8460SOL     OW26278   3.649   4.108   4.728
 8460SOL    HW126279   3.566   4.163   4.728
 8460SOL    HW226280   3.630   4.017   4.691
 8461SOL     OW26281   6.440   3.783   3.388
 8461SOL    HW126282   6.447   3.872   3.342
 8461SOL    HW226283   6.418   3.798   3.485
 8462SOL     OW26284   1.988   2.667   1.852
 8462SOL    HW126285   2.030   2.752   1.821
 8462SOL    HW226286   1.923   2.686   1.926
 8463SOL     OW26287   5.256   1.039   2.230
 8463SOL    HW126288   5.255   1.081   2.139
 8463SOL    HW226289   5.321   0.963   2.230
 8464SOL     OW26290   6.302   2.432   4.761
 8464SOL    HW126291   6.387   2.392   4.726
 8464SOL    HW226292   6.283   2.394   4.852
 8465SOL     OW26293   1.370   2.108   0.335
 8465SOL    HW126294   1.416   2.133   0.249
 8465SOL    HW226295   1.408   2.022   0.368
 8466SOL     OW26296   0.726   6.308   3.491
 8466SOL    HW126297   0.825   6.295   3.487
 8466SOL    HW226298   0.703   6.369   3.567
 8467SOL     OW26299   2.655   5.320   0.297
 8467SOL    HW126300   2.596   5.377   0.240
 8467SOL    HW226301   2.606   5.293   0.380
 8468SOL     OW26302   4.444   1.690   0.210
 8468SOL    HW126303   4.521   1.661   0.268
 8468SOL    HW226304   4.385   1.752   0.262
 8469SOL     OW26305   3.878   2.195   6.902
 8469SOL    HW126306   3.786   2.213   6.867
 8469SOL    HW226307   3.944   2.202   6.827
 8470SOL     OW26308   2.308   2.356   6.176
 8470SOL    HW126309   2.277   2.409   6.255
 8470SOL    HW226310   2.324   2.418   6.099
 8471SOL     OW26311   3.471   1.001   3.831
 8471SOL    HW126312   3.511   0.911   3.820
 8471SOL    HW226313   3.446   1.038   3.742
 8472SOL     OW26314   1.457   6.279   3.896
 8472SOL    HW126315   1.504   6.297   3.810
 8472SOL    HW226316   1.524   6.255   3.967
 8473SOL     OW26317   6.456   5.579   0.044
 8473SOL    HW126318   6.367   5.534   0.034
 8473SOL    HW226319   6.492   5.602   6.976
 8474SOL     OW26320   3.665   3.987   1.563
 8474SOL    HW126321   3.714   3.980   1.650
 8474SOL    HW226322   3.706   3.924   1.496
 8475SOL     OW26323   4.692   1.095   3.274
 8475SOL    HW126324   4.762   1.024   3.280
 8475SOL    HW226325   4.702   1.159   3.351
 8476SOL     OW26326   4.644   0.197   2.564
 8476SOL    HW126327   4.621   0.108   2.525
 8476SOL    HW226328   4.714   0.241   2.507
 8477SOL     OW26329   3.102   1.266   1.156
 8477SOL    HW126330   3.013   1.247   1.197
 8477SOL    HW226331   3.166   1.298   1.227
 8478SOL     OW26332   1.414   0.506   5.706
 8478SOL    HW126333   1.380   0.532   5.616
 8478SOL    HW226334   1.342   0.520   5.775
 8479SOL     OW26335   5.096   1.076   1.513
 8479SOL    HW126336   5.128   0.981   1.519
 8479SOL    HW226337   4.996   1.077   1.505
 8480SOL     OW26338   1.807   1.147   1.549
 8480SOL    HW126339   1.861   1.069   1.517
 8480SOL    HW226340   1.824   1.162   1.646
 8481SOL     OW26341   3.877   0.297   4.432
 8481SOL    HW126342   3.859   0.340   4.520
 8481SOL    HW226343   3.906   0.202   4.445
 8482SOL     OW26344   0.993   0.401   2.246
 8482SOL    HW126345   0.991   0.403   2.346
 8482SOL    HW226346   0.929   0.331   2.213
 8483SOL     OW26347   4.169   6.018   1.480
 8483SOL    HW126348   4.153   5.966   1.396
 8483SOL    HW226349   4.098   5.996   1.547
 8484SOL     OW26350   0.914   4.788   4.708
 8484SOL    HW126351   0.940   4.755   4.799
 8484SOL    HW226352   0.832   4.845   4.716
 8485SOL     OW26353   2.303   3.363   6.070
 8485SOL    HW126354   2.302   3.355   5.971
 8485SOL    HW226355   2.251   3.444   6.097
 8486SOL     OW26356   4.531   0.817   2.772
 8486SOL    HW126357   4.532   0.738   2.710
 8486SOL    HW226358   4.535   0.901   2.718
 8487SOL     OW26359   4.482   0.128   1.024
 8487SOL    HW126360   4.519   0.048   0.977
 8487SOL    HW226361   4.392   0.106   1.062
 8488SOL     OW26362   5.123   2.889   4.572
 8488SOL    HW126363   5.193   2.869   4.641
 8488SOL    HW226364   5.148   2.846   4.485
 8489SOL     OW26365   3.980   5.070   2.367
 8489SOL    HW126366   3.959   5.167   2.380
 8489SOL    HW226367   4.016   5.032   2.452
 8490SOL     OW26368   4.029   5.583   2.718
 8490SOL    HW126369   4.020   5.669   2.768
 8490SOL    HW226370   4.052   5.509   2.782
 8491SOL     OW26371   2.259   0.967   2.650
 8491SOL    HW126372   2.186   0.966   2.719
 8491SOL    HW226373   2.290   1.061   2.637
 8492SOL     OW26374   5.883   3.192   4.847
 8492SOL    HW126375   5.800   3.189   4.902
 8492SOL    HW226376   5.911   3.288   4.833
 8493SOL     OW26377   3.939   2.144   0.757
 8493SOL    HW126378   3.853   2.170   0.713
 8493SOL    HW226379   3.976   2.224   0.805
 8494SOL     OW26380   3.962   5.841   6.800
 8494SOL    HW126381   3.992   5.746   6.809
 8494SOL    HW226382   4.015   5.886   6.728
 8495SOL     OW26383   0.008   2.362   0.825
 8495SOL    HW126384   0.045   2.364   0.918
 8495SOL    HW226385   6.968   2.285   0.815
 8496SOL     OW26386   6.832   2.977   3.042
 8496SOL    HW126387   6.929   2.973   3.067
 8496SOL    HW226388   6.821   3.027   2.957
 8497SOL     OW26389   6.317   5.532   3.403
 8497SOL    HW126390   6.320   5.434   3.379
 8497SOL    HW226391   6.333   5.586   3.321
 8498SOL     OW26392   0.184   0.675   0.537
 8498SOL    HW126393   0.184   0.628   0.449
 8498SOL    HW226394   0.273   0.717   0.553
 8499SOL     OW26395   3.538   4.160   6.438
 8499SOL    HW126396   3.559   4.082   6.496
 8499SOL    HW226397   3.460   4.138   6.380
 8500SOL     OW26398   3.140   0.669   5.918
 8500SOL    HW126399   3.072   0.716   5.975
 8500SOL    HW226400   3.232   0.700   5.943
 8501SOL     OW26401   2.083   4.009   6.524
 8501SOL    HW126402   2.050   4.036   6.615
 8501SOL    HW226403   2.088   4.091   6.466
 8502SOL     OW26404   6.770   0.697   2.464
 8502SOL    HW126405   6.794   0.722   2.558
 8502SOL    HW226406   6.690   0.637   2.465
 8503SOL     OW26407   2.964   5.746   2.896
 8503SOL    HW126408   2.988   5.696   2.979
 8503SOL    HW226409   2.886   5.702   2.852
 8504SOL     OW26410   1.436   5.937   3.811
 8504SOL    HW126411   1.485   5.976   3.732
 8504SOL    HW226412   1.440   5.838   3.807
 8505SOL     OW26413   5.112   3.137   3.573
 8505SOL    HW126414   5.036   3.159   3.512
 8505SOL    HW226415   5.178   3.213   3.573
 8506SOL     OW26416   1.324   6.422   0.129
 8506SOL    HW126417   1.297   6.332   0.165
 8506SOL    HW226418   1.253   6.489   0.150
 8507SOL     OW26419   1.274   0.909   5.083
 8507SOL    HW126420   1.352   0.967   5.108
 8507SOL    HW226421   1.293   0.814   5.109
 8508SOL     OW26422   1.121   2.322   6.373
 8508SOL    HW126423   1.063   2.379   6.432
 8508SOL    HW226424   1.218   2.340   6.394
 8509SOL     OW26425   6.416   1.816   4.725
 8509SOL    HW126426   6.418   1.761   4.809
 8509SOL    HW226427   6.324   1.812   4.685
 8510SOL     OW26428   5.466   6.974   2.330
 8510SOL    HW126429   5.528   6.954   2.405
 8510SOL    HW226430   5.511   6.954   2.243
 8511SOL     OW26431   6.226   4.498   1.920
 8511SOL    HW126432   6.136   4.509   1.879
 8511SOL    HW226433   6.296   4.503   1.849
 8512SOL     OW26434   4.446   1.792   6.980
 8512SOL    HW126435   4.430   1.733   0.036
 8512SOL    HW226436   4.414   1.885   7.000
 8513SOL     OW26437   6.898   3.882   1.163
 8513SOL    HW126438   6.961   3.807   1.146
 8513SOL    HW226439   6.873   3.925   1.076
 8514SOL     OW26440   2.461   2.291   5.569
 8514SOL    HW126441   2.479   2.207   5.518
 8514SOL    HW226442   2.528   2.302   5.643
 8515SOL     OW26443   1.175   0.349   0.954
 8515SOL    HW126444   1.257   0.404   0.939
 8515SOL    HW226445   1.200   0.252   0.962
 8516SOL     OW26446   5.609   2.297   3.276
 8516SOL    HW126447   5.601   2.198   3.284
 8516SOL    HW226448   5.573   2.340   3.359
 8517SOL     OW26449   1.932   2.113   5.278
 8517SOL    HW126450   1.845   2.084   5.318
 8517SOL    HW226451   1.916   2.193   5.220
 8518SOL     OW26452   5.188   4.872   0.107
 8518SOL    HW126453   5.234   4.820   0.035
 8518SOL    HW226454   5.256   4.916   0.166
 8519SOL     OW26455   1.324   3.600   0.767
 8519SOL    HW126456   1.376   3.661   0.826
 8519SOL    HW226457   1.250   3.557   0.819
 8520SOL     OW26458   4.203   3.821   5.699
 8520SOL    HW126459   4.103   3.812   5.700
 8520SOL    HW226460   4.233   3.838   5.605
 8521SOL     OW26461   2.276   5.969   5.951
 8521SOL    HW126462   2.228   5.882   5.942
 8521SOL    HW226463   2.210   6.044   5.953
 8522SOL     OW26464   1.143   6.164   0.590
 8522SOL    HW126465   1.203   6.235   0.553
 8522SOL    HW226466   1.068   6.148   0.527
 8523SOL     OW26467   2.564   0.763   0.135
 8523SOL    HW126468   2.660   0.785   0.122
 8523SOL    HW226469   2.517   0.761   0.047
 8524SOL     OW26470   2.266   5.688   4.945
 8524SOL    HW126471   2.249   5.591   4.961
 8524SOL    HW226472   2.279   5.735   5.032
 8525SOL     OW26473   6.948   4.856   1.312
 8525SOL    HW126474   6.990   4.947   1.306
 8525SOL    HW226475   6.946   4.814   1.222
 8526SOL     OW26476   2.004   6.151   0.504
 8526SOL    HW126477   1.981   6.177   0.598
 8526SOL    HW226478   2.072   6.078   0.505
 8527SOL     OW26479   3.388   0.804   5.876
 8527SOL    HW126480   3.368   0.800   5.778
 8527SOL    HW226481   3.446   0.883   5.896
 8528SOL     OW26482   4.797   2.107   0.517
 8528SOL    HW126483   4.739   2.048   0.460
 8528SOL    HW226484   4.787   2.202   0.486
 8529SOL     OW26485   1.356   6.199   6.675
 8529SOL    HW126486   1.257   6.192   6.688
 8529SOL    HW226487   1.377   6.275   6.614
 8530SOL     OW26488   3.576   4.137   4.429
 8530SOL    HW126489   3.626   4.208   4.478
 8530SOL    HW226490   3.591   4.048   4.473
 8531SOL     OW26491   6.865   5.503   3.542
 8531SOL    HW126492   6.874   5.533   3.637
 8531SOL    HW226493   6.949   5.524   3.492
 8532SOL     OW26494   2.443   5.648   4.546
 8532SOL    HW126495   2.511   5.686   4.608
 8532SOL    HW226496   2.478   5.653   4.452
 8533SOL     OW26497   1.881   5.737   5.225
 8533SOL    HW126498   1.977   5.712   5.213
 8533SOL    HW226499   1.872   5.797   5.304
 8534SOL     OW26500   3.497   2.109   3.846
 8534SOL    HW126501   3.518   2.194   3.798
 8534SOL    HW226502   3.507   2.032   3.783
 8535SOL     OW26503   6.192   0.749   3.078
 8535SOL    HW126504   6.183   0.840   3.118
 8535SOL    HW226505   6.280   0.709   3.106
 8536SOL     OW26506   0.024   0.834   4.215
 8536SOL    HW126507   0.123   0.842   4.220
 8536SOL    HW226508   7.022   0.744   4.179
 8537SOL     OW26509   6.939   1.264   2.976
 8537SOL    HW126510   6.933   1.244   2.878
 8537SOL    HW226511   6.901   1.188   3.028
 8538SOL     OW26512   1.705   2.399   6.843
 8538SOL    HW126513   1.730   2.454   6.922
 8538SOL    HW226514   1.606   2.401   6.830
 8539SOL     OW26515   6.058   2.642   2.760
 8539SOL    HW126516   6.156   2.626   2.772
 8539SOL    HW226517   6.008   2.605   2.838
 8540SOL     OW26518   4.456   6.871   0.362
 8540SOL    HW126519   4.502   6.897   0.277
 8540SOL    HW226520   4.416   6.952   0.404
 8541SOL     OW26521   1.802   2.404   3.840
 8541SOL    HW126522   1.717   2.369   3.800
 8541SOL    HW226523   1.786   2.495   3.878
 8542SOL     OW26524   3.956   4.415   7.017
 8542SOL    HW126525   3.995   4.356   0.065
 8542SOL    HW226526   3.872   4.457   0.028
 8543SOL     OW26527   2.213   2.665   6.425
 8543SOL    HW126528   2.179   2.581   6.468
 8543SOL    HW226529   2.224   2.649   6.327
 8544SOL     OW26530   6.511   2.904   3.306
 8544SOL    HW126531   6.567   2.859   3.236
 8544SOL    HW226532   6.476   2.836   3.370
 8545SOL     OW26533   5.186   6.567   4.566
 8545SOL    HW126534   5.270   6.527   4.602
 8545SOL    HW226535   5.208   6.649   4.514
 8546SOL     OW26536   4.424   1.624   5.233
 8546SOL    HW126537   4.465   1.656   5.147
 8546SOL    HW226538   4.400   1.702   5.290
 8547SOL     OW26539   0.816   4.153   3.455
 8547SOL    HW126540   0.832   4.122   3.549
 8547SOL    HW226541   0.763   4.239   3.457
 8548SOL     OW26542   5.496   1.435   5.775
 8548SOL    HW126543   5.491   1.450   5.676
 8548SOL    HW226544   5.578   1.480   5.811
 8549SOL     OW26545   6.258   3.657   4.835
 8549SOL    HW126546   6.290   3.591   4.767
 8549SOL    HW226547   6.294   3.632   4.925
 8550SOL     OW26548   0.928   4.064   6.475
 8550SOL    HW126549   0.838   4.088   6.513
 8550SOL    HW226550   0.917   3.991   6.409
 8551SOL     OW26551   3.431   4.194   0.210
 8551SOL    HW126552   3.507   4.208   0.273
 8551SOL    HW226553   3.386   4.281   0.192
 8552SOL     OW26554   2.788   6.625   4.108
 8552SOL    HW126555   2.852   6.578   4.048
 8552SOL    HW226556   2.719   6.560   4.141
 8553SOL     OW26557   5.812   6.869   0.487
 8553SOL    HW126558   5.858   6.875   0.398
 8553SOL    HW226559   5.797   6.773   0.510
 8554SOL     OW26560   6.192   3.609   6.787
 8554SOL    HW126561   6.139   3.576   6.709
 8554SOL    HW226562   6.150   3.693   6.822
 8555SOL     OW26563   1.517   0.144   4.047
 8555SOL    HW126564   1.612   0.129   4.073
 8555SOL    HW226565   1.498   0.242   4.044
 8556SOL     OW26566   6.331   0.282   3.510
 8556SOL    HW126567   6.417   0.238   3.485
 8556SOL    HW226568   6.347   0.377   3.535
 8557SOL     OW26569   0.426   0.488   1.377
 8557SOL    HW126570   0.460   0.582   1.367
 8557SOL    HW226571   0.353   0.486   1.446
 8558SOL     OW26572   1.497   5.061   2.017
 8558SOL    HW126573   1.544   5.108   1.942
 8558SOL    HW226574   1.474   5.127   2.088
 8559SOL     OW26575   1.185   0.253   0.180
 8559SOL    HW126576   1.136   0.319   0.238
 8559SOL    HW226577   1.175   0.278   0.084
 8560SOL     OW26578   6.080   1.824   0.086
 8560SOL    HW126579   6.062   1.920   0.062
 8560SOL    HW226580   6.149   1.820   0.157
 8561SOL     OW26581   4.802   6.403   4.065
 8561SOL    HW126582   4.809   6.460   4.147
 8561SOL    HW226583   4.721   6.429   4.013
 8562SOL     OW26584   3.506   6.726   4.739
 8562SOL    HW126585   3.492   6.703   4.642
 8562SOL    HW226586   3.589   6.680   4.771
 8563SOL     OW26587   2.379   2.853   5.856
 8563SOL    HW126588   2.347   2.924   5.795
 8563SOL    HW226589   2.396   2.769   5.805
 8564SOL     OW26590   0.642   0.420   3.882
 8564SOL    HW126591   0.721   0.443   3.824
 8564SOL    HW226592   0.593   0.343   3.841
 8565SOL     OW26593   3.759   6.837   2.012
 8565SOL    HW126594   3.847   6.884   2.017
 8565SOL    HW226595   3.692   6.898   1.969
 8566SOL     OW26596   2.200   2.764   3.623
 8566SOL    HW126597   2.238   2.791   3.711
 8566SOL    HW226598   2.117   2.711   3.638
 8567SOL     OW26599   4.904   0.307   0.988
 8567SOL    HW126600   4.882   0.210   0.991
 8567SOL    HW226601   4.831   0.359   1.033
 8568SOL     OW26602   5.052   1.295   0.377
 8568SOL    HW126603   5.001   1.210   0.378
 8568SOL    HW226604   4.997   1.367   0.334
 8569SOL     OW26605   4.196   1.694   4.480
 8569SOL    HW126606   4.126   1.673   4.548
 8569SOL    HW226607   4.187   1.789   4.451
 8570SOL     OW26608   0.225   3.912   0.095
 8570SOL    HW126609   0.296   3.841   0.091
 8570SOL    HW226610   0.145   3.882   0.042
 8571SOL     OW26611   6.701   4.278   5.279
 8571SOL    HW126612   6.693   4.352   5.346
 8571SOL    HW226613   6.624   4.216   5.290
 8572SOL     OW26614   2.818   4.677   5.414
 8572SOL    HW126615   2.862   4.658   5.326
 8572SOL    HW226616   2.724   4.642   5.413
 8573SOL     OW26617   3.716   5.783   5.208
 8573SOL    HW126618   3.722   5.875   5.248
 8573SOL    HW226619   3.681   5.789   5.115
 8574SOL     OW26620   0.704   4.038   5.151
 8574SOL    HW126621   0.647   3.957   5.160
 8574SOL    HW226622   0.787   4.027   5.206
 8575SOL     OW26623   3.039   3.397   6.823
 8575SOL    HW126624   2.994   3.463   6.882
 8575SOL    HW226625   3.054   3.312   6.873
 8576SOL     OW26626   1.783   0.065   1.409
 8576SOL    HW126627   1.690   0.043   1.380
 8576SOL    HW226628   1.779   0.135   1.481
 8577SOL     OW26629   6.562   5.910   3.093
 8577SOL    HW126630   6.635   5.960   3.046
 8577SOL    HW226631   6.518   5.970   3.160
 8578SOL     OW26632   4.245   6.932   3.796
 8578SOL    HW126633   4.264   7.003   3.729
 8578SOL    HW226634   4.153   6.895   3.781
 8579SOL     OW26635   0.947   5.447   3.074
 8579SOL    HW126636   0.858   5.476   3.109
 8579SOL    HW226637   0.947   5.348   3.063
 8580SOL     OW26638   2.635   4.381   6.658
 8580SOL    HW126639   2.601   4.304   6.711
 8580SOL    HW226640   2.735   4.377   6.654
 8581SOL     OW26641   2.816   2.545   1.460
 8581SOL    HW126642   2.847   2.575   1.550
 8581SOL    HW226643   2.892   2.504   1.410
 8582SOL     OW26644   4.211   3.922   1.384
 8582SOL    HW126645   4.117   3.952   1.393
 8582SOL    HW226646   4.270   3.980   1.440
 8583SOL     OW26647   6.040   0.105   6.344
 8583SOL    HW126648   6.112   0.093   6.413
 8583SOL    HW226649   5.967   0.162   6.382
 8584SOL     OW26650   6.767   5.401   6.947
 8584SOL    HW126651   6.716   5.384   6.863
 8584SOL    HW226652   6.781   5.314   6.995
 8585SOL     OW26653   0.084   1.601   0.819
 8585SOL    HW126654   0.144   1.663   0.869
 8585SOL    HW226655   0.014   1.653   0.770
 8586SOL     OW26656   4.099   5.646   3.927
 8586SOL    HW126657   4.028   5.599   3.979
 8586SOL    HW226658   4.143   5.581   3.865
 8587SOL     OW26659   6.950   1.480   1.520
 8587SOL    HW126660   6.980   1.408   1.457
 8587SOL    HW226661   6.851   1.473   1.533
 8588SOL     OW26662   4.749   2.451   0.241
 8588SOL    HW126663   4.652   2.445   0.266
 8588SOL    HW226664   4.757   2.461   0.142
 8589SOL     OW26665   2.922   2.191   4.526
 8589SOL    HW126666   2.884   2.113   4.575
 8589SOL    HW226667   3.020   2.199   4.548
 8590SOL     OW26668   6.157   4.539   5.405
 8590SOL    HW126669   6.072   4.590   5.407
 8590SOL    HW226670   6.234   4.603   5.407
 8591SOL     OW26671   1.070   3.285   6.618
 8591SOL    HW126672   1.093   3.210   6.556
 8591SOL    HW226673   1.069   3.371   6.567
 8592SOL     OW26674   5.963   5.388   6.668
 8592SOL    HW126675   5.946   5.465   6.607
 8592SOL    HW226676   5.892   5.385   6.739
 8593SOL     OW26677   1.230   0.184   2.702
 8593SOL    HW126678   1.277   0.178   2.614
 8593SOL    HW226679   1.251   0.271   2.745
 8594SOL     OW26680   3.919   3.473   4.210
 8594SOL    HW126681   3.820   3.488   4.217
 8594SOL    HW226682   3.967   3.552   4.245
 8595SOL     OW26683   1.696   1.817   2.102
 8595SOL    HW126684   1.753   1.855   2.028
 8595SOL    HW226685   1.657   1.730   2.073
 8596SOL     OW26686   6.144   5.096   2.313
 8596SOL    HW126687   6.171   5.192   2.308
 8596SOL    HW226688   6.046   5.089   2.293
 8597SOL     OW26689   1.613   1.160   1.322
 8597SOL    HW126690   1.668   1.154   1.406
 8597SOL    HW226691   1.536   1.097   1.328
 8598SOL     OW26692   5.129   4.668   0.292
 8598SOL    HW126693   5.136   4.737   0.220
 8598SOL    HW226694   5.218   4.659   0.338
 8599SOL     OW26695   1.555   3.558   2.400
 8599SOL    HW126696   1.501   3.640   2.383
 8599SOL    HW226697   1.642   3.565   2.350
 8600SOL     OW26698   6.299   4.380   6.562
 8600SOL    HW126699   6.370   4.315   6.587
 8600SOL    HW226700   6.253   4.348   6.479
 8601SOL     OW26701   7.021   6.871   3.901
 8601SOL    HW126702   6.990   6.776   3.898
 8601SOL    HW226703   6.956   6.926   3.954
 8602SOL     OW26704   3.052   6.481   2.116
 8602SOL    HW126705   3.003   6.555   2.161
 8602SOL    HW226706   3.120   6.520   2.053
 8603SOL     OW26707   4.187   3.461   0.724
 8603SOL    HW126708   4.109   3.415   0.684
 8603SOL    HW226709   4.174   3.560   0.719
 8604SOL     OW26710   5.065   2.780   2.522
 8604SOL    HW126711   5.116   2.694   2.520
 8604SOL    HW226712   5.063   2.816   2.615
 8605SOL     OW26713   2.264   6.696   1.505
 8605SOL    HW126714   2.333   6.767   1.516
 8605SOL    HW226715   2.228   6.670   1.595
 8606SOL     OW26716   3.947   4.757   5.606
 8606SOL    HW126717   3.926   4.736   5.511
 8606SOL    HW226718   3.911   4.848   5.629
 8607SOL     OW26719   4.665   6.012   1.780
 8607SOL    HW126720   4.673   6.108   1.807
 8607SOL    HW226721   4.574   5.978   1.805
 8608SOL     OW26722   5.015   6.082   2.042
 8608SOL    HW126723   4.940   6.031   2.085
 8608SOL    HW226724   4.999   6.088   1.944
 8609SOL     OW26725   3.890   0.769   5.038
 8609SOL    HW126726   3.916   0.729   5.127
 8609SOL    HW226727   3.900   0.868   5.043
 8610SOL     OW26728   0.143   6.554   3.926
 8610SOL    HW126729   0.214   6.489   3.899
 8610SOL    HW226730   0.057   6.531   3.880
 8611SOL     OW26731   2.016   1.804   3.113
 8611SOL    HW126732   2.046   1.777   3.205
 8611SOL    HW226733   2.052   1.895   3.092
 8612SOL     OW26734   4.321   2.992   5.357
 8612SOL    HW126735   4.315   2.909   5.412
 8612SOL    HW226736   4.309   2.970   5.261
 8613SOL     OW26737   1.431   1.112   0.152
 8613SOL    HW126738   1.379   1.191   0.119
 8613SOL    HW226739   1.507   1.143   0.209
 8614SOL     OW26740   0.948   1.556   3.140
 8614SOL    HW126741   1.039   1.529   3.107
 8614SOL    HW226742   0.902   1.609   3.068
 8615SOL     OW26743   4.281   2.715   5.390
 8615SOL    HW126744   4.310   2.670   5.474
 8615SOL    HW226745   4.239   2.647   5.329
 8616SOL     OW26746   1.500   3.621   0.094
 8616SOL    HW126747   1.510   3.604   0.192
 8616SOL    HW226748   1.414   3.583   0.062
 8617SOL     OW26749   5.615   2.994   0.867
 8617SOL    HW126750   5.554   2.974   0.791
 8617SOL    HW226751   5.641   3.091   0.865
 8618SOL     OW26752   4.914   0.657   3.856
 8618SOL    HW126753   4.977   0.683   3.783
 8618SOL    HW226754   4.820   0.679   3.827
 8619SOL     OW26755   4.652   5.605   0.614
 8619SOL    HW126756   4.597   5.524   0.592
 8619SOL    HW226757   4.617   5.683   0.563
 8620SOL     OW26758   6.348   6.619   3.113
 8620SOL    HW126759   6.272   6.589   3.171
 8620SOL    HW226760   6.420   6.658   3.171
 8621SOL     OW26761   6.201   1.003   3.136
 8621SOL    HW126762   6.154   0.989   3.223
 8621SOL    HW226763   6.240   1.095   3.133
 8622SOL     OW26764   5.243   5.183   0.220
 8622SOL    HW126765   5.158   5.214   0.179
 8622SOL    HW226766   5.223   5.120   0.296
 8623SOL     OW26767   6.301   3.477   2.747
 8623SOL    HW126768   6.341   3.391   2.780
 8623SOL    HW226769   6.375   3.544   2.731
 8624SOL     OW26770   0.764   5.148   3.579
 8624SOL    HW126771   0.849   5.115   3.539
 8624SOL    HW226772   0.688   5.091   3.546
 8625SOL     OW26773   3.635   0.671   4.656
 8625SOL    HW126774   3.647   0.634   4.749
 8625SOL    HW226775   3.715   0.725   4.631
 8626SOL     OW26776   2.926   3.781   2.991
 8626SOL    HW126777   2.922   3.819   3.083
 8626SOL    HW226778   3.020   3.789   2.956
 8627SOL     OW26779   1.917   0.120   6.572
 8627SOL    HW126780   1.903   0.042   6.633
 8627SOL    HW226781   1.957   0.196   6.624
 8628SOL     OW26782   5.210   1.171   0.158
 8628SOL    HW126783   5.304   1.168   0.122
 8628SOL    HW226784   5.177   1.265   0.156
 8629SOL     OW26785   1.057   4.513   4.042
 8629SOL    HW126786   1.069   4.531   3.944
 8629SOL    HW226787   1.021   4.594   4.087
 8630SOL     OW26788   5.594   4.399   4.143
 8630SOL    HW126789   5.581   4.315   4.195
 8630SOL    HW226790   5.671   4.388   4.080
 8631SOL     OW26791   3.674   6.053   4.894
 8631SOL    HW126792   3.659   5.955   4.907
 8631SOL    HW226793   3.597   6.093   4.845
 8632SOL     OW26794   4.376   0.396   3.632
 8632SOL    HW126795   4.285   0.436   3.642
 8632SOL    HW226796   4.423   0.439   3.554
 8633SOL     OW26797   6.093   0.947   3.744
 8633SOL    HW126798   6.018   0.921   3.683
 8633SOL    HW226799   6.061   0.943   3.839
 8634SOL     OW26800   6.679   5.150   1.742
 8634SOL    HW126801   6.640   5.118   1.828
 8634SOL    HW226802   6.752   5.088   1.713
 8635SOL     OW26803   6.220   4.280   4.883
 8635SOL    HW126804   6.188   4.185   4.893
 8635SOL    HW226805   6.314   4.279   4.848
 8636SOL     OW26806   5.672   5.552   0.818
 8636SOL    HW126807   5.638   5.634   0.772
 8636SOL    HW226808   5.769   5.540   0.798
 8637SOL     OW26809   2.746   0.420   1.533
 8637SOL    HW126810   2.664   0.363   1.523
 8637SOL    HW226811   2.751   0.456   1.626
 8638SOL     OW26812   3.741   5.016   0.475
 8638SOL    HW126813   3.658   4.993   0.425
 8638SOL    HW226814   3.813   4.951   0.451
 8639SOL     OW26815   6.592   3.059   2.519
 8639SOL    HW126816   6.557   2.973   2.483
 8639SOL    HW226817   6.676   3.042   2.572
 8640SOL     OW26818   5.113   5.976   0.888
 8640SOL    HW126819   5.057   5.898   0.915
 8640SOL    HW226820   5.060   6.036   0.828
 8641SOL     OW26821   5.648   4.746   3.240
 8641SOL    HW126822   5.657   4.721   3.143
 8641SOL    HW226823   5.728   4.715   3.290
 8642SOL     OW26824   4.323   1.394   1.396
 8642SOL    HW126825   4.232   1.434   1.402
 8642SOL    HW226826   4.392   1.467   1.399
 8643SOL     OW26827   4.493   0.792   5.960
 8643SOL    HW126828   4.530   0.857   6.026
 8643SOL    HW226829   4.555   0.786   5.881
 8644SOL     OW26830   6.439   3.447   4.997
 8644SOL    HW126831   6.418   3.390   5.077
 8644SOL    HW226832   6.512   3.511   5.019
 8645SOL     OW26833   5.947   4.812   1.575
 8645SOL    HW126834   5.860   4.766   1.556
 8645SOL    HW226835   5.986   4.846   1.489
 8646SOL     OW26836   5.068   0.921   0.669
 8646SOL    HW126837   5.157   0.902   0.710
 8646SOL    HW226838   5.025   0.834   0.642
 8647SOL     OW26839   4.338   4.704   1.164
 8647SOL    HW126840   4.407   4.761   1.121
 8647SOL    HW226841   4.286   4.655   1.093
 8648SOL     OW26842   5.427   1.883   4.451
 8648SOL    HW126843   5.422   1.890   4.550
 8648SOL    HW226844   5.365   1.949   4.409
 8649SOL     OW26845   6.672   4.502   5.405
 8649SOL    HW126846   6.751   4.558   5.379
 8649SOL    HW226847   6.683   4.472   5.500
 8650SOL     OW26848   1.921   4.854   2.516
 8650SOL    HW126849   1.867   4.903   2.447
 8650SOL    HW226850   2.016   4.885   2.512
 8651SOL     OW26851   3.234   1.320   0.924
 8651SOL    HW126852   3.189   1.309   1.013
 8651SOL    HW226853   3.271   1.412   0.917
 8652SOL     OW26854   1.255   3.247   3.883
 8652SOL    HW126855   1.236   3.326   3.826
 8652SOL    HW226856   1.183   3.237   3.952
 8653SOL     OW26857   6.790   3.200   0.041
 8653SOL    HW126858   6.742   3.179   6.979
 8653SOL    HW226859   6.738   3.163   0.118
 8654SOL     OW26860   0.768   6.905   3.104
 8654SOL    HW126861   0.789   6.979   3.040
 8654SOL    HW226862   0.718   6.942   3.182
 8655SOL     OW26863   5.928   5.892   4.166
 8655SOL    HW126864   5.888   5.817   4.114
 8655SOL    HW226865   5.904   5.884   4.263
 8656SOL     OW26866   6.021   2.070   1.407
 8656SOL    HW126867   5.989   2.038   1.495
 8656SOL    HW226868   5.957   2.042   1.335
 8657SOL     OW26869   3.500   4.073   6.855
 8657SOL    HW126870   3.460   4.048   6.943
 8657SOL    HW226871   3.585   4.124   6.870
 8658SOL     OW26872   6.607   5.242   0.247
 8658SOL    HW126873   6.512   5.219   0.224
 8658SOL    HW226874   6.666   5.220   0.169
 8659SOL     OW26875   5.605   0.597   4.128
 8659SOL    HW126876   5.538   0.563   4.194
 8659SOL    HW226877   5.669   0.524   4.104
 8660SOL     OW26878   5.628   4.555   1.335
 8660SOL    HW126879   5.622   4.559   1.235
 8660SOL    HW226880   5.621   4.460   1.365
 8661SOL     OW26881   6.511   3.788   1.653
 8661SOL    HW126882   6.438   3.729   1.686
 8661SOL    HW226883   6.600   3.753   1.684
 8662SOL     OW26884   0.291   6.829   0.827
 8662SOL    HW126885   0.246   6.917   0.842
 8662SOL    HW226886   0.324   6.824   0.733
 8663SOL     OW26887   2.470   5.463   0.159
 8663SOL    HW126888   2.455   5.562   0.161
 8663SOL    HW226889   2.388   5.417   0.191
 8664SOL     OW26890   4.359   5.558   0.658
 8664SOL    HW126891   4.426   5.520   0.721
 8664SOL    HW226892   4.282   5.495   0.650
 8665SOL     OW26893   5.520   5.227   5.427
 8665SOL    HW126894   5.488   5.138   5.394
 8665SOL    HW226895   5.477   5.300   5.373
 8666SOL     OW26896   5.337   3.132   4.642
 8666SOL    HW126897   5.290   3.218   4.661
 8666SOL    HW226898   5.321   3.107   4.546
 8667SOL     OW26899   4.541   1.790   3.802
 8667SOL    HW126900   4.500   1.850   3.732
 8667SOL    HW226901   4.545   1.697   3.767
 8668SOL     OW26902   4.157   1.887   4.279
 8668SOL    HW126903   4.058   1.877   4.276
 8668SOL    HW226904   4.198   1.839   4.201
 8669SOL     OW26905   4.148   0.703   5.779
 8669SOL    HW126906   4.175   0.784   5.832
 8669SOL    HW226907   4.049   0.693   5.782
 8670SOL     OW26908   3.622   5.270   4.109
 8670SOL    HW126909   3.651   5.308   4.021
 8670SOL    HW226910   3.616   5.344   4.176
 8671SOL     OW26911   5.523   6.765   3.317
 8671SOL    HW126912   5.531   6.715   3.231
 8671SOL    HW226913   5.474   6.851   3.302
 8672SOL     OW26914   3.414   4.923   4.643
 8672SOL    HW126915   3.355   4.987   4.594
 8672SOL    HW226916   3.494   4.901   4.586
 8673SOL     OW26917   5.780   1.973   0.722
 8673SOL    HW126918   5.769   1.880   0.759
 8673SOL    HW226919   5.694   2.002   0.681
 8674SOL     OW26920   0.639   6.977   2.674
 8674SOL    HW126921   0.730   6.963   2.715
 8674SOL    HW226922   0.648   0.007   2.590
 8675SOL     OW26923   1.979   1.117   2.424
 8675SOL    HW126924   2.036   1.035   2.424
 8675SOL    HW226925   2.024   1.189   2.371
 8676SOL     OW26926   4.132   0.338   3.041
 8676SOL    HW126927   4.180   0.255   3.012
 8676SOL    HW226928   4.117   0.334   3.140
 8677SOL     OW26929   2.781   4.218   6.074
 8677SOL    HW126930   2.879   4.224   6.055
 8677SOL    HW226931   2.749   4.305   6.111
 8678SOL     OW26932   1.323   6.994   6.208
 8678SOL    HW126933   1.264   6.977   6.287
 8678SOL    HW226934   1.383   0.049   6.227
 8679SOL     OW26935   6.817   2.421   4.958
 8679SOL    HW126936   6.839   2.325   4.938
 8679SOL    HW226937   6.901   2.470   4.979
 8680SOL     OW26938   1.392   3.205   0.326
 8680SOL    HW126939   1.387   3.299   0.359
 8680SOL    HW226940   1.408   3.205   0.227
 8681SOL     OW26941   3.412   3.968   0.872
 8681SOL    HW126942   3.344   3.919   0.818
 8681SOL    HW226943   3.367   4.015   0.948
 8682SOL     OW26944   2.109   6.029   2.828
 8682SOL    HW126945   2.206   6.005   2.830
 8682SOL    HW226946   2.087   6.088   2.905
 8683SOL     OW26947   6.634   3.157   0.266
 8683SOL    HW126948   6.656   3.182   0.360
 8683SOL    HW226949   6.538   3.178   0.248
 8684SOL     OW26950   6.524   2.684   4.111
 8684SOL    HW126951   6.494   2.693   4.016
 8684SOL    HW226952   6.561   2.771   4.142
 8685SOL     OW26953   1.753   2.306   5.462
 8685SOL    HW126954   1.850   2.319   5.482
 8685SOL    HW226955   1.699   2.375   5.510
 8686SOL     OW26956   6.732   2.736   3.529
 8686SOL    HW126957   6.643   2.695   3.549
 8686SOL    HW226958   6.719   2.831   3.500
 8687SOL     OW26959   3.640   6.942   3.622
 8687SOL    HW126960   3.614   6.924   3.716
 8687SOL    HW226961   3.667   0.015   3.612
 8688SOL     OW26962   2.405   0.503   2.039
 8688SOL    HW126963   2.351   0.534   1.960
 8688SOL    HW226964   2.449   0.416   2.017
 8689SOL     OW26965   4.669   5.626   0.892
 8689SOL    HW126966   4.590   5.670   0.935
 8689SOL    HW226967   4.664   5.637   0.793
 8690SOL     OW26968   0.302   1.486   2.776
 8690SOL    HW126969   0.231   1.501   2.707
 8690SOL    HW226970   0.309   1.568   2.833
 8691SOL     OW26971   5.276   2.140   0.319
 8691SOL    HW126972   5.311   2.155   0.411
 8691SOL    HW226973   5.251   2.228   0.278
 8692SOL     OW26974   1.967   1.683   3.891
 8692SOL    HW126975   2.038   1.745   3.922
 8692SOL    HW226976   1.898   1.734   3.839
 8693SOL     OW26977   5.239   2.322   0.870
 8693SOL    HW126978   5.170   2.343   0.939
 8693SOL    HW226979   5.200   2.259   0.802
 8694SOL     OW26980   5.082   7.007   5.798
 8694SOL    HW126981   4.991   0.020   5.817
 8694SOL    HW226982   5.074   6.927   5.739
 8695SOL     OW26983   4.361   4.307   5.622
 8695SOL    HW126984   4.355   4.366   5.703
 8695SOL    HW226985   4.358   4.211   5.650
 8696SOL     OW26986   2.169   5.429   1.771
 8696SOL    HW126987   2.106   5.363   1.811
 8696SOL    HW226988   2.203   5.395   1.684
 8697SOL     OW26989   6.123   4.352   0.971
 8697SOL    HW126990   6.138   4.342   0.873
 8697SOL    HW226991   6.180   4.286   1.021
 8698SOL     OW26992   5.286   5.719   4.566
 8698SOL    HW126993   5.275   5.798   4.626
 8698SOL    HW226994   5.374   5.675   4.585
 8699SOL     OW26995   1.417   1.933   5.080
 8699SOL    HW126996   1.332   1.880   5.081
 8699SOL    HW226997   1.409   2.010   5.143
 8700SOL     OW26998   3.073   1.342   5.887
 8700SOL    HW126999   3.169   1.367   5.896
 8700SOL    HW227000   3.016   1.411   5.930
 8701SOL     OW27001   0.568   1.730   5.110
 8701SOL    HW127002   0.544   1.826   5.122
 8701SOL    HW227003   0.598   1.715   5.016
 8702SOL     OW27004   5.206   6.009   0.132
 8702SOL    HW127005   5.267   5.929   0.133
 8702SOL    HW227006   5.255   6.089   0.163
 8703SOL     OW27007   2.218   5.608   0.976
 8703SOL    HW127008   2.258   5.673   0.910
 8703SOL    HW227009   2.283   5.590   1.049
 8704SOL     OW27010   0.027   4.135   1.848
 8704SOL    HW127011   0.037   4.072   1.925
 8704SOL    HW227012   0.008   4.227   1.883
 8705SOL     OW27013   5.010   0.525   5.928
 8705SOL    HW127014   4.999   0.461   6.004
 8705SOL    HW227015   4.945   0.600   5.937
 8706SOL     OW27016   5.364   1.440   0.213
 8706SOL    HW127017   5.406   1.365   0.161
 8706SOL    HW227018   5.387   1.527   0.170
 8707SOL     OW27019   5.275   2.549   5.796
 8707SOL    HW127020   5.233   2.459   5.805
 8707SOL    HW227021   5.314   2.558   5.704
 8708SOL     OW27022   3.968   1.407   1.695
 8708SOL    HW127023   4.004   1.478   1.755
 8708SOL    HW227024   3.958   1.443   1.602
 8709SOL     OW27025   6.955   4.072   0.947
 8709SOL    HW127026   7.001   3.985   0.926
 8709SOL    HW227027   7.020   4.135   0.989
 8710SOL     OW27028   1.882   3.468   3.407
 8710SOL    HW127029   1.848   3.406   3.336
 8710SOL    HW227030   1.811   3.482   3.476
 8711SOL     OW27031   6.805   0.886   3.641
 8711SOL    HW127032   6.822   0.855   3.734
 8711SOL    HW227033   6.729   0.951   3.640
 8712SOL     OW27034   3.458   1.744   5.213
 8712SOL    HW127035   3.488   1.731   5.118
 8712SOL    HW227036   3.382   1.682   5.232
 8713SOL     OW27037   0.193   4.742   3.638
 8713SOL    HW127038   0.130   4.674   3.674
 8713SOL    HW227039   0.203   4.729   3.539
 8714SOL     OW27040   1.365   1.487   5.290
 8714SOL    HW127041   1.416   1.435   5.358
 8714SOL    HW227042   1.295   1.428   5.250
 8715SOL     OW27043   6.248   1.796   1.468
 8715SOL    HW127044   6.152   1.819   1.476
 8715SOL    HW227045   6.261   1.699   1.490
 8716SOL     OW27046   1.430   2.181   1.157
 8716SOL    HW127047   1.493   2.167   1.234
 8716SOL    HW227048   1.372   2.260   1.176
 8717SOL     OW27049   3.822   3.606   1.160
 8717SOL    HW127050   3.880   3.565   1.090
 8717SOL    HW227051   3.785   3.534   1.218
 8718SOL     OW27052   6.043   3.328   5.283
 8718SOL    HW127053   6.033   3.251   5.221
 8718SOL    HW227054   5.958   3.341   5.333
 8719SOL     OW27055   7.010   0.452   6.008
 8719SOL    HW127056   6.927   0.414   5.968
 8719SOL    HW227057   0.013   0.397   6.087
 8720SOL     OW27058   4.764   3.855   6.123
 8720SOL    HW127059   4.683   3.856   6.064
 8720SOL    HW227060   4.735   3.843   6.218
 8721SOL     OW27061   0.106   2.302   4.081
 8721SOL    HW127062   0.157   2.273   4.000
 8721SOL    HW227063   0.132   2.397   4.104
 8722SOL     OW27064   3.923   2.386   0.201
 8722SOL    HW127065   3.919   2.469   0.258
 8722SOL    HW227066   4.009   2.384   0.151
 8723SOL     OW27067   6.681   4.875   1.387
 8723SOL    HW127068   6.780   4.874   1.381
 8723SOL    HW227069   6.646   4.784   1.364
 8724SOL     OW27070   5.001   0.382   6.159
 8724SOL    HW127071   4.947   0.311   6.202
 8724SOL    HW227072   5.099   0.365   6.175
 8725SOL     OW27073   2.727   5.620   0.541
 8725SOL    HW127074   2.791   5.690   0.510
 8725SOL    HW227075   2.760   5.579   0.626
 8726SOL     OW27076   6.168   0.440   1.235
 8726SOL    HW127077   6.257   0.401   1.258
 8726SOL    HW227078   6.181   0.527   1.187
 8727SOL     OW27079   6.613   6.045   1.238
 8727SOL    HW127080   6.698   6.004   1.271
 8727SOL    HW227081   6.580   6.111   1.306
 8728SOL     OW27082   2.764   6.856   5.145
 8728SOL    HW127083   2.842   6.837   5.085
 8728SOL    HW227084   2.785   6.936   5.201
 8729SOL     OW27085   5.526   5.940   4.110
 8729SOL    HW127086   5.587   6.000   4.162
 8729SOL    HW227087   5.431   5.963   4.131
 8730SOL     OW27088   0.503   5.894   1.780
 8730SOL    HW127089   0.434   5.869   1.712
 8730SOL    HW227090   0.484   5.986   1.814
 8731SOL     OW27091   1.118   1.338   2.833
 8731SOL    HW127092   1.164   1.397   2.766
 8731SOL    HW227093   1.130   1.377   2.925
 8732SOL     OW27094   5.558   3.821   1.527
 8732SOL    HW127095   5.525   3.753   1.462
 8732SOL    HW227096   5.483   3.879   1.556
 8733SOL     OW27097   1.053   6.388   1.430
 8733SOL    HW127098   0.972   6.375   1.488
 8733SOL    HW227099   1.048   6.478   1.387
 8734SOL     OW27100   6.877   5.650   1.274
 8734SOL    HW127101   6.972   5.670   1.250
 8734SOL    HW227102   6.860   5.676   1.369
 8735SOL     OW27103   6.692   1.751   6.915
 8735SOL    HW127104   6.768   1.781   6.974
 8735SOL    HW227105   6.726   1.683   6.850
 8736SOL     OW27106   0.421   4.690   6.595
 8736SOL    HW127107   0.404   4.771   6.652
 8736SOL    HW227108   0.420   4.608   6.652
 8737SOL     OW27109   4.186   6.056   6.263
 8737SOL    HW127110   4.163   5.968   6.222
 8737SOL    HW227111   4.219   6.118   6.191
 8738SOL     OW27112   0.647   3.850   4.542
 8738SOL    HW127113   0.673   3.922   4.606
 8738SOL    HW227114   0.577   3.792   4.584
 8739SOL     OW27115   0.202   2.959   5.180
 8739SOL    HW127116   0.204   2.892   5.254
 8739SOL    HW227117   0.210   2.911   5.092
 8740SOL     OW27118   2.123   6.300   1.015
 8740SOL    HW127119   2.183   6.283   1.093
 8740SOL    HW227120   2.074   6.386   1.028
 8741SOL     OW27121   1.273   3.564   2.767
 8741SOL    HW127122   1.360   3.576   2.720
 8741SOL    HW227123   1.257   3.640   2.830
 8742SOL     OW27124   4.435   6.990   1.862
 8742SOL    HW127125   4.430   6.920   1.934
 8742SOL    HW227126   4.456   0.055   1.904
 8743SOL     OW27127   2.684   5.026   2.821
 8743SOL    HW127128   2.618   5.007   2.894
 8743SOL    HW227129   2.721   4.940   2.785
 8744SOL     OW27130   3.576   2.184   6.044
 8744SOL    HW127131   3.607   2.093   6.071
 8744SOL    HW227132   3.585   2.247   6.121
 8745SOL     OW27133   6.489   2.484   6.313
 8745SOL    HW127134   6.442   2.398   6.297
 8745SOL    HW227135   6.583   2.466   6.342
 8746SOL     OW27136   5.103   4.648   5.664
 8746SOL    HW127137   5.029   4.585   5.641
 8746SOL    HW227138   5.174   4.643   5.594
 8747SOL     OW27139   1.897   2.256   4.077
 8747SOL    HW127140   1.950   2.334   4.044
 8747SOL    HW227141   1.867   2.275   4.171
 8748SOL     OW27142   1.863   6.655   6.759
 8748SOL    HW127143   1.810   6.571   6.757
 8748SOL    HW227144   1.803   6.731   6.785
 8749SOL     OW27145   3.477   0.504   3.485
 8749SOL    HW127146   3.497   0.451   3.402
 8749SOL    HW227147   3.562   0.520   3.535
 8750SOL     OW27148   2.160   1.327   5.070
 8750SOL    HW127149   2.133   1.383   5.149
 8750SOL    HW227150   2.105   1.353   4.991
 8751SOL     OW27151   1.629   6.932   3.055
 8751SOL    HW127152   1.619   0.005   3.029
 8751SOL    HW227153   1.547   6.902   3.103
 8752SOL     OW27154   1.659   2.304   6.238
 8752SOL    HW127155   1.757   2.289   6.245
 8752SOL    HW227156   1.636   2.338   6.146
 8753SOL     OW27157   5.230   1.817   4.707
 8753SOL    HW127158   5.163   1.742   4.713
 8753SOL    HW227159   5.322   1.779   4.702
 8754SOL     OW27160   1.566   1.782   5.559
 8754SOL    HW127161   1.533   1.747   5.472
 8754SOL    HW227162   1.527   1.727   5.634
 8755SOL     OW27163   1.731   1.888   1.169
 8755SOL    HW127164   1.735   1.987   1.155
 8755SOL    HW227165   1.653   1.866   1.228
 8756SOL     OW27166   1.831   3.500   4.392
 8756SOL    HW127167   1.816   3.403   4.373
 8756SOL    HW227168   1.862   3.511   4.486
 8757SOL     OW27169   4.983   5.934   5.171
 8757SOL    HW127170   4.893   5.977   5.168
 8757SOL    HW227171   4.983   5.864   5.242
 8758SOL     OW27172   6.247   6.335   1.369
 8758SOL    HW127173   6.178   6.404   1.393
 8758SOL    HW227174   6.201   6.251   1.339
 8759SOL     OW27175   5.161   0.676   5.699
 8759SOL    HW127176   5.121   0.591   5.735
 8759SOL    HW227177   5.260   0.664   5.689
 8760SOL     OW27178   1.714   2.071   4.003
 8760SOL    HW127179   1.776   2.140   4.041
 8760SOL    HW227180   1.766   2.006   3.948
 8761SOL     OW27181   4.491   6.770   0.040
 8761SOL    HW127182   4.569   6.817   0.081
 8761SOL    HW227183   4.516   6.676   0.020
 8762SOL     OW27184   0.991   4.036   0.769
 8762SOL    HW127185   0.944   4.089   0.839
 8762SOL    HW227186   1.023   4.098   0.697
 8763SOL     OW27187   0.330   5.955   6.171
 8763SOL    HW127188   0.369   6.009   6.097
 8763SOL    HW227189   0.237   5.988   6.191
 8764SOL     OW27190   3.840   1.620   4.881
 8764SOL    HW127191   3.908   1.608   4.953
 8764SOL    HW227192   3.758   1.568   4.904
 8765SOL     OW27193   6.411   0.214   4.253
 8765SOL    HW127194   6.441   0.175   4.340
 8765SOL    HW227195   6.366   0.143   4.199
 8766SOL     OW27196   2.387   4.982   2.421
 8766SOL    HW127197   2.411   4.902   2.475
 8766SOL    HW227198   2.459   5.052   2.431
 8767SOL     OW27199   4.356   1.294   3.752
 8767SOL    HW127200   4.397   1.204   3.771
 8767SOL    HW227201   4.319   1.295   3.660
 8768SOL     OW27202   1.414   3.104   0.009
 8768SOL    HW127203   1.322   3.065   0.007
 8768SOL    HW227204   1.449   3.109   6.938
 8769SOL     OW27205   1.677   0.506   5.601
 8769SOL    HW127206   1.668   0.489   5.503
 8769SOL    HW227207   1.588   0.496   5.644
 8770SOL     OW27208   5.243   2.592   1.839
 8770SOL    HW127209   5.262   2.566   1.933
 8770SOL    HW227210   5.187   2.522   1.795
 8771SOL     OW27211   1.165   1.614   6.520
 8771SOL    HW127212   1.121   1.527   6.500
 8771SOL    HW227213   1.135   1.648   6.609
 8772SOL     OW27214   5.266   0.950   6.802
 8772SOL    HW127215   5.352   0.985   6.766
 8772SOL    HW227216   5.278   0.920   6.896
 8773SOL     OW27217   2.734   2.343   3.075
 8773SOL    HW127218   2.775   2.347   3.166
 8773SOL    HW227219   2.661   2.410   3.068
 8774SOL     OW27220   1.035   0.874   0.212
 8774SOL    HW127221   1.040   0.971   0.238
 8774SOL    HW227222   0.974   0.825   0.274
 8775SOL     OW27223   6.885   0.034   3.684
 8775SOL    HW127224   6.974   0.068   3.657
 8775SOL    HW227225   6.894   6.965   3.723
 8776SOL     OW27226   3.259   3.369   4.951
 8776SOL    HW127227   3.264   3.445   4.886
 8776SOL    HW227228   3.251   3.283   4.900
 8777SOL     OW27229   6.787   6.222   1.518
 8777SOL    HW127230   6.820   6.316   1.513
 8777SOL    HW227231   6.865   6.160   1.532
 8778SOL     OW27232   0.490   2.244   3.319
 8778SOL    HW127233   0.543   2.174   3.367
 8778SOL    HW227234   0.548   2.288   3.251
 8779SOL     OW27235   1.473   4.477   0.375
 8779SOL    HW127236   1.536   4.405   0.345
 8779SOL    HW227237   1.520   4.540   0.437
 8780SOL     OW27238   1.412   5.820   4.269
 8780SOL    HW127239   1.383   5.725   4.256
 8780SOL    HW227240   1.473   5.826   4.348
 8781SOL     OW27241   0.423   1.907   2.108
 8781SOL    HW127242   0.329   1.910   2.073
 8781SOL    HW227243   0.487   1.931   2.035
 8782SOL     OW27244   3.899   1.789   2.995
 8782SOL    HW127245   3.824   1.825   3.051
 8782SOL    HW227246   3.892   1.690   2.991
 8783SOL     OW27247   5.835   3.441   5.041
 8783SOL    HW127248   5.804   3.355   5.082
 8783SOL    HW227249   5.761   3.507   5.042
 8784SOL     OW27250   5.242   4.544   5.237
 8784SOL    HW127251   5.255   4.634   5.278
 8784SOL    HW227252   5.259   4.473   5.305
 8785SOL     OW27253   5.808   4.781   6.192
 8785SOL    HW127254   5.884   4.718   6.208
 8785SOL    HW227255   5.721   4.731   6.200
 8786SOL     OW27256   1.883   6.590   0.295
 8786SOL    HW127257   1.814   6.584   0.222
 8786SOL    HW227258   1.944   6.511   0.289
 8787SOL     OW27259   0.624   3.670   0.734
 8787SOL    HW127260   0.637   3.765   0.763
 8787SOL    HW227261   0.698   3.644   0.671
 8788SOL     OW27262   1.150   1.781   5.136
 8788SOL    HW127263   1.078   1.771   5.205
 8788SOL    HW227264   1.109   1.783   5.045
 8789SOL     OW27265   7.013   6.596   6.267
 8789SOL    HW127266   0.038   6.515   6.299
 8789SOL    HW227267   0.028   6.677   6.312
 8790SOL     OW27268   5.779   1.697   0.053
 8790SOL    HW127269   5.842   1.631   0.094
 8790SOL    HW227270   5.812   1.790   0.069
 8791SOL     OW27271   4.824   6.502   5.463
 8791SOL    HW127272   4.819   6.556   5.379
 8791SOL    HW227273   4.905   6.443   5.460
 8792SOL     OW27274   4.973   0.210   3.114
 8792SOL    HW127275   5.007   0.263   3.192
 8792SOL    HW227276   5.018   0.120   3.113
 8793SOL     OW27277   0.669   5.754   4.431
 8793SOL    HW127278   0.705   5.690   4.363
 8793SOL    HW227279   0.745   5.802   4.475
 8794SOL     OW27280   2.129   6.634   2.439
 8794SOL    HW127281   2.153   6.565   2.508
 8794SOL    HW227282   2.030   6.638   2.429
 8795SOL     OW27283   1.918   6.005   5.653
 8795SOL    HW127284   1.970   5.924   5.626
 8795SOL    HW227285   1.981   6.082   5.663
 8796SOL     OW27286   5.417   2.537   5.104
 8796SOL    HW127287   5.333   2.528   5.051
 8796SOL    HW227288   5.456   2.446   5.121
 8797SOL     OW27289   0.233   6.503   6.581
 8797SOL    HW127290   0.216   6.601   6.569
 8797SOL    HW227291   0.260   6.485   6.676
 8798SOL     OW27292   4.541   3.783   5.340
 8798SOL    HW127293   4.611   3.842   5.379
 8798SOL    HW227294   4.584   3.712   5.284
 8799SOL     OW27295   3.743   5.537   2.876
 8799SOL    HW127296   3.667   5.482   2.839
 8799SOL    HW227297   3.798   5.479   2.937
 8800SOL     OW27298   4.555   4.923   6.778
 8800SOL    HW127299   4.506   5.008   6.797
 8800SOL    HW227300   4.581   4.920   6.681
 8801SOL     OW27301   2.390   0.412   4.965
 8801SOL    HW127302   2.378   0.435   4.869
 8801SOL    HW227303   2.479   0.368   4.978
 8802SOL     OW27304   2.609   6.852   2.515
 8802SOL    HW127305   2.645   6.762   2.488
 8802SOL    HW227306   2.565   6.895   2.436
 8803SOL     OW27307   4.278   6.227   0.677
 8803SOL    HW127308   4.363   6.278   0.666
 8803SOL    HW227309   4.261   6.209   0.774
 8804SOL     OW27310   4.465   0.520   1.131
 8804SOL    HW127311   4.378   0.551   1.091
 8804SOL    HW227312   4.466   0.539   1.229
 8805SOL     OW27313   0.753   0.382   2.855
 8805SOL    HW127314   0.695   0.411   2.931
 8805SOL    HW227315   0.813   0.457   2.827
 8806SOL     OW27316   2.172   4.763   6.926
 8806SOL    HW127317   2.134   4.674   6.949
 8806SOL    HW227318   2.100   4.823   6.892
 8807SOL     OW27319   1.085   6.064   6.392
 8807SOL    HW127320   1.177   6.033   6.367
 8807SOL    HW227321   1.063   6.032   6.484
 8808SOL     OW27322   6.156   1.108   0.699
 8808SOL    HW127323   6.241   1.081   0.744
 8808SOL    HW227324   6.172   1.118   0.601
 8809SOL     OW27325   5.837   3.999   1.250
 8809SOL    HW127326   5.909   3.952   1.300
 8809SOL    HW227327   5.785   3.933   1.196
 8810SOL     OW27328   4.660   1.814   4.053
 8810SOL    HW127329   4.632   1.823   3.957
 8810SOL    HW227330   4.591   1.854   4.112
 8811SOL     OW27331   0.915   1.201   3.193
 8811SOL    HW127332   0.876   1.139   3.125
 8811SOL    HW227333   0.909   1.295   3.159
 8812SOL     OW27334   2.502   0.510   0.822
 8812SOL    HW127335   2.452   0.495   0.907
 8812SOL    HW227336   2.587   0.559   0.843
 8813SOL     OW27337   1.774   5.464   1.283
 8813SOL    HW127338   1.780   5.365   1.285
 8813SOL    HW227339   1.732   5.497   1.368
 8814SOL     OW27340   5.856   1.023   6.162
 8814SOL    HW127341   5.782   1.043   6.226
 8814SOL    HW227342   5.924   1.096   6.166
 8815SOL     OW27343   0.600   5.758   2.445
 8815SOL    HW127344   0.547   5.836   2.478
 8815SOL    HW227345   0.667   5.732   2.514
 8816SOL     OW27346   1.069   5.550   1.175
 8816SOL    HW127347   1.082   5.521   1.270
 8816SOL    HW227348   1.057   5.649   1.171
 8817SOL     OW27349   1.902   5.120   5.624
 8817SOL    HW127350   1.970   5.133   5.552
 8817SOL    HW227351   1.842   5.200   5.627
 8818SOL     OW27352   0.439   5.301   4.074
 8818SOL    HW127353   0.431   5.359   3.993
 8818SOL    HW227354   0.357   5.243   4.081
 8819SOL     OW27355   4.901   6.820   4.388
 8819SOL    HW127356   4.845   6.899   4.363
 8819SOL    HW227357   4.978   6.813   4.326
 8820SOL     OW27358   1.467   2.658   3.505
 8820SOL    HW127359   1.510   2.697   3.587
 8820SOL    HW227360   1.511   2.571   3.483
 8821SOL     OW27361   1.999   1.242   6.067
 8821SOL    HW127362   2.029   1.149   6.090
 8821SOL    HW227363   1.997   1.252   5.967
 8822SOL     OW27364   0.096   2.968   3.078
 8822SOL    HW127365   0.094   3.036   3.150
 8822SOL    HW227366   0.191   2.953   3.048
 8823SOL     OW27367   2.195   6.160   1.817
 8823SOL    HW127368   2.265   6.111   1.765
 8823SOL    HW227369   2.239   6.221   1.883
 8824SOL     OW27370   3.696   3.937   0.758
 8824SOL    HW127371   3.616   3.965   0.812
 8824SOL    HW227372   3.666   3.879   0.682
 8825SOL     OW27373   0.929   1.476   1.492
 8825SOL    HW127374   1.015   1.427   1.509
 8825SOL    HW227375   0.944   1.546   1.422
 8826SOL     OW27376   5.262   1.410   6.943
 8826SOL    HW127377   5.313   1.325   6.957
 8826SOL    HW227378   5.169   1.400   6.978
 8827SOL     OW27379   1.163   1.558   3.582
 8827SOL    HW127380   1.110   1.618   3.521
 8827SOL    HW227381   1.244   1.606   3.615
 8828SOL     OW27382   2.401   6.747   2.936
 8828SOL    HW127383   2.396   6.739   3.035
 8828SOL    HW227384   2.494   6.772   2.909
 8829SOL     OW27385   0.263   1.606   0.356
 8829SOL    HW127386   0.262   1.706   0.365
 8829SOL    HW227387   0.233   1.581   0.264
 8830SOL     OW27388   0.619   2.253   0.853
 8830SOL    HW127389   0.555   2.196   0.801
 8830SOL    HW227390   0.635   2.339   0.805
 8831SOL     OW27391   6.407   0.520   2.753
 8831SOL    HW127392   6.344   0.527   2.830
 8831SOL    HW227393   6.494   0.482   2.784
 8832SOL     OW27394   6.752   1.077   2.397
 8832SOL    HW127395   6.799   1.039   2.477
 8832SOL    HW227396   6.815   1.137   2.347
 8833SOL     OW27397   2.201   4.548   3.922
 8833SOL    HW127398   2.114   4.503   3.901
 8833SOL    HW227399   2.270   4.519   3.856
 8834SOL     OW27400   6.058   4.047   4.771
 8834SOL    HW127401   6.027   4.119   4.708
 8834SOL    HW227402   6.061   3.960   4.722
 8835SOL     OW27403   6.957   6.534   6.795
 8835SOL    HW127404   6.946   6.634   6.793
 8835SOL    HW227405   0.023   6.511   6.833
 8836SOL     OW27406   4.841   1.585   0.814
 8836SOL    HW127407   4.762   1.638   0.784
 8836SOL    HW227408   4.824   1.488   0.798
 8837SOL     OW27409   0.628   0.967   1.665
 8837SOL    HW127410   0.660   1.060   1.683
 8837SOL    HW227411   0.575   0.934   1.743
 8838SOL     OW27412   2.361   5.804   4.033
 8838SOL    HW127413   2.389   5.879   4.092
 8838SOL    HW227414   2.263   5.787   4.045
 8839SOL     OW27415   6.604   6.546   3.736
 8839SOL    HW127416   6.654   6.478   3.684
 8839SOL    HW227417   6.556   6.502   3.812
 8840SOL     OW27418   5.115   1.971   2.313
 8840SOL    HW127419   5.148   1.927   2.397
 8840SOL    HW227420   5.020   1.999   2.325
 8841SOL     OW27421   1.652   1.018   4.592
 8841SOL    HW127422   1.703   1.104   4.589
 8841SOL    HW227423   1.570   1.025   4.536
 8842SOL     OW27424   2.081   2.953   1.831
 8842SOL    HW127425   2.155   2.996   1.779
 8842SOL    HW227426   2.117   2.913   1.915
 8843SOL     OW27427   0.168   3.202   4.687
 8843SOL    HW127428   0.219   3.116   4.693
 8843SOL    HW227429   0.182   3.255   4.771
 8844SOL     OW27430   6.543   1.715   6.572
 8844SOL    HW127431   6.458   1.678   6.611
 8844SOL    HW227432   6.622   1.669   6.613
 8845SOL     OW27433   5.438   4.280   6.883
 8845SOL    HW127434   5.516   4.313   6.829
 8845SOL    HW227435   5.468   4.267   6.978
 8846SOL     OW27436   1.799   4.601   3.732
 8846SOL    HW127437   1.769   4.657   3.809
 8846SOL    HW227438   1.753   4.512   3.735
 8847SOL     OW27439   2.686   0.528   3.058
 8847SOL    HW127440   2.599   0.530   3.009
 8847SOL    HW227441   2.757   0.493   2.997
 8848SOL     OW27442   1.757   0.668   2.915
 8848SOL    HW127443   1.749   0.576   2.875
 8848SOL    HW227444   1.701   0.732   2.862
 8849SOL     OW27445   2.816   6.915   0.945
 8849SOL    HW127446   2.847   6.867   0.864
 8849SOL    HW227447   2.889   6.918   1.013
 8850SOL     OW27448   3.720   2.614   6.876
 8850SOL    HW127449   3.675   2.551   6.813
 8850SOL    HW227450   3.731   2.703   6.831
 8851SOL     OW27451   1.357   3.589   3.093
 8851SOL    HW127452   1.424   3.537   3.040
 8851SOL    HW227453   1.275   3.603   3.038
 8852SOL     OW27454   0.805   1.695   5.896
 8852SOL    HW127455   0.887   1.651   5.932
 8852SOL    HW227456   0.808   1.793   5.915
 8853SOL     OW27457   4.817   1.114   1.151
 8853SOL    HW127458   4.758   1.053   1.203
 8853SOL    HW227459   4.814   1.206   1.190
 8854SOL     OW27460   0.633   2.454   4.524
 8854SOL    HW127461   0.599   2.510   4.448
 8854SOL    HW227462   0.715   2.405   4.494
 8855SOL     OW27463   5.735   5.184   0.856
 8855SOL    HW127464   5.808   5.205   0.922
 8855SOL    HW227465   5.723   5.085   0.850
 8856SOL     OW27466   6.864   6.697   5.632
 8856SOL    HW127467   6.805   6.618   5.645
 8856SOL    HW227468   6.960   6.668   5.634
 8857SOL     OW27469   6.473   1.472   6.118
 8857SOL    HW127470   6.400   1.406   6.137
 8857SOL    HW227471   6.554   1.448   6.170
 8858SOL     OW27472   5.822   5.888   4.419
 8858SOL    HW127473   5.739   5.836   4.403
 8858SOL    HW227474   5.811   5.946   4.500
 8859SOL     OW27475   0.843   6.770   3.770
 8859SOL    HW127476   0.894   6.852   3.745
 8859SOL    HW227477   0.868   6.695   3.709
 8860SOL     OW27478   0.245   4.282   2.924
 8860SOL    HW127479   0.221   4.364   2.976
 8860SOL    HW227480   0.314   4.305   2.855
 8861SOL     OW27481   4.507   2.713   0.856
 8861SOL    HW127482   4.499   2.737   0.952
 8861SOL    HW227483   4.589   2.658   0.842
 8862SOL     OW27484   4.770   4.600   4.757
 8862SOL    HW127485   4.848   4.542   4.778
 8862SOL    HW227486   4.690   4.568   4.809
 8863SOL     OW27487   2.197   3.889   3.493
 8863SOL    HW127488   2.124   3.934   3.545
 8863SOL    HW227489   2.246   3.958   3.438
 8864SOL     OW27490   6.195   1.677   5.379
 8864SOL    HW127491   6.242   1.737   5.314
 8864SOL    HW227492   6.107   1.649   5.341
 8865SOL     OW27493   2.639   1.411   0.182
 8865SOL    HW127494   2.732   1.437   0.208
 8865SOL    HW227495   2.580   1.413   0.263
 8866SOL     OW27496   5.804   6.742   2.215
 8866SOL    HW127497   5.737   6.757   2.143
 8866SOL    HW227498   5.767   6.677   2.282
 8867SOL     OW27499   6.161   3.816   2.638
 8867SOL    HW127500   6.258   3.805   2.620
 8867SOL    HW227501   6.110   3.806   2.553
 8868SOL     OW27502   6.775   3.065   3.701
 8868SOL    HW127503   6.741   3.067   3.607
 8868SOL    HW227504   6.865   3.022   3.703
 8869SOL     OW27505   3.819   6.751   3.520
 8869SOL    HW127506   3.767   6.829   3.555
 8869SOL    HW227507   3.759   6.672   3.513
 8870SOL     OW27508   1.010   0.797   2.918
 8870SOL    HW127509   1.100   0.818   2.956
 8870SOL    HW227510   0.951   0.877   2.927
 8871SOL     OW27511   6.800   0.648   2.750
 8871SOL    HW127512   6.860   0.726   2.769
 8871SOL    HW227513   6.706   0.681   2.740
 8872SOL     OW27514   6.179   4.855   4.051
 8872SOL    HW127515   6.239   4.837   4.130
 8872SOL    HW227516   6.225   4.919   3.989
 8873SOL     OW27517   2.327   1.600   2.684
 8873SOL    HW127518   2.342   1.568   2.777
 8873SOL    HW227519   2.235   1.574   2.654
 8874SOL     OW27520   3.363   6.440   1.045
 8874SOL    HW127521   3.322   6.381   0.976
 8874SOL    HW227522   3.444   6.396   1.083
 8875SOL     OW27523   6.663   3.288   4.198
 8875SOL    HW127524   6.738   3.298   4.133
 8875SOL    HW227525   6.615   3.375   4.208
 8876SOL     OW27526   4.231   0.483   6.499
 8876SOL    HW127527   4.293   0.561   6.486
 8876SOL    HW227528   4.259   0.407   6.440
 8877SOL     OW27529   1.194   4.125   1.078
 8877SOL    HW127530   1.220   4.032   1.053
 8877SOL    HW227531   1.153   4.125   1.169
 8878SOL     OW27532   4.479   3.610   1.037
 8878SOL    HW127533   4.573   3.586   1.015
 8878SOL    HW227534   4.418   3.535   1.008
 8879SOL     OW27535   6.468   4.875   3.091
 8879SOL    HW127536   6.475   4.961   3.041
 8879SOL    HW227537   6.551   4.821   3.076
 8880SOL     OW27538   4.320   0.883   3.786
 8880SOL    HW127539   4.389   0.948   3.817
 8880SOL    HW227540   4.307   0.891   3.688
 8881SOL     OW27541   4.339   4.786   4.007
 8881SOL    HW127542   4.240   4.780   4.020
 8881SOL    HW227543   4.357   4.819   3.914
 8882SOL     OW27544   4.389   0.603   0.699
 8882SOL    HW127545   4.429   0.589   0.790
 8882SOL    HW227546   4.290   0.605   0.706
 8883SOL     OW27547   6.855   6.282   5.162
 8883SOL    HW127548   6.946   6.305   5.197
 8883SOL    HW227549   6.864   6.236   5.074
 8884SOL     OW27550   5.333   3.368   5.245
 8884SOL    HW127551   5.351   3.404   5.337
 8884SOL    HW227552   5.235   3.367   5.228
 8885SOL     OW27553   5.889   6.084   0.874
 8885SOL    HW127554   5.885   6.172   0.826
 8885SOL    HW227555   5.933   6.097   0.963
 8886SOL     OW27556   4.501   6.360   6.399
 8886SOL    HW127557   4.480   6.263   6.415
 8886SOL    HW227558   4.416   6.413   6.402
 8887SOL     OW27559   4.676   0.732   2.047
 8887SOL    HW127560   4.744   0.739   2.121
 8887SOL    HW227561   4.600   0.674   2.077
 8888SOL     OW27562   2.784   1.982   2.597
 8888SOL    HW127563   2.828   1.981   2.687
 8888SOL    HW227564   2.722   2.060   2.590
 8889SOL     OW27565   1.327   5.544   6.439
 8889SOL    HW127566   1.358   5.548   6.344
 8889SOL    HW227567   1.284   5.630   6.463
 8890SOL     OW27568   0.819   6.403   0.142
 8890SOL    HW127569   0.747   6.359   0.090
 8890SOL    HW227570   0.908   6.384   0.100
 8891SOL     OW27571   6.396   3.993   6.391
 8891SOL    HW127572   6.378   4.079   6.344
 8891SOL    HW227573   6.495   3.985   6.408
 8892SOL     OW27574   3.216   5.492   4.442
 8892SOL    HW127575   3.123   5.503   4.477
 8892SOL    HW227576   3.212   5.465   4.346
 8893SOL     OW27577   1.080   5.406   5.203
 8893SOL    HW127578   1.149   5.335   5.195
 8893SOL    HW227579   1.027   5.392   5.287
 8894SOL     OW27580   4.932   2.007   1.134
 8894SOL    HW127581   4.904   1.950   1.057
 8894SOL    HW227582   5.010   2.063   1.109
 8895SOL     OW27583   0.029   3.543   0.483
 8895SOL    HW127584   0.060   3.555   0.577
 8895SOL    HW227585   0.095   3.585   0.420
 8896SOL     OW27586   0.269   2.457   4.489
 8896SOL    HW127587   0.317   2.384   4.440
 8896SOL    HW227588   0.256   2.430   4.585
 8897SOL     OW27589   1.584   4.265   4.647
 8897SOL    HW127590   1.649   4.189   4.635
 8897SOL    HW227591   1.603   4.336   4.579
 8898SOL     OW27592   4.480   4.532   2.863
 8898SOL    HW127593   4.416   4.549   2.787
 8898SOL    HW227594   4.459   4.593   2.939
 8899SOL     OW27595   0.985   3.530   4.503
 8899SOL    HW127596   1.009   3.624   4.528
 8899SOL    HW227597   0.970   3.476   4.586
 8900SOL     OW27598   5.214   2.332   3.959
 8900SOL    HW127599   5.145   2.268   3.993
 8900SOL    HW227600   5.182   2.372   3.873
 8901SOL     OW27601   1.480   3.921   4.811
 8901SOL    HW127602   1.456   3.885   4.721
 8901SOL    HW227603   1.579   3.929   4.819
 8902SOL     OW27604   0.174   4.572   0.055
 8902SOL    HW127605   0.135   4.625   0.130
 8902SOL    HW227606   0.147   4.476   0.065
 8903SOL     OW27607   1.217   6.789   5.247
 8903SOL    HW127608   1.296   6.728   5.252
 8903SOL    HW227609   1.136   6.742   5.282
 8904SOL     OW27610   0.350   0.640   3.368
 8904SOL    HW127611   0.293   0.658   3.448
 8904SOL    HW227612   0.383   0.727   3.331
 8905SOL     OW27613   0.712   3.709   2.734
 8905SOL    HW127614   0.720   3.741   2.639
 8905SOL    HW227615   0.803   3.685   2.769
 8906SOL     OW27616   6.362   6.973   0.142
 8906SOL    HW127617   6.383   6.977   0.240
 8906SOL    HW227618   6.423   0.011   0.092
 8907SOL     OW27619   2.815   3.575   5.308
 8907SOL    HW127620   2.828   3.670   5.280
 8907SOL    HW227621   2.855   3.515   5.238
 8908SOL     OW27622   1.464   5.175   7.001
 8908SOL    HW127623   1.469   5.083   0.016
 8908SOL    HW227624   1.553   5.219   7.007
 8909SOL     OW27625   2.111   6.841   0.990
 8909SOL    HW127626   2.038   6.873   1.051
 8909SOL    HW227627   2.078   6.763   0.937
 8910SOL     OW27628   1.867   0.409   3.419
 8910SOL    HW127629   1.878   0.310   3.414
 8910SOL    HW227630   1.822   0.442   3.337
 8911SOL     OW27631   4.290   2.358   3.975
 8911SOL    HW127632   4.358   2.284   3.974
 8911SOL    HW227633   4.282   2.393   4.068
 8912SOL     OW27634   3.713   3.812   4.333
 8912SOL    HW127635   3.761   3.843   4.252
 8912SOL    HW227636   3.710   3.712   4.334
 8913SOL     OW27637   5.572   6.519   6.603
 8913SOL    HW127638   5.475   6.496   6.607
 8913SOL    HW227639   5.626   6.435   6.610
 8914SOL     OW27640   4.638   5.076   6.182
 8914SOL    HW127641   4.587   5.000   6.142
 8914SOL    HW227642   4.732   5.074   6.150
 8915SOL     OW27643   1.426   1.071   3.310
 8915SOL    HW127644   1.437   1.119   3.397
 8915SOL    HW227645   1.328   1.055   3.294
 8916SOL     OW27646   4.611   1.522   1.079
 8916SOL    HW127647   4.619   1.471   0.994
 8916SOL    HW227648   4.683   1.591   1.084
 8917SOL     OW27649   5.989   1.784   0.881
 8917SOL    HW127650   6.026   1.729   0.956
 8917SOL    HW227651   6.022   1.878   0.889
 8918SOL     OW27652   0.908   3.718   2.957
 8918SOL    HW127653   0.846   3.734   3.034
 8918SOL    HW227654   0.909   3.621   2.935
 8919SOL     OW27655   6.276   3.570   1.528
 8919SOL    HW127656   6.239   3.571   1.621
 8919SOL    HW227657   6.221   3.508   1.472
 8920SOL     OW27658   6.513   1.249   0.372
 8920SOL    HW127659   6.532   1.338   0.414
 8920SOL    HW227660   6.501   1.261   0.274
 8921SOL     OW27661   2.212   2.976   2.323
 8921SOL    HW127662   2.191   2.894   2.376
 8921SOL    HW227663   2.305   3.006   2.342
 8922SOL     OW27664   4.211   6.266   4.312
 8922SOL    HW127665   4.165   6.314   4.386
 8922SOL    HW227666   4.261   6.188   4.350
 8923SOL     OW27667   2.151   1.579   4.465
 8923SOL    HW127668   2.101   1.666   4.470
 8923SOL    HW227669   2.111   1.522   4.394
 8924SOL     OW27670   5.919   5.183   4.953
 8924SOL    HW127671   6.012   5.205   4.983
 8924SOL    HW227672   5.892   5.246   4.881
 8925SOL     OW27673   1.061   6.141   2.866
 8925SOL    HW127674   1.144   6.195   2.851
 8925SOL    HW227675   1.001   6.189   2.930
 8926SOL     OW27676   5.454   1.927   6.453
 8926SOL    HW127677   5.494   2.009   6.495
 8926SOL    HW227678   5.461   1.850   6.517
 8927SOL     OW27679   1.522   1.064   5.638
 8927SOL    HW127680   1.426   1.062   5.610
 8927SOL    HW227681   1.549   0.974   5.674
 8928SOL     OW27682   1.426   6.226   5.197
 8928SOL    HW127683   1.438   6.317   5.156
 8928SOL    HW227684   1.334   6.193   5.177
 8929SOL     OW27685   0.200   2.383   4.773
 8929SOL    HW127686   0.142   2.301   4.772
 8929SOL    HW227687   0.151   2.458   4.818
 8930SOL     OW27688   2.372   4.340   3.841
 8930SOL    HW127689   2.334   4.306   3.755
 8930SOL    HW227690   2.382   4.264   3.906
 8931SOL     OW27691   3.992   2.749   0.910
 8931SOL    HW127692   4.068   2.726   0.971
 8931SOL    HW227693   3.906   2.733   0.958
 8932SOL     OW27694   0.434   3.574   3.198
 8932SOL    HW127695   0.415   3.631   3.278
 8932SOL    HW227696   0.527   3.537   3.205
 8933SOL     OW27697   3.667   2.076   5.149
 8933SOL    HW127698   3.685   2.166   5.187
 8933SOL    HW227699   3.689   2.076   5.052
 8934SOL     OW27700   3.662   5.710   3.334
 8934SOL    HW127701   3.676   5.635   3.269
 8934SOL    HW227702   3.734   5.778   3.321
 8935SOL     OW27703   0.067   4.201   1.339
 8935SOL    HW127704   0.002   4.212   1.414
 8935SOL    HW227705   0.024   4.230   1.254
 8936SOL     OW27706   2.476   2.038   0.811
 8936SOL    HW127707   2.504   1.950   0.849
 8936SOL    HW227708   2.415   2.023   0.733
 8937SOL     OW27709   0.112   6.018   5.743
 8937SOL    HW127710   0.072   6.108   5.726
 8937SOL    HW227711   0.203   6.014   5.700
 8938SOL     OW27712   5.501   5.440   1.327
 8938SOL    HW127713   5.554   5.362   1.361
 8938SOL    HW227714   5.487   5.430   1.228
 8939SOL     OW27715   4.861   2.359   4.891
 8939SOL    HW127716   4.919   2.298   4.944
 8939SOL    HW227717   4.834   2.314   4.806
 8940SOL     OW27718   5.899   0.962   3.055
 8940SOL    HW127719   5.980   0.906   3.034
 8940SOL    HW227720   5.919   1.021   3.133
 8941SOL     OW27721   4.857   2.022   6.367
 8941SOL    HW127722   4.946   2.049   6.330
 8941SOL    HW227723   4.793   2.099   6.359
 8942SOL     OW27724   0.482   2.467   5.571
 8942SOL    HW127725   0.482   2.455   5.472
 8942SOL    HW227726   0.534   2.549   5.594
 8943SOL     OW27727   4.950   3.945   0.931
 8943SOL    HW127728   4.905   4.007   0.867
 8943SOL    HW227729   5.036   3.986   0.963
 8944SOL     OW27730   4.437   5.739   0.986
 8944SOL    HW127731   4.407   5.663   1.044
 8944SOL    HW227732   4.367   5.758   0.918
 8945SOL     OW27733   1.955   0.927   4.303
 8945SOL    HW127734   1.985   0.931   4.207
 8945SOL    HW227735   1.991   0.845   4.345
 8946SOL     OW27736   3.564   1.686   4.393
 8946SOL    HW127737   3.469   1.684   4.361
 8946SOL    HW227738   3.586   1.778   4.426
 8947SOL     OW27739   4.207   4.116   5.412
 8947SOL    HW127740   4.166   4.044   5.357
 8947SOL    HW227741   4.151   4.198   5.407
 8948SOL     OW27742   6.187   5.154   2.946
 8948SOL    HW127743   6.282   5.149   2.917
 8948SOL    HW227744   6.181   5.138   3.045
 8949SOL     OW27745   2.066   6.374   0.309
 8949SOL    HW127746   2.075   6.287   0.358
 8949SOL    HW227747   2.156   6.411   0.290
 8950SOL     OW27748   4.770   2.975   4.765
 8950SOL    HW127749   4.801   3.026   4.685
 8950SOL    HW227750   4.850   2.943   4.816
 8951SOL     OW27751   2.010   2.468   5.392
 8951SOL    HW127752   2.028   2.541   5.326
 8951SOL    HW227753   2.066   2.481   5.473
 8952SOL     OW27754   6.558   0.756   2.733
 8952SOL    HW127755   6.597   0.847   2.718
 8952SOL    HW227756   6.478   0.744   2.674
 8953SOL     OW27757   1.257   3.497   0.003
 8953SOL    HW127758   1.222   3.408   6.997
 8953SOL    HW227759   1.271   3.554   6.945
 8954SOL     OW27760   2.098   5.733   5.914
 8954SOL    HW127761   2.126   5.637   5.908
 8954SOL    HW227762   2.027   5.743   5.983
 8955SOL     OW27763   6.266   3.820   2.932
 8955SOL    HW127764   6.235   3.853   2.843
 8955SOL    HW227765   6.339   3.879   2.966
 8956SOL     OW27766   1.248   0.976   5.847
 8956SOL    HW127767   1.161   0.989   5.894
 8956SOL    HW227768   1.244   1.017   5.756
 8957SOL     OW27769   3.270   4.904   2.326
 8957SOL    HW127770   3.259   5.000   2.301
 8957SOL    HW227771   3.354   4.868   2.283
 8958SOL     OW27772   2.149   0.015   4.491
 8958SOL    HW127773   2.076   0.068   4.448
 8958SOL    HW227774   2.143   6.943   4.461
 8959SOL     OW27775   2.054   4.439   0.930
 8959SOL    HW127776   2.080   4.344   0.945
 8959SOL    HW227777   2.059   4.460   0.832
 8960SOL     OW27778   3.812   5.906   1.357
 8960SOL    HW127779   3.736   5.873   1.301
 8960SOL    HW227780   3.851   5.987   1.314
 8961SOL     OW27781   1.110   1.684   3.326
 8961SOL    HW127782   1.098   1.782   3.309
 8961SOL    HW227783   1.050   1.632   3.265
 8962SOL     OW27784   5.559   0.461   3.243
 8962SOL    HW127785   5.643   0.511   3.223
 8962SOL    HW227786   5.578   0.362   3.241
 8963SOL     OW27787   6.124   1.009   4.287
 8963SOL    HW127788   6.120   0.958   4.201
 8963SOL    HW227789   6.032   1.024   4.322
 8964SOL     OW27790   5.544   5.282   2.794
 8964SOL    HW127791   5.617   5.276   2.861
 8964SOL    HW227792   5.457   5.295   2.841
 8965SOL     OW27793   1.184   5.078   2.023
 8965SOL    HW127794   1.149   5.096   1.931
 8965SOL    HW227795   1.108   5.078   2.088
 8966SOL     OW27796   2.629   2.935   5.640
 8966SOL    HW127797   2.572   3.010   5.674
 8966SOL    HW227798   2.690   2.904   5.713
 8967SOL     OW27799   3.980   0.615   0.377
 8967SOL    HW127800   4.052   0.574   0.321
 8967SOL    HW227801   3.908   0.548   0.392
 8968SOL     OW27802   4.838   5.340   2.031
 8968SOL    HW127803   4.815   5.296   1.944
 8968SOL    HW227804   4.931   5.377   2.027
 8969SOL     OW27805   6.524   0.931   4.584
 8969SOL    HW127806   6.427   0.922   4.565
 8969SOL    HW227807   6.573   0.851   4.549
 8970SOL     OW27808   3.628   2.359   1.258
 8970SOL    HW127809   3.666   2.271   1.284
 8970SOL    HW227810   3.530   2.360   1.277
 8971SOL     OW27811   3.986   5.788   2.328
 8971SOL    HW127812   3.941   5.844   2.258
 8971SOL    HW227813   3.917   5.734   2.377
 8972SOL     OW27814   5.817   0.077   4.876
 8972SOL    HW127815   5.826   0.145   4.803
 8972SOL    HW227816   5.838   0.120   4.964
 8973SOL     OW27817   1.669   5.472   6.877
 8973SOL    HW127818   1.724   5.408   6.824
 8973SOL    HW227819   1.578   5.481   6.835
 8974SOL     OW27820   0.575   3.122   4.683
 8974SOL    HW127821   0.551   3.125   4.587
 8974SOL    HW227822   0.514   3.060   4.732
 8975SOL     OW27823   3.082   6.898   0.171
 8975SOL    HW127824   3.010   6.955   0.209
 8975SOL    HW227825   3.054   6.863   0.082
 8976SOL     OW27826   0.567   5.661   4.088
 8976SOL    HW127827   0.650   5.663   4.145
 8976SOL    HW227828   0.591   5.631   3.996
 8977SOL     OW27829   5.944   1.509   6.041
 8977SOL    HW127830   5.857   1.521   5.993
 8977SOL    HW227831   6.011   1.575   6.006
 8978SOL     OW27832   5.475   6.264   1.093
 8978SOL    HW127833   5.380   6.256   1.063
 8978SOL    HW227834   5.508   6.175   1.123
 8979SOL     OW27835   1.980   4.032   4.613
 8979SOL    HW127836   2.013   3.958   4.555
 8979SOL    HW227837   2.056   4.070   4.666
 8980SOL     OW27838   3.546   2.880   4.404
 8980SOL    HW127839   3.528   2.883   4.305
 8980SOL    HW227840   3.534   2.972   4.443
 8981SOL     OW27841   3.551   1.809   4.842
 8981SOL    HW127842   3.567   1.908   4.852
 8981SOL    HW227843   3.638   1.762   4.836
 8982SOL     OW27844   2.928   4.443   0.814
 8982SOL    HW127845   2.877   4.464   0.898
 8982SOL    HW227846   2.865   4.410   0.744
 8983SOL     OW27847   4.919   5.067   0.422
 8983SOL    HW127848   4.929   5.042   0.325
 8983SOL    HW227849   4.878   4.991   0.471
 8984SOL     OW27850   1.819   5.608   3.241
 8984SOL    HW127851   1.865   5.539   3.296
 8984SOL    HW227852   1.737   5.640   3.289
 8985SOL     OW27853   3.625   3.078   6.392
 8985SOL    HW127854   3.579   2.990   6.379
 8985SOL    HW227855   3.640   3.094   6.489
 8986SOL     OW27856   3.827   5.954   2.632
 8986SOL    HW127857   3.804   5.859   2.653
 8986SOL    HW227858   3.917   5.976   2.669
 8987SOL     OW27859   5.353   6.384   2.218
 8987SOL    HW127860   5.427   6.440   2.181
 8987SOL    HW227861   5.336   6.307   2.157
 8988SOL     OW27862   0.548   5.487   4.729
 8988SOL    HW127863   0.535   5.583   4.705
 8988SOL    HW227864   0.632   5.476   4.782
 8989SOL     OW27865   3.304   2.916   6.422
 8989SOL    HW127866   3.230   2.860   6.386
 8989SOL    HW227867   3.392   2.873   6.401
 8990SOL     OW27868   0.440   5.947   3.591
 8990SOL    HW127869   0.385   5.999   3.657
 8990SOL    HW227870   0.387   5.935   3.507
 8991SOL     OW27871   0.977   2.051   5.006
 8991SOL    HW127872   1.028   2.092   5.082
 8991SOL    HW227873   1.021   1.965   4.979
 8992SOL     OW27874   5.995   2.123   6.362
 8992SOL    HW127875   6.037   2.176   6.436
 8992SOL    HW227876   5.896   2.135   6.365
 8993SOL     OW27877   4.585   2.689   6.674
 8993SOL    HW127878   4.512   2.694   6.742
 8993SOL    HW227879   4.667   2.736   6.709
 8994SOL     OW27880   1.624   5.050   4.262
 8994SOL    HW127881   1.653   4.975   4.320
 8994SOL    HW227882   1.614   5.133   4.317
 8995SOL     OW27883   6.848   1.636   0.938
 8995SOL    HW127884   6.945   1.614   0.925
 8995SOL    HW227885   6.801   1.634   0.849
 8996SOL     OW27886   5.045   4.892   6.120
 8996SOL    HW127887   5.055   4.796   6.097
 8996SOL    HW227888   5.048   4.903   6.219
 8997SOL     OW27889   5.167   1.039   4.523
 8997SOL    HW127890   5.265   1.047   4.541
 8997SOL    HW227891   5.127   1.130   4.512
 8998SOL     OW27892   6.547   3.544   4.289
 8998SOL    HW127893   6.620   3.600   4.251
 8998SOL    HW227894   6.543   3.556   4.388
 8999SOL     OW27895   4.485   6.779   5.975
 8999SOL    HW127896   4.438   6.697   5.942
 8999SOL    HW227897   4.516   6.764   6.068
 9000SOL     OW27898   1.821   3.730   1.657
 9000SOL    HW127899   1.792   3.656   1.717
 9000SOL    HW227900   1.883   3.791   1.707
 9001SOL     OW27901   0.780   5.222   2.601
 9001SOL    HW127902   0.814   5.297   2.545
 9001SOL    HW227903   0.756   5.257   2.692
 9002SOL     OW27904   1.182   4.376   6.755
 9002SOL    HW127905   1.082   4.371   6.745
 9002SOL    HW227906   1.225   4.330   6.677
 9003SOL     OW27907   5.228   0.929   1.201
 9003SOL    HW127908   5.295   0.949   1.272
 9003SOL    HW227909   5.273   0.931   1.111
 9004SOL     OW27910   4.095   4.714   0.666
 9004SOL    HW127911   4.053   4.662   0.591
 9004SOL    HW227912   4.189   4.739   0.640
 9005SOL     OW27913   5.433   1.181   5.418
 9005SOL    HW127914   5.371   1.170   5.340
 9005SOL    HW227915   5.380   1.177   5.503
 9006SOL     OW27916   3.380   6.227   0.724
 9006SOL    HW127917   3.431   6.304   0.686
 9006SOL    HW227918   3.366   6.158   0.653
 9007SOL     OW27919   2.865   1.232   3.074
 9007SOL    HW127920   2.955   1.276   3.079
 9007SOL    HW227921   2.854   1.188   2.985
 9008SOL     OW27922   6.808   5.550   2.836
 9008SOL    HW127923   6.776   5.569   2.929
 9008SOL    HW227924   6.903   5.579   2.827
 9009SOL     OW27925   4.251   5.768   0.771
 9009SOL    HW127926   4.296   5.696   0.719
 9009SOL    HW227927   4.197   5.825   0.709
 9010SOL     OW27928   1.565   6.491   4.237
 9010SOL    HW127929   1.646   6.468   4.183
 9010SOL    HW227930   1.593   6.530   4.324
 9011SOL     OW27931   3.625   1.351   2.117
 9011SOL    HW127932   3.628   1.396   2.206
 9011SOL    HW227933   3.653   1.416   2.046
 9012SOL     OW27934   2.127   5.934   6.604
 9012SOL    HW127935   2.113   5.860   6.538
 9012SOL    HW227936   2.048   5.941   6.664
 9013SOL     OW27937   1.295   6.558   4.288
 9013SOL    HW127938   1.395   6.549   4.288
 9013SOL    HW227939   1.256   6.501   4.360
 9014SOL     OW27940   5.636   2.706   3.116
 9014SOL    HW127941   5.643   2.796   3.073
 9014SOL    HW227942   5.544   2.695   3.156
 9015SOL     OW27943   5.457   1.902   0.479
 9015SOL    HW127944   5.445   1.898   0.578
 9015SOL    HW227945   5.395   1.837   0.435
 9016SOL     OW27946   5.496   5.505   6.128
 9016SOL    HW127947   5.549   5.421   6.114
 9016SOL    HW227948   5.538   5.580   6.077
 9017SOL     OW27949   3.093   1.026   4.519
 9017SOL    HW127950   3.181   1.051   4.560
 9017SOL    HW227951   3.102   1.021   4.420
 9018SOL     OW27952   4.495   3.739   6.181
 9018SOL    HW127953   4.468   3.647   6.212
 9018SOL    HW227954   4.445   3.763   6.099
 9019SOL     OW27955   0.439   3.573   3.648
 9019SOL    HW127956   0.385   3.493   3.621
 9019SOL    HW227957   0.504   3.547   3.719
 9020SOL     OW27958   5.789   5.935   1.924
 9020SOL    HW127959   5.855   5.975   1.988
 9020SOL    HW227960   5.757   6.006   1.861
 9021SOL     OW27961   6.994   1.070   3.824
 9021SOL    HW127962   0.001   1.157   3.785
 9021SOL    HW227963   0.026   0.996   3.788
 9022SOL     OW27964   4.726   2.754   6.252
 9022SOL    HW127965   4.650   2.740   6.316
 9022SOL    HW227966   4.724   2.848   6.218
 9023SOL     OW27967   4.925   3.709   1.052
 9023SOL    HW127968   5.014   3.692   1.095
 9023SOL    HW227969   4.930   3.795   1.000
 9024SOL     OW27970   1.900   5.110   6.487
 9024SOL    HW127971   1.994   5.088   6.514
 9024SOL    HW227972   1.842   5.029   6.499
 9025SOL     OW27973   0.833   5.405   0.817
 9025SOL    HW127974   0.828   5.367   0.725
 9025SOL    HW227975   0.780   5.489   0.822
 9026SOL     OW27976   4.170   1.669   0.391
 9026SOL    HW127977   4.099   1.629   0.334
 9026SOL    HW227978   4.130   1.702   0.477
 9027SOL     OW27979   6.844   3.944   3.238
 9027SOL    HW127980   6.917   3.948   3.170
 9027SOL    HW227981   6.790   3.860   3.224
 9028SOL     OW27982   3.406   4.501   5.622
 9028SOL    HW127983   3.375   4.596   5.622
 9028SOL    HW227984   3.381   4.457   5.536
 9029SOL     OW27985   4.337   6.876   5.144
 9029SOL    HW127986   4.250   6.925   5.141
 9029SOL    HW227987   4.337   6.803   5.076
 9030SOL     OW27988   2.396   1.916   3.252
 9030SOL    HW127989   2.493   1.927   3.230
 9030SOL    HW227990   2.353   1.857   3.185
 9031SOL     OW27991   4.524   0.258   4.670
 9031SOL    HW127992   4.440   0.311   4.657
 9031SOL    HW227993   4.535   0.193   4.595
 9032SOL     OW27994   4.806   3.817   1.895
 9032SOL    HW127995   4.847   3.902   1.861
 9032SOL    HW227996   4.731   3.790   1.835
 9033SOL     OW27997   1.589   5.826   3.040
 9033SOL    HW127998   1.645   5.879   2.976
 9033SOL    HW227999   1.493   5.853   3.030
 9034SOL     OW28000   3.844   6.217   4.530
 9034SOL    HW128001   3.752   6.258   4.535
 9034SOL    HW228002   3.912   6.290   4.531
 9035SOL     OW28003   1.141   5.070   0.233
 9035SOL    HW128004   1.113   5.130   0.308
 9035SOL    HW228005   1.169   5.126   0.155
 9036SOL     OW28006   1.463   3.274   6.254
 9036SOL    HW128007   1.449   3.365   6.293
 9036SOL    HW228008   1.558   3.246   6.268
 9037SOL     OW28009   0.826   2.084   2.631
 9037SOL    HW128010   0.746   2.063   2.575
 9037SOL    HW228011   0.807   2.165   2.687
 9038SOL     OW28012   4.151   3.200   5.544
 9038SOL    HW128013   4.199   3.181   5.458
 9038SOL    HW228014   4.168   3.294   5.573
 9039SOL     OW28015   3.718   5.413   0.395
 9039SOL    HW128016   3.654   5.363   0.337
 9039SOL    HW228017   3.716   5.510   0.371
 9040SOL     OW28018   1.966   1.790   1.263
 9040SOL    HW128019   1.955   1.833   1.353
 9040SOL    HW228020   1.896   1.825   1.201
 9041SOL     OW28021   6.877   1.841   1.420
 9041SOL    HW128022   6.921   1.752   1.428
 9041SOL    HW228023   6.938   1.912   1.457
 9042SOL     OW28024   4.033   5.978   6.586
 9042SOL    HW128025   4.101   6.050   6.572
 9042SOL    HW228026   3.942   6.015   6.566
 9043SOL     OW28027   3.186   1.727   0.123
 9043SOL    HW128028   3.126   1.687   0.192
 9043SOL    HW228029   3.264   1.772   0.167
 9044SOL     OW28030   0.936   0.554   6.585
 9044SOL    HW128031   0.915   0.634   6.530
 9044SOL    HW228032   0.925   0.471   6.530
 9045SOL     OW28033   3.752   0.985   3.187
 9045SOL    HW128034   3.666   0.989   3.238
 9045SOL    HW228035   3.828   0.974   3.251
 9046SOL     OW28036   3.186   4.063   2.927
 9046SOL    HW128037   3.154   3.993   2.863
 9046SOL    HW228038   3.158   4.153   2.894
 9047SOL     OW28039   0.953   3.917   6.225
 9047SOL    HW128040   1.017   3.935   6.150
 9047SOL    HW228041   0.870   3.874   6.189
 9048SOL     OW28042   6.420   1.762   6.144
 9048SOL    HW128043   6.434   1.666   6.166
 9048SOL    HW228044   6.402   1.772   6.046
 9049SOL     OW28045   3.246   6.374   6.602
 9049SOL    HW128046   3.163   6.418   6.637
 9049SOL    HW228047   3.262   6.289   6.652
 9050SOL     OW28048   0.409   4.828   0.601
 9050SOL    HW128049   0.377   4.735   0.621
 9050SOL    HW228050   0.493   4.846   0.654
 9051SOL     OW28051   2.239   1.672   1.269
 9051SOL    HW128052   2.271   1.656   1.176
 9051SOL    HW228053   2.142   1.697   1.268
 9052SOL     OW28054   1.414   2.989   5.040
 9052SOL    HW128055   1.448   3.031   5.124
 9052SOL    HW228056   1.486   2.935   4.997
 9053SOL     OW28057   1.665   1.268   0.556
 9053SOL    HW128058   1.617   1.324   0.488
 9053SOL    HW228059   1.751   1.236   0.519
 9054SOL     OW28060   2.500   5.545   3.625
 9054SOL    HW128061   2.469   5.562   3.719
 9054SOL    HW228062   2.471   5.621   3.566
 9055SOL     OW28063   0.180   4.001   4.704
 9055SOL    HW128064   0.154   4.097   4.710
 9055SOL    HW228065   0.098   3.943   4.701
 9056SOL     OW28066   6.317   2.195   2.555
 9056SOL    HW128067   6.408   2.213   2.517
 9056SOL    HW228068   6.266   2.135   2.493
 9057SOL     OW28069   4.609   2.341   4.155
 9057SOL    HW128070   4.525   2.396   4.163
 9057SOL    HW228071   4.600   2.259   4.212
 9058SOL     OW28072   1.687   0.942   6.037
 9058SOL    HW128073   1.708   1.033   6.072
 9058SOL    HW228074   1.748   0.920   5.961
 9059SOL     OW28075   1.322   2.109   3.164
 9059SOL    HW128076   1.242   2.135   3.219
 9059SOL    HW228077   1.297   2.035   3.102
 9060SOL     OW28078   5.142   2.603   4.972
 9060SOL    HW128079   5.071   2.593   4.902
 9060SOL    HW228080   5.104   2.583   5.062
 9061SOL     OW28081   4.184   5.684   2.507
 9061SOL    HW128082   4.116   5.749   2.475
 9061SOL    HW228083   4.148   5.632   2.585
 9062SOL     OW28084   1.892   5.765   0.785
 9062SOL    HW128085   1.891   5.707   0.867
 9062SOL    HW228086   1.862   5.711   0.706
 9063SOL     OW28087   3.353   1.524   1.767
 9063SOL    HW128088   3.265   1.553   1.805
 9063SOL    HW228089   3.425   1.536   1.836
 9064SOL     OW28090   5.834   3.366   7.008
 9064SOL    HW128091   5.894   3.344   0.062
 9064SOL    HW228092   5.844   3.297   6.937
 9065SOL     OW28093   2.343   0.825   0.265
 9065SOL    HW128094   2.351   0.775   0.351
 9065SOL    HW228095   2.431   0.824   0.218
 9066SOL     OW28096   4.867   6.630   0.227
 9066SOL    HW128097   4.894   6.664   0.316
 9066SOL    HW228098   4.809   6.549   0.238
 9067SOL     OW28099   2.008   6.244   2.989
 9067SOL    HW128100   1.953   6.226   3.071
 9067SOL    HW228101   1.977   6.328   2.945
 9068SOL     OW28102   1.901   6.191   6.736
 9068SOL    HW128103   1.946   6.279   6.748
 9068SOL    HW228104   1.810   6.194   6.778
 9069SOL     OW28105   1.457   2.295   6.726
 9069SOL    HW128106   1.359   2.311   6.723
 9069SOL    HW228107   1.499   2.329   6.642
 9070SOL     OW28108   1.257   4.221   3.658
 9070SOL    HW128109   1.207   4.231   3.573
 9070SOL    HW228110   1.193   4.216   3.735
 9071SOL     OW28111   5.515   6.604   6.918
 9071SOL    HW128112   5.501   6.702   6.927
 9071SOL    HW228113   5.511   6.578   6.822
 9072SOL     OW28114   5.483   5.018   6.642
 9072SOL    HW128115   5.499   4.966   6.558
 9072SOL    HW228116   5.500   5.115   6.625
 9073SOL     OW28117   1.907   0.509   1.898
 9073SOL    HW128118   1.848   0.589   1.911
 9073SOL    HW228119   1.950   0.514   1.808
 9074SOL     OW28120   1.079   6.465   2.924
 9074SOL    HW128121   1.077   6.440   3.020
 9074SOL    HW228122   1.077   6.565   2.915
 9075SOL     OW28123   0.098   1.169   2.721
 9075SOL    HW128124   0.127   1.264   2.710
 9075SOL    HW228125   0.005   1.158   2.686
 9076SOL     OW28126   6.379   1.376   5.294
 9076SOL    HW128127   6.311   1.403   5.227
 9076SOL    HW228128   6.435   1.301   5.257
 9077SOL     OW28129   5.801   6.412   1.828
 9077SOL    HW128130   5.839   6.368   1.746
 9077SOL    HW228131   5.730   6.477   1.800
 9078SOL     OW28132   3.107   3.105   4.839
 9078SOL    HW128133   3.188   3.117   4.782
 9078SOL    HW228134   3.025   3.118   4.783
 9079SOL     OW28135   3.499   0.676   6.093
 9079SOL    HW128136   3.593   0.642   6.090
 9079SOL    HW228137   3.460   0.674   6.001
 9080SOL     OW28138   4.931   1.889   0.878
 9080SOL    HW128139   4.917   1.813   0.814
 9080SOL    HW228140   4.956   1.971   0.827
 9081SOL     OW28141   5.632   0.144   2.190
 9081SOL    HW128142   5.619   0.210   2.116
 9081SOL    HW228143   5.675   0.189   2.268
 9082SOL     OW28144   3.091   1.639   4.019
 9082SOL    HW128145   3.076   1.579   4.097
 9082SOL    HW228146   3.009   1.643   3.962
 9083SOL     OW28147   4.136   4.891   4.404
 9083SOL    HW128148   4.181   4.815   4.451
 9083SOL    HW228149   4.173   4.977   4.437
 9084SOL     OW28150   3.659   3.682   2.873
 9084SOL    HW128151   3.726   3.626   2.826
 9084SOL    HW228152   3.697   3.715   2.960
 9085SOL     OW28153   0.884   1.982   0.368
 9085SOL    HW128154   0.798   1.936   0.348
 9085SOL    HW228155   0.932   1.933   0.441
 9086SOL     OW28156   0.272   3.923   0.837
 9086SOL    HW128157   0.314   3.944   0.925
 9086SOL    HW228158   0.342   3.894   0.772
 9087SOL     OW28159   4.549   3.855   1.469
 9087SOL    HW128160   4.518   3.837   1.375
 9087SOL    HW228161   4.539   3.953   1.489
 9088SOL     OW28162   5.421   6.717   0.673
 9088SOL    HW128163   5.358   6.788   0.644
 9088SOL    HW228164   5.370   6.639   0.709
 9089SOL     OW28165   4.215   0.474   5.661
 9089SOL    HW128166   4.199   0.560   5.711
 9089SOL    HW228167   4.171   0.399   5.710
 9090SOL     OW28168   6.260   1.512   3.959
 9090SOL    HW128169   6.224   1.420   3.945
 9090SOL    HW228170   6.340   1.526   3.901
 9091SOL     OW28171   2.739   2.822   6.964
 9091SOL    HW128172   2.753   2.897   0.005
 9091SOL    HW228173   2.665   2.845   6.901
 9092SOL     OW28174   0.135   2.648   6.587
 9092SOL    HW128175   0.046   2.671   6.626
 9092SOL    HW228176   0.206   2.703   6.631
 9093SOL     OW28177   1.548   5.970   5.679
 9093SOL    HW128178   1.581   5.905   5.611
 9093SOL    HW228179   1.455   5.999   5.655
 9094SOL     OW28180   0.769   3.791   1.949
 9094SOL    HW128181   0.801   3.705   1.991
 9094SOL    HW228182   0.706   3.769   1.874
 9095SOL     OW28183   6.632   6.062   4.965
 9095SOL    HW128184   6.647   5.965   4.982
 9095SOL    HW228185   6.590   6.104   5.046
 9096SOL     OW28186   6.592   5.628   3.074
 9096SOL    HW128187   6.538   5.616   2.991
 9096SOL    HW228188   6.605   5.726   3.091
 9097SOL     OW28189   1.596   2.141   6.446
 9097SOL    HW128190   1.611   2.211   6.376
 9097SOL    HW228191   1.651   2.060   6.424
 9098SOL     OW28192   1.585   3.586   4.262
 9098SOL    HW128193   1.500   3.560   4.308
 9098SOL    HW228194   1.663   3.547   4.311
 9099SOL     OW28195   2.833   2.494   6.751
 9099SOL    HW128196   2.871   2.573   6.704
 9099SOL    HW228197   2.814   2.517   6.846
 9100SOL     OW28198   1.184   4.774   3.321
 9100SOL    HW128199   1.137   4.718   3.390
 9100SOL    HW228200   1.273   4.802   3.356
 9101SOL     OW28201   0.895   2.314   0.980
 9101SOL    HW128202   0.936   2.398   0.944
 9101SOL    HW228203   0.800   2.307   0.949
 9102SOL     OW28204   4.469   6.700   3.064
 9102SOL    HW128205   4.477   6.616   3.011
 9102SOL    HW228206   4.529   6.770   3.024
 9103SOL     OW28207   6.435   0.602   0.749
 9103SOL    HW128208   6.448   0.675   0.681
 9103SOL    HW228209   6.513   0.600   0.811
 9104SOL     OW28210   5.711   2.330   6.158
 9104SOL    HW128211   5.790   2.382   6.190
 9104SOL    HW228212   5.716   2.319   6.058
 9105SOL     OW28213   1.757   1.060   5.472
 9105SOL    HW128214   1.770   0.967   5.436
 9105SOL    HW228215   1.684   1.059   5.541
 9106SOL     OW28216   1.315   4.089   0.210
 9106SOL    HW128217   1.405   4.132   0.199
 9106SOL    HW228218   1.252   4.154   0.254
 9107SOL     OW28219   2.476   1.505   0.384
 9107SOL    HW128220   2.386   1.463   0.395
 9107SOL    HW228221   2.467   1.594   0.338
 9108SOL     OW28222   5.654   5.693   5.962
 9108SOL    HW128223   5.636   5.791   5.954
 9108SOL    HW228224   5.702   5.661   5.880
 9109SOL     OW28225   5.257   3.621   2.059
 9109SOL    HW128226   5.268   3.521   2.056
 9109SOL    HW228227   5.168   3.643   2.100
 9110SOL     OW28228   2.082   6.334   4.120
 9110SOL    HW128229   2.025   6.269   4.070
 9110SOL    HW228230   2.024   6.404   4.162
 9111SOL     OW28231   4.388   2.448   6.457
 9111SOL    HW128232   4.321   2.513   6.423
 9111SOL    HW228233   4.474   2.459   6.406
 9112SOL     OW28234   1.379   5.288   1.594
 9112SOL    HW128235   1.468   5.267   1.636
 9112SOL    HW228236   1.325   5.342   1.658
 9113SOL     OW28237   5.614   1.191   4.001
 9113SOL    HW128238   5.639   1.258   3.931
 9113SOL    HW228239   5.584   1.238   4.084
 9114SOL     OW28240   1.361   6.268   5.498
 9114SOL    HW128241   1.296   6.195   5.519
 9114SOL    HW228242   1.353   6.293   5.401
 9115SOL     OW28243   4.855   4.415   4.433
 9115SOL    HW128244   4.812   4.489   4.382
 9115SOL    HW228245   4.791   4.339   4.442
 9116SOL     OW28246   1.500   0.401   3.167
 9116SOL    HW128247   1.587   0.450   3.161
 9116SOL    HW228248   1.517   0.303   3.170
 9117SOL     OW28249   2.674   6.382   0.262
 9117SOL    HW128250   2.611   6.458   0.275
 9117SOL    HW228251   2.751   6.390   0.326
 9118SOL     OW28252   6.246   4.344   2.160
 9118SOL    HW128253   6.229   4.367   2.256
 9118SOL    HW228254   6.227   4.424   2.103
 9119SOL     OW28255   3.414   0.174   0.236
 9119SOL    HW128256   3.454   0.083   0.245
 9119SOL    HW228257   3.390   0.209   0.326
 9120SOL     OW28258   6.073   3.772   4.691
 9120SOL    HW128259   6.072   3.760   4.591
 9120SOL    HW228260   6.156   3.731   4.728
 9121SOL     OW28261   3.125   0.835   4.734
 9121SOL    HW128262   3.121   0.906   4.664
 9121SOL    HW228263   3.213   0.788   4.729
 9122SOL     OW28264   1.258   3.703   2.034
 9122SOL    HW128265   1.340   3.669   2.081
 9122SOL    HW228266   1.256   3.665   1.941
 9123SOL     OW28267   0.189   6.406   4.249
 9123SOL    HW128268   0.107   6.437   4.202
 9123SOL    HW228269   0.234   6.335   4.195
 9124SOL     OW28270   2.961   5.301   0.714
 9124SOL    HW128271   2.937   5.265   0.624
 9124SOL    HW228272   2.893   5.367   0.743
 9125SOL     OW28273   5.136   6.522   1.453
 9125SOL    HW128274   5.084   6.470   1.521
 9125SOL    HW228275   5.199   6.461   1.406
 9126SOL     OW28276   4.088   4.317   0.962
 9126SOL    HW128277   4.056   4.410   0.980
 9126SOL    HW228278   4.158   4.291   1.029
 9127SOL     OW28279   6.844   5.082   4.942
 9127SOL    HW128280   6.854   5.175   4.908
 9127SOL    HW228281   6.749   5.064   4.965
 9128SOL     OW28282   5.294   4.365   5.705
 9128SOL    HW128283   5.330   4.398   5.793
 9128SOL    HW228284   5.366   4.315   5.657
 9129SOL     OW28285   0.989   2.758   0.836
 9129SOL    HW128286   0.973   2.699   0.915
 9129SOL    HW228287   1.059   2.717   0.778
 9130SOL     OW28288   3.006   3.586   5.051
 9130SOL    HW128289   3.038   3.547   5.138
 9130SOL    HW228290   2.996   3.513   4.984
 9131SOL     OW28291   4.479   2.422   0.288
 9131SOL    HW128292   4.450   2.443   0.194
 9131SOL    HW228293   4.414   2.360   0.330
 9132SOL     OW28294   0.573   3.947   3.824
 9132SOL    HW128295   0.633   4.022   3.851
 9132SOL    HW228296   0.610   3.902   3.742
 9133SOL     OW28297   5.682   0.653   0.869
 9133SOL    HW128298   5.713   0.579   0.928
 9133SOL    HW228299   5.750   0.669   0.797
 9134SOL     OW28300   4.712   5.039   0.853
 9134SOL    HW128301   4.665   5.120   0.888
 9134SOL    HW228302   4.810   5.053   0.855
 9135SOL     OW28303   6.271   6.691   2.307
 9135SOL    HW128304   6.323   6.693   2.221
 9135SOL    HW228305   6.199   6.622   2.300
 9136SOL     OW28306   6.284   4.415   7.020
 9136SOL    HW128307   6.193   4.441   0.029
 9136SOL    HW228308   6.294   4.440   6.924
 9137SOL     OW28309   5.369   6.301   5.440
 9137SOL    HW128310   5.348   6.279   5.344
 9137SOL    HW228311   5.309   6.375   5.471
 9138SOL     OW28312   2.483   3.848   0.210
 9138SOL    HW128313   2.542   3.776   0.173
 9138SOL    HW228314   2.388   3.817   0.207
 9139SOL     OW28315   6.475   6.887   0.646
 9139SOL    HW128316   6.514   6.796   0.663
 9139SOL    HW228317   6.471   6.938   0.732
 9140SOL     OW28318   2.133   3.641   3.645
 9140SOL    HW128319   2.072   3.661   3.569
 9140SOL    HW228320   2.222   3.683   3.628
 9141SOL     OW28321   6.997   5.139   5.177
 9141SOL    HW128322   6.976   5.054   5.225
 9141SOL    HW228323   6.958   5.135   5.085
 9142SOL     OW28324   1.152   4.680   4.617
 9142SOL    HW128325   1.062   4.722   4.632
 9142SOL    HW228326   1.199   4.670   4.705
 9143SOL     OW28327   6.601   4.297   2.281
 9143SOL    HW128328   6.599   4.321   2.184
 9143SOL    HW228329   6.574   4.376   2.335
 9144SOL     OW28330   2.918   4.622   5.692
 9144SOL    HW128331   2.909   4.523   5.679
 9144SOL    HW228332   2.865   4.670   5.622
 9145SOL     OW28333   1.737   5.828   5.915
 9145SOL    HW128334   1.674   5.851   5.989
 9145SOL    HW228335   1.704   5.867   5.830
 9146SOL     OW28336   5.697   2.965   3.002
 9146SOL    HW128337   5.616   3.022   2.984
 9146SOL    HW228338   5.742   2.943   2.916
 9147SOL     OW28339   4.227   0.506   5.061
 9147SOL    HW128340   4.213   0.486   5.157
 9147SOL    HW228341   4.324   0.524   5.044
 9148SOL     OW28342   5.891   5.866   1.466
 9148SOL    HW128343   5.820   5.799   1.486
 9148SOL    HW228344   5.860   5.926   1.392
 9149SOL     OW28345   0.190   3.849   1.419
 9149SOL    HW128346   0.130   3.837   1.499
 9149SOL    HW228347   0.196   3.947   1.397
 9150SOL     OW28348   2.595   3.215   6.924
 9150SOL    HW128349   2.517   3.267   6.958
 9150SOL    HW228350   2.579   3.191   6.828
 9151SOL     OW28351   1.626   2.858   4.009
 9151SOL    HW128352   1.631   2.837   4.107
 9151SOL    HW228353   1.675   2.943   3.991
 9152SOL     OW28354   1.818   4.233   2.759
 9152SOL    HW128355   1.790   4.262   2.667
 9152SOL    HW228356   1.737   4.213   2.814
 9153SOL     OW28357   0.782   3.247   6.547
 9153SOL    HW128358   0.715   3.313   6.517
 9153SOL    HW228359   0.857   3.294   6.595
 9154SOL     OW28360   5.758   5.189   3.005
 9154SOL    HW128361   5.791   5.101   2.973
 9154SOL    HW228362   5.727   5.181   3.100
 9155SOL     OW28363   1.429   6.080   2.729
 9155SOL    HW128364   1.518   6.057   2.770
 9155SOL    HW228365   1.404   6.174   2.754
 9156SOL     OW28366   6.642   4.092   6.146
 9156SOL    HW128367   6.699   4.013   6.125
 9156SOL    HW228368   6.551   4.079   6.106
 9157SOL     OW28369   1.808   4.379   5.964
 9157SOL    HW128370   1.892   4.428   5.988
 9157SOL    HW228371   1.739   4.444   5.933
 9158SOL     OW28372   6.738   3.818   4.565
 9158SOL    HW128373   6.833   3.799   4.542
 9158SOL    HW228374   6.720   3.916   4.558
 9159SOL     OW28375   2.160   1.316   4.028
 9159SOL    HW128376   2.224   1.393   4.032
 9159SOL    HW228377   2.203   1.234   4.066
 9160SOL     OW28378   1.508   4.023   0.665
 9160SOL    HW128379   1.431   4.038   0.602
 9160SOL    HW228380   1.484   3.952   0.731
 9161SOL     OW28381   6.117   4.124   2.409
 9161SOL    HW128382   6.193   4.096   2.350
 9161SOL    HW228383   6.133   4.216   2.444
 9162SOL     OW28384   4.171   2.304   1.841
 9162SOL    HW128385   4.079   2.281   1.872
 9162SOL    HW228386   4.238   2.262   1.903
 9163SOL     OW28387   2.412   2.285   3.535
 9163SOL    HW128388   2.485   2.348   3.561
 9163SOL    HW228389   2.434   2.194   3.570
 9164SOL     OW28390   2.752   6.519   6.496
 9164SOL    HW128391   2.678   6.453   6.507
 9164SOL    HW228392   2.715   6.605   6.459
 9165SOL     OW28393   5.732   1.816   5.890
 9165SOL    HW128394   5.801   1.881   5.921
 9165SOL    HW228395   5.641   1.854   5.905
 9166SOL     OW28396   5.159   6.486   1.805
 9166SOL    HW128397   5.227   6.414   1.790
 9166SOL    HW228398   5.166   6.554   1.732
 9167SOL     OW28399   1.812   1.245   4.558
 9167SOL    HW128400   1.808   1.343   4.535
 9167SOL    HW228401   1.894   1.205   4.517
 9168SOL     OW28402   6.360   5.896   4.856
 9168SOL    HW128403   6.335   5.929   4.947
 9168SOL    HW228404   6.445   5.940   4.827
 9169SOL     OW28405   6.871   5.961   1.381
 9169SOL    HW128406   6.842   5.916   1.466
 9169SOL    HW228407   6.971   5.955   1.373
 9170SOL     OW28408   1.243   1.166   5.606
 9170SOL    HW128409   1.232   1.203   5.514
 9170SOL    HW228410   1.175   1.206   5.667
 9171SOL     OW28411   3.940   5.700   6.388
 9171SOL    HW128412   3.964   5.645   6.308
 9171SOL    HW228413   4.018   5.708   6.449
 9172SOL     OW28414   5.123   1.744   5.161
 9172SOL    HW128415   5.078   1.687   5.093
 9172SOL    HW228416   5.182   1.688   5.219
 9173SOL     OW28417   5.541   3.916   5.455
 9173SOL    HW128418   5.500   4.001   5.423
 9173SOL    HW228419   5.630   3.936   5.496
 9174SOL     OW28420   6.991   5.086   1.474
 9174SOL    HW128421   0.068   5.079   1.463
 9174SOL    HW228422   6.970   5.167   1.529
 9175SOL     OW28423   2.343   6.904   0.752
 9175SOL    HW128424   2.269   6.913   0.818
 9175SOL    HW228425   2.395   6.989   0.749
 9176SOL     OW28426   1.382   1.692   2.323
 9176SOL    HW128427   1.366   1.702   2.421
 9176SOL    HW228428   1.442   1.613   2.307
 9177SOL     OW28429   0.668   6.082   3.680
 9177SOL    HW128430   0.664   6.164   3.624
 9177SOL    HW228431   0.591   6.022   3.658
 9178SOL     OW28432   1.461   4.495   1.575
 9178SOL    HW128433   1.548   4.485   1.623
 9178SOL    HW228434   1.397   4.548   1.632
 9179SOL     OW28435   3.406   5.497   4.050
 9179SOL    HW128436   3.489   5.486   3.996
 9179SOL    HW228437   3.377   5.593   4.047
 9180SOL     OW28438   0.309   1.028   5.715
 9180SOL    HW128439   0.291   1.061   5.622
 9180SOL    HW228440   0.251   1.077   5.780
 9181SOL     OW28441   2.608   2.490   3.564
 9181SOL    HW128442   2.579   2.519   3.656
 9181SOL    HW228443   2.554   2.539   3.495
 9182SOL     OW28444   0.607   1.860   2.291
 9182SOL    HW128445   0.673   1.793   2.258
 9182SOL    HW228446   0.539   1.878   2.220
 9183SOL     OW28447   1.967   1.843   6.256
 9183SOL    HW128448   1.898   1.785   6.301
 9183SOL    HW228449   2.033   1.785   6.208
 9184SOL     OW28450   3.710   3.257   0.860
 9184SOL    HW128451   3.748   3.248   0.953
 9184SOL    HW228452   3.717   3.352   0.830
 9185SOL     OW28453   1.525   0.623   6.638
 9185SOL    HW128454   1.437   0.616   6.686
 9185SOL    HW228455   1.542   0.539   6.588
 9186SOL     OW28456   4.861   0.483   6.379
 9186SOL    HW128457   4.912   0.487   6.293
 9186SOL    HW228458   4.778   0.429   6.366
 9187SOL     OW28459   5.781   2.396   1.082
 9187SOL    HW128460   5.727   2.479   1.092
 9187SOL    HW228461   5.855   2.412   1.017
 9188SOL     OW28462   1.744   0.208   1.650
 9188SOL    HW128463   1.651   0.243   1.649
 9188SOL    HW228464   1.787   0.228   1.738
 9189SOL     OW28465   3.734   1.270   5.688
 9189SOL    HW128466   3.744   1.222   5.600
 9189SOL    HW228467   3.724   1.202   5.761
 9190SOL     OW28468   4.789   1.213   5.134
 9190SOL    HW128469   4.838   1.140   5.180
 9190SOL    HW228470   4.691   1.201   5.146
 9191SOL     OW28471   5.540   0.052   1.881
 9191SOL    HW128472   5.604   0.062   1.805
 9191SOL    HW228473   5.547   0.132   1.942
 9192SOL     OW28474   5.144   3.535   4.184
 9192SOL    HW128475   5.174   3.631   4.185
 9192SOL    HW228476   5.159   3.495   4.275
 9193SOL     OW28477   3.916   3.113   3.398
 9193SOL    HW128478   3.857   3.044   3.355
 9193SOL    HW228479   3.923   3.095   3.496
 9194SOL     OW28480   4.240   5.350   2.602
 9194SOL    HW128481   4.213   5.254   2.604
 9194SOL    HW228482   4.158   5.407   2.595
 9195SOL     OW28483   0.976   2.661   2.938
 9195SOL    HW128484   0.969   2.736   2.872
 9195SOL    HW228485   1.070   2.628   2.941
 9196SOL     OW28486   5.111   6.850   4.230
 9196SOL    HW128487   5.096   6.879   4.136
 9196SOL    HW228488   5.164   6.919   4.279
 9197SOL     OW28489   4.382   1.588   6.129
 9197SOL    HW128490   4.368   1.513   6.194
 9197SOL    HW228491   4.479   1.611   6.125
 9198SOL     OW28492   6.093   2.256   5.258
 9198SOL    HW128493   6.181   2.208   5.268
 9198SOL    HW228494   6.018   2.190   5.260
 9199SOL     OW28495   1.892   2.879   6.239
 9199SOL    HW128496   1.950   2.879   6.320
 9199SOL    HW228497   1.796   2.870   6.267
 9200SOL     OW28498   5.732   5.863   0.742
 9200SOL    HW128499   5.749   5.959   0.721
 9200SOL    HW228500   5.719   5.852   0.840
 9201SOL     OW28501   1.049   4.271   2.394
 9201SOL    HW128502   0.983   4.345   2.381
 9201SOL    HW228503   1.101   4.257   2.310
 9202SOL     OW28504   2.789   5.834   4.008
 9202SOL    HW128505   2.805   5.895   3.930
 9202SOL    HW228506   2.715   5.770   3.986
 9203SOL     OW28507   4.920   0.667   6.805
 9203SOL    HW128508   4.914   0.699   6.899
 9203SOL    HW228509   4.912   0.567   6.803
 9204SOL     OW28510   5.326   4.720   2.495
 9204SOL    HW128511   5.270   4.672   2.427
 9204SOL    HW228512   5.280   4.804   2.522
 9205SOL     OW28513   4.869   2.867   1.757
 9205SOL    HW128514   4.946   2.899   1.812
 9205SOL    HW228515   4.788   2.922   1.777
 9206SOL     OW28516   0.115   5.829   3.443
 9206SOL    HW128517   0.165   5.901   3.396
 9206SOL    HW228518   0.082   5.762   3.376
 9207SOL     OW28519   4.187   6.269   6.616
 9207SOL    HW128520   4.243   6.202   6.664
 9207SOL    HW228521   4.236   6.300   6.534
 9208SOL     OW28522   4.572   4.049   1.674
 9208SOL    HW128523   4.545   4.105   1.752
 9208SOL    HW228524   4.634   3.976   1.704
 9209SOL     OW28525   3.662   0.216   2.983
 9209SOL    HW128526   3.642   0.304   2.941
 9209SOL    HW228527   3.744   0.177   2.940
 9210SOL     OW28528   1.323   6.391   0.521
 9210SOL    HW128529   1.310   6.457   0.595
 9210SOL    HW228530   1.382   6.431   0.451
 9211SOL     OW28531   4.725   1.244   6.243
 9211SOL    HW128532   4.781   1.321   6.273
 9211SOL    HW228533   4.680   1.203   6.322
 9212SOL     OW28534   5.538   4.145   5.281
 9212SOL    HW128535   5.605   4.190   5.222
 9212SOL    HW228536   5.449   4.144   5.237
 9213SOL     OW28537   6.788   6.574   2.094
 9213SOL    HW128538   6.738   6.653   2.060
 9213SOL    HW228539   6.843   6.600   2.174
 9214SOL     OW28540   2.218   2.549   5.583
 9214SOL    HW128541   2.179   2.467   5.625
 9214SOL    HW228542   2.304   2.573   5.628
 9215SOL     OW28543   0.363   3.311   3.302
 9215SOL    HW128544   0.386   3.397   3.257
 9215SOL    HW228545   0.324   3.330   3.393
 9216SOL     OW28546   2.339   6.050   3.625
 9216SOL    HW128547   2.405   5.976   3.614
 9216SOL    HW228548   2.384   6.137   3.609
 9217SOL     OW28549   3.899   1.778   6.427
 9217SOL    HW128550   3.853   1.819   6.506
 9217SOL    HW228551   3.979   1.727   6.457
 9218SOL     OW28552   5.460   5.633   6.502
 9218SOL    HW128553   5.367   5.612   6.534
 9218SOL    HW228554   5.467   5.731   6.482
 9219SOL     OW28555   2.811   2.310   5.466
 9219SOL    HW128556   2.738   2.377   5.459
 9219SOL    HW228557   2.832   2.273   5.375
 9220SOL     OW28558   0.353   6.413   3.305
 9220SOL    HW128559   0.345   6.377   3.398
 9220SOL    HW228560   0.445   6.395   3.270
 9221SOL     OW28561   2.388   1.248   1.024
 9221SOL    HW128562   2.361   1.294   1.108
 9221SOL    HW228563   2.474   1.286   0.991
 9222SOL     OW28564   1.407   3.793   4.563
 9222SOL    HW128565   1.455   3.778   4.476
 9222SOL    HW228566   1.357   3.710   4.587
 9223SOL     OW28567   6.827   3.274   4.779
 9223SOL    HW128568   6.811   3.197   4.718
 9223SOL    HW228569   6.830   3.242   4.874
 9224SOL     OW28570   2.439   5.143   3.203
 9224SOL    HW128571   2.531   5.172   3.228
 9224SOL    HW228572   2.373   5.209   3.237
 9225SOL     OW28573   5.963   5.992   5.954
 9225SOL    HW128574   5.972   6.072   6.014
 9225SOL    HW228575   5.923   5.917   6.006
 9226SOL     OW28576   1.021   0.752   6.759
 9226SOL    HW128577   0.995   0.666   6.715
 9226SOL    HW228578   1.120   0.754   6.772
 9227SOL     OW28579   2.892   3.926   0.214
 9227SOL    HW128580   2.902   3.964   0.306
 9227SOL    HW228581   2.870   3.998   0.150
 9228SOL     OW28582   3.814   2.925   4.834
 9228SOL    HW128583   3.913   2.938   4.828
 9228SOL    HW228584   3.794   2.828   4.841
 9229SOL     OW28585   6.640   5.221   0.524
 9229SOL    HW128586   6.647   5.226   0.425
 9229SOL    HW228587   6.561   5.275   0.555
 9230SOL     OW28588   4.422   1.370   4.696
 9230SOL    HW128589   4.465   1.451   4.656
 9230SOL    HW228590   4.360   1.329   4.629
 9231SOL     OW28591   6.512   5.973   1.875
 9231SOL    HW128592   6.424   5.953   1.833
 9231SOL    HW228593   6.528   6.072   1.876
 9232SOL     OW28594   0.997   5.361   2.426
 9232SOL    HW128595   1.091   5.389   2.443
 9232SOL    HW228596   0.980   5.360   2.327
 9233SOL     OW28597   1.215   6.507   5.591
 9233SOL    HW128598   1.116   6.495   5.586
 9233SOL    HW228599   1.260   6.443   5.529
 9234SOL     OW28600   2.648   3.476   6.164
 9234SOL    HW128601   2.697   3.397   6.201
 9234SOL    HW228602   2.650   3.473   6.064
 9235SOL     OW28603   1.848   2.183   3.238
 9235SOL    HW128604   1.790   2.163   3.317
 9235SOL    HW228605   1.928   2.123   3.239
 9236SOL     OW28606   1.733   3.261   6.232
 9236SOL    HW128607   1.805   3.193   6.245
 9236SOL    HW228608   1.735   3.326   6.308
 9237SOL     OW28609   6.470   5.633   2.569
 9237SOL    HW128610   6.397   5.565   2.574
 9237SOL    HW228611   6.434   5.719   2.533
 9238SOL     OW28612   1.732   2.867   4.798
 9238SOL    HW128613   1.749   2.959   4.832
 9238SOL    HW228614   1.670   2.871   4.719
 9239SOL     OW28615   0.795   4.628   6.801
 9239SOL    HW128616   0.807   4.727   6.807
 9239SOL    HW228617   0.721   4.600   6.861
 9240SOL     OW28618   4.219   1.675   3.756
 9240SOL    HW128619   4.126   1.645   3.734
 9240SOL    HW228620   4.224   1.775   3.746
 9241SOL     OW28621   5.462   0.109   0.387
 9241SOL    HW128622   5.378   0.162   0.395
 9241SOL    HW228623   5.541   0.169   0.403
 9242SOL     OW28624   1.659   2.358   0.977
 9242SOL    HW128625   1.642   2.435   1.038
 9242SOL    HW228626   1.588   2.355   0.907
 9243SOL     OW28627   1.793   0.120   0.010
 9243SOL    HW128628   1.834   0.203   0.049
 9243SOL    HW228629   1.730   0.145   6.959
 9244SOL     OW28630   3.485   6.248   5.742
 9244SOL    HW128631   3.544   6.168   5.756
 9244SOL    HW228632   3.526   6.328   5.785
 9245SOL     OW28633   1.973   5.156   2.787
 9245SOL    HW128634   1.904   5.088   2.760
 9245SOL    HW228635   2.015   5.195   2.705
 9246SOL     OW28636   5.193   6.752   6.660
 9246SOL    HW128637   5.148   6.841   6.664
 9246SOL    HW228638   5.267   6.749   6.728
 9247SOL     OW28639   4.122   5.983   2.757
 9247SOL    HW128640   4.135   6.019   2.665
 9247SOL    HW228641   4.207   5.943   2.790
 9248SOL     OW28642   2.141   0.691   6.644
 9248SOL    HW128643   2.141   0.755   6.721
 9248SOL    HW228644   2.137   0.598   6.679
 9249SOL     OW28645   2.695   6.541   0.625
 9249SOL    HW128646   2.669   6.633   0.654
 9249SOL    HW228647   2.621   6.477   0.645
 9250SOL     OW28648   0.183   2.962   3.481
 9250SOL    HW128649   0.174   2.891   3.411
 9250SOL    HW228650   0.273   3.006   3.472
 9251SOL     OW28651   3.536   1.493   0.958
 9251SOL    HW128652   3.617   1.551   0.963
 9251SOL    HW228653   3.455   1.546   0.985
 9252SOL     OW28654   5.709   1.221   4.952
 9252SOL    HW128655   5.746   1.314   4.965
 9252SOL    HW228656   5.784   1.156   4.947
 9253SOL     OW28657   1.728   5.584   4.822
 9253SOL    HW128658   1.743   5.681   4.804
 9253SOL    HW228659   1.630   5.565   4.818
 9254SOL     OW28660   0.061   4.961   2.442
 9254SOL    HW128661   0.082   4.877   2.391
 9254SOL    HW228662   0.018   5.027   2.380
 9255SOL     OW28663   6.601   4.575   0.619
 9255SOL    HW128664   6.638   4.485   0.596
 9255SOL    HW228665   6.572   4.575   0.715
 9256SOL     OW28666   3.168   6.535   0.708
 9256SOL    HW128667   3.158   6.466   0.779
 9256SOL    HW228668   3.138   6.497   0.620
 9257SOL     OW28669   5.626   5.447   4.499
 9257SOL    HW128670   5.614   5.502   4.582
 9257SOL    HW228671   5.648   5.353   4.525
 9258SOL     OW28672   3.849   5.575   1.181
 9258SOL    HW128673   3.754   5.545   1.169
 9258SOL    HW228674   3.908   5.495   1.193
 9259SOL     OW28675   0.798   1.897   6.800
 9259SOL    HW128676   0.740   1.820   6.775
 9259SOL    HW228677   0.822   1.891   6.897
 9260SOL     OW28678   5.282   3.828   4.529
 9260SOL    HW128679   5.248   3.738   4.500
 9260SOL    HW228680   5.257   3.844   4.624
 9261SOL     OW28681   2.228   1.543   1.504
 9261SOL    HW128682   2.249   1.593   1.420
 9261SOL    HW228683   2.152   1.587   1.551
 9262SOL     OW28684   6.734   6.153   5.928
 9262SOL    HW128685   6.793   6.151   5.847
 9262SOL    HW228686   6.741   6.242   5.973
 9263SOL     OW28687   1.989   4.786   3.390
 9263SOL    HW128688   1.998   4.871   3.337
 9263SOL    HW228689   2.076   4.764   3.434
 9264SOL     OW28690   5.592   4.350   6.132
 9264SOL    HW128691   5.691   4.364   6.130
 9264SOL    HW228692   5.572   4.267   6.185
 9265SOL     OW28693   5.644   1.294   1.791
 9265SOL    HW128694   5.641   1.195   1.795
 9265SOL    HW228695   5.688   1.330   1.874
 9266SOL     OW28696   1.797   4.421   0.727
 9266SOL    HW128697   1.873   4.370   0.766
 9266SOL    HW228698   1.711   4.372   0.745
 9267SOL     OW28699   6.741   1.222   4.187
 9267SOL    HW128700   6.794   1.142   4.160
 9267SOL    HW228701   6.762   1.245   4.283
 9268SOL     OW28702   0.386   0.127   1.541
 9268SOL    HW128703   0.424   0.100   1.630
 9268SOL    HW228704   0.352   0.221   1.547
 9269SOL     OW28705   3.759   0.955   6.898
 9269SOL    HW128706   3.771   0.980   6.994
 9269SOL    HW228707   3.700   0.875   6.892
 9270SOL     OW28708   2.842   0.688   6.485
 9270SOL    HW128709   2.791   0.691   6.571
 9270SOL    HW228710   2.841   0.595   6.449
 9271SOL     OW28711   1.417   5.410   5.199
 9271SOL    HW128712   1.385   5.481   5.263
 9271SOL    HW228713   1.494   5.446   5.146
 9272SOL     OW28714   6.210   6.791   5.852
 9272SOL    HW128715   6.255   6.772   5.939
 9272SOL    HW228716   6.222   6.888   5.829
 9273SOL     OW28717   5.474   3.915   3.208
 9273SOL    HW128718   5.565   3.881   3.230
 9273SOL    HW228719   5.428   3.945   3.291
 9274SOL     OW28720   0.718   3.160   0.786
 9274SOL    HW128721   0.673   3.247   0.806
 9274SOL    HW228722   0.649   3.090   0.766
 9275SOL     OW28723   5.615   0.856   0.643
 9275SOL    HW128724   5.602   0.821   0.736
 9275SOL    HW228725   5.630   0.955   0.647
 9276SOL     OW28726   2.728   4.950   0.092
 9276SOL    HW128727   2.746   4.962   7.018
 9276SOL    HW228728   2.771   5.024   0.143
 9277SOL     OW28729   4.591   5.128   2.518
 9277SOL    HW128730   4.566   5.168   2.429
 9277SOL    HW228731   4.677   5.080   2.510
 9278SOL     OW28732   0.582   0.139   5.173
 9278SOL    HW128733   0.565   0.237   5.184
 9278SOL    HW228734   0.549   0.109   5.084
 9279SOL     OW28735   3.518   5.857   1.923
 9279SOL    HW128736   3.540   5.850   1.826
 9279SOL    HW228737   3.467   5.776   1.951
 9280SOL     OW28738   1.988   5.820   3.170
 9280SOL    HW128739   1.922   5.748   3.190
 9280SOL    HW228740   1.961   5.904   3.218
 9281SOL     OW28741   1.797   5.623   1.049
 9281SOL    HW128742   1.870   5.685   1.080
 9281SOL    HW228743   1.777   5.557   1.122
 9282SOL     OW28744   3.037   0.014   4.889
 9282SOL    HW128745   2.999   7.007   4.976
 9282SOL    HW228746   3.121   0.066   4.906
 9283SOL     OW28747   4.489   6.918   0.839
 9283SOL    HW128748   4.512   6.849   0.909
 9283SOL    HW228749   4.566   6.929   0.777
 9284SOL     OW28750   3.987   4.276   5.783
 9284SOL    HW128751   4.044   4.284   5.701
 9284SOL    HW228752   3.939   4.362   5.798
 9285SOL     OW28753   0.574   6.062   2.932
 9285SOL    HW128754   0.605   5.976   2.972
 9285SOL    HW228755   0.619   6.075   2.843
 9286SOL     OW28756   4.111   6.996   1.724
 9286SOL    HW128757   4.012   6.989   1.707
 9286SOL    HW228758   4.156   0.004   1.640
 9287SOL     OW28759   3.958   3.808   5.935
 9287SOL    HW128760   4.006   3.866   6.001
 9287SOL    HW228761   3.946   3.858   5.849
 9288SOL     OW28762   3.405   1.818   1.588
 9288SOL    HW128763   3.466   1.897   1.585
 9288SOL    HW228764   3.350   1.821   1.671
 9289SOL     OW28765   4.980   0.007   0.693
 9289SOL    HW128766   4.995   0.102   0.665
 9289SOL    HW228767   5.037   6.970   0.637
 9290SOL     OW28768   5.833   1.537   4.115
 9290SOL    HW128769   5.902   1.580   4.057
 9290SOL    HW228770   5.766   1.605   4.145
 9291SOL     OW28771   0.728   3.810   6.086
 9291SOL    HW128772   0.671   3.774   6.012
 9291SOL    HW228773   0.712   3.908   6.097
 9292SOL     OW28774   0.856   0.778   6.476
 9292SOL    HW128775   0.771   0.754   6.524
 9292SOL    HW228776   0.841   0.860   6.421
 9293SOL     OW28777   4.926   2.360   4.306
 9293SOL    HW128778   4.829   2.385   4.309
 9293SOL    HW228779   4.940   2.291   4.235
 9294SOL     OW28780   4.689   0.447   6.046
 9294SOL    HW128781   4.714   0.401   5.961
 9294SOL    HW228782   4.746   0.528   6.058
 9295SOL     OW28783   6.281   1.383   4.981
 9295SOL    HW128784   6.235   1.307   5.027
 9295SOL    HW228785   6.329   1.350   4.900
 9296SOL     OW28786   2.097   4.882   6.135
 9296SOL    HW128787   2.016   4.826   6.152
 9296SOL    HW228788   2.077   4.948   6.062
 9297SOL     OW28789   6.476   5.537   2.173
 9297SOL    HW128790   6.574   5.532   2.195
 9297SOL    HW228791   6.443   5.630   2.193
 9298SOL     OW28792   1.153   3.816   6.423
 9298SOL    HW128793   1.244   3.810   6.380
 9298SOL    HW228794   1.083   3.817   6.352
 9299SOL     OW28795   2.048   2.189   4.662
 9299SOL    HW128796   2.063   2.152   4.754
 9299SOL    HW228797   1.963   2.153   4.624
 9300SOL     OW28798   2.357   5.888   4.778
 9300SOL    HW128799   2.314   5.895   4.688
 9300SOL    HW228800   2.305   5.824   4.835
 9301SOL     OW28801   0.132   4.373   4.069
 9301SOL    HW128802   0.181   4.454   4.036
 9301SOL    HW228803   0.190   4.323   4.132
 9302SOL     OW28804   2.237   4.060   4.457
 9302SOL    HW128805   2.315   4.089   4.512
 9302SOL    HW228806   2.229   4.118   4.376
 9303SOL     OW28807   2.729   4.669   6.922
 9303SOL    HW128808   2.711   4.718   7.007
 9303SOL    HW228809   2.643   4.648   6.876
 9304SOL     OW28810   5.258   5.496   6.601
 9304SOL    HW128811   5.239   5.404   6.565
 9304SOL    HW228812   5.251   5.495   6.700
 9305SOL     OW28813   1.614   2.145   1.393
 9305SOL    HW128814   1.659   2.090   1.463
 9305SOL    HW228815   1.579   2.230   1.434
 9306SOL     OW28816   0.091   6.347   4.996
 9306SOL    HW128817   0.160   6.361   4.926
 9306SOL    HW228818   0.000   6.343   4.953
 9307SOL     OW28819   1.770   3.902   1.026
 9307SOL    HW128820   1.775   4.001   1.020
 9307SOL    HW228821   1.804   3.872   1.115
 9308SOL     OW28822   2.144   3.353   1.709
 9308SOL    HW128823   2.228   3.376   1.758
 9308SOL    HW228824   2.102   3.436   1.674
 9309SOL     OW28825   5.005   5.098   6.683
 9309SOL    HW128826   5.080   5.033   6.694
 9309SOL    HW228827   4.978   5.102   6.587
 9310SOL     OW28828   5.821   5.778   6.142
 9310SOL    HW128829   5.783   5.815   6.226
 9310SOL    HW228830   5.749   5.733   6.089
 9311SOL     OW28831   5.105   4.465   0.547
 9311SOL    HW128832   5.149   4.538   0.495
 9311SOL    HW228833   5.172   4.393   0.568
 9312SOL     OW28834   0.451   3.113   2.881
 9312SOL    HW128835   0.423   3.093   2.975
 9312SOL    HW228836   0.408   3.047   2.819
 9313SOL     OW28837   0.291   1.025   2.235
 9313SOL    HW128838   0.289   0.956   2.163
 9313SOL    HW228839   0.349   1.102   2.207
 9314SOL     OW28840   5.221   4.447   0.913
 9314SOL    HW128841   5.156   4.374   0.893
 9314SOL    HW228842   5.295   4.411   0.970
 9315SOL     OW28843   5.393   6.393   5.996
 9315SOL    HW128844   5.318   6.389   5.929
 9315SOL    HW228845   5.429   6.301   6.011
 9316SOL     OW28846   4.861   0.056   6.498
 9316SOL    HW128847   4.875   0.073   6.401
 9316SOL    HW228848   4.783   0.110   6.531
 9317SOL     OW28849   3.534   5.933   3.513
 9317SOL    HW128850   3.562   5.840   3.538
 9317SOL    HW228851   3.517   5.937   3.414
 9318SOL     OW28852   4.020   6.848   2.130
 9318SOL    HW128853   4.033   6.752   2.102
 9318SOL    HW228854   3.953   6.852   2.204
 9319SOL     OW28855   4.361   1.945   0.372
 9319SOL    HW128856   4.382   2.028   0.320
 9319SOL    HW228857   4.272   1.909   0.344
 9320SOL     OW28858   6.806   6.204   0.119
 9320SOL    HW128859   6.884   6.177   0.062
 9320SOL    HW228860   6.729   6.142   0.102
 9321SOL     OW28861   0.832   2.975   4.721
 9321SOL    HW128862   0.752   3.029   4.693
 9321SOL    HW228863   0.898   3.034   4.767
 9322SOL     OW28864   5.625   2.966   6.863
 9322SOL    HW128865   5.529   2.994   6.871
 9322SOL    HW228866   5.673   2.990   6.947
 9323SOL     OW28867   0.687   2.030   5.850
 9323SOL    HW128868   0.774   2.023   5.898
 9323SOL    HW228869   0.664   2.126   5.835
 9324SOL     OW28870   0.655   4.372   1.642
 9324SOL    HW128871   0.657   4.274   1.662
 9324SOL    HW228872   0.595   4.390   1.564
 9325SOL     OW28873   0.679   4.748   3.553
 9325SOL    HW128874   0.606   4.793   3.500
 9325SOL    HW228875   0.641   4.670   3.602
 9326SOL     OW28876   4.320   4.135   0.894
 9326SOL    HW128877   4.288   4.065   0.957
 9326SOL    HW228878   4.260   4.139   0.814
 9327SOL     OW28879   2.693   1.028   3.595
 9327SOL    HW128880   2.610   1.073   3.629
 9327SOL    HW228881   2.674   0.987   3.506
 9328SOL     OW28882   2.373   0.554   3.868
 9328SOL    HW128883   2.418   0.623   3.812
 9328SOL    HW228884   2.361   0.470   3.815
 9329SOL     OW28885   0.227   5.483   7.010
 9329SOL    HW128886   0.152   5.525   0.039
 9329SOL    HW228887   0.195   5.459   6.919
 9330SOL     OW28888   6.965   6.104   0.343
 9330SOL    HW128889   6.889   6.101   0.278
 9330SOL    HW228890   7.014   6.190   0.332
 9331SOL     OW28891   2.011   3.685   4.040
 9331SOL    HW128892   1.967   3.598   4.019
 9331SOL    HW228893   2.014   3.698   4.139
 9332SOL     OW28894   5.964   5.553   0.823
 9332SOL    HW128895   6.018   5.523   0.745
 9332SOL    HW228896   5.960   5.652   0.826
 9333SOL     OW28897   3.122   3.787   1.148
 9333SOL    HW128898   3.146   3.884   1.142
 9333SOL    HW228899   3.193   3.732   1.104
 9334SOL     OW28900   5.915   5.955   5.685
 9334SOL    HW128901   5.947   5.970   5.778
 9334SOL    HW228902   5.897   5.858   5.670
 9335SOL     OW28903   0.936   3.688   1.456
 9335SOL    HW128904   0.955   3.783   1.428
 9335SOL    HW228905   0.840   3.679   1.481
 9336SOL     OW28906   5.455   0.557   5.672
 9336SOL    HW128907   5.475   0.586   5.766
 9336SOL    HW228908   5.533   0.576   5.613
 9337SOL     OW28909   2.552   1.332   5.691
 9337SOL    HW128910   2.571   1.379   5.604
 9337SOL    HW228911   2.587   1.238   5.686
 9338SOL     OW28912   5.646   6.360   0.324
 9338SOL    HW128913   5.663   6.398   0.234
 9338SOL    HW228914   5.731   6.358   0.376
 9339SOL     OW28915   6.998   3.908   5.768
 9339SOL    HW128916   7.001   3.837   5.839
 9339SOL    HW228917   7.018   3.867   5.679
 9340SOL     OW28918   3.269   4.796   1.471
 9340SOL    HW128919   3.308   4.726   1.531
 9340SOL    HW228920   3.213   4.859   1.525
 9341SOL     OW28921   5.080   4.877   6.389
 9341SOL    HW128922   5.146   4.892   6.463
 9341SOL    HW228923   5.007   4.817   6.421
 9342SOL     OW28924   2.905   0.314   4.763
 9342SOL    HW128925   2.899   0.407   4.800
 9342SOL    HW228926   2.883   0.315   4.666
 9343SOL     OW28927   4.698   3.789   0.834
 9343SOL    HW128928   4.734   3.851   0.903
 9343SOL    HW228929   4.707   3.695   0.866
 9344SOL     OW28930   6.175   0.536   5.371
 9344SOL    HW128931   6.213   0.563   5.282
 9344SOL    HW228932   6.089   0.584   5.387
 9345SOL     OW28933   0.066   4.634   0.337
 9345SOL    HW128934   0.118   4.691   0.400
 9345SOL    HW228935   0.005   4.574   0.389
 9346SOL     OW28936   5.881   6.676   1.768
 9346SOL    HW128937   5.852   6.584   1.796
 9346SOL    HW228938   5.943   6.669   1.690
 9347SOL     OW28939   3.664   5.812   1.120
 9347SOL    HW128940   3.729   5.736   1.113
 9347SOL    HW228941   3.631   5.836   1.029
 9348SOL     OW28942   2.340   5.538   1.961
 9348SOL    HW128943   2.353   5.634   1.938
 9348SOL    HW228944   2.284   5.494   1.891
 9349SOL     OW28945   0.037   6.089   1.603
 9349SOL    HW128946   0.128   6.124   1.628
 9349SOL    HW228947   0.043   6.041   1.516
 9350SOL     OW28948   6.569   0.394   0.222
 9350SOL    HW128949   6.564   0.477   0.165
 9350SOL    HW228950   6.483   0.344   0.214
 9351SOL     OW28951   3.826   3.146   5.510
 9351SOL    HW128952   3.762   3.071   5.489
 9351SOL    HW228953   3.916   3.125   5.473
 9352SOL     OW28954   2.958   2.986   6.447
 9352SOL    HW128955   2.940   3.035   6.533
 9352SOL    HW228956   2.968   3.052   6.373
 9353SOL     OW28957   0.279   3.633   0.981
 9353SOL    HW128958   0.331   3.572   1.041
 9353SOL    HW228959   0.331   3.717   0.967
 9354SOL     OW28960   5.029   1.704   2.036
 9354SOL    HW128961   5.065   1.789   2.074
 9354SOL    HW228962   5.055   1.697   1.940
 9355SOL     OW28963   6.668   1.364   3.143
 9355SOL    HW128964   6.734   1.292   3.124
 9355SOL    HW228965   6.705   1.426   3.212
 9356SOL     OW28966   4.669   4.831   2.705
 9356SOL    HW128967   4.702   4.738   2.718
 9356SOL    HW228968   4.596   4.850   2.770
 9357SOL     OW28969   3.260   3.245   0.589
 9357SOL    HW128970   3.160   3.248   0.594
 9357SOL    HW228971   3.288   3.232   0.494
 9358SOL     OW28972   5.171   4.238   2.196
 9358SOL    HW128973   5.225   4.308   2.149
 9358SOL    HW228974   5.205   4.147   2.170
 9359SOL     OW28975   5.106   4.630   6.071
 9359SOL    HW128976   5.058   4.602   5.988
 9359SOL    HW228977   5.189   4.680   6.046
 9360SOL     OW28978   1.602   0.422   5.353
 9360SOL    HW128979   1.617   0.369   5.270
 9360SOL    HW228980   1.511   0.463   5.351
 9361SOL     OW28981   2.555   0.994   2.671
 9361SOL    HW128982   2.497   0.913   2.677
 9361SOL    HW228983   2.541   1.038   2.583
 9362SOL     OW28984   1.848   1.615   3.058
 9362SOL    HW128985   1.920   1.683   3.070
 9362SOL    HW228986   1.854   1.577   2.965
 9363SOL     OW28987   2.489   6.803   1.630
 9363SOL    HW128988   2.500   6.902   1.633
 9363SOL    HW228989   2.475   6.768   1.723
 9364SOL     OW28990   5.395   5.256   0.589
 9364SOL    HW128991   5.392   5.175   0.531
 9364SOL    HW228992   5.490   5.283   0.604
 9365SOL     OW28993   1.669   1.031   4.867
 9365SOL    HW128994   1.655   1.125   4.900
 9365SOL    HW228995   1.662   1.029   4.768
 9366SOL     OW28996   2.463   1.110   1.417
 9366SOL    HW128997   2.421   1.033   1.465
 9366SOL    HW228998   2.507   1.171   1.483
 9367SOL     OW28999   6.794   6.084   3.560
 9367SOL    HW129000   6.739   6.003   3.583
 9367SOL    HW229001   6.881   6.080   3.610
 9368SOL     OW29002   3.867   3.000   1.574
 9368SOL    HW129003   3.784   3.027   1.622
 9368SOL    HW229004   3.942   2.992   1.639
 9369SOL     OW29005   0.122   2.286   5.477
 9369SOL    HW129006   0.213   2.267   5.438
 9369SOL    HW229007   0.061   2.209   5.459
 9370SOL     OW29008   6.159   0.032   3.134
 9370SOL    HW129009   6.153   6.958   3.112
 9370SOL    HW229010   6.194   0.043   3.227
 9371SOL     OW29011   1.217   6.634   0.694
 9371SOL    HW129012   1.143   6.573   0.665
 9371SOL    HW229013   1.186   6.689   0.772
 9372SOL     OW29014   6.826   6.313   6.442
 9372SOL    HW129015   6.749   6.356   6.490
 9372SOL    HW229016   6.791   6.244   6.379
 9373SOL     OW29017   4.826   2.024   4.209
 9373SOL    HW129018   4.759   2.094   4.235
 9373SOL    HW229019   4.778   1.944   4.173
 9374SOL     OW29020   4.996   3.937   0.487
 9374SOL    HW129021   5.064   3.887   0.434
 9374SOL    HW229022   4.909   3.889   0.483
 9375SOL     OW29023   0.677   1.379   3.946
 9375SOL    HW129024   0.609   1.387   4.019
 9375SOL    HW229025   0.651   1.306   3.883
 9376SOL     OW29026   2.153   2.828   2.096
 9376SOL    HW129027   2.179   2.865   2.185
 9376SOL    HW229028   2.225   2.767   2.063
 9377SOL     OW29029   6.020   5.424   3.199
 9377SOL    HW129030   5.982   5.368   3.126
 9377SOL    HW229031   6.108   5.387   3.228
 9378SOL     OW29032   3.170   6.306   0.888
 9378SOL    HW129033   3.222   6.263   0.814
 9378SOL    HW229034   3.084   6.258   0.901
 9379SOL     OW29035   5.793   4.635   5.193
 9379SOL    HW129036   5.796   4.545   5.236
 9379SOL    HW229037   5.769   4.625   5.096
 9380SOL     OW29038   5.729   6.252   6.528
 9380SOL    HW129039   5.685   6.278   6.442
 9380SOL    HW229040   5.663   6.202   6.585
 9381SOL     OW29041   2.845   0.876   0.055
 9381SOL    HW129042   2.855   0.934   0.136
 9381SOL    HW229043   2.919   0.809   0.054
 9382SOL     OW29044   4.865   2.053   2.294
 9382SOL    HW129045   4.800   2.010   2.358
 9382SOL    HW229046   4.840   2.149   2.281
 9383SOL     OW29047   5.336   5.726   5.713
 9383SOL    HW129048   5.373   5.675   5.636
 9383SOL    HW229049   5.237   5.737   5.701
 9384SOL     OW29050   4.884   5.869   1.766
 9384SOL    HW129051   4.818   5.941   1.788
 9384SOL    HW229052   4.866   5.789   1.823
 9385SOL     OW29053   3.457   1.351   3.427
 9385SOL    HW129054   3.508   1.302   3.498
 9385SOL    HW229055   3.507   1.433   3.399
 9386SOL     OW29056   3.635   0.483   4.436
 9386SOL    HW129057   3.649   0.520   4.528
 9386SOL    HW229058   3.545   0.440   4.431
 9387SOL     OW29059   4.140   0.003   6.943
 9387SOL    HW129060   4.195   6.958   6.893
 9387SOL    HW229061   4.188   0.028   0.004
 9388SOL     OW29062   6.918   0.425   2.603
 9388SOL    HW129063   6.899   0.477   2.686
 9388SOL    HW229064   6.992   0.470   2.552
 9389SOL     OW29065   2.864   0.436   6.440
 9389SOL    HW129066   2.918   0.400   6.364
 9389SOL    HW229067   2.827   0.360   6.494
 9390SOL     OW29068   3.034   6.274   2.298
 9390SOL    HW129069   3.047   6.336   2.221
 9390SOL    HW229070   2.958   6.307   2.354
 9391SOL     OW29071   0.766   0.888   5.114
 9391SOL    HW129072   0.828   0.880   5.192
 9391SOL    HW229073   0.767   0.982   5.080
 9392SOL     OW29074   1.523   6.182   4.305
 9392SOL    HW129075   1.449   6.132   4.260
 9392SOL    HW229076   1.519   6.278   4.277
 9393SOL     OW29077   3.853   2.237   5.319
 9393SOL    HW129078   3.866   2.165   5.388
 9393SOL    HW229079   3.926   2.305   5.328
 9394SOL     OW29080   4.986   2.171   2.588
 9394SOL    HW129081   4.931   2.088   2.581
 9394SOL    HW229082   5.068   2.153   2.643
 9395SOL     OW29083   1.943   2.886   6.949
 9395SOL    HW129084   1.847   2.911   6.939
 9395SOL    HW229085   1.955   2.790   6.925
 9396SOL     OW29086   6.650   0.301   6.760
 9396SOL    HW129087   6.639   0.264   6.668
 9396SOL    HW229088   6.560   0.313   6.802
 9397SOL     OW29089   3.179   0.702   0.783
 9397SOL    HW129090   3.219   0.650   0.708
 9397SOL    HW229091   3.174   0.798   0.758
 9398SOL     OW29092   2.806   1.694   6.946
 9398SOL    HW129093   2.861   1.613   6.926
 9398SOL    HW229094   2.854   1.776   6.916
 9399SOL     OW29095   6.815   0.753   5.481
 9399SOL    HW129096   6.812   0.788   5.387
 9399SOL    HW229097   6.822   0.653   5.480
 9400SOL     OW29098   5.229   2.119   3.194
 9400SOL    HW129099   5.225   2.071   3.106
 9400SOL    HW229100   5.141   2.163   3.211
 9401SOL     OW29101   3.022   0.063   2.956
 9401SOL    HW129102   3.046   0.051   2.859
 9401SOL    HW229103   3.104   0.059   3.012
 9402SOL     OW29104   2.465   5.538   6.546
 9402SOL    HW129105   2.493   5.623   6.590
 9402SOL    HW229106   2.546   5.482   6.526
 9403SOL     OW29107   5.137   1.435   3.988
 9403SOL    HW129108   5.167   1.509   4.048
 9403SOL    HW229109   5.137   1.349   4.039
 9404SOL     OW29110   0.253   4.225   6.016
 9404SOL    HW129111   0.272   4.134   6.053
 9404SOL    HW229112   0.156   4.245   6.025
 9405SOL     OW29113   6.222   7.010   1.353
 9405SOL    HW129114   6.188   7.016   1.259
 9405SOL    HW229115   6.298   0.050   1.365
 9406SOL     OW29116   0.220   1.371   5.319
 9406SOL    HW129117   0.222   1.420   5.406
 9406SOL    HW229118   0.299   1.398   5.263
 9407SOL     OW29119   3.423   6.068   2.991
 9407SOL    HW129120   3.336   6.040   2.950
 9407SOL    HW229121   3.498   6.048   2.928
 9408SOL     OW29122   4.123   1.561   6.353
 9408SOL    HW129123   4.106   1.585   6.257
 9408SOL    HW229124   4.162   1.469   6.357
 9409SOL     OW29125   5.552   4.050   2.937
 9409SOL    HW129126   5.504   4.009   3.015
 9409SOL    HW229127   5.647   4.019   2.936
 9410SOL     OW29128   4.573   6.230   2.878
 9410SOL    HW129129   4.580   6.176   2.962
 9410SOL    HW229130   4.498   6.296   2.887
 9411SOL     OW29131   4.736   5.428   1.079
 9411SOL    HW129132   4.700   5.510   1.034
 9411SOL    HW229133   4.792   5.455   1.157
 9412SOL     OW29134   6.356   2.344   1.470
 9412SOL    HW129135   6.433   2.382   1.520
 9412SOL    HW229136   6.389   2.297   1.388
 9413SOL     OW29137   3.910   6.070   5.601
 9413SOL    HW129138   3.986   6.015   5.566
 9413SOL    HW229139   3.916   6.163   5.563
 9414SOL     OW29140   2.500   1.396   1.776
 9414SOL    HW129141   2.434   1.446   1.831
 9414SOL    HW229142   2.575   1.457   1.749
 9415SOL     OW29143   2.778   0.423   2.487
 9415SOL    HW129144   2.834   0.394   2.410
 9415SOL    HW229145   2.756   0.520   2.478
 9416SOL     OW29146   0.561   2.524   1.489
 9416SOL    HW129147   0.550   2.602   1.552
 9416SOL    HW229148   0.614   2.453   1.534
 9417SOL     OW29149   2.399   6.365   4.491
 9417SOL    HW129150   2.476   6.404   4.543
 9417SOL    HW229151   2.330   6.332   4.554
 9418SOL     OW29152   3.716   5.070   0.767
 9418SOL    HW129153   3.710   5.070   0.667
 9418SOL    HW229154   3.635   5.026   0.806
 9419SOL     OW29155   3.822   6.552   5.726
 9419SOL    HW129156   3.750   6.622   5.726
 9419SOL    HW229157   3.911   6.598   5.730
 9420SOL     OW29158   0.656   1.397   4.446
 9420SOL    HW129159   0.595   1.318   4.446
 9420SOL    HW229160   0.737   1.377   4.391
 9421SOL     OW29161   1.847   4.520   5.553
 9421SOL    HW129162   1.898   4.471   5.624
 9421SOL    HW229163   1.855   4.471   5.467
 9422SOL     OW29164   3.979   1.502   2.116
 9422SOL    HW129165   3.920   1.507   2.197
 9422SOL    HW229166   4.036   1.584   2.111
 9423SOL     OW29167   5.007   1.129   4.899
 9423SOL    HW129168   4.945   1.052   4.886
 9423SOL    HW229169   4.953   1.211   4.919
 9424SOL     OW29170   3.034   6.427   4.720
 9424SOL    HW129171   3.059   6.491   4.793
 9424SOL    HW229172   2.972   6.471   4.656
 9425SOL     OW29173   1.239   3.599   4.291
 9425SOL    HW129174   1.252   3.698   4.283
 9425SOL    HW229175   1.143   3.580   4.312
 9426SOL     OW29176   3.307   6.444   0.249
 9426SOL    HW129177   3.348   6.486   0.169
 9426SOL    HW229178   3.280   6.350   0.227
 9427SOL     OW29179   3.015   5.113   4.069
 9427SOL    HW129180   3.016   5.202   4.024
 9427SOL    HW229181   2.969   5.120   4.157
 9428SOL     OW29182   5.196   6.306   2.895
 9428SOL    HW129183   5.181   6.292   2.992
 9428SOL    HW229184   5.141   6.241   2.842
 9429SOL     OW29185   0.213   3.708   2.359
 9429SOL    HW129186   0.180   3.801   2.347
 9429SOL    HW229187   0.166   3.664   2.435
 9430SOL     OW29188   5.988   6.827   2.001
 9430SOL    HW129189   5.945   6.809   2.089
 9430SOL    HW229190   5.945   6.770   1.930
 9431SOL     OW29191   6.732   4.464   1.828
 9431SOL    HW129192   6.657   4.451   1.893
 9431SOL    HW229193   6.813   4.497   1.876
 9432SOL     OW29194   6.897   6.756   4.634
 9432SOL    HW129195   6.938   6.725   4.548
 9432SOL    HW229196   6.957   6.823   4.677
 9433SOL     OW29197   2.697   4.864   5.065
 9433SOL    HW129198   2.606   4.872   5.023
 9433SOL    HW229199   2.737   4.776   5.040
 9434SOL     OW29200   4.984   5.402   2.740
 9434SOL    HW129201   5.027   5.482   2.699
 9434SOL    HW229202   4.886   5.402   2.721
 9435SOL     OW29203   1.241   0.725   4.314
 9435SOL    HW129204   1.208   0.750   4.405
 9435SOL    HW229205   1.321   0.666   4.324
 9436SOL     OW29206   2.270   2.436   6.746
 9436SOL    HW129207   2.234   2.370   6.811
 9436SOL    HW229208   2.346   2.486   6.787
 9437SOL     OW29209   1.103   5.152   4.224
 9437SOL    HW129210   1.153   5.110   4.300
 9437SOL    HW229211   1.016   5.104   4.212
 9438SOL     OW29212   1.494   6.105   2.121
 9438SOL    HW129213   1.516   6.191   2.075
 9438SOL    HW229214   1.568   6.040   2.108
 9439SOL     OW29215   0.357   2.912   1.607
 9439SOL    HW129216   0.279   2.906   1.669
 9439SOL    HW229217   0.435   2.951   1.655
 9440SOL     OW29218   5.073   6.273   5.760
 9440SOL    HW129219   4.995   6.312   5.809
 9440SOL    HW229220   5.109   6.194   5.812
 9441SOL     OW29221   1.478   4.690   5.270
 9441SOL    HW129222   1.496   4.648   5.359
 9441SOL    HW229223   1.526   4.778   5.263
 9442SOL     OW29224   0.485   3.886   1.795
 9442SOL    HW129225   0.414   3.953   1.771
 9442SOL    HW229226   0.442   3.805   1.835
 9443SOL     OW29227   1.465   3.944   1.836
 9443SOL    HW129228   1.414   3.941   1.750
 9443SOL    HW229229   1.547   3.887   1.828
 9444SOL     OW29230   0.053   3.441   6.626
 9444SOL    HW129231   0.013   3.414   6.538
 9444SOL    HW229232   0.134   3.385   6.643
 9445SOL     OW29233   5.773   3.238   0.969
 9445SOL    HW129234   5.676   3.255   0.990
 9445SOL    HW229235   5.817   3.195   1.047
 9446SOL     OW29236   6.330   5.546   1.248
 9446SOL    HW129237   6.279   5.521   1.330
 9446SOL    HW229238   6.266   5.563   1.173
 9447SOL     OW29239   5.807   2.344   1.547
 9447SOL    HW129240   5.903   2.327   1.526
 9447SOL    HW229241   5.788   2.318   1.642
 9448SOL     OW29242   6.397   6.366   0.330
 9448SOL    HW129243   6.458   6.293   0.300
 9448SOL    HW229244   6.321   6.328   0.383
 9449SOL     OW29245   0.118   5.397   5.726
 9449SOL    HW129246   0.039   5.393   5.787
 9449SOL    HW229247   0.115   5.482   5.674
 9450SOL     OW29248   3.164   4.921   4.333
 9450SOL    HW129249   3.082   4.976   4.317
 9450SOL    HW229250   3.203   4.945   4.422
 9451SOL     OW29251   4.233   4.900   6.008
 9451SOL    HW129252   4.165   4.837   6.046
 9451SOL    HW229253   4.317   4.894   6.060
 9452SOL     OW29254   2.752   4.408   1.048
 9452SOL    HW129255   2.680   4.388   1.114
 9452SOL    HW229256   2.842   4.394   1.091
 9453SOL     OW29257   3.453   5.195   2.164
 9453SOL    HW129258   3.362   5.214   2.200
 9453SOL    HW229259   3.475   5.099   2.180
 9454SOL     OW29260   2.365   2.788   5.230
 9454SOL    HW129261   2.398   2.882   5.215
 9454SOL    HW229262   2.371   2.766   5.327
 9455SOL     OW29263   3.158   1.654   1.901
 9455SOL    HW129264   3.175   1.743   1.857
 9455SOL    HW229265   3.095   1.667   1.978
 9456SOL     OW29266   1.292   3.173   1.621
 9456SOL    HW129267   1.261   3.109   1.551
 9456SOL    HW229268   1.384   3.147   1.652
 9457SOL     OW29269   0.162   3.555   0.735
 9457SOL    HW129270   0.168   3.557   0.835
 9457SOL    HW229271   0.254   3.549   0.696
 9458SOL     OW29272   0.014   5.610   5.137
 9458SOL    HW129273   0.002   5.515   5.109
 9458SOL    HW229274   6.981   5.628   5.218
 9459SOL     OW29275   5.852   5.428   1.464
 9459SOL    HW129276   5.872   5.440   1.561
 9459SOL    HW229277   5.795   5.347   1.452
 9460SOL     OW29278   0.888   2.189   5.533
 9460SOL    HW129279   0.890   2.250   5.612
 9460SOL    HW229280   0.940   2.230   5.458
 9461SOL     OW29281   1.258   0.904   3.503
 9461SOL    HW129282   1.226   0.963   3.430
 9461SOL    HW229283   1.191   0.904   3.578
 9462SOL     OW29284   0.674   3.188   2.684
 9462SOL    HW129285   0.659   3.268   2.627
 9462SOL    HW229286   0.595   3.174   2.744
 9463SOL     OW29287   5.216   1.474   0.584
 9463SOL    HW129288   5.293   1.536   0.572
 9463SOL    HW229289   5.219   1.403   0.514
 9464SOL     OW29290   5.270   0.583   6.036
 9464SOL    HW129291   5.270   0.499   6.089
 9464SOL    HW229292   5.190   0.585   5.976
 9465SOL     OW29293   6.230   0.578   3.821
 9465SOL    HW129294   6.273   0.593   3.732
 9465SOL    HW229295   6.265   0.644   3.886
 9466SOL     OW29296   2.935   2.791   6.706
 9466SOL    HW129297   2.877   2.832   6.777
 9466SOL    HW229298   2.917   2.836   6.619
 9467SOL     OW29299   2.048   3.343   1.964
 9467SOL    HW129300   2.111   3.419   1.980
 9467SOL    HW229301   2.070   3.299   1.877
 9468SOL     OW29302   6.930   2.956   5.705
 9468SOL    HW129303   6.977   2.916   5.626
 9468SOL    HW229304   6.940   2.896   5.784
 9469SOL     OW29305   6.253   4.767   1.833
 9469SOL    HW129306   6.210   4.845   1.880
 9469SOL    HW229307   6.183   4.701   1.808
 9470SOL     OW29308   5.243   3.949   0.869
 9470SOL    HW129309   5.207   3.856   0.876
 9470SOL    HW229310   5.342   3.947   0.875
 9471SOL     OW29311   6.898   1.930   5.968
 9471SOL    HW129312   6.953   1.862   6.017
 9471SOL    HW229313   6.810   1.942   6.014
 9472SOL     OW29314   6.569   3.884   4.024
 9472SOL    HW129315   6.657   3.839   4.012
 9472SOL    HW229316   6.499   3.816   4.048
 9473SOL     OW29317   3.232   5.363   5.185
 9473SOL    HW129318   3.327   5.368   5.155
 9473SOL    HW229319   3.228   5.330   5.279
 9474SOL     OW29320   4.451   5.516   2.316
 9474SOL    HW129321   4.351   5.522   2.321
 9474SOL    HW229322   4.491   5.555   2.399
 9475SOL     OW29323   1.995   3.410   0.865
 9475SOL    HW129324   2.006   3.506   0.840
 9475SOL    HW229325   2.065   3.355   0.820
 9476SOL     OW29326   3.678   3.843   5.321
 9476SOL    HW129327   3.759   3.888   5.358
 9476SOL    HW229328   3.605   3.844   5.389
 9477SOL     OW29329   1.273   2.819   0.953
 9477SOL    HW129330   1.192   2.827   0.895
 9477SOL    HW229331   1.325   2.738   0.927
 9478SOL     OW29332   5.397   4.579   5.487
 9478SOL    HW129333   5.456   4.649   5.449
 9478SOL    HW229334   5.452   4.504   5.523
 9479SOL     OW29335   6.270   5.918   5.983
 9479SOL    HW129336   6.197   5.976   5.946
 9479SOL    HW229337   6.345   5.976   6.015
 9480SOL     OW29338   5.626   4.722   0.020
 9480SOL    HW129339   5.706   4.778   0.043
 9480SOL    HW229340   5.655   4.629   7.020
 9481SOL     OW29341   0.097   3.527   2.166
 9481SOL    HW129342   0.129   3.595   2.231
 9481SOL    HW229343   0.174   3.497   2.110
 9482SOL     OW29344   4.050   0.540   2.804
 9482SOL    HW129345   4.024   0.475   2.876
 9482SOL    HW229346   4.115   0.607   2.841
 9483SOL     OW29347   1.563   1.997   6.699
 9483SOL    HW129348   1.584   2.071   6.636
 9483SOL    HW229349   1.505   1.929   6.653
 9484SOL     OW29350   6.549   1.643   3.313
 9484SOL    HW129351   6.599   1.714   3.363
 9484SOL    HW229352   6.561   1.555   3.360
 9485SOL     OW29353   1.030   0.292   2.945
 9485SOL    HW129354   1.037   0.327   2.852
 9485SOL    HW229355   1.115   0.311   2.995
 9486SOL     OW29356   3.039   6.054   2.113
 9486SOL    HW129357   3.036   6.130   2.179
 9486SOL    HW229358   3.134   6.037   2.087
 9487SOL     OW29359   3.067   3.212   4.183
 9487SOL    HW129360   3.110   3.134   4.230
 9487SOL    HW229361   3.017   3.267   4.250
 9488SOL     OW29362   1.835   6.906   0.883
 9488SOL    HW129363   1.852   6.932   0.788
 9488SOL    HW229364   1.839   6.806   0.891
 9489SOL     OW29365   3.753   4.524   0.653
 9489SOL    HW129366   3.771   4.555   0.746
 9489SOL    HW229367   3.657   4.499   0.645
 9490SOL     OW29368   5.412   1.429   1.006
 9490SOL    HW129369   5.391   1.525   0.986
 9490SOL    HW229370   5.500   1.423   1.052
 9491SOL     OW29371   5.704   5.496   6.550
 9491SOL    HW129372   5.788   5.546   6.529
 9491SOL    HW229373   5.628   5.534   6.498
 9492SOL     OW29374   2.941   4.004   1.778
 9492SOL    HW129375   3.014   4.073   1.779
 9492SOL    HW229376   2.962   3.932   1.844
 9493SOL     OW29377   4.850   6.486   3.403
 9493SOL    HW129378   4.835   6.550   3.478
 9493SOL    HW229379   4.906   6.530   3.333
 9494SOL     OW29380   4.047   3.415   5.319
 9494SOL    HW129381   4.088   3.432   5.409
 9494SOL    HW229382   3.948   3.406   5.329
 9495SOL     OW29383   5.623   2.594   5.471
 9495SOL    HW129384   5.665   2.647   5.544
 9495SOL    HW229385   5.585   2.655   5.402
 9496SOL     OW29386   5.209   4.385   6.840
 9496SOL    HW129387   5.198   4.438   6.924
 9496SOL    HW229388   5.284   4.320   6.851
 9497SOL     OW29389   5.897   6.074   6.379
 9497SOL    HW129390   5.825   6.139   6.406
 9497SOL    HW229391   5.947   6.111   6.301
 9498SOL     OW29392   4.264   0.472   6.191
 9498SOL    HW129393   4.290   0.384   6.231
 9498SOL    HW229394   4.300   0.477   6.097
 9499SOL     OW29395   3.869   4.182   5.512
 9499SOL    HW129396   3.950   4.228   5.549
 9499SOL    HW229397   3.788   4.212   5.562
 9500SOL     OW29398   5.241   6.234   1.627
 9500SOL    HW129399   5.245   6.134   1.633
 9500SOL    HW229400   5.197   6.260   1.541
 9501SOL     OW29401   3.051   1.756   4.748
 9501SOL    HW129402   3.016   1.823   4.814
 9501SOL    HW229403   2.974   1.704   4.710
 9502SOL     OW29404   6.109   3.413   5.577
 9502SOL    HW129405   6.160   3.334   5.544
 9502SOL    HW229406   6.169   3.493   5.581
 9503SOL     OW29407   1.734   6.700   1.097
 9503SOL    HW129408   1.808   6.750   1.142
 9503SOL    HW229409   1.676   6.657   1.166
 9504SOL     OW29410   0.734   2.521   6.562
 9504SOL    HW129411   0.645   2.483   6.585
 9504SOL    HW229412   0.799   2.502   6.635
 9505SOL     OW29413   6.050   2.935   2.882
 9505SOL    HW129414   5.956   2.903   2.883
 9505SOL    HW229415   6.107   2.874   2.938
 9506SOL     OW29416   6.433   4.119   0.393
 9506SOL    HW129417   6.384   4.076   0.316
 9506SOL    HW229418   6.525   4.144   0.364
 9507SOL     OW29419   1.105   2.218   3.285
 9507SOL    HW129420   1.009   2.246   3.294
 9507SOL    HW229421   1.164   2.296   3.305
 9508SOL     OW29422   6.037   2.151   0.333
 9508SOL    HW129423   6.044   2.051   0.341
 9508SOL    HW229424   5.942   2.178   0.344
 9509SOL     OW29425   2.263   6.367   5.232
 9509SOL    HW129426   2.172   6.396   5.202
 9509SOL    HW229427   2.255   6.319   5.319
 9510SOL     OW29428   6.236   4.574   3.458
 9510SOL    HW129429   6.220   4.477   3.479
 9510SOL    HW229430   6.329   4.599   3.483
 9511SOL     OW29431   0.548   1.179   0.806
 9511SOL    HW129432   0.508   1.116   0.873
 9511SOL    HW229433   0.633   1.140   0.770
 9512SOL     OW29434   1.267   1.924   3.511
 9512SOL    HW129435   1.235   1.995   3.448
 9512SOL    HW229436   1.211   1.926   3.594
 9513SOL     OW29437   2.270   4.294   4.163
 9513SOL    HW129438   2.259   4.354   4.084
 9513SOL    HW229439   2.268   4.198   4.134
 9514SOL     OW29440   2.110   2.925   6.474
 9514SOL    HW129441   2.194   2.971   6.443
 9514SOL    HW229442   2.119   2.827   6.458
 9515SOL     OW29443   2.165   5.876   6.307
 9515SOL    HW129444   2.248   5.835   6.343
 9515SOL    HW229445   2.181   5.972   6.287
 9516SOL     OW29446   5.512   3.569   4.140
 9516SOL    HW129447   5.466   3.484   4.118
 9516SOL    HW229448   5.445   3.643   4.146
 9517SOL     OW29449   0.377   5.260   2.230
 9517SOL    HW129450   0.321   5.212   2.296
 9517SOL    HW229451   0.472   5.228   2.236
 9518SOL     OW29452   0.869   2.500   5.965
 9518SOL    HW129453   0.930   2.480   6.042
 9518SOL    HW229454   0.808   2.575   5.989
 9519SOL     OW29455   3.485   3.730   3.286
 9519SOL    HW129456   3.572   3.688   3.313
 9519SOL    HW229457   3.413   3.700   3.348
 9520SOL     OW29458   6.067   0.787   5.684
 9520SOL    HW129459   6.014   0.872   5.678
 9520SOL    HW229460   6.163   0.809   5.698
 9521SOL     OW29461   3.804   0.385   1.134
 9521SOL    HW129462   3.705   0.387   1.125
 9521SOL    HW229463   3.831   0.313   1.198
 9522SOL     OW29464   3.894   6.440   2.458
 9522SOL    HW129465   3.889   6.468   2.363
 9522SOL    HW229466   3.861   6.513   2.517
 9523SOL     OW29467   2.662   5.010   4.090
 9523SOL    HW129468   2.647   5.000   4.188
 9523SOL    HW229469   2.601   4.949   4.040
 9524SOL     OW29470   2.579   4.163   1.190
 9524SOL    HW129471   2.666   4.137   1.148
 9524SOL    HW229472   2.522   4.081   1.200
 9525SOL     OW29473   1.974   3.187   5.373
 9525SOL    HW129474   1.901   3.157   5.435
 9525SOL    HW229475   2.039   3.112   5.360
 9526SOL     OW29476   4.831   4.938   6.943
 9526SOL    HW129477   4.876   4.880   6.874
 9526SOL    HW229478   4.845   5.034   6.919
 9527SOL     OW29479   4.084   0.058   3.430
 9527SOL    HW129480   4.058   6.989   3.401
 9527SOL    HW229481   4.027   0.086   3.507
 9528SOL     OW29482   5.602   2.157   1.440
 9528SOL    HW129483   5.652   2.238   1.470
 9528SOL    HW229484   5.659   2.105   1.376
 9529SOL     OW29485   6.386   1.073   1.535
 9529SOL    HW129486   6.287   1.067   1.543
 9529SOL    HW229487   6.416   1.166   1.560
 9530SOL     OW29488   0.788   5.589   4.242
 9530SOL    HW129489   0.820   5.670   4.192
 9530SOL    HW229490   0.836   5.508   4.209
 9531SOL     OW29491   3.839   5.285   2.648
 9531SOL    HW129492   3.748   5.310   2.680
 9531SOL    HW229493   3.840   5.188   2.624
 9532SOL     OW29494   6.493   5.087   2.929
 9532SOL    HW129495   6.498   5.160   2.997
 9532SOL    HW229496   6.554   5.108   2.853
 9533SOL     OW29497   2.245   4.060   3.271
 9533SOL    HW129498   2.164   4.116   3.291
 9533SOL    HW229499   2.271   4.072   3.176
 9534SOL     OW29500   5.539   4.336   4.665
 9534SOL    HW129501   5.519   4.422   4.712
 9534SOL    HW229502   5.556   4.264   4.732
 9535SOL     OW29503   1.066   1.324   5.750
 9535SOL    HW129504   1.091   1.406   5.698
 9535SOL    HW229505   0.967   1.319   5.758
 9536SOL     OW29506   4.128   3.729   5.028
 9536SOL    HW129507   4.033   3.703   5.044
 9536SOL    HW229508   4.189   3.672   5.084
 9537SOL     OW29509   0.970   1.358   3.665
 9537SOL    HW129510   1.063   1.388   3.643
 9537SOL    HW229511   0.969   1.317   3.756
 9538SOL     OW29512   4.271   0.819   5.062
 9538SOL    HW129513   4.357   0.779   5.030
 9538SOL    HW229514   4.223   0.753   5.119
 9539SOL     OW29515   3.769   3.268   2.764
 9539SOL    HW129516   3.824   3.214   2.828
 9539SOL    HW229517   3.784   3.235   2.671
 9540SOL     OW29518   4.822   4.706   3.728
 9540SOL    HW129519   4.758   4.642   3.686
 9540SOL    HW229520   4.887   4.738   3.659
 9541SOL     OW29521   2.112   5.825   5.607
 9541SOL    HW129522   2.103   5.791   5.701
 9541SOL    HW229523   2.136   5.750   5.546
 9542SOL     OW29524   6.006   4.513   4.017
 9542SOL    HW129525   5.931   4.528   4.081
 9542SOL    HW229526   6.078   4.461   4.061
 9543SOL     OW29527   1.879   0.297   6.066
 9543SOL    HW129528   1.895   0.395   6.078
 9543SOL    HW229529   1.887   0.251   6.154
 9544SOL     OW29530   5.777   3.531   4.059
 9544SOL    HW129531   5.683   3.523   4.092
 9544SOL    HW229532   5.788   3.617   4.010
 9545SOL     OW29533   1.612   4.317   1.774
 9545SOL    HW129534   1.622   4.267   1.688
 9545SOL    HW229535   1.702   4.331   1.816
 9546SOL     OW29536   2.647   2.323   6.285
 9546SOL    HW129537   2.615   2.273   6.204
 9546SOL    HW229538   2.569   2.352   6.340
 9547SOL     OW29539   4.117   5.777   4.387
 9547SOL    HW129540   4.117   5.796   4.289
 9547SOL    HW229541   4.172   5.846   4.434
 9548SOL     OW29542   1.246   4.616   6.872
 9548SOL    HW129543   1.228   4.538   6.813
 9548SOL    HW229544   1.169   4.629   6.935
 9549SOL     OW29545   4.251   3.050   1.335
 9549SOL    HW129546   4.172   3.082   1.283
 9549SOL    HW229547   4.313   3.126   1.353
 9550SOL     OW29548   5.343   3.171   1.224
 9550SOL    HW129549   5.340   3.078   1.262
 9550SOL    HW229550   5.255   3.216   1.239
 9551SOL     OW29551   6.651   2.332   6.757
 9551SOL    HW129552   6.562   2.301   6.788
 9551SOL    HW229553   6.684   2.272   6.684
 9552SOL     OW29554   3.006   2.226   6.699
 9552SOL    HW129555   3.054   2.259   6.618
 9552SOL    HW229556   2.965   2.304   6.747
 9553SOL     OW29557   5.246   1.788   0.037
 9553SOL    HW129558   5.260   1.886   0.054
 9553SOL    HW229559   5.334   1.744   0.019
 9554SOL     OW29560   2.182   6.343   3.877
 9554SOL    HW129561   2.241   6.264   3.893
 9554SOL    HW229562   2.141   6.372   3.963
 9555SOL     OW29563   6.646   0.349   3.806
 9555SOL    HW129564   6.580   0.422   3.789
 9555SOL    HW229565   6.631   0.312   3.898
 9556SOL     OW29566   2.061   4.536   0.455
 9556SOL    HW129567   2.083   4.633   0.452
 9556SOL    HW229568   2.117   4.492   0.525
 9557SOL     OW29569   4.989   0.160   1.759
 9557SOL    HW129570   4.954   0.170   1.666
 9557SOL    HW229571   4.961   0.239   1.814
 9558SOL     OW29572   5.022   6.380   6.102
 9558SOL    HW129573   4.930   6.362   6.066
 9558SOL    HW229574   5.017   6.392   6.201
 9559SOL     OW29575   1.567   4.270   0.123
 9559SOL    HW129576   1.651   4.282   0.176
 9559SOL    HW229577   1.538   4.359   0.086
 9560SOL     OW29578   3.249   6.985   2.020
 9560SOL    HW129579   3.205   6.975   1.931
 9560SOL    HW229580   3.244   0.058   2.049
 9561SOL     OW29581   0.838   1.124   0.634
 9561SOL    HW129582   0.793   1.205   0.598
 9561SOL    HW229583   0.777   1.045   0.626
 9562SOL     OW29584   3.354   5.661   3.765
 9562SOL    HW129585   3.259   5.694   3.760
 9562SOL    HW229586   3.354   5.562   3.780
 9563SOL     OW29587   0.969   5.815   1.118
 9563SOL    HW129588   0.886   5.798   1.064
 9563SOL    HW229589   0.997   5.910   1.107
 9564SOL     OW29590   1.211   7.022   0.142
 9564SOL    HW129591   1.207   0.095   0.170
 9564SOL    HW229592   1.307   6.994   0.130
 9565SOL     OW29593   3.234   1.858   4.080
 9565SOL    HW129594   3.195   1.835   4.170
 9565SOL    HW229595   3.240   1.775   4.024
 9566SOL     OW29596   2.629   0.053   0.375
 9566SOL    HW129597   2.669   0.006   0.453
 9566SOL    HW229598   2.642   0.152   0.385
 9567SOL     OW29599   6.688   4.073   1.191
 9567SOL    HW129600   6.776   4.038   1.223
 9567SOL    HW229601   6.668   4.160   1.237
 9568SOL     OW29602   4.682   1.374   6.832
 9568SOL    HW129603   4.695   1.446   6.899
 9568SOL    HW229604   4.768   1.355   6.785
 9569SOL     OW29605   5.024   1.013   2.380
 9569SOL    HW129606   5.096   1.005   2.312
 9569SOL    HW229607   5.010   0.925   2.425
 9570SOL     OW29608   0.217   3.173   1.200
 9570SOL    HW129609   0.205   3.138   1.293
 9570SOL    HW229610   0.209   3.272   1.200
 9571SOL     OW29611   3.020   1.872   6.706
 9571SOL    HW129612   3.099   1.867   6.767
 9571SOL    HW229613   3.025   1.798   6.639
 9572SOL     OW29614   2.216   4.079   3.878
 9572SOL    HW129615   2.195   3.984   3.856
 9572SOL    HW229616   2.167   4.140   3.815
 9573SOL     OW29617   6.132   1.203   4.648
 9573SOL    HW129618   6.089   1.243   4.567
 9573SOL    HW229619   6.222   1.244   4.661
 9574SOL     OW29620   3.455   3.341   1.467
 9574SOL    HW129621   3.435   3.279   1.391
 9574SOL    HW229622   3.448   3.436   1.435
 9575SOL     OW29623   6.226   6.523   1.733
 9575SOL    HW129624   6.259   6.438   1.774
 9575SOL    HW229625   6.131   6.511   1.704
 9576SOL     OW29626   0.554   6.832   0.017
 9576SOL    HW129627   0.511   6.865   6.956
 9576SOL    HW229628   0.492   6.768   0.063
 9577SOL     OW29629   6.296   5.095   2.024
 9577SOL    HW129630   6.290   5.166   2.095
 9577SOL    HW229631   6.242   5.123   1.945
 9578SOL     OW29632   1.551   2.498   2.870
 9578SOL    HW129633   1.536   2.578   2.929
 9578SOL    HW229634   1.521   2.519   2.777
 9579SOL     OW29635   5.626   6.368   2.148
 9579SOL    HW129636   5.599   6.423   2.069
 9579SOL    HW229637   5.724   6.346   2.141
 9580SOL     OW29638   4.831   4.987   2.559
 9580SOL    HW129639   4.772   4.924   2.609
 9580SOL    HW229640   4.894   5.032   2.622
 9581SOL     OW29641   6.135   1.224   0.112
 9581SOL    HW129642   6.183   1.161   0.051
 9581SOL    HW229643   6.193   1.304   0.129
 9582SOL     OW29644   4.775   6.222   4.284
 9582SOL    HW129645   4.829   6.233   4.367
 9582SOL    HW229646   4.746   6.312   4.251
 9583SOL     OW29647   3.356   4.620   1.658
 9583SOL    HW129648   3.448   4.634   1.697
 9583SOL    HW229649   3.342   4.523   1.638
 9584SOL     OW29650   2.071   4.693   4.679
 9584SOL    HW129651   2.066   4.791   4.659
 9584SOL    HW229652   2.002   4.670   4.748
 9585SOL     OW29653   4.775   5.510   1.586
 9585SOL    HW129654   4.765   5.608   1.570
 9585SOL    HW229655   4.696   5.476   1.637
 9586SOL     OW29656   4.564   5.091   2.053
 9586SOL    HW129657   4.615   5.072   1.969
 9586SOL    HW229658   4.468   5.065   2.041
 9587SOL     OW29659   2.505   6.169   1.502
 9587SOL    HW129660   2.581   6.178   1.438
 9587SOL    HW229661   2.451   6.253   1.502
 9588SOL     OW29662   6.500   5.456   0.865
 9588SOL    HW129663   6.411   5.457   0.911
 9588SOL    HW229664   6.549   5.541   0.887
 9589SOL     OW29665   1.828   3.695   6.428
 9589SOL    HW129666   1.880   3.701   6.513
 9589SOL    HW229667   1.755   3.763   6.429
 9590SOL     OW29668   5.112   1.600   2.502
 9590SOL    HW129669   5.017   1.607   2.474
 9590SOL    HW229670   5.127   1.511   2.547
 9591SOL     OW29671   3.385   0.393   6.284
 9591SOL    HW129672   3.425   0.302   6.271
 9591SOL    HW229673   3.456   0.456   6.316
 9592SOL     OW29674   2.564   5.134   6.356
 9592SOL    HW129675   2.522   5.158   6.268
 9592SOL    HW229676   2.649   5.083   6.339
 9593SOL     OW29677   1.637   1.581   4.980
 9593SOL    HW129678   1.577   1.595   4.901
 9593SOL    HW229679   1.583   1.591   5.064
 9594SOL     OW29680   0.458   6.036   3.942
 9594SOL    HW129681   0.551   6.065   3.962
 9594SOL    HW229682   0.437   5.953   3.994
 9595SOL     OW29683   0.216   3.201   3.766
 9595SOL    HW129684   0.182   3.107   3.766
 9595SOL    HW229685   0.190   3.246   3.852
 9596SOL     OW29686   0.172   6.512   0.479
 9596SOL    HW129687   0.172   6.471   0.388
 9596SOL    HW229688   0.266   6.525   0.511
 9597SOL     OW29689   0.655   4.043   2.735
 9597SOL    HW129690   0.714   3.964   2.751
 9597SOL    HW229691   0.649   4.061   2.636
 9598SOL     OW29692   1.419   3.854   3.135
 9598SOL    HW129693   1.346   3.893   3.191
 9598SOL    HW229694   1.400   3.758   3.118
 9599SOL     OW29695   3.439   6.806   3.458
 9599SOL    HW129696   3.417   6.764   3.546
 9599SOL    HW229697   3.535   6.832   3.456
 9600SOL     OW29698   3.148   0.637   1.066
 9600SOL    HW129699   3.112   0.554   1.109
 9600SOL    HW229700   3.117   0.642   0.972
 9601SOL     OW29701   6.571   4.274   1.321
 9601SOL    HW129702   6.596   4.326   1.403
 9601SOL    HW229703   6.511   4.199   1.346
 9602SOL     OW29704   4.816   3.858   5.372
 9602SOL    HW129705   4.860   3.940   5.407
 9602SOL    HW229706   4.869   3.821   5.296
 9603SOL     OW29707   5.568   5.956   5.465
 9603SOL    HW129708   5.501   5.990   5.532
 9603SOL    HW229709   5.627   5.889   5.509
 9604SOL     OW29710   5.384   0.254   0.738
 9604SOL    HW129711   5.338   0.241   0.826
 9604SOL    HW229712   5.464   0.193   0.734
 9605SOL     OW29713   6.494   6.277   3.616
 9605SOL    HW129714   6.478   6.235   3.527
 9605SOL    HW229715   6.590   6.306   3.622
 9606SOL     OW29716   1.255   1.301   6.490
 9606SOL    HW129717   1.319   1.291   6.566
 9606SOL    HW229718   1.162   1.309   6.525
 9607SOL     OW29719   3.459   2.892   6.081
 9607SOL    HW129720   3.369   2.930   6.061
 9607SOL    HW229721   3.484   2.827   6.009
 9608SOL     OW29722   6.568   4.438   2.929
 9608SOL    HW129723   6.498   4.495   2.885
 9608SOL    HW229724   6.623   4.495   2.990
 9609SOL     OW29725   4.073   2.392   6.109
 9609SOL    HW129726   4.071   2.375   6.207
 9609SOL    HW229727   4.115   2.481   6.091
 9610SOL     OW29728   1.654   3.769   2.791
 9610SOL    HW129729   1.645   3.802   2.885
 9610SOL    HW229730   1.717   3.828   2.740
 9611SOL     OW29731   1.691   0.552   0.838
 9611SOL    HW129732   1.726   0.576   0.747
 9611SOL    HW229733   1.695   0.632   0.897
 9612SOL     OW29734   0.922   3.129   2.717
 9612SOL    HW129735   0.965   3.169   2.798
 9612SOL    HW229736   0.824   3.148   2.718
 9613SOL     OW29737   6.055   5.483   3.526
 9613SOL    HW129738   6.149   5.491   3.491
 9613SOL    HW229739   6.055   5.427   3.609
 9614SOL     OW29740   4.903   1.610   3.051
 9614SOL    HW129741   4.809   1.630   3.022
 9614SOL    HW229742   4.946   1.550   2.984
 9615SOL     OW29743   2.322   2.569   1.286
 9615SOL    HW129744   2.415   2.604   1.293
 9615SOL    HW229745   2.301   2.512   1.366
 9616SOL     OW29746   3.506   3.074   6.999
 9616SOL    HW129747   3.449   3.155   7.014
 9616SOL    HW229748   3.451   2.991   7.013
 9617SOL     OW29749   2.374   2.780   4.138
 9617SOL    HW129750   2.375   2.696   4.193
 9617SOL    HW229751   2.300   2.839   4.169
 9618SOL     OW29752   3.149   0.962   0.685
 9618SOL    HW129753   3.060   1.006   0.693
 9618SOL    HW229754   3.211   1.001   0.753
 9619SOL     OW29755   2.547   1.219   5.291
 9619SOL    HW129756   2.465   1.208   5.348
 9619SOL    HW229757   2.605   1.138   5.300
 9620SOL     OW29758   5.479   6.818   5.042
 9620SOL    HW129759   5.538   6.890   5.080
 9620SOL    HW229760   5.434   6.770   5.116
 9621SOL     OW29761   1.734   2.661   2.612
 9621SOL    HW129762   1.635   2.649   2.599
 9621SOL    HW229763   1.755   2.759   2.619
 9622SOL     OW29764   6.102   0.662   1.068
 9622SOL    HW129765   6.124   0.759   1.082
 9622SOL    HW229766   6.131   0.635   0.976
 9623SOL     OW29767   3.664   3.312   6.301
 9623SOL    HW129768   3.653   3.219   6.338
 9623SOL    HW229769   3.608   3.375   6.355
 9624SOL     OW29770   6.023   3.221   2.858
 9624SOL    HW129771   6.006   3.124   2.876
 9624SOL    HW229772   5.993   3.275   2.937
 9625SOL     OW29773   6.274   6.174   0.535
 9625SOL    HW129774   6.310   6.126   0.455
 9625SOL    HW229775   6.329   6.150   0.615
 9626SOL     OW29776   3.788   6.140   6.556
 9626SOL    HW129777   3.844   6.149   6.474
 9626SOL    HW229778   3.701   6.097   6.533
 9627SOL     OW29779   1.517   6.251   6.360
 9627SOL    HW129780   1.496   6.309   6.281
 9627SOL    HW229781   1.615   6.234   6.364
 9628SOL     OW29782   4.436   6.019   1.385
 9628SOL    HW129783   4.475   6.105   1.421
 9628SOL    HW229784   4.340   6.013   1.412
 9629SOL     OW29785   2.882   6.561   1.399
 9629SOL    HW129786   2.816   6.606   1.459
 9629SOL    HW229787   2.973   6.598   1.416
 9630SOL     OW29788   6.552   0.279   5.764
 9630SOL    HW129789   6.592   0.370   5.749
 9630SOL    HW229790   6.452   0.286   5.764
 9631SOL     OW29791   6.559   6.463   6.466
 9631SOL    HW129792   6.624   6.467   6.542
 9631SOL    HW229793   6.479   6.519   6.488
 9632SOL     OW29794   1.627   6.675   1.903
 9632SOL    HW129795   1.527   6.673   1.907
 9632SOL    HW229796   1.664   6.683   1.996
 9633SOL     OW29797   6.649   5.430   6.119
 9633SOL    HW129798   6.650   5.530   6.125
 9633SOL    HW229799   6.578   5.395   6.181
 9634SOL     OW29800   0.520   6.547   4.335
 9634SOL    HW129801   0.546   6.612   4.264
 9634SOL    HW229802   0.557   6.577   4.423
 9635SOL     OW29803   2.501   5.185   4.856
 9635SOL    HW129804   2.410   5.208   4.823
 9635SOL    HW229805   2.564   5.260   4.836
 9636SOL     OW29806   4.407   1.365   5.325
 9636SOL    HW129807   4.414   1.464   5.311
 9636SOL    HW229808   4.315   1.342   5.356
 9637SOL     OW29809   2.407   1.901   6.966
 9637SOL    HW129810   2.338   1.909   0.015
 9637SOL    HW229811   2.472   1.828   6.990
 9638SOL     OW29812   6.432   2.515   5.119
 9638SOL    HW129813   6.474   2.430   5.088
 9638SOL    HW229814   6.493   2.561   5.183
 9639SOL     OW29815   4.068   1.308   2.656
 9639SOL    HW129816   4.074   1.331   2.559
 9639SOL    HW229817   3.972   1.309   2.685
 9640SOL     OW29818   2.082   2.195   2.700
 9640SOL    HW129819   2.090   2.165   2.795
 9640SOL    HW229820   1.986   2.215   2.679
 9641SOL     OW29821   6.307   6.038   0.300
 9641SOL    HW129822   6.277   6.071   0.211
 9641SOL    HW229823   6.272   5.946   0.315
 9642SOL     OW29824   2.824   0.664   4.484
 9642SOL    HW129825   2.742   0.722   4.486
 9642SOL    HW229826   2.888   0.699   4.416
 9643SOL     OW29827   4.614   4.634   3.406
 9643SOL    HW129828   4.545   4.590   3.463
 9643SOL    HW229829   4.655   4.565   3.345
 9644SOL     OW29830   1.943   2.252   6.264
 9644SOL    HW129831   1.976   2.192   6.191
 9644SOL    HW229832   1.969   2.216   6.353
 9645SOL     OW29833   3.020   5.181   4.935
 9645SOL    HW129834   3.061   5.167   5.025
 9645SOL    HW229835   3.090   5.207   4.869
 9646SOL     OW29836   3.960   4.824   2.631
 9646SOL    HW129837   3.887   4.891   2.643
 9646SOL    HW229838   3.928   4.751   2.571
 9647SOL     OW29839   6.596   3.419   0.652
 9647SOL    HW129840   6.669   3.487   0.640
 9647SOL    HW229841   6.513   3.451   0.607
 9648SOL     OW29842   4.651   3.135   0.689
 9648SOL    HW129843   4.626   3.121   0.785
 9648SOL    HW229844   4.683   3.229   0.676
 9649SOL     OW29845   2.097   5.967   0.704
 9649SOL    HW129846   2.041   5.889   0.733
 9649SOL    HW229847   2.077   6.045   0.763
 9650SOL     OW29848   0.089   6.392   1.684
 9650SOL    HW129849   0.039   6.409   1.769
 9650SOL    HW229850   0.154   6.317   1.698
 9651SOL     OW29851   0.525   1.180   6.265
 9651SOL    HW129852   0.586   1.259   6.257
 9651SOL    HW229853   0.497   1.151   6.174
 9652SOL     OW29854   0.479   5.671   2.812
 9652SOL    HW129855   0.407   5.603   2.805
 9652SOL    HW229856   0.549   5.652   2.743
 9653SOL     OW29857   5.653   5.184   4.439
 9653SOL    HW129858   5.581   5.190   4.369
 9653SOL    HW229859   5.687   5.090   4.444
 9654SOL     OW29860   2.256   2.624   1.921
 9654SOL    HW129861   2.156   2.632   1.925
 9654SOL    HW229862   2.287   2.644   1.828
 9655SOL     OW29863   6.548   2.308   0.210
 9655SOL    HW129864   6.473   2.262   0.257
 9655SOL    HW229865   6.625   2.319   0.272
 9656SOL     OW29866   3.352   0.838   2.914
 9656SOL    HW129867   3.450   0.853   2.905
 9656SOL    HW229868   3.334   0.751   2.958
 9657SOL     OW29869   6.547   0.150   4.501
 9657SOL    HW129870   6.639   0.165   4.540
 9657SOL    HW229871   6.518   0.057   4.521
 9658SOL     OW29872   6.614   2.632   2.436
 9658SOL    HW129873   6.604   2.548   2.489
 9658SOL    HW229874   6.531   2.687   2.444
 9659SOL     OW29875   0.632   4.509   6.988
 9659SOL    HW129876   0.715   4.498   0.019
 9659SOL    HW229877   0.560   4.450   0.001
 9660SOL     OW29878   0.723   4.796   0.046
 9660SOL    HW129879   0.750   4.763   0.136
 9660SOL    HW229880   0.624   4.802   0.040
 9661SOL     OW29881   4.176   6.860   1.063
 9661SOL    HW129882   4.228   6.787   1.018
 9661SOL    HW229883   4.239   6.925   1.106
 9662SOL     OW29884   6.249   0.996   4.537
 9662SOL    HW129885   6.199   1.043   4.609
 9662SOL    HW229886   6.203   1.011   4.449
 9663SOL     OW29887   2.744   5.597   2.385
 9663SOL    HW129888   2.661   5.545   2.406
 9663SOL    HW229889   2.745   5.622   2.288
 9664SOL     OW29890   3.385   6.285   2.241
 9664SOL    HW129891   3.308   6.333   2.283
 9664SOL    HW229892   3.352   6.202   2.196
 9665SOL     OW29893   5.963   4.552   4.490
 9665SOL    HW129894   5.868   4.525   4.507
 9665SOL    HW229895   6.021   4.471   4.484
 9666SOL     OW29896   5.614   4.663   3.959
 9666SOL    HW129897   5.673   4.634   3.885
 9666SOL    HW229898   5.553   4.589   3.985
 9667SOL     OW29899   4.187   3.552   4.019
 9667SOL    HW129900   4.282   3.583   4.023
 9667SOL    HW229901   4.153   3.537   4.111
 9668SOL     OW29902   0.358   0.601   5.751
 9668SOL    HW129903   0.395   0.694   5.747
 9668SOL    HW229904   0.286   0.597   5.820
 9669SOL     OW29905   1.542   5.778   0.636
 9669SOL    HW129906   1.525   5.848   0.705
 9669SOL    HW229907   1.455   5.742   0.602
 9670SOL     OW29908   5.488   5.090   0.144
 9670SOL    HW129909   5.407   5.128   0.188
 9670SOL    HW229910   5.478   5.097   0.044
 9671SOL     OW29911   6.916   6.240   5.738
 9671SOL    HW129912   6.986   6.297   5.782
 9671SOL    HW229913   6.946   6.214   5.647
 9672SOL     OW29914   0.264   6.641   4.379
 9672SOL    HW129915   0.354   6.617   4.413
 9672SOL    HW229916   0.217   6.559   4.347
 9673SOL     OW29917   3.001   3.516   6.328
 9673SOL    HW129918   2.921   3.576   6.325
 9673SOL    HW229919   2.995   3.456   6.408
 9674SOL     OW29920   3.357   6.552   2.575
 9674SOL    HW129921   3.425   6.561   2.648
 9674SOL    HW229922   3.373   6.623   2.506
 9675SOL     OW29923   6.785   2.628   2.021
 9675SOL    HW129924   6.804   2.531   2.004
 9675SOL    HW229925   6.871   2.679   2.028
 9676SOL     OW29926   7.009   3.534   4.565
 9676SOL    HW129927   7.014   3.605   4.495
 9676SOL    HW229928   7.009   3.444   4.521
 9677SOL     OW29929   1.688   3.143   5.974
 9677SOL    HW129930   1.643   3.057   5.952
 9677SOL    HW229931   1.662   3.172   6.066
 9678SOL     OW29932   3.281   3.273   3.284
 9678SOL    HW129933   3.376   3.255   3.311
 9678SOL    HW229934   3.235   3.187   3.264
 9679SOL     OW29935   0.835   3.448   1.831
 9679SOL    HW129936   0.928   3.421   1.806
 9679SOL    HW229937   0.836   3.491   1.921
 9680SOL     OW29938   5.857   5.617   3.340
 9680SOL    HW129939   5.882   5.566   3.258
 9680SOL    HW229940   5.917   5.590   3.416
 9681SOL     OW29941   1.911   1.005   3.169
 9681SOL    HW129942   1.858   0.931   3.128
 9681SOL    HW229943   1.969   0.969   3.242
 9682SOL     OW29944   6.236   4.137   2.851
 9682SOL    HW129945   6.226   4.229   2.813
 9682SOL    HW229946   6.316   4.093   2.810
 9683SOL     OW29947   4.964   5.536   0.080
 9683SOL    HW129948   4.965   5.569   7.009
 9683SOL    HW229949   4.989   5.611   0.141
 9684SOL     OW29950   0.984   3.375   4.739
 9684SOL    HW129951   0.985   3.451   4.804
 9684SOL    HW229952   1.015   3.292   4.785
 9685SOL     OW29953   1.814   2.570   7.022
 9685SOL    HW129954   1.811   2.623   0.083
 9685SOL    HW229955   1.893   2.598   6.968
 9686SOL     OW29956   5.912   0.657   1.475
 9686SOL    HW129957   5.877   0.654   1.382
 9686SOL    HW229958   5.883   0.742   1.519
 9687SOL     OW29959   3.341   0.276   4.104
 9687SOL    HW129960   3.400   0.274   4.185
 9687SOL    HW229961   3.293   0.189   4.096
 9688SOL     OW29962   0.074   1.499   2.622
 9688SOL    HW129963   0.077   1.457   2.532
 9688SOL    HW229964   0.079   1.599   2.613
 9689SOL     OW29965   2.278   6.321   6.119
 9689SOL    HW129966   2.276   6.258   6.197
 9689SOL    HW229967   2.251   6.271   6.037
 9690SOL     OW29968   6.183   4.261   1.382
 9690SOL    HW129969   6.228   4.329   1.323
 9690SOL    HW229970   6.088   4.249   1.353
 9691SOL     OW29971   1.949   4.134   1.958
 9691SOL    HW129972   2.039   4.146   1.999
 9691SOL    HW229973   1.945   4.183   1.871
 9692SOL     OW29974   2.433   5.752   1.565
 9692SOL    HW129975   2.434   5.726   1.469
 9692SOL    HW229976   2.525   5.778   1.594
 9693SOL     OW29977   6.201   6.004   1.726
 9693SOL    HW129978   6.118   6.061   1.725
 9693SOL    HW229979   6.233   5.992   1.632
 9694SOL     OW29980   2.231   2.689   0.093
 9694SOL    HW129981   2.276   2.705   0.005
 9694SOL    HW229982   2.203   2.593   0.100
 9695SOL     OW29983   6.361   4.053   1.328
 9695SOL    HW129984   6.296   4.127   1.346
 9695SOL    HW229985   6.343   3.977   1.391
 9696SOL     OW29986   4.004   3.444   1.355
 9696SOL    HW129987   4.051   3.522   1.395
 9696SOL    HW229988   3.968   3.386   1.429
 9697SOL     OW29989   0.997   5.890   0.553
 9697SOL    HW129990   0.976   5.848   0.641
 9697SOL    HW229991   0.924   5.954   0.529
 9698SOL     OW29992   5.998   1.980   5.037
 9698SOL    HW129993   6.033   2.056   4.983
 9698SOL    HW229994   5.910   1.950   5.001
 9699SOL     OW29995   1.834   3.321   0.206
 9699SOL    HW129996   1.876   3.247   0.153
 9699SOL    HW229997   1.738   3.330   0.181
 9700SOL     OW29998   3.368   4.124   4.814
 9700SOL    HW129999   3.416   4.144   4.899
 9700SOL    HW230000   3.301   4.051   4.830
 9701SOL     OW30001   5.382   4.799   5.221
 9701SOL    HW130002   5.340   4.795   5.130
 9701SOL    HW230003   5.411   4.893   5.240
 9702SOL     OW30004   4.263   0.614   1.007
 9702SOL    HW130005   4.279   0.712   1.021
 9702SOL    HW230006   4.182   0.601   0.950
 9703SOL     OW30007   3.028   6.461   4.024
 9703SOL    HW130008   3.062   6.474   4.117
 9703SOL    HW230009   3.088   6.399   3.974
 9704SOL     OW30010   3.254   0.400   3.221
 9704SOL    HW130011   3.231   0.463   3.147
 9704SOL    HW230012   3.352   0.403   3.238
 9705SOL     OW30013   3.626   3.886   0.481
 9705SOL    HW130014   3.554   3.855   0.419
 9705SOL    HW230015   3.709   3.833   0.465
 9706SOL     OW30016   5.129   3.140   2.786
 9706SOL    HW130017   5.200   3.174   2.725
 9706SOL    HW230018   5.047   3.197   2.775
 9707SOL     OW30019   2.849   5.313   2.535
 9707SOL    HW130020   2.795   5.357   2.463
 9707SOL    HW230021   2.922   5.375   2.565
 9708SOL     OW30022   2.338   1.609   3.166
 9708SOL    HW130023   2.268   1.538   3.166
 9708SOL    HW230024   2.389   1.605   3.080
 9709SOL     OW30025   1.969   5.801   2.726
 9709SOL    HW130026   1.990   5.876   2.789
 9709SOL    HW230027   1.950   5.718   2.779
 9710SOL     OW30028   0.472   0.638   3.090
 9710SOL    HW130029   0.471   0.538   3.094
 9710SOL    HW230030   0.381   0.671   3.065
 9711SOL     OW30031   0.986   4.000   5.245
 9711SOL    HW130032   0.945   3.909   5.250
 9711SOL    HW230033   1.080   3.992   5.211
 9712SOL     OW30034   5.400   2.136   4.135
 9712SOL    HW130035   5.338   2.152   4.057
 9712SOL    HW230036   5.440   2.222   4.164
 9713SOL     OW30037   6.855   4.999   2.605
 9713SOL    HW130038   6.777   4.950   2.565
 9713SOL    HW230039   6.932   4.997   2.541
 9714SOL     OW30040   1.965   2.229   1.566
 9714SOL    HW130041   1.951   2.323   1.596
 9714SOL    HW230042   1.966   2.225   1.466
 9715SOL     OW30043   4.656   5.585   5.025
 9715SOL    HW130044   4.665   5.674   4.980
 9715SOL    HW230045   4.587   5.591   5.097
 9716SOL     OW30046   4.235   2.038   6.573
 9716SOL    HW130047   4.251   1.939   6.570
 9716SOL    HW230048   4.278   2.081   6.494
 9717SOL     OW30049   5.682   5.502   3.764
 9717SOL    HW130050   5.593   5.478   3.801
 9717SOL    HW230051   5.682   5.487   3.665
 9718SOL     OW30052   4.418   3.306   1.404
 9718SOL    HW130053   4.378   3.347   1.486
 9718SOL    HW230054   4.403   3.367   1.326
 9719SOL     OW30055   0.616   1.684   6.978
 9719SOL    HW130056   0.550   1.749   7.017
 9719SOL    HW230057   0.691   1.669   0.019
 9720SOL     OW30058   6.783   0.309   2.151
 9720SOL    HW130059   6.879   0.293   2.130
 9720SOL    HW230060   6.772   0.321   2.250
 9721SOL     OW30061   6.723   4.117   2.598
 9721SOL    HW130062   6.638   4.134   2.548
 9721SOL    HW230063   6.736   4.190   2.665
 9722SOL     OW30064   1.010   0.206   3.964
 9722SOL    HW130065   1.024   0.122   4.016
 9722SOL    HW230066   1.076   0.211   3.889
 9723SOL     OW30067   6.918   1.113   3.498
 9723SOL    HW130068   6.906   1.061   3.582
 9723SOL    HW230069   7.006   1.161   3.500
 9724SOL     OW30070   3.414   2.560   1.456
 9724SOL    HW130071   3.445   2.651   1.431
 9724SOL    HW230072   3.464   2.529   1.537
 9725SOL     OW30073   4.168   3.468   5.574
 9725SOL    HW130074   4.099   3.492   5.642
 9725SOL    HW230075   4.251   3.522   5.590
 9726SOL     OW30076   4.919   6.673   4.877
 9726SOL    HW130077   4.905   6.743   4.807
 9726SOL    HW230078   5.017   6.661   4.893
 9727SOL     OW30079   1.626   2.504   5.643
 9727SOL    HW130080   1.528   2.486   5.648
 9727SOL    HW230081   1.663   2.511   5.736
 9728SOL     OW30082   2.945   5.589   6.889
 9728SOL    HW130083   3.045   5.581   6.896
 9728SOL    HW230084   2.904   5.574   6.979
 9729SOL     OW30085   3.081   5.014   2.723
 9729SOL    HW130086   3.076   5.090   2.789
 9729SOL    HW230087   3.027   5.037   2.642
 9730SOL     OW30088   6.423   3.214   2.748
 9730SOL    HW130089   6.326   3.191   2.737
 9730SOL    HW230090   6.472   3.190   2.664
 9731SOL     OW30091   3.999   4.855   1.063
 9731SOL    HW130092   3.910   4.882   1.101
 9731SOL    HW230093   3.995   4.861   0.963
 9732SOL     OW30094   6.438   6.638   2.522
 9732SOL    HW130095   6.381   6.672   2.447
 9732SOL    HW230096   6.388   6.647   2.608
 9733SOL     OW30097   5.233   4.504   6.372
 9733SOL    HW130098   5.308   4.438   6.381
 9733SOL    HW230099   5.154   4.471   6.423
 9734SOL     OW30100   5.336   2.525   4.758
 9734SOL    HW130101   5.296   2.576   4.834
 9734SOL    HW230102   5.294   2.434   4.754
 9735SOL     OW30103   1.535   4.477   1.150
 9735SOL    HW130104   1.533   4.446   1.245
 9735SOL    HW230105   1.493   4.408   1.091
 9736SOL     OW30106   3.383   1.001   0.556
 9736SOL    HW130107   3.295   0.955   0.567
 9736SOL    HW230108   3.396   1.067   0.630
 9737SOL     OW30109   4.075   2.190   5.079
 9737SOL    HW130110   4.118   2.279   5.064
 9737SOL    HW230111   3.991   2.202   5.131
 9738SOL     OW30112   1.463   0.581   2.658
 9738SOL    HW130113   1.367   0.574   2.630
 9738SOL    HW230114   1.520   0.528   2.596
 9739SOL     OW30115   5.332   4.719   1.556
 9739SOL    HW130116   5.337   4.819   1.552
 9739SOL    HW230117   5.307   4.690   1.648
 9740SOL     OW30118   6.689   4.624   3.310
 9740SOL    HW130119   6.783   4.623   3.346
 9740SOL    HW230120   6.689   4.665   3.219
 9741SOL     OW30121   4.725   2.239   1.932
 9741SOL    HW130122   4.657   2.305   1.900
 9741SOL    HW230123   4.796   2.287   1.984
 9742SOL     OW30124   5.066   1.722   4.215
 9742SOL    HW130125   4.986   1.663   4.204
 9742SOL    HW230126   5.063   1.796   4.148
 9743SOL     OW30127   1.631   2.820   6.099
 9743SOL    HW130128   1.595   2.732   6.131
 9743SOL    HW230129   1.555   2.883   6.083
 9744SOL     OW30130   1.655   0.645   1.992
 9744SOL    HW130131   1.620   0.566   2.043
 9744SOL    HW230132   1.683   0.717   2.055
 9745SOL     OW30133   6.977   2.482   5.261
 9745SOL    HW130134   6.895   2.432   5.286
 9745SOL    HW230135   7.006   2.539   5.338
 9746SOL     OW30136   5.961   1.118   4.883
 9746SOL    HW130137   6.021   1.134   4.961
 9746SOL    HW230138   6.004   1.152   4.800
 9747SOL     OW30139   0.419   6.836   6.723
 9747SOL    HW130140   0.507   6.878   6.702
 9747SOL    HW230141   0.433   6.741   6.752
 9748SOL     OW30142   0.106   5.972   4.189
 9748SOL    HW130143   0.194   5.930   4.167
 9748SOL    HW230144   0.095   5.977   4.289
 9749SOL     OW30145   0.444   4.695   4.230
 9749SOL    HW130146   0.484   4.779   4.194
 9749SOL    HW230147   0.347   4.692   4.205
 9750SOL     OW30148   4.240   4.714   3.471
 9750SOL    HW130149   4.291   4.738   3.389
 9750SOL    HW230150   4.264   4.620   3.498
 9751SOL     OW30151   2.072   2.432   0.667
 9751SOL    HW130152   2.026   2.366   0.727
 9751SOL    HW230153   2.022   2.436   0.580
 9752SOL     OW30154   3.967   1.439   5.746
 9752SOL    HW130155   3.883   1.390   5.724
 9752SOL    HW230156   3.947   1.536   5.757
 9753SOL     OW30157   0.456   5.643   5.428
 9753SOL    HW130158   0.438   5.649   5.527
 9753SOL    HW230159   0.390   5.583   5.385
 9754SOL     OW30160   0.923   1.545   6.324
 9754SOL    HW130161   0.905   1.627   6.378
 9754SOL    HW230162   0.990   1.565   6.253
 9755SOL     OW30163   3.939   4.793   5.326
 9755SOL    HW130164   3.855   4.814   5.276
 9755SOL    HW230165   4.017   4.837   5.280
 9756SOL     OW30166   6.125   2.853   6.405
 9756SOL    HW130167   6.163   2.774   6.453
 9756SOL    HW230168   6.179   2.872   6.323
 9757SOL     OW30169   6.184   2.371   3.673
 9757SOL    HW130170   6.150   2.295   3.619
 9757SOL    HW230171   6.263   2.412   3.628
 9758SOL     OW30172   2.765   0.332   6.762
 9758SOL    HW130173   2.865   0.336   6.761
 9758SOL    HW230174   2.736   0.237   6.747
 9759SOL     OW30175   3.591   5.916   0.888
 9759SOL    HW130176   3.644   5.932   0.805
 9759SOL    HW230177   3.494   5.912   0.865
 9760SOL     OW30178   5.451   4.450   5.912
 9760SOL    HW130179   5.480   4.409   5.998
 9760SOL    HW230180   5.532   4.464   5.854
 9761SOL     OW30181   5.751   5.449   1.763
 9761SOL    HW130182   5.787   5.538   1.733
 9761SOL    HW230183   5.653   5.445   1.743
 9762SOL     OW30184   2.305   1.638   4.973
 9762SOL    HW130185   2.226   1.678   4.926
 9762SOL    HW230186   2.322   1.546   4.936
 9763SOL     OW30187   2.497   1.520   1.248
 9763SOL    HW130188   2.459   1.599   1.200
 9763SOL    HW230189   2.555   1.551   1.323
 9764SOL     OW30190   1.480   2.353   2.091
 9764SOL    HW130191   1.557   2.322   2.148
 9764SOL    HW230192   1.417   2.406   2.147
 9765SOL     OW30193   0.330   1.538   5.603
 9765SOL    HW130194   0.288   1.584   5.682
 9765SOL    HW230195   0.365   1.608   5.540
 9766SOL     OW30196   2.544   0.711   2.541
 9766SOL    HW130197   2.612   0.784   2.548
 9766SOL    HW230198   2.515   0.702   2.445
 9767SOL     OW30199   5.008   0.644   5.344
 9767SOL    HW130200   4.987   0.548   5.327
 9767SOL    HW230201   5.098   0.651   5.386
 9768SOL     OW30202   4.655   2.615   2.807
 9768SOL    HW130203   4.673   2.708   2.778
 9768SOL    HW230204   4.658   2.610   2.907
 9769SOL     OW30205   0.638   1.859   1.438
 9769SOL    HW130206   0.709   1.822   1.498
 9769SOL    HW230207   0.672   1.865   1.345
 9770SOL     OW30208   5.854   4.968   5.965
 9770SOL    HW130209   5.812   5.058   5.981
 9770SOL    HW230210   5.836   4.908   6.043
 9771SOL     OW30211   4.018   6.034   5.858
 9771SOL    HW130212   4.115   6.010   5.864
 9771SOL    HW230213   3.986   6.021   5.765
 9772SOL     OW30214   6.730   0.327   1.659
 9772SOL    HW130215   6.637   0.322   1.696
 9772SOL    HW230216   6.791   0.268   1.711
 9773SOL     OW30217   5.804   5.759   3.103
 9773SOL    HW130218   5.823   5.855   3.085
 9773SOL    HW230219   5.779   5.746   3.199
 9774SOL     OW30220   0.429   5.141   3.295
 9774SOL    HW130221   0.436   5.220   3.357
 9774SOL    HW230222   0.397   5.172   3.205
 9775SOL     OW30223   2.330   2.537   4.246
 9775SOL    HW130224   2.395   2.523   4.320
 9775SOL    HW230225   2.306   2.449   4.205
 9776SOL     OW30226   0.341   5.474   4.542
 9776SOL    HW130227   0.422   5.453   4.597
 9776SOL    HW230228   0.368   5.485   4.446
 9777SOL     OW30229   5.571   4.884   6.369
 9777SOL    HW130230   5.571   4.847   6.276
 9777SOL    HW230231   5.601   4.979   6.368
 9778SOL     OW30232   4.244   0.759   2.851
 9778SOL    HW130233   4.263   0.855   2.871
 9778SOL    HW230234   4.322   0.703   2.878
 9779SOL     OW30235   2.643   2.132   6.081
 9779SOL    HW130236   2.669   2.040   6.109
 9779SOL    HW230237   2.684   2.153   5.992
 9780SOL     OW30238   3.701   4.469   0.100
 9780SOL    HW130239   3.684   4.485   0.197
 9780SOL    HW230240   3.679   4.553   0.049
 9781SOL     OW30241   1.883   4.887   4.410
 9781SOL    HW130242   1.889   4.967   4.469
 9781SOL    HW230243   1.954   4.892   4.339
 9782SOL     OW30244   6.795   0.188   1.401
 9782SOL    HW130245   6.795   0.241   1.486
 9782SOL    HW230246   6.733   0.231   1.336
 9783SOL     OW30247   4.749   1.152   2.613
 9783SOL    HW130248   4.740   1.242   2.570
 9783SOL    HW230249   4.843   1.138   2.641
 9784SOL     OW30250   4.831   1.099   4.013
 9784SOL    HW130251   4.903   1.095   4.082
 9784SOL    HW230252   4.742   1.081   4.056
 9785SOL     OW30253   0.680   3.046   1.575
 9785SOL    HW130254   0.773   3.039   1.539
 9785SOL    HW230255   0.671   2.991   1.657
 9786SOL     OW30256   2.713   6.855   4.777
 9786SOL    HW130257   2.643   6.790   4.748
 9786SOL    HW230258   2.789   6.805   4.821
 9787SOL     OW30259   5.465   4.352   1.657
 9787SOL    HW130260   5.519   4.284   1.706
 9787SOL    HW230261   5.500   4.362   1.564
 9788SOL     OW30262   0.495   1.058   5.430
 9788SOL    HW130263   0.408   1.080   5.474
 9788SOL    HW230264   0.480   1.040   5.333
 9789SOL     OW30265   2.094   5.785   4.650
 9789SOL    HW130266   2.096   5.694   4.691
 9789SOL    HW230267   2.007   5.829   4.671
 9790SOL     OW30268   6.564   1.915   4.523
 9790SOL    HW130269   6.504   1.872   4.590
 9790SOL    HW230270   6.610   1.994   4.565
 9791SOL     OW30271   1.094   2.521   0.975
 9791SOL    HW130272   1.153   2.473   1.040
 9791SOL    HW230273   1.142   2.530   0.887
 9792SOL     OW30274   4.974   5.767   2.180
 9792SOL    HW130275   4.954   5.714   2.098
 9792SOL    HW230276   4.898   5.829   2.199
 9793SOL     OW30277   4.530   6.128   2.616
 9793SOL    HW130278   4.603   6.104   2.552
 9793SOL    HW230279   4.570   6.160   2.702
 9794SOL     OW30280   3.612   3.104   6.690
 9794SOL    HW130281   3.699   3.082   6.735
 9794SOL    HW230282   3.551   3.025   6.695
 9795SOL     OW30283   2.017   3.713   4.304
 9795SOL    HW130284   2.079   3.732   4.379
 9795SOL    HW230285   1.956   3.638   4.329
 9796SOL     OW30286   3.374   5.495   0.183
 9796SOL    HW130287   3.428   5.560   0.130
 9796SOL    HW230288   3.291   5.539   0.216
 9797SOL     OW30289   4.984   2.887   5.173
 9797SOL    HW130290   4.934   2.800   5.165
 9797SOL    HW230291   4.918   2.961   5.187
 9798SOL     OW30292   1.781   2.334   1.860
 9798SOL    HW130293   1.841   2.325   1.940
 9798SOL    HW230294   1.826   2.392   1.792
 9799SOL     OW30295   3.053   3.806   1.934
 9799SOL    HW130296   3.087   3.724   1.886
 9799SOL    HW230297   3.036   3.783   2.030
 9800SOL     OW30298   4.212   5.600   6.465
 9800SOL    HW130299   4.179   5.548   6.386
 9800SOL    HW230300   4.312   5.606   6.461
 9801SOL     OW30301   4.532   4.672   6.897
 9801SOL    HW130302   4.475   4.689   6.977
 9801SOL    HW230303   4.529   4.751   6.836
 9802SOL     OW30304   6.982   3.601   1.391
 9802SOL    HW130305   6.899   3.608   1.336
 9802SOL    HW230306   7.003   3.690   1.431
 9803SOL     OW30307   6.046   0.996   6.485
 9803SOL    HW130308   6.121   1.051   6.521
 9803SOL    HW230309   6.073   0.956   6.397
 9804SOL     OW30310   5.347   5.313   4.460
 9804SOL    HW130311   5.447   5.309   4.459
 9804SOL    HW230312   5.316   5.384   4.396
 9805SOL     OW30313   3.267   4.389   0.109
 9805SOL    HW130314   3.264   4.473   0.164
 9805SOL    HW230315   3.263   4.413   0.012
 9806SOL     OW30316   6.260   1.988   2.747
 9806SOL    HW130317   6.279   2.069   2.692
 9806SOL    HW230318   6.299   1.908   2.702
 9807SOL     OW30319   3.400   2.628   0.594
 9807SOL    HW130320   3.419   2.726   0.585
 9807SOL    HW230321   3.416   2.583   0.506
 9808SOL     OW30322   0.879   1.443   4.903
 9808SOL    HW130323   0.797   1.413   4.854
 9808SOL    HW230324   0.957   1.442   4.840
 9809SOL     OW30325   1.224   0.789   4.797
 9809SOL    HW130326   1.182   0.712   4.846
 9809SOL    HW230327   1.277   0.844   4.862
 9810SOL     OW30328   3.954   0.832   3.863
 9810SOL    HW130329   4.020   0.861   3.932
 9810SOL    HW230330   3.937   0.906   3.798
 9811SOL     OW30331   1.218   6.670   2.565
 9811SOL    HW130332   1.157   6.697   2.639
 9811SOL    HW230333   1.173   6.600   2.509
 9812SOL     OW30334   4.948   2.642   5.492
 9812SOL    HW130335   4.977   2.609   5.581
 9812SOL    HW230336   5.028   2.671   5.439
 9813SOL     OW30337   6.501   4.755   0.448
 9813SOL    HW130338   6.533   4.683   0.509
 9813SOL    HW230339   6.545   4.842   0.474
 9814SOL     OW30340   0.094   0.064   5.563
 9814SOL    HW130341   0.098   6.991   5.589
 9814SOL    HW230342   0.178   0.090   5.516
 9815SOL     OW30343   6.493   4.154   3.045
 9815SOL    HW130344   6.557   4.102   2.988
 9815SOL    HW230345   6.483   4.246   3.009
 9816SOL     OW30346   0.104   0.076   6.031
 9816SOL    HW130347   0.013   0.036   6.021
 9816SOL    HW230348   0.166   0.008   6.071
 9817SOL     OW30349   2.925   0.055   6.820
 9817SOL    HW130350   2.938   7.006   6.888
 9817SOL    HW230351   2.911   0.013   6.730
 9818SOL     OW30352   0.856   6.648   3.374
 9818SOL    HW130353   0.871   6.590   3.294
 9818SOL    HW230354   0.760   6.644   3.400
 9819SOL     OW30355   6.765   3.149   4.454
 9819SOL    HW130356   6.773   3.051   4.432
 9819SOL    HW230357   6.704   3.193   4.387
 9820SOL     OW30358   3.895   1.946   5.985
 9820SOL    HW130359   3.813   1.930   6.040
 9820SOL    HW230360   3.968   1.983   6.043
 9821SOL     OW30361   3.927   3.268   1.542
 9821SOL    HW130362   3.941   3.169   1.531
 9821SOL    HW230363   3.940   3.293   1.638
 9822SOL     OW30364   3.537   6.706   5.369
 9822SOL    HW130365   3.525   6.805   5.357
 9822SOL    HW230366   3.578   6.688   5.458
 9823SOL     OW30367   2.787   6.734   3.095
 9823SOL    HW130368   2.786   6.672   3.016
 9823SOL    HW230369   2.798   6.828   3.063
 9824SOL     OW30370   1.037   6.145   5.304
 9824SOL    HW130371   0.992   6.091   5.374
 9824SOL    HW230372   1.025   6.242   5.324
 9825SOL     OW30373   6.191   6.463   4.954
 9825SOL    HW130374   6.116   6.451   5.020
 9825SOL    HW230375   6.154   6.455   4.862
 9826SOL     OW30376   2.301   5.408   5.076
 9826SOL    HW130377   2.379   5.451   5.122
 9826SOL    HW230378   2.330   5.373   4.987
 9827SOL     OW30379   1.805   4.698   2.057
 9827SOL    HW130380   1.894   4.744   2.047
 9827SOL    HW230381   1.799   4.656   2.148
 9828SOL     OW30382   4.596   2.246   4.627
 9828SOL    HW130383   4.685   2.292   4.639
 9828SOL    HW230384   4.523   2.314   4.634
 9829SOL     OW30385   4.516   5.519   5.838
 9829SOL    HW130386   4.475   5.609   5.823
 9829SOL    HW230387   4.449   5.448   5.816
 9830SOL     OW30388   5.599   1.544   3.528
 9830SOL    HW130389   5.685   1.496   3.508
 9830SOL    HW230390   5.595   1.628   3.475
 9831SOL     OW30391   0.760   4.481   2.602
 9831SOL    HW130392   0.789   4.576   2.593
 9831SOL    HW230393   0.789   4.446   2.691
 9832SOL     OW30394   4.648   5.305   4.759
 9832SOL    HW130395   4.725   5.308   4.824
 9832SOL    HW230396   4.589   5.384   4.774
 9833SOL     OW30397   4.039   3.686   3.784
 9833SOL    HW130398   4.121   3.654   3.831
 9833SOL    HW230399   3.997   3.760   3.837
 9834SOL     OW30400   2.758   6.550   5.563
 9834SOL    HW130401   2.734   6.624   5.500
 9834SOL    HW230402   2.857   6.534   5.560
 9835SOL     OW30403   4.122   3.638   4.282
 9835SOL    HW130404   4.099   3.722   4.233
 9835SOL    HW230405   4.125   3.657   4.380
 9836SOL     OW30406   0.107   3.802   6.034
 9836SOL    HW130407   0.201   3.835   6.039
 9836SOL    HW230408   0.106   3.708   6.000
 9837SOL     OW30409   5.632   1.970   3.304
 9837SOL    HW130410   5.575   1.909   3.358
 9837SOL    HW230411   5.729   1.947   3.317
 9838SOL     OW30412   1.943   6.806   1.270
 9838SOL    HW130413   1.970   6.747   1.346
 9838SOL    HW230414   1.907   6.893   1.306
 9839SOL     OW30415   5.141   6.922   3.957
 9839SOL    HW130416   5.131   6.831   3.918
 9839SOL    HW230417   5.173   6.986   3.887
 9840SOL     OW30418   6.322   1.573   6.700
 9840SOL    HW130419   6.242   1.567   6.641
 9840SOL    HW230420   6.293   1.587   6.795
 9841SOL     OW30421   6.680   6.565   2.815
 9841SOL    HW130422   6.674   6.615   2.901
 9841SOL    HW230423   6.631   6.615   2.744
 9842SOL     OW30424   3.467   0.630   6.628
 9842SOL    HW130425   3.438   0.722   6.654
 9842SOL    HW230426   3.488   0.576   6.710
 9843SOL     OW30427   0.646   0.480   1.669
 9843SOL    HW130428   0.660   0.421   1.748
 9843SOL    HW230429   0.711   0.455   1.597
 9844SOL     OW30430   4.941   0.181   4.304
 9844SOL    HW130431   4.973   0.199   4.211
 9844SOL    HW230432   4.961   0.260   4.362
 9845SOL     OW30433   1.807   3.629   2.285
 9845SOL    HW130434   1.901   3.600   2.268
 9845SOL    HW230435   1.807   3.721   2.323
 9846SOL     OW30436   6.077   2.321   1.492
 9846SOL    HW130437   6.069   2.226   1.460
 9846SOL    HW230438   6.172   2.351   1.482
 9847SOL     OW30439   3.956   3.984   6.675
 9847SOL    HW130440   3.939   4.063   6.734
 9847SOL    HW230441   3.931   3.900   6.724
 9848SOL     OW30442   3.541   4.117   5.719
 9848SOL    HW130443   3.582   4.206   5.703
 9848SOL    HW230444   3.445   4.128   5.745
 9849SOL     OW30445   0.560   2.607   4.311
 9849SOL    HW130446   0.513   2.577   4.228
 9849SOL    HW230447   0.505   2.674   4.359
 9850SOL     OW30448   1.777   0.123   4.088
 9850SOL    HW130449   1.811   0.198   4.032
 9850SOL    HW230450   1.827   0.039   4.065
 9851SOL     OW30451   3.834   5.392   4.526
 9851SOL    HW130452   3.804   5.456   4.456
 9851SOL    HW230453   3.855   5.304   4.483
 9852SOL     OW30454   1.984   6.838   0.337
 9852SOL    HW130455   2.084   6.835   0.332
 9852SOL    HW230456   1.946   6.750   0.310
 9853SOL     OW30457   0.067   4.512   3.691
 9853SOL    HW130458   6.999   4.480   3.717
 9853SOL    HW230459   0.124   4.433   3.666
 9854SOL     OW30460   0.631   4.264   6.347
 9854SOL    HW130461   0.668   4.286   6.257
 9854SOL    HW230462   0.532   4.277   6.347
 9855SOL     OW30463   1.186   4.834   0.517
 9855SOL    HW130464   1.097   4.872   0.543
 9855SOL    HW230465   1.240   4.904   0.472
 9856SOL     OW30466   5.710   3.810   2.895
 9856SOL    HW130467   5.740   3.725   2.940
 9856SOL    HW230468   5.790   3.862   2.865
 9857SOL     OW30469   4.495   0.497   5.641
 9857SOL    HW130470   4.396   0.508   5.651
 9857SOL    HW230471   4.541   0.584   5.660
 9858SOL     OW30472   6.711   5.828   1.775
 9858SOL    HW130473   6.625   5.849   1.822
 9858SOL    HW230474   6.783   5.888   1.810
 9859SOL     OW30475   0.125   5.485   3.052
 9859SOL    HW130476   0.224   5.482   3.063
 9859SOL    HW230477   0.090   5.395   3.029
 9860SOL     OW30478   1.254   3.172   4.931
 9860SOL    HW130479   1.255   3.244   5.000
 9860SOL    HW230480   1.308   3.095   4.964
 9861SOL     OW30481   3.371   2.147   2.713
 9861SOL    HW130482   3.298   2.178   2.653
 9861SOL    HW230483   3.436   2.090   2.661
 9862SOL     OW30484   0.980   3.949   0.121
 9862SOL    HW130485   1.061   3.892   0.107
 9862SOL    HW230486   1.003   4.027   0.178
 9863SOL     OW30487   4.259   6.560   1.360
 9863SOL    HW130488   4.177   6.601   1.320
 9863SOL    HW230489   4.235   6.473   1.404
 9864SOL     OW30490   2.455   5.702   5.451
 9864SOL    HW130491   2.487   5.690   5.545
 9864SOL    HW230492   2.393   5.781   5.447
 9865SOL     OW30493   1.210   5.316   5.762
 9865SOL    HW130494   1.213   5.287   5.857
 9865SOL    HW230495   1.170   5.407   5.755
 9866SOL     OW30496   0.208   5.505   5.346
 9866SOL    HW130497   0.150   5.429   5.376
 9866SOL    HW230498   0.175   5.540   5.259
 9867SOL     OW30499   3.691   1.781   2.241
 9867SOL    HW130500   3.733   1.835   2.169
 9867SOL    HW230501   3.751   1.780   2.322
 9868SOL     OW30502   2.526   4.543   3.801
 9868SOL    HW130503   2.493   4.456   3.838
 9868SOL    HW230504   2.503   4.550   3.705
 9869SOL     OW30505   6.514   2.519   1.035
 9869SOL    HW130506   6.518   2.616   1.012
 9869SOL    HW230507   6.503   2.509   1.134
 9870SOL     OW30508   2.302   2.308   2.586
 9870SOL    HW130509   2.310   2.407   2.586
 9870SOL    HW230510   2.209   2.281   2.610
 9871SOL     OW30511   5.428   5.300   3.297
 9871SOL    HW130512   5.352   5.263   3.350
 9871SOL    HW230513   5.395   5.369   3.234
 9872SOL     OW30514   0.690   4.819   6.006
 9872SOL    HW130515   0.749   4.845   5.930
 9872SOL    HW230516   0.601   4.862   5.995
 9873SOL     OW30517   1.264   1.170   5.326
 9873SOL    HW130518   1.172   1.134   5.308
 9873SOL    HW230519   1.331   1.119   5.272
 9874SOL     OW30520   0.080   2.599   4.906
 9874SOL    HW130521   0.059   2.643   4.819
 9874SOL    HW230522   0.067   2.664   4.980
 9875SOL     OW30523   6.207   6.220   0.882
 9875SOL    HW130524   6.148   6.229   0.801
 9875SOL    HW230525   6.277   6.292   0.880
 9876SOL     OW30526   0.883   6.413   3.191
 9876SOL    HW130527   0.885   6.369   3.281
 9876SOL    HW230528   0.789   6.443   3.171
 9877SOL     OW30529   0.837   5.283   5.410
 9877SOL    HW130530   0.745   5.246   5.397
 9877SOL    HW230531   0.842   5.331   5.497
 9878SOL     OW30532   3.125   2.619   6.584
 9878SOL    HW130533   3.071   2.694   6.622
 9878SOL    HW230534   3.128   2.627   6.484
 9879SOL     OW30535   6.855   5.208   5.993
 9879SOL    HW130536   6.864   5.267   6.073
 9879SOL    HW230537   6.761   5.213   5.959
 9880SOL     OW30538   2.634   1.076   1.192
 9880SOL    HW130539   2.596   1.062   1.100
 9880SOL    HW230540   2.561   1.100   1.255
 9881SOL     OW30541   6.216   1.757   3.683
 9881SOL    HW130542   6.302   1.713   3.659
 9881SOL    HW230543   6.221   1.790   3.778
 9882SOL     OW30544   3.308   3.242   5.175
 9882SOL    HW130545   3.282   3.153   5.138
 9882SOL    HW230546   3.321   3.307   5.100
 9883SOL     OW30547   2.063   7.019   2.276
 9883SOL    HW130548   2.085   0.094   2.273
 9883SOL    HW230549   2.124   6.974   2.341
 9884SOL     OW30550   2.967   2.636   5.477
 9884SOL    HW130551   3.042   2.573   5.458
 9884SOL    HW230552   3.002   2.716   5.526
 9885SOL     OW30553   4.940   2.899   5.716
 9885SOL    HW130554   5.026   2.944   5.740
 9885SOL    HW230555   4.951   2.800   5.725
 9886SOL     OW30556   3.313   5.666   1.424
 9886SOL    HW130557   3.242   5.727   1.389
 9886SOL    HW230558   3.301   5.654   1.523
 9887SOL     OW30559   3.036   1.980   6.448
 9887SOL    HW130560   2.997   2.071   6.433
 9887SOL    HW230561   3.002   1.944   6.536
 9888SOL     OW30562   6.745   6.597   3.414
 9888SOL    HW130563   6.836   6.638   3.404
 9888SOL    HW230564   6.750   6.523   3.481
 9889SOL     OW30565   6.750   6.074   2.704
 9889SOL    HW130566   6.714   6.155   2.657
 9889SOL    HW230567   6.731   5.993   2.650
 9890SOL     OW30568   0.581   3.422   2.531
 9890SOL    HW130569   0.555   3.518   2.545
 9890SOL    HW230570   0.500   3.364   2.537
 9891SOL     OW30571   5.607   5.706   1.431
 9891SOL    HW130572   5.560   5.648   1.497
 9891SOL    HW230573   5.569   5.691   1.340
 9892SOL     OW30574   1.461   5.633   3.858
 9892SOL    HW130575   1.372   5.598   3.828
 9892SOL    HW230576   1.494   5.576   3.933
 9893SOL     OW30577   5.515   5.019   4.684
 9893SOL    HW130578   5.613   5.037   4.673
 9893SOL    HW230579   5.497   4.922   4.666
 9894SOL     OW30580   4.559   2.901   5.710
 9894SOL    HW130581   4.481   2.930   5.655
 9894SOL    HW230582   4.597   2.817   5.671
 9895SOL     OW30583   5.775   1.985   0.095
 9895SOL    HW130584   5.767   1.947   0.187
 9895SOL    HW230585   5.693   2.037   0.073
 9896SOL     OW30586   4.497   3.015   6.963
 9896SOL    HW130587   4.577   3.003   6.904
 9896SOL    HW230588   4.507   3.099   7.016
 9897SOL     OW30589   6.651   1.860   3.469
 9897SOL    HW130590   6.576   1.857   3.535
 9897SOL    HW230591   6.647   1.945   3.417
 9898SOL     OW30592   1.395   4.955   5.935
 9898SOL    HW130593   1.308   4.970   5.983
 9898SOL    HW230594   1.448   4.885   5.983
 9899SOL     OW30595   4.699   4.893   2.191
 9899SOL    HW130596   4.623   4.839   2.229
 9899SOL    HW230597   4.664   4.975   2.146
 9900SOL     OW30598   1.167   3.838   3.670
 9900SOL    HW130599   1.216   3.791   3.596
 9900SOL    HW230600   1.222   3.836   3.753
 9901SOL     OW30601   2.591   2.050   5.712
 9901SOL    HW130602   2.557   2.022   5.622
 9901SOL    HW230603   2.527   2.019   5.783
 9902SOL     OW30604   4.652   3.803   0.195
 9902SOL    HW130605   4.747   3.805   0.163
 9902SOL    HW230606   4.641   3.729   0.262
 9903SOL     OW30607   3.770   0.688   1.450
 9903SOL    HW130608   3.703   0.760   1.464
 9903SOL    HW230609   3.803   0.691   1.355
 9904SOL     OW30610   0.211   7.005   2.152
 9904SOL    HW130611   0.135   6.962   2.200
 9904SOL    HW230612   0.275   0.020   2.219
 9905SOL     OW30613   1.764   6.156   6.336
 9905SOL    HW130614   1.854   6.137   6.376
 9905SOL    HW230615   1.769   6.143   6.237
 9906SOL     OW30616   3.730   3.665   5.979
 9906SOL    HW130617   3.796   3.733   5.947
 9906SOL    HW230618   3.689   3.619   5.901
 9907SOL     OW30619   1.340   6.308   2.828
 9907SOL    HW130620   1.269   6.378   2.839
 9907SOL    HW230621   1.430   6.352   2.829
 9908SOL     OW30622   0.604   3.326   4.857
 9908SOL    HW130623   0.642   3.292   4.943
 9908SOL    HW230624   0.586   3.248   4.796
 9909SOL     OW30625   3.377   0.230   2.685
 9909SOL    HW130626   3.441   0.154   2.692
 9909SOL    HW230627   3.283   0.195   2.682
 9910SOL     OW30628   0.917   4.635   1.328
 9910SOL    HW130629   0.852   4.649   1.403
 9910SOL    HW230630   1.007   4.669   1.356
 9911SOL     OW30631   3.953   4.906   3.197
 9911SOL    HW130632   3.922   5.001   3.187
 9911SOL    HW230633   4.042   4.905   3.243
 9912SOL     OW30634   4.001   6.910   1.411
 9912SOL    HW130635   4.100   6.920   1.406
 9912SOL    HW230636   3.967   6.877   1.323
 9913SOL     OW30637   4.430   2.405   2.392
 9913SOL    HW130638   4.348   2.419   2.447
 9913SOL    HW230639   4.509   2.443   2.441
 9914SOL     OW30640   2.271   5.372   5.343
 9914SOL    HW130641   2.281   5.392   5.245
 9914SOL    HW230642   2.360   5.353   5.383
 9915SOL     OW30643   5.819   3.793   3.898
 9915SOL    HW130644   5.801   3.839   3.986
 9915SOL    HW230645   5.907   3.824   3.862
 9916SOL     OW30646   2.649   3.161   0.750
 9916SOL    HW130647   2.725   3.148   0.686
 9916SOL    HW230648   2.653   3.090   0.820
 9917SOL     OW30649   1.995   2.757   4.750
 9917SOL    HW130650   1.906   2.786   4.784
 9917SOL    HW230651   2.055   2.837   4.742
 9918SOL     OW30652   2.220   0.799   4.718
 9918SOL    HW130653   2.268   0.807   4.805
 9918SOL    HW230654   2.138   0.743   4.731
 9919SOL     OW30655   0.115   5.287   2.590
 9919SOL    HW130656   0.092   5.209   2.531
 9919SOL    HW230657   0.134   5.367   2.534
 9920SOL     OW30658   4.368   6.441   2.893
 9920SOL    HW130659   4.322   6.423   2.981
 9920SOL    HW230660   4.299   6.453   2.822
 9921SOL     OW30661   4.646   0.247   3.591
 9921SOL    HW130662   4.616   0.242   3.687
 9921SOL    HW230663   4.590   0.313   3.542
 9922SOL     OW30664   5.105   3.297   1.295
 9922SOL    HW130665   5.028   3.348   1.258
 9922SOL    HW230666   5.070   3.224   1.355
 9923SOL     OW30667   6.387   0.777   5.948
 9923SOL    HW130668   6.386   0.682   5.979
 9923SOL    HW230669   6.323   0.830   6.003
 9924SOL     OW30670   4.896   0.898   3.045
 9924SOL    HW130671   4.968   0.964   3.020
 9924SOL    HW230672   4.938   0.813   3.075
 9925SOL     OW30673   3.151   2.189   4.651
 9925SOL    HW130674   3.118   2.146   4.735
 9925SOL    HW230675   3.188   2.280   4.672
 9926SOL     OW30676   1.470   0.953   6.911
 9926SOL    HW130677   1.442   0.981   6.820
 9926SOL    HW230678   1.420   1.008   6.979
 9927SOL     OW30679   1.036   2.251   1.969
 9927SOL    HW130680   1.113   2.265   1.906
 9927SOL    HW230681   1.059   2.289   2.059
 9928SOL     OW30682   6.632   3.420   2.730
 9928SOL    HW130683   6.563   3.347   2.736
 9928SOL    HW230684   6.715   3.383   2.689
 9929SOL     OW30685   1.761   4.162   5.632
 9929SOL    HW130686   1.717   4.188   5.546
 9929SOL    HW230687   1.710   4.087   5.674
 9930SOL     OW30688   0.514   5.035   0.261
 9930SOL    HW130689   0.496   4.938   0.272
 9930SOL    HW230690   0.471   5.068   0.176
 9931SOL     OW30691   3.024   5.135   6.787
 9931SOL    HW130692   2.992   5.222   6.750
 9931SOL    HW230693   3.045   5.145   6.884
 9932SOL     OW30694   1.884   2.278   0.841
 9932SOL    HW130695   1.969   2.259   0.889
 9932SOL    HW230696   1.810   2.289   0.907
 9933SOL     OW30697   0.595   1.301   2.323
 9933SOL    HW130698   0.565   1.396   2.313
 9933SOL    HW230699   0.541   1.257   2.395
 9934SOL     OW30700   4.805   1.403   0.208
 9934SOL    HW130701   4.737   1.470   0.238
 9934SOL    HW230702   4.764   1.312   0.211
 9935SOL     OW30703   2.743   2.098   1.145
 9935SOL    HW130704   2.727   2.024   1.210
 9935SOL    HW230705   2.677   2.092   1.071
 9936SOL     OW30706   5.650   6.446   5.897
 9936SOL    HW130707   5.626   6.502   5.817
 9936SOL    HW230708   5.566   6.413   5.941
 9937SOL     OW30709   1.030   0.227   3.426
 9937SOL    HW130710   1.075   0.203   3.512
 9937SOL    HW230711   0.995   0.321   3.432
 9938SOL     OW30712   6.562   1.071   3.723
 9938SOL    HW130713   6.548   1.026   3.811
 9938SOL    HW230714   6.573   1.169   3.736
 9939SOL     OW30715   2.833   4.098   1.106
 9939SOL    HW130716   2.866   4.120   1.198
 9939SOL    HW230717   2.901   4.043   1.058
 9940SOL     OW30718   0.071   0.706   3.456
 9940SOL    HW130719   0.078   0.795   3.412
 9940SOL    HW230720   0.077   0.634   3.386
 9941SOL     OW30721   5.491   4.950   0.537
 9941SOL    HW130722   5.438   4.885   0.592
 9941SOL    HW230723   5.488   4.923   0.441
 9942SOL     OW30724   5.635   5.947   2.905
 9942SOL    HW130725   5.551   5.899   2.931
 9942SOL    HW230726   5.702   5.881   2.872
 9943SOL     OW30727   1.323   3.730   5.887
 9943SOL    HW130728   1.262   3.769   5.818
 9943SOL    HW230729   1.415   3.722   5.849
 9944SOL     OW30730   1.476   5.567   6.191
 9944SOL    HW130731   1.477   5.467   6.188
 9944SOL    HW230732   1.429   5.602   6.110
 9945SOL     OW30733   6.808   3.661   6.638
 9945SOL    HW130734   6.799   3.586   6.573
 9945SOL    HW230735   6.753   3.643   6.719
 9946SOL     OW30736   4.886   2.373   1.569
 9946SOL    HW130737   4.900   2.357   1.471
 9946SOL    HW230738   4.874   2.286   1.616
 9947SOL     OW30739   0.366   1.709   3.135
 9947SOL    HW130740   0.445   1.753   3.178
 9947SOL    HW230741   0.284   1.728   3.189
 9948SOL     OW30742   5.755   0.357   4.558
 9948SOL    HW130743   5.829   0.339   4.623
 9948SOL    HW230744   5.791   0.409   4.481
 9949SOL     OW30745   6.509   4.410   3.243
 9949SOL    HW130746   6.551   4.323   3.270
 9949SOL    HW230747   6.557   4.485   3.288
 9950SOL     OW30748   4.646   4.147   5.520
 9950SOL    HW130749   4.577   4.129   5.450
 9950SOL    HW230750   4.737   4.133   5.481
 9951SOL     OW30751   6.934   2.029   2.990
 9951SOL    HW130752   6.966   1.942   2.952
 9951SOL    HW230753   6.967   2.104   2.933
 9952SOL     OW30754   1.300   4.644   1.976
 9952SOL    HW130755   1.359   4.717   1.943
 9952SOL    HW230756   1.273   4.662   2.070
 9953SOL     OW30757   6.056   3.915   3.861
 9953SOL    HW130758   6.062   3.930   3.762
 9953SOL    HW230759   6.119   3.976   3.908
 9954SOL     OW30760   3.431   0.685   1.124
 9954SOL    HW130761   3.337   0.654   1.109
 9954SOL    HW230762   3.437   0.731   1.212
 9955SOL     OW30763   5.577   4.844   1.435
 9955SOL    HW130764   5.518   4.914   1.475
 9955SOL    HW230765   5.522   4.765   1.407
 9956SOL     OW30766   2.022   2.968   3.806
 9956SOL    HW130767   2.035   2.969   3.707
 9956SOL    HW230768   2.099   2.922   3.850
 9957SOL     OW30769   5.457   0.522   0.708
 9957SOL    HW130770   5.542   0.505   0.757
 9957SOL    HW230771   5.408   0.436   0.694
 9958SOL     OW30772   5.823   5.452   6.903
 9958SOL    HW130773   5.851   5.422   6.994
 9958SOL    HW230774   5.726   5.472   6.902
 9959SOL     OW30775   5.183   5.463   0.523
 9959SOL    HW130776   5.249   5.516   0.469
 9959SOL    HW230777   5.224   5.375   0.548
 9960SOL     OW30778   6.747   0.189   0.271
 9960SOL    HW130779   6.690   0.268   0.249
 9960SOL    HW230780   6.730   0.161   0.365
 9961SOL     OW30781   3.259   5.573   0.792
 9961SOL    HW130782   3.163   5.599   0.787
 9961SOL    HW230783   3.276   5.522   0.877
 9962SOL     OW30784   3.478   0.556   1.510
 9962SOL    HW130785   3.574   0.578   1.493
 9962SOL    HW230786   3.420   0.632   1.482
 9963SOL     OW30787   0.815   0.254   5.783
 9963SOL    HW130788   0.882   0.300   5.841
 9963SOL    HW230789   0.732   0.311   5.776
 9964SOL     OW30790   4.296   5.013   6.424
 9964SOL    HW130791   4.366   5.084   6.428
 9964SOL    HW230792   4.205   5.055   6.431
 9965SOL     OW30793   3.213   5.148   3.813
 9965SOL    HW130794   3.239   5.063   3.859
 9965SOL    HW230795   3.120   5.140   3.778
 9966SOL     OW30796   3.801   5.199   2.923
 9966SOL    HW130797   3.704   5.218   2.907
 9966SOL    HW230798   3.820   5.199   3.021
 9967SOL     OW30799   0.296   0.368   3.092
 9967SOL    HW130800   0.325   0.391   2.999
 9967SOL    HW230801   0.205   0.325   3.088
 9968SOL     OW30802   4.283   6.516   6.790
 9968SOL    HW130803   4.231   6.456   6.729
 9968SOL    HW230804   4.368   6.472   6.816
 9969SOL     OW30805   0.314   5.438   3.868
 9969SOL    HW130806   0.284   5.505   3.800
 9969SOL    HW230807   0.234   5.399   3.914
 9970SOL     OW30808   6.425   3.325   2.102
 9970SOL    HW130809   6.459   3.391   2.035
 9970SOL    HW230810   6.501   3.275   2.143
 9971SOL     OW30811   0.410   5.169   4.386
 9971SOL    HW130812   0.476   5.130   4.451
 9971SOL    HW230813   0.393   5.264   4.410
 9972SOL     OW30814   3.488   4.290   6.000
 9972SOL    HW130815   3.544   4.208   6.012
 9972SOL    HW230816   3.398   4.263   5.967
 9973SOL     OW30817   2.352   2.408   3.292
 9973SOL    HW130818   2.359   2.362   3.380
 9973SOL    HW230819   2.331   2.341   3.221
 9974SOL     OW30820   1.396   2.364   3.071
 9974SOL    HW130821   1.383   2.265   3.080
 9974SOL    HW230822   1.482   2.382   3.024
 9975SOL     OW30823   2.524   4.639   6.766
 9975SOL    HW130824   2.493   4.688   6.684
 9975SOL    HW230825   2.559   4.549   6.739
 9976SOL     OW30826   3.951   5.362   6.065
 9976SOL    HW130827   3.945   5.263   6.073
 9976SOL    HW230828   3.865   5.397   6.028
 9977SOL     OW30829   4.611   0.085   5.754
 9977SOL    HW130830   4.642   0.093   5.659
 9977SOL    HW230831   4.631   7.016   5.788
 9978SOL     OW30832   1.142   2.975   6.980
 9978SOL    HW130833   1.142   2.929   6.891
 9978SOL    HW230834   1.048   3.000   7.004
 9979SOL     OW30835   3.538   3.499   5.162
 9979SOL    HW130836   3.484   3.583   5.167
 9979SOL    HW230837   3.564   3.482   5.067
 9980SOL     OW30838   1.658   1.736   1.560
 9980SOL    HW130839   1.625   1.643   1.547
 9980SOL    HW230840   1.609   1.798   1.498
 9981SOL     OW30841   6.230   1.754   6.888
 9981SOL    HW130842   6.179   1.766   6.974
 9981SOL    HW230843   6.237   1.841   6.841
 9982SOL     OW30844   1.894   2.028   4.331
 9982SOL    HW130845   1.923   2.097   4.266
 9982SOL    HW230846   1.843   2.071   4.405
 9983SOL     OW30847   1.034   3.571   2.574
 9983SOL    HW130848   1.106   3.543   2.637
 9983SOL    HW230849   1.046   3.667   2.549
 9984SOL     OW30850   0.376   4.831   1.160
 9984SOL    HW130851   0.384   4.888   1.241
 9984SOL    HW230852   0.467   4.804   1.129
 9985SOL     OW30853   5.130   4.433   0.071
 9985SOL    HW130854   5.030   4.442   0.067
 9985SOL    HW230855   5.166   4.489   0.145
 9986SOL     OW30856   5.627   5.531   0.201
 9986SOL    HW130857   5.537   5.493   0.184
 9986SOL    HW230858   5.669   5.486   0.280
 9987SOL     OW30859   5.730   2.563   1.399
 9987SOL    HW130860   5.796   2.596   1.332
 9987SOL    HW230861   5.756   2.472   1.430
 9988SOL     OW30862   5.917   0.012   3.562
 9988SOL    HW130863   5.833   6.997   3.523
 9988SOL    HW230864   5.964   0.067   3.493
 9989SOL     OW30865   0.263   5.906   2.311
 9989SOL    HW130866   0.347   5.934   2.357
 9989SOL    HW230867   0.247   5.966   2.232
 9990SOL     OW30868   0.196   6.835   3.010
 9990SOL    HW130869   0.214   6.851   2.913
 9990SOL    HW230870   0.148   6.914   3.048
 9991SOL     OW30871   2.237   4.843   3.125
 9991SOL    HW130872   2.318   4.901   3.120
 9991SOL    HW230873   2.157   4.899   3.142
 9992SOL     OW30874   2.574   5.162   0.526
 9992SOL    HW130875   2.555   5.229   0.598
 9992SOL    HW230876   2.671   5.139   0.527
 9993SOL     OW30877   3.841   0.057   4.731
 9993SOL    HW130878   3.936   0.090   4.732
 9993SOL    HW230879   3.805   0.063   4.638
 9994SOL     OW30880   6.183   5.214   4.588
 9994SOL    HW130881   6.188   5.286   4.658
 9994SOL    HW230882   6.088   5.187   4.574
 9995SOL     OW30883   3.571   1.617   5.885
 9995SOL    HW130884   3.502   1.663   5.940
 9995SOL    HW230885   3.573   1.520   5.908
 9996SOL     OW30886   2.702   3.791   0.491
 9996SOL    HW130887   2.762   3.870   0.483
 9996SOL    HW230888   2.739   3.728   0.559
 9997SOL     OW30889   6.388   2.739   3.479
 9997SOL    HW130890   6.336   2.771   3.559
 9997SOL    HW230891   6.378   2.640   3.470
 9998SOL     OW30892   4.768   4.377   2.609
 9998SOL    HW130893   4.696   4.336   2.552
 9998SOL    HW230894   4.850   4.389   2.554
 9999SOL     OW30895   0.712   6.616   3.979
 9999SOL    HW130896   0.719   6.635   3.882
 9999SOL    HW230897   0.625   6.568   3.997
10000SOL     OW30898   4.722   2.545   0.872
10000SOL    HW130899   4.804   2.602   0.874
10000SOL    HW230900   4.723   2.489   0.789
10001SOL     OW30901   3.628   6.319   1.932
10001SOL    HW130902   3.727   6.327   1.921
10001SOL    HW230903   3.592   6.403   1.973
10002SOL     OW30904   2.789   1.054   1.793
10002SOL    HW130905   2.770   0.972   1.847
10002SOL    HW230906   2.887   1.075   1.797
10003SOL     OW30907   1.267   0.692   3.320
10003SOL    HW130908   1.275   0.737   3.232
10003SOL    HW230909   1.279   0.759   3.394
10004SOL     OW30910   6.572   4.847   4.456
10004SOL    HW130911   6.483   4.892   4.461
10004SOL    HW230912   6.614   4.867   4.368
10005SOL     OW30913   2.223   5.116   3.661
10005SOL    HW130914   2.276   5.043   3.618
10005SOL    HW230915   2.127   5.087   3.669
10006SOL     OW30916   5.919   0.612   5.391
10006SOL    HW130917   5.901   0.699   5.437
10006SOL    HW230918   5.850   0.597   5.320
10007SOL     OW30919   1.165   4.782   4.364
10007SOL    HW130920   1.071   4.774   4.332
10007SOL    HW230921   1.172   4.743   4.456
10008SOL     OW30922   3.739   1.690   5.691
10008SOL    HW130923   3.668   1.678   5.760
10008SOL    HW230924   3.702   1.670   5.601
10009SOL     OW30925   1.064   3.870   2.551
10009SOL    HW130926   1.018   3.907   2.471
10009SOL    HW230927   1.149   3.921   2.568
10010SOL     OW30928   2.569   4.113   7.009
10010SOL    HW130929   2.590   4.207   6.983
10010SOL    HW230930   2.526   4.113   0.077
10011SOL     OW30931   2.025   3.104   0.115
10011SOL    HW130932   2.091   3.052   0.169
10011SOL    HW230933   1.979   3.042   0.051
10012SOL     OW30934   6.022   2.544   3.025
10012SOL    HW130935   5.964   2.486   3.083
10012SOL    HW230936   6.089   2.592   3.082
10013SOL     OW30937   0.375   6.080   5.205
10013SOL    HW130938   0.342   6.087   5.110
10013SOL    HW230939   0.435   6.158   5.225
10014SOL     OW30940   0.678   0.869   3.168
10014SOL    HW130941   0.715   0.780   3.141
10014SOL    HW230942   0.659   0.923   3.087
10015SOL     OW30943   4.034   5.865   6.076
10015SOL    HW130944   4.012   5.921   5.997
10015SOL    HW230945   4.096   5.791   6.049
10016SOL     OW30946   2.359   0.291   3.794
10016SOL    HW130947   2.458   0.292   3.813
10016SOL    HW230948   2.344   0.251   3.703
10017SOL     OW30949   2.562   2.436   2.728
10017SOL    HW130950   2.614   2.506   2.776
10017SOL    HW230951   2.501   2.479   2.661
10018SOL     OW30952   6.693   3.406   5.365
10018SOL    HW130953   6.599   3.423   5.336
10018SOL    HW230954   6.705   3.433   5.460
10019SOL     OW30955   0.724   2.451   1.928
10019SOL    HW130956   0.750   2.372   1.872
10019SOL    HW230957   0.738   2.429   2.025
10020SOL     OW30958   6.203   0.995   2.093
10020SOL    HW130959   6.118   1.015   2.142
10020SOL    HW230960   6.211   1.058   2.015
10021SOL     OW30961   0.942   3.486   2.311
10021SOL    HW130962   0.890   3.403   2.331
10021SOL    HW230963   0.965   3.532   2.397
10022SOL     OW30964   2.235   5.072   6.288
10022SOL    HW130965   2.268   5.126   6.210
10022SOL    HW230966   2.167   5.006   6.256
10023SOL     OW30967   0.700   0.737   6.118
10023SOL    HW130968   0.788   0.771   6.087
10023SOL    HW230969   0.691   0.751   6.217
10024SOL     OW30970   1.865   4.820   2.843
10024SOL    HW130971   1.859   4.875   2.760
10024SOL    HW230972   1.911   4.734   2.824
10025SOL     OW30973   1.085   4.440   1.043
10025SOL    HW130974   1.008   4.490   1.082
10025SOL    HW230975   1.085   4.346   1.079
10026SOL     OW30976   4.968   1.754   4.459
10026SOL    HW130977   5.008   1.841   4.489
10026SOL    HW230978   5.019   1.719   4.381
10027SOL     OW30979   2.652   1.639   5.204
10027SOL    HW130980   2.582   1.665   5.138
10027SOL    HW230981   2.743   1.646   5.161
10028SOL     OW30982   4.293   0.038   1.199
10028SOL    HW130983   4.301   0.014   1.296
10028SOL    HW230984   4.229   0.115   1.189
10029SOL     OW30985   0.412   4.177   4.542
10029SOL    HW130986   0.371   4.095   4.503
10029SOL    HW230987   0.343   4.250   4.547
10030SOL     OW30988   2.352   6.902   4.613
10030SOL    HW130989   2.424   6.967   4.591
10030SOL    HW230990   2.264   6.936   4.580
10031SOL     OW30991   2.861   4.762   3.627
10031SOL    HW130992   2.914   4.677   3.619
10031SOL    HW230993   2.897   4.817   3.702
10032SOL     OW30994   3.193   6.596   5.076
10032SOL    HW130995   3.227   6.506   5.104
10032SOL    HW230996   3.201   6.606   4.977
10033SOL     OW30997   2.962   0.767   4.250
10033SOL    HW130998   3.035   0.702   4.228
10033SOL    HW230999   2.905   0.784   4.169
10034SOL     OW31000   2.226   1.077   4.213
10034SOL    HW131001   2.281   1.038   4.139
10034SOL    HW231002   2.219   1.010   4.287
10035SOL     OW31003   6.045   2.344   2.184
10035SOL    HW131004   6.054   2.302   2.274
10035SOL    HW231005   6.134   2.378   2.154
10036SOL     OW31006   0.101   0.461   6.941
10036SOL    HW131007   0.145   0.395   7.002
10036SOL    HW231008   0.079   0.416   6.854
10037SOL     OW31009   6.143   6.869   6.975
10037SOL    HW131010   6.216   6.852   0.018
10037SOL    HW231011   6.056   6.841   7.015
10038SOL     OW31012   4.524   6.766   6.237
10038SOL    HW131013   4.512   6.849   6.291
10038SOL    HW231014   4.613   6.725   6.258
10039SOL     OW31015   6.662   5.440   2.621
10039SOL    HW131016   6.605   5.520   2.605
10039SOL    HW231017   6.734   5.463   2.687
10040SOL     OW31018   3.206   6.634   1.151
10040SOL    HW131019   3.210   6.718   1.095
10040SOL    HW231020   3.251   6.560   1.102
10041SOL     OW31021   6.585   5.183   5.140
10041SOL    HW131022   6.608   5.160   5.235
10041SOL    HW231023   6.549   5.101   5.094
10042SOL     OW31024   0.427   0.487   4.732
10042SOL    HW131025   0.393   0.487   4.826
10042SOL    HW231026   0.524   0.465   4.732
10043SOL     OW31027   0.357   0.632   3.706
10043SOL    HW131028   0.277   0.612   3.762
10043SOL    HW231029   0.378   0.730   3.711
10044SOL     OW31030   3.123   1.664   6.516
10044SOL    HW131031   3.028   1.653   6.486
10044SOL    HW231032   3.173   1.579   6.503
10045SOL     OW31033   3.618   7.016   5.076
10045SOL    HW131034   3.577   7.016   4.985
10045SOL    HW231035   3.550   6.989   5.144
10046SOL     OW31036   0.385   2.422   1.780
10046SOL    HW131037   0.449   2.498   1.784
10046SOL    HW231038   0.293   2.454   1.804
10047SOL     OW31039   0.371   1.983   3.736
10047SOL    HW131040   0.446   2.027   3.786
10047SOL    HW231041   0.408   1.919   3.669
10048SOL     OW31042   3.885   2.450   1.356
10048SOL    HW131043   3.960   2.474   1.293
10048SOL    HW231044   3.803   2.430   1.303
10049SOL     OW31045   1.662   6.898   5.039
10049SOL    HW131046   1.723   6.847   5.099
10049SOL    HW231047   1.569   6.861   5.047
10050SOL     OW31048   5.110   2.751   3.773
10050SOL    HW131049   5.140   2.770   3.680
10050SOL    HW231050   5.017   2.715   3.771
10051SOL     OW31051   6.005   2.892   5.408
10051SOL    HW131052   6.038   2.886   5.314
10051SOL    HW231053   5.942   2.816   5.426
10052SOL     OW31054   0.701   3.634   1.547
10052SOL    HW131055   0.607   3.603   1.561
10052SOL    HW231056   0.762   3.583   1.607
10053SOL     OW31057   3.423   5.598   3.420
10053SOL    HW131058   3.484   5.576   3.496
10053SOL    HW231059   3.467   5.663   3.359
10054SOL     OW31060   3.736   5.557   4.711
10054SOL    HW131061   3.806   5.608   4.761
10054SOL    HW231062   3.779   5.483   4.659
10055SOL     OW31063   5.860   3.001   5.683
10055SOL    HW131064   5.937   2.970   5.739
10055SOL    HW231065   5.874   2.972   5.588
10056SOL     OW31066   6.335   4.867   1.446
10056SOL    HW131067   6.413   4.912   1.488
10056SOL    HW231068   6.296   4.927   1.376
10057SOL     OW31069   3.168   2.080   3.925
10057SOL    HW131070   3.236   2.094   3.854
10057SOL    HW231071   3.198   2.006   3.985
10058SOL     OW31072   1.198   5.564   3.759
10058SOL    HW131073   1.198   5.571   3.659
10058SOL    HW231074   1.160   5.476   3.786
10059SOL     OW31075   5.733   0.274   0.949
10059SOL    HW131076   5.828   0.243   0.949
10059SOL    HW231077   5.700   0.280   0.854
10060SOL     OW31078   2.744   2.878   1.531
10060SOL    HW131079   2.841   2.861   1.550
10060SOL    HW231080   2.688   2.811   1.580
10061SOL     OW31081   6.154   1.752   4.676
10061SOL    HW131082   6.083   1.823   4.682
10061SOL    HW231083   6.135   1.681   4.744
10062SOL     OW31084   6.429   6.391   3.008
10062SOL    HW131085   6.384   6.479   3.023
10062SOL    HW231086   6.493   6.373   3.083
10063SOL     OW31087   1.514   3.170   3.148
10063SOL    HW131088   1.600   3.119   3.143
10063SOL    HW231089   1.500   3.201   3.243
10064SOL     OW31090   5.501   6.653   4.277
10064SOL    HW131091   5.488   6.583   4.206
10064SOL    HW231092   5.599   6.672   4.287
10065SOL     OW31093   1.158   6.351   3.169
10065SOL    HW131094   1.230   6.310   3.226
10065SOL    HW231095   1.072   6.354   3.220
10066SOL     OW31096   0.631   0.002   3.311
10066SOL    HW131097   0.588   6.977   3.387
10066SOL    HW231098   0.691   0.074   3.347
10067SOL     OW31099   4.062   4.810   3.892
10067SOL    HW131100   3.986   4.865   3.928
10067SOL    HW231101   4.032   4.715   3.884
10068SOL     OW31102   5.059   3.359   5.172
10068SOL    HW131103   4.969   3.383   5.208
10068SOL    HW231104   5.049   3.291   5.100
10069SOL     OW31105   2.975   0.903   3.009
10069SOL    HW131106   2.992   0.908   2.910
10069SOL    HW231107   3.049   0.950   3.057
10070SOL     OW31108   0.436   0.089   4.665
10070SOL    HW131109   0.449   0.040   4.579
10070SOL    HW231110   0.402   0.181   4.647
10071SOL     OW31111   5.416   5.814   5.259
10071SOL    HW131112   5.489   5.859   5.309
10071SOL    HW231113   5.330   5.822   5.310
10072SOL     OW31114   0.853   6.413   2.792
10072SOL    HW131115   0.800   6.493   2.822
10072SOL    HW231116   0.948   6.423   2.823
10073SOL     OW31117   6.879   4.774   6.219
10073SOL    HW131118   6.854   4.745   6.311
10073SOL    HW231119   6.858   4.701   6.154
10074SOL     OW31120   2.571   0.342   6.123
10074SOL    HW131121   2.514   0.364   6.043
10074SOL    HW231122   2.565   0.244   6.142
10075SOL     OW31123   0.964   2.201   3.683
10075SOL    HW131124   0.869   2.171   3.682
10075SOL    HW231125   0.967   2.301   3.692
10076SOL     OW31126   5.390   6.911   4.777
10076SOL    HW131127   5.410   6.883   4.871
10076SOL    HW231128   5.334   6.994   4.779
10077SOL     OW31129   3.949   1.545   6.072
10077SOL    HW131130   3.926   1.449   6.055
10077SOL    HW231131   3.936   1.598   5.988
10078SOL     OW31132   5.586   0.142   5.799
10078SOL    HW131133   5.671   0.089   5.803
10078SOL    HW231134   5.580   0.189   5.711
10079SOL     OW31135   0.192   3.109   0.851
10079SOL    HW131136   0.138   3.059   0.919
10079SOL    HW231137   0.276   3.143   0.893
10080SOL     OW31138   1.955   3.028   6.677
10080SOL    HW131139   2.016   2.990   6.608
10080SOL    HW231140   1.978   2.989   6.766
10081SOL     OW31141   6.939   0.713   6.742
10081SOL    HW131142   6.909   0.770   6.818
10081SOL    HW231143   0.016   0.716   6.734
10082SOL     OW31144   6.112   1.071   1.506
10082SOL    HW131145   6.074   1.127   1.433
10082SOL    HW231146   6.095   1.114   1.595
10083SOL     OW31147   4.629   0.410   4.187
10083SOL    HW131148   4.680   0.479   4.136
10083SOL    HW231149   4.630   0.324   4.137
10084SOL     OW31150   2.568   1.574   5.834
10084SOL    HW131151   2.578   1.476   5.854
10084SOL    HW231152   2.620   1.597   5.752
10085SOL     OW31153   0.745   5.717   2.692
10085SOL    HW131154   0.803   5.798   2.697
10085SOL    HW231155   0.802   5.635   2.683
10086SOL     OW31156   6.183   3.880   2.158
10086SOL    HW131157   6.222   3.956   2.106
10086SOL    HW231158   6.109   3.839   2.105
10087SOL     OW31159   1.034   0.449   4.130
10087SOL    HW131160   0.955   0.390   4.114
10087SOL    HW231161   1.067   0.484   4.043
10088SOL     OW31162   0.174   6.966   4.272
10088SOL    HW131163   0.199   0.016   4.208
10088SOL    HW231164   0.211   6.987   4.362
10089SOL     OW31165   1.311   3.199   2.054
10089SOL    HW131166   1.291   3.291   2.087
10089SOL    HW231167   1.410   3.186   2.051
10090SOL     OW31168   1.128   4.554   0.583
10090SOL    HW131169   1.121   4.651   0.561
10090SOL    HW231170   1.120   4.500   0.498
10091SOL     OW31171   0.688   2.696   4.630
10091SOL    HW131172   0.723   2.604   4.609
10091SOL    HW231173   0.749   2.741   4.695
10092SOL     OW31174   1.990   4.057   5.515
10092SOL    HW131175   1.913   4.100   5.561
10092SOL    HW231176   1.991   4.085   5.419
10093SOL     OW31177   6.229   5.288   6.142
10093SOL    HW131178   6.298   5.338   6.195
10093SOL    HW231179   6.138   5.315   6.171
10094SOL     OW31180   1.489   1.642   1.929
10094SOL    HW131181   1.530   1.591   1.854
10094SOL    HW231182   1.436   1.580   1.986
10095SOL     OW31183   7.002   0.867   5.908
10095SOL    HW131184   6.999   0.924   5.826
10095SOL    HW231185   0.047   0.794   5.895
10096SOL     OW31186   0.276   5.493   2.793
10096SOL    HW131187   0.241   5.420   2.734
10096SOL    HW231188   0.199   5.548   2.826
10097SOL     OW31189   1.330   0.771   0.482
10097SOL    HW131190   1.329   0.703   0.409
10097SOL    HW231191   1.294   0.730   0.566
10098SOL     OW31192   2.648   4.938   6.567
10098SOL    HW131193   2.588   4.861   6.587
10098SOL    HW231194   2.598   5.006   6.513
10099SOL     OW31195   6.809   4.397   4.838
10099SOL    HW131196   6.825   4.495   4.832
10099SOL    HW231197   6.816   4.369   4.934
10100SOL     OW31198   5.313   0.746   4.273
10100SOL    HW131199   5.381   0.796   4.220
10100SOL    HW231200   5.224   0.750   4.227
10101SOL     OW31201   6.876   4.616   2.345
10101SOL    HW131202   6.909   4.533   2.301
10101SOL    HW231203   6.840   4.595   2.436
10102SOL     OW31204   2.442   1.325   2.315
10102SOL    HW131205   2.367   1.390   2.303
10102SOL    HW231206   2.500   1.324   2.233
10103SOL     OW31207   2.455   2.109   6.328
10103SOL    HW131208   2.424   2.184   6.270
10103SOL    HW231209   2.462   2.026   6.273
10104SOL     OW31210   1.206   6.061   5.130
10104SOL    HW131211   1.141   6.098   5.196
10104SOL    HW231212   1.230   5.968   5.156
10105SOL     OW31213   2.000   0.390   6.634
10105SOL    HW131214   2.051   0.420   6.553
10105SOL    HW231215   2.054   0.410   6.716
10106SOL     OW31216   5.526   6.061   0.424
10106SOL    HW131217   5.465   6.125   0.379
10106SOL    HW231218   5.543   5.982   0.364
10107SOL     OW31219   5.546   1.563   6.068
10107SOL    HW131220   5.523   1.654   6.101
10107SOL    HW231221   5.465   1.505   6.070
10108SOL     OW31222   6.614   6.808   0.366
10108SOL    HW131223   6.549   6.879   0.392
10108SOL    HW231224   6.700   6.822   0.415
10109SOL     OW31225   4.500   5.308   3.958
10109SOL    HW131226   4.494   5.213   3.928
10109SOL    HW231227   4.538   5.311   4.051
10110SOL     OW31228   3.903   0.595   5.743
10110SOL    HW131229   3.820   0.583   5.688
10110SOL    HW231230   3.913   0.518   5.806
10111SOL     OW31231   0.545   2.799   2.817
10111SOL    HW131232   0.621   2.832   2.874
10111SOL    HW231233   0.537   2.858   2.736
10112SOL     OW31234   4.589   4.618   5.713
10112SOL    HW131235   4.625   4.539   5.663
10112SOL    HW231236   4.499   4.595   5.750
10113SOL     OW31237   3.956   6.658   0.046
10113SOL    HW131238   3.920   6.694   6.983
10113SOL    HW231239   4.055   6.667   0.047
10114SOL     OW31240   4.835   0.937   1.470
10114SOL    HW131241   4.759   0.964   1.410
10114SOL    HW231242   4.897   0.877   1.420
10115SOL     OW31243   1.877   2.168   3.667
10115SOL    HW131244   1.901   2.234   3.738
10115SOL    HW231245   1.830   2.215   3.592
10116SOL     OW31246   1.117   1.408   1.050
10116SOL    HW131247   1.189   1.417   0.981
10116SOL    HW231248   1.138   1.465   1.129
10117SOL     OW31249   5.637   0.585   5.871
10117SOL    HW131250   5.579   0.512   5.908
10117SOL    HW231251   5.731   0.550   5.861
10118SOL     OW31252   7.002   5.298   2.041
10118SOL    HW131253   6.950   5.382   2.028
10118SOL    HW231254   6.997   5.243   1.957
10119SOL     OW31255   2.288   1.178   5.409
10119SOL    HW131256   2.196   1.175   5.371
10119SOL    HW231257   2.283   1.189   5.508
10120SOL     OW31258   0.008   2.970   3.670
10120SOL    HW131259   0.077   2.988   3.599
10120SOL    HW231260   0.009   2.872   3.692
10121SOL     OW31261   6.539   4.439   5.099
10121SOL    HW131262   6.592   4.469   5.179
10121SOL    HW231263   6.492   4.354   5.120
10122SOL     OW31264   5.395   3.444   0.411
10122SOL    HW131265   5.394   3.500   0.328
10122SOL    HW231266   5.371   3.350   0.389
10123SOL     OW31267   0.130   5.868   0.356
10123SOL    HW131268   0.109   5.798   0.288
10123SOL    HW231269   0.049   5.923   0.373
10124SOL     OW31270   3.105   4.194   6.909
10124SOL    HW131271   3.114   4.293   6.921
10124SOL    HW231272   3.035   4.159   6.971
10125SOL     OW31273   1.387   0.663   1.831
10125SOL    HW131274   1.472   0.625   1.868
10125SOL    HW231275   1.319   0.670   1.905
10126SOL     OW31276   6.453   5.161   0.829
10126SOL    HW131277   6.373   5.193   0.880
10126SOL    HW231278   6.522   5.233   0.827
10127SOL     OW31279   3.518   5.621   5.319
10127SOL    HW131280   3.605   5.668   5.302
10127SOL    HW231281   3.450   5.651   5.253
10128SOL     OW31282   0.118   2.354   1.071
10128SOL    HW131283   0.091   2.401   1.155
10128SOL    HW231284   0.186   2.284   1.092
10129SOL     OW31285   6.080   2.597   3.404
10129SOL    HW131286   6.077   2.503   3.371
10129SOL    HW231287   6.131   2.654   3.339
10130SOL     OW31288   6.514   5.689   1.420
10130SOL    HW131289   6.601   5.642   1.436
10130SOL    HW231290   6.467   5.648   1.342
10131SOL     OW31291   0.520   0.749   1.308
10131SOL    HW131292   0.453   0.811   1.350
10131SOL    HW231293   0.506   0.746   1.209
10132SOL     OW31294   3.089   6.579   2.630
10132SOL    HW131295   3.071   6.537   2.720
10132SOL    HW231296   3.181   6.557   2.601
10133SOL     OW31297   4.848   5.931   3.762
10133SOL    HW131298   4.846   5.905   3.665
10133SOL    HW231299   4.943   5.932   3.794
10134SOL     OW31300   6.869   1.587   3.202
10134SOL    HW131301   6.900   1.672   3.243
10134SOL    HW231302   6.806   1.606   3.127
10135SOL     OW31303   4.272   4.904   3.002
10135SOL    HW131304   4.274   4.996   2.964
10135SOL    HW231305   4.203   4.849   2.954
10136SOL     OW31306   6.142   0.120   3.415
10136SOL    HW131307   6.199   0.201   3.434
10136SOL    HW231308   6.197   0.038   3.423
10137SOL     OW31309   6.540   5.179   4.098
10137SOL    HW131310   6.449   5.146   4.121
10137SOL    HW231311   6.609   5.115   4.134
10138SOL     OW31312   5.870   2.334   6.879
10138SOL    HW131313   5.816   2.261   6.836
10138SOL    HW231314   5.925   2.296   6.952
10139SOL     OW31315   3.717   2.905   3.011
10139SOL    HW131316   3.658   2.971   3.059
10139SOL    HW231317   3.697   2.908   2.913
10140SOL     OW31318   6.670   5.010   6.851
10140SOL    HW131319   6.741   4.998   6.782
10140SOL    HW231320   6.585   5.039   6.807
10141SOL     OW31321   1.462   0.875   3.881
10141SOL    HW131322   1.446   0.783   3.847
10141SOL    HW231323   1.432   0.881   3.976
10142SOL     OW31324   4.201   5.740   4.849
10142SOL    HW131325   4.180   5.663   4.910
10142SOL    HW231326   4.253   5.708   4.770
10143SOL     OW31327   4.669   0.223   1.233
10143SOL    HW131328   4.646   0.163   1.157
10143SOL    HW231329   4.703   0.310   1.198
10144SOL     OW31330   3.098   5.796   4.367
10144SOL    HW131331   3.069   5.886   4.336
10144SOL    HW231332   3.198   5.788   4.359
10145SOL     OW31333   3.090   6.135   5.560
10145SOL    HW131334   3.154   6.213   5.562
10145SOL    HW231335   3.136   6.056   5.519
10146SOL     OW31336   4.206   5.514   4.395
10146SOL    HW131337   4.301   5.523   4.365
10146SOL    HW231338   4.156   5.596   4.371
10147SOL     OW31339   4.518   4.549   4.613
10147SOL    HW131340   4.553   4.473   4.557
10147SOL    HW231341   4.595   4.605   4.644
10148SOL     OW31342   5.636   5.686   0.547
10148SOL    HW131343   5.642   5.750   0.624
10148SOL    HW231344   5.681   5.727   0.467
10149SOL     OW31345   4.058   2.435   1.122
10149SOL    HW131346   4.150   2.465   1.149
10149SOL    HW231347   4.061   2.398   1.029
10150SOL     OW31348   4.902   4.481   0.749
10150SOL    HW131349   4.831   4.418   0.717
10150SOL    HW231350   4.978   4.481   0.685
10151SOL     OW31351   1.607   6.935   5.914
10151SOL    HW131352   1.691   6.932   5.968
10151SOL    HW231353   1.554   6.852   5.931
10152SOL     OW31354   0.280   5.428   3.507
10152SOL    HW131355   0.268   5.524   3.534
10152SOL    HW231356   0.238   5.368   3.575
10153SOL     OW31357   5.138   6.146   4.109
10153SOL    HW131358   5.041   6.170   4.116
10153SOL    HW231359   5.161   6.127   4.014
10154SOL     OW31360   6.434   5.512   5.841
10154SOL    HW131361   6.533   5.499   5.830
10154SOL    HW231362   6.390   5.507   5.751
10155SOL     OW31363   3.879   0.805   5.919
10155SOL    HW131364   3.901   0.764   6.007
10155SOL    HW231365   3.873   0.733   5.849
10156SOL     OW31366   5.321   0.566   2.300
10156SOL    HW131367   5.280   0.586   2.389
10156SOL    HW231368   5.351   0.471   2.298
10157SOL     OW31369   5.891   1.305   6.360
10157SOL    HW131370   5.948   1.290   6.440
10157SOL    HW231371   5.940   1.276   6.278
10158SOL     OW31372   4.585   3.495   0.004
10158SOL    HW131373   4.532   3.578   7.012
10158SOL    HW231374   4.676   3.505   6.986
10159SOL     OW31375   2.000   2.068   6.062
10159SOL    HW131376   1.926   2.099   6.001
10159SOL    HW231377   1.974   1.980   6.103
10160SOL     OW31378   0.544   5.410   3.701
10160SOL    HW131379   0.482   5.379   3.772
10160SOL    HW231380   0.531   5.508   3.687
10161SOL     OW31381   3.666   5.648   6.440
10161SOL    HW131382   3.765   5.647   6.451
10161SOL    HW231383   3.624   5.596   6.515
10162SOL     OW31384   2.843   2.527   6.286
10162SOL    HW131385   2.771   2.584   6.325
10162SOL    HW231386   2.808   2.434   6.271
10163SOL     OW31387   6.837   3.668   5.913
10163SOL    HW131388   6.881   3.580   5.895
10163SOL    HW231389   6.828   3.680   6.012
10164SOL     OW31390   6.457   2.868   5.343
10164SOL    HW131391   6.506   2.907   5.265
10164SOL    HW231392   6.483   2.916   5.427
10165SOL     OW31393   0.682   2.096   4.324
10165SOL    HW131394   0.706   2.105   4.228
10165SOL    HW231395   0.701   2.182   4.371
10166SOL     OW31396   2.146   1.232   2.070
10166SOL    HW131397   2.086   1.161   2.033
10166SOL    HW231398   2.199   1.273   1.996
10167SOL     OW31399   4.935   0.363   6.756
10167SOL    HW131400   4.842   0.327   6.751
10167SOL    HW231401   4.971   0.349   6.848
10168SOL     OW31402   6.888   4.093   3.938
10168SOL    HW131403   6.821   4.140   3.996
10168SOL    HW231404   6.940   4.028   3.993
10169SOL     OW31405   6.641   4.139   3.347
10169SOL    HW131406   6.553   4.096   3.368
10169SOL    HW231407   6.695   4.078   3.290
10170SOL     OW31408   1.590   4.192   5.170
10170SOL    HW131409   1.560   4.279   5.131
10170SOL    HW231410   1.641   4.140   5.102
10171SOL     OW31411   6.728   4.030   5.611
10171SOL    HW131412   6.684   4.004   5.525
10171SOL    HW231413   6.809   3.972   5.627
10172SOL     OW31414   4.635   0.461   2.765
10172SOL    HW131415   4.710   0.416   2.813
10172SOL    HW231416   4.557   0.399   2.759
10173SOL     OW31417   1.816   1.930   1.870
10173SOL    HW131418   1.739   1.955   1.811
10173SOL    HW231419   1.894   1.990   1.849
10174SOL     OW31420   6.348   4.776   2.450
10174SOL    HW131421   6.253   4.769   2.481
10174SOL    HW231422   6.408   4.787   2.529
10175SOL     OW31423   6.549   2.039   5.811
10175SOL    HW131424   6.454   2.049   5.840
10175SOL    HW231425   6.607   2.101   5.864
10176SOL     OW31426   1.894   3.745   6.724
10176SOL    HW131427   1.827   3.817   6.744
10176SOL    HW231428   1.986   3.781   6.739
10177SOL     OW31429   3.004   6.583   0.166
10177SOL    HW131430   3.067   6.599   0.242
10177SOL    HW231431   2.916   6.626   0.186
10178SOL     OW31432   5.977   2.695   4.755
10178SOL    HW131433   5.950   2.680   4.849
10178SOL    HW231434   6.001   2.607   4.713
10179SOL     OW31435   1.402   2.630   6.185
10179SOL    HW131436   1.420   2.664   6.278
10179SOL    HW231437   1.319   2.674   6.149
10180SOL     OW31438   2.907   5.787   5.710
10180SOL    HW131439   2.840   5.745   5.771
10180SOL    HW231440   2.888   5.885   5.700
10181SOL     OW31441   5.948   3.127   1.151
10181SOL    HW131442   5.971   3.108   1.246
10181SOL    HW231443   6.026   3.105   1.093
10182SOL     OW31444   5.465   0.955   1.368
10182SOL    HW131445   5.557   0.940   1.332
10182SOL    HW231446   5.463   1.041   1.420
10183SOL     OW31447   1.471   1.577   6.510
10183SOL    HW131448   1.395   1.593   6.448
10183SOL    HW231449   1.458   1.491   6.558
10184SOL     OW31450   4.275   1.306   6.365
10184SOL    HW131451   4.278   1.293   6.266
10184SOL    HW231452   4.268   1.217   6.411
10185SOL     OW31453   4.862   0.046   0.971
10185SOL    HW131454   4.803   6.990   0.990
10185SOL    HW231455   4.949   0.015   0.934
10186SOL     OW31456   4.852   2.524   3.299
10186SOL    HW131457   4.774   2.562   3.249
10186SOL    HW231458   4.907   2.599   3.337
10187SOL     OW31459   0.778   2.250   1.524
10187SOL    HW131460   0.692   2.265   1.572
10187SOL    HW231461   0.819   2.164   1.554
10188SOL     OW31462   4.510   6.359   0.641
10188SOL    HW131463   4.483   6.452   0.618
10188SOL    HW231464   4.588   6.332   0.585
10189SOL     OW31465   1.967   6.335   5.104
10189SOL    HW131466   1.988   6.242   5.075
10189SOL    HW231467   1.875   6.359   5.074
10190SOL     OW31468   4.129   2.706   6.835
10190SOL    HW131469   4.218   2.660   6.847
10190SOL    HW231470   4.068   2.679   6.910
10191SOL     OW31471   5.258   4.633   6.724
10191SOL    HW131472   5.324   4.632   6.649
10191SOL    HW231473   5.228   4.539   6.744
10192SOL     OW31474   3.589   1.444   5.493
10192SOL    HW131475   3.494   1.430   5.522
10192SOL    HW231476   3.650   1.386   5.547
10193SOL     OW31477   4.735   4.306   0.640
10193SOL    HW131478   4.693   4.311   0.549
10193SOL    HW231479   4.668   4.271   0.705
10194SOL     OW31480   5.474   4.236   5.569
10194SOL    HW131481   5.557   4.216   5.622
10194SOL    HW231482   5.492   4.223   5.472
10195SOL     OW31483   6.714   4.555   1.409
10195SOL    HW131484   6.697   4.502   1.492
10195SOL    HW231485   6.748   4.646   1.434
10196SOL     OW31486   6.977   1.362   4.746
10196SOL    HW131487   6.989   1.299   4.822
10196SOL    HW231488   0.017   1.439   4.756
10197SOL     OW31489   6.437   0.601   5.536
10197SOL    HW131490   6.365   0.533   5.524
10197SOL    HW231491   6.399   0.681   5.582
10198SOL     OW31492   3.936   0.174   2.598
10198SOL    HW131493   3.979   0.146   2.512
10198SOL    HW231494   3.959   0.270   2.617
10199SOL     OW31495   1.216   2.617   5.649
10199SOL    HW131496   1.268   2.533   5.663
10199SOL    HW231497   1.255   2.668   5.573
10200SOL     OW31498   6.431   3.066   0.788
10200SOL    HW131499   6.443   3.016   0.702
10200SOL    HW231500   6.375   3.147   0.772
10201SOL     OW31501   1.382   4.316   0.980
10201SOL    HW131502   1.309   4.265   1.024
10201SOL    HW231503   1.344   4.380   0.913
10202SOL     OW31504   3.859   1.152   5.464
10202SOL    HW131505   3.904   1.080   5.516
10202SOL    HW231506   3.894   1.152   5.370
10203SOL     OW31507   6.064   2.830   5.153
10203SOL    HW131508   6.007   2.748   5.164
10203SOL    HW231509   6.143   2.807   5.096
10204SOL     OW31510   5.375   6.831   6.224
10204SOL    HW131511   5.335   6.788   6.305
10204SOL    HW231512   5.468   6.796   6.211
10205SOL     OW31513   1.193   0.407   6.677
10205SOL    HW131514   1.239   0.352   6.607
10205SOL    HW231515   1.138   0.478   6.634
10206SOL     OW31516   1.125   0.648   5.658
10206SOL    HW131517   1.147   0.575   5.722
10206SOL    HW231518   1.056   0.708   5.698
10207SOL     OW31519   1.465   1.650   5.795
10207SOL    HW131520   1.394   1.694   5.850
10207SOL    HW231521   1.536   1.614   5.855
10208SOL     OW31522   6.255   4.837   5.202
10208SOL    HW131523   6.175   4.789   5.164
10208SOL    HW231524   6.335   4.776   5.198
10209SOL     OW31525   6.640   6.835   6.482
10209SOL    HW131526   6.626   6.737   6.493
10209SOL    HW231527   6.648   6.878   6.572
10210SOL     OW31528   4.428   5.951   1.931
10210SOL    HW131529   4.339   5.932   1.889
10210SOL    HW231530   4.414   5.978   2.027
10211SOL     OW31531   4.139   5.919   5.537
10211SOL    HW131532   4.201   5.961   5.471
10211SOL    HW231533   4.149   5.819   5.533
10212SOL     OW31534   0.794   0.154   6.255
10212SOL    HW131535   0.699   0.178   6.237
10212SOL    HW231536   0.836   0.119   6.171
10213SOL     OW31537   5.425   1.613   0.489
10213SOL    HW131538   5.351   1.656   0.437
10213SOL    HW231539   5.511   1.623   0.438
10214SOL     OW31540   0.325   2.568   1.070
10214SOL    HW131541   0.242   2.624   1.068
10214SOL    HW231542   0.304   2.476   1.037
10215SOL     OW31543   3.499   3.414   2.683
10215SOL    HW131544   3.427   3.349   2.656
10215SOL    HW231545   3.541   3.384   2.769
10216SOL     OW31546   7.010   6.878   2.294
10216SOL    HW131547   7.003   6.785   2.329
10216SOL    HW231548   6.955   6.939   2.351
10217SOL     OW31549   3.073   1.182   3.683
10217SOL    HW131550   3.037   1.214   3.595
10217SOL    HW231551   2.998   1.150   3.740
10218SOL     OW31552   1.477   2.619   2.551
10218SOL    HW131553   1.445   2.711   2.534
10218SOL    HW231554   1.405   2.567   2.598
10219SOL     OW31555   0.403   1.206   2.100
10219SOL    HW131556   0.375   1.233   2.007
10219SOL    HW231557   0.485   1.257   2.125
10220SOL     OW31558   3.295   2.647   1.792
10220SOL    HW131559   3.244   2.595   1.724
10220SOL    HW231560   3.392   2.625   1.786
10221SOL     OW31561   1.336   5.881   2.962
10221SOL    HW131562   1.262   5.907   3.024
10221SOL    HW231563   1.336   5.940   2.882
10222SOL     OW31564   3.233   4.092   4.576
10222SOL    HW131565   3.317   4.058   4.618
10222SOL    HW231566   3.235   4.192   4.573
10223SOL     OW31567   1.192   5.678   1.601
10223SOL    HW131568   1.188   5.778   1.605
10223SOL    HW231569   1.288   5.649   1.602
10224SOL     OW31570   5.783   4.062   3.104
10224SOL    HW131571   5.873   4.088   3.069
10224SOL    HW231572   5.783   3.964   3.126
10225SOL     OW31573   2.196   3.643   6.002
10225SOL    HW131574   2.224   3.725   6.053
10225SOL    HW231575   2.244   3.641   5.914
10226SOL     OW31576   4.756   2.715   0.088
10226SOL    HW131577   4.789   2.769   0.165
10226SOL    HW231578   4.662   2.742   0.067
10227SOL     OW31579   4.774   3.533   0.936
10227SOL    HW131580   4.781   3.456   0.999
10227SOL    HW231581   4.837   3.606   0.964
10228SOL     OW31582   5.085   0.697   0.946
10228SOL    HW131583   4.990   0.725   0.964
10228SOL    HW231584   5.147   0.770   0.973
10229SOL     OW31585   0.002   3.736   4.367
10229SOL    HW131586   0.087   3.705   4.325
10229SOL    HW231587   7.017   3.835   4.357
10230SOL     OW31588   6.908   6.194   2.094
10230SOL    HW131589   6.934   6.287   2.120
10230SOL    HW231590   6.896   6.188   1.995
10231SOL     OW31591   1.702   5.320   3.301
10231SOL    HW131592   1.632   5.282   3.362
10231SOL    HW231593   1.783   5.344   3.354
10232SOL     OW31594   5.120   5.437   4.012
10232SOL    HW131595   5.218   5.419   4.009
10232SOL    HW231596   5.103   5.526   4.053
10233SOL     OW31597   3.992   4.545   6.213
10233SOL    HW131598   4.041   4.477   6.158
10233SOL    HW231599   3.896   4.545   6.187
10234SOL     OW31600   6.972   0.835   1.888
10234SOL    HW131601   0.018   0.805   1.822
10234SOL    HW231602   6.888   0.858   1.840
10235SOL     OW31603   1.649   1.141   3.032
10235SOL    HW131604   1.650   1.078   3.110
10235SOL    HW231605   1.577   1.209   3.044
10236SOL     OW31606   2.899   6.895   1.427
10236SOL    HW131607   2.865   6.812   1.471
10236SOL    HW231608   2.836   6.970   1.444
10237SOL     OW31609   0.514   3.523   6.130
10237SOL    HW131610   0.529   3.599   6.194
10237SOL    HW231611   0.491   3.560   6.040
10238SOL     OW31612   3.404   5.865   1.176
10238SOL    HW131613   3.369   5.794   1.238
10238SOL    HW231614   3.503   5.858   1.170
10239SOL     OW31615   1.572   2.553   4.293
10239SOL    HW131616   1.502   2.555   4.365
10239SOL    HW231617   1.537   2.502   4.214
10240SOL     OW31618   2.649   6.233   1.260
10240SOL    HW131619   2.735   6.280   1.278
10240SOL    HW231620   2.577   6.300   1.244
10241SOL     OW31621   3.772   2.264   1.638
10241SOL    HW131622   3.716   2.286   1.718
10241SOL    HW231623   3.768   2.341   1.574
10242SOL     OW31624   0.308   2.768   6.758
10242SOL    HW131625   0.404   2.744   6.776
10242SOL    HW231626   0.252   2.739   6.836
10243SOL     OW31627   2.559   5.311   1.053
10243SOL    HW131628   2.592   5.378   0.986
10243SOL    HW231629   2.482   5.260   1.015
10244SOL     OW31630   2.848   4.485   1.403
10244SOL    HW131631   2.754   4.520   1.410
10244SOL    HW231632   2.912   4.562   1.403
10245SOL     OW31633   3.971   3.990   0.721
10245SOL    HW131634   3.877   3.964   0.742
10245SOL    HW231635   4.032   3.953   0.791
10246SOL     OW31636   3.187   3.676   4.424
10246SOL    HW131637   3.189   3.579   4.400
10246SOL    HW231638   3.260   3.724   4.375
10247SOL     OW31639   0.527   2.491   5.023
10247SOL    HW131640   0.513   2.464   4.927
10247SOL    HW231641   0.591   2.568   5.027
10248SOL     OW31642   0.965   7.018   3.285
10248SOL    HW131643   0.927   0.086   3.300
10248SOL    HW231644   0.900   6.963   3.232
10249SOL     OW31645   3.025   4.909   6.335
10249SOL    HW131646   3.083   4.985   6.364
10249SOL    HW231647   3.070   4.823   6.356
10250SOL     OW31648   4.646   1.971   0.325
10250SOL    HW131649   4.665   1.994   0.229
10250SOL    HW231650   4.586   1.891   0.328
10251SOL     OW31651   2.154   0.058   4.182
10251SOL    HW131652   2.239   0.058   4.235
10251SOL    HW231653   2.082   0.103   4.234
10252SOL     OW31654   5.462   4.073   6.000
10252SOL    HW131655   5.519   4.121   6.067
10252SOL    HW231656   5.509   3.990   5.969
10253SOL     OW31657   4.244   6.490   6.399
10253SOL    HW131658   4.183   6.475   6.321
10253SOL    HW231659   4.241   6.587   6.426
10254SOL     OW31660   5.406   1.202   4.602
10254SOL    HW131661   5.350   1.219   4.522
10254SOL    HW231662   5.498   1.240   4.588
10255SOL     OW31663   3.777   5.282   1.959
10255SOL    HW131664   3.831   5.347   2.012
10255SOL    HW231665   3.770   5.314   1.864
10256SOL     OW31666   4.305   1.038   2.917
10256SOL    HW131667   4.351   1.047   2.828
10256SOL    HW231668   4.313   1.124   2.967
10257SOL     OW31669   3.504   5.077   2.772
10257SOL    HW131670   3.459   5.013   2.709
10257SOL    HW231671   3.451   5.082   2.857
10258SOL     OW31672   1.634   1.427   1.732
10258SOL    HW131673   1.649   1.416   1.634
10258SOL    HW231674   1.711   1.477   1.772
10259SOL     OW31675   1.080   4.215   3.458
10259SOL    HW131676   0.983   4.219   3.435
10259SOL    HW231677   1.132   4.180   3.380
10260SOL     OW31678   1.020   0.844   3.680
10260SOL    HW131679   1.043   0.764   3.735
10260SOL    HW231680   0.933   0.829   3.632
10261SOL     OW31681   6.503   3.414   1.198
10261SOL    HW131682   6.544   3.444   1.112
10261SOL    HW231683   6.567   3.353   1.245
10262SOL     OW31684   3.905   1.482   0.322
10262SOL    HW131685   3.935   1.392   0.292
10262SOL    HW231686   3.826   1.511   0.268
10263SOL     OW31687   6.059   0.416   1.489
10263SOL    HW131688   6.008   0.502   1.490
10263SOL    HW231689   6.101   0.404   1.399
10264SOL     OW31690   0.216   5.555   6.508
10264SOL    HW131691   0.218   5.617   6.430
10264SOL    HW231692   0.194   5.462   6.477
10265SOL     OW31693   2.007   2.098   0.485
10265SOL    HW131694   1.923   2.124   0.533
10265SOL    HW231695   2.041   2.011   0.521
10266SOL     OW31696   2.890   3.444   2.202
10266SOL    HW131697   2.865   3.413   2.294
10266SOL    HW231698   2.852   3.380   2.135
10267SOL     OW31699   5.578   0.867   1.006
10267SOL    HW131700   5.485   0.898   0.990
10267SOL    HW231701   5.593   0.781   0.958
10268SOL     OW31702   4.157   0.270   1.176
10268SOL    HW131703   4.092   0.340   1.204
10268SOL    HW231704   4.148   0.252   1.078
10269SOL     OW31705   2.745   2.406   0.231
10269SOL    HW131706   2.674   2.340   0.207
10269SOL    HW231707   2.826   2.357   0.263
10270SOL     OW31708   2.745   6.741   2.249
10270SOL    HW131709   2.669   6.678   2.262
10270SOL    HW231710   2.830   6.699   2.281
10271SOL     OW31711   1.394   2.084   6.913
10271SOL    HW131712   1.407   1.985   6.908
10271SOL    HW231713   1.436   2.128   6.834
10272SOL     OW31714   6.561   0.433   4.916
10272SOL    HW131715   6.599   0.344   4.892
10272SOL    HW231716   6.485   0.421   4.980
10273SOL     OW31717   2.387   5.003   3.459
10273SOL    HW131718   2.326   4.929   3.428
10273SOL    HW231719   2.457   5.019   3.389
10274SOL     OW31720   0.323   5.153   5.371
10274SOL    HW131721   0.308   5.171   5.274
10274SOL    HW231722   0.236   5.161   5.421
10275SOL     OW31723   0.132   0.534   2.765
10275SOL    HW131724   0.116   0.586   2.681
10275SOL    HW231725   0.189   0.454   2.745
10276SOL     OW31726   3.371   6.120   6.173
10276SOL    HW131727   3.452   6.063   6.158
10276SOL    HW231728   3.340   6.109   6.268
10277SOL     OW31729   0.504   6.959   4.396
10277SOL    HW131730   0.502   6.897   4.317
10277SOL    HW231731   0.482   0.029   4.367
10278SOL     OW31732   6.920   0.468   5.480
10278SOL    HW131733   7.005   0.430   5.443
10278SOL    HW231734   6.842   0.430   5.430
10279SOL     OW31735   1.745   5.803   4.233
10279SOL    HW131736   1.702   5.714   4.246
10279SOL    HW231737   1.686   5.862   4.178
10280SOL     OW31738   5.798   4.202   0.541
10280SOL    HW131739   5.835   4.292   0.565
10280SOL    HW231740   5.717   4.183   0.597
10281SOL     OW31741   6.861   1.960   3.944
10281SOL    HW131742   6.865   1.921   3.853
10281SOL    HW231743   6.846   1.888   4.011
10282SOL     OW31744   5.317   3.502   3.128
10282SOL    HW131745   5.297   3.585   3.182
10282SOL    HW231746   5.382   3.445   3.179
10283SOL     OW31747   0.492   3.383   1.098
10283SOL    HW131748   0.502   3.321   1.175
10283SOL    HW231749   0.476   3.330   1.014
10284SOL     OW31750   0.519   3.221   3.753
10284SOL    HW131751   0.584   3.266   3.692
10284SOL    HW231752   0.427   3.256   3.735
10285SOL     OW31753   5.290   6.304   4.850
10285SOL    HW131754   5.296   6.290   4.949
10285SOL    HW231755   5.199   6.278   4.818
10286SOL     OW31756   2.686   1.476   4.263
10286SOL    HW131757   2.630   1.460   4.344
10286SOL    HW231758   2.673   1.570   4.230
10287SOL     OW31759   2.685   5.695   2.860
10287SOL    HW131760   2.647   5.762   2.923
10287SOL    HW231761   2.634   5.609   2.868
10288SOL     OW31762   3.551   0.011   5.640
10288SOL    HW131763   3.624   0.074   5.665
10288SOL    HW231764   3.467   0.037   5.687
10289SOL     OW31765   3.033   6.047   6.313
10289SOL    HW131766   3.113   6.104   6.332
10289SOL    HW231767   3.020   6.040   6.214
10290SOL     OW31768   3.043   3.112   2.424
10290SOL    HW131769   2.975   3.184   2.411
10290SOL    HW231770   3.124   3.134   2.369
10291SOL     OW31771   2.067   1.356   2.312
10291SOL    HW131772   2.108   1.310   2.232
10291SOL    HW231773   2.052   1.452   2.291
10292SOL     OW31774   6.198   6.425   6.918
10292SOL    HW131775   6.214   6.475   6.832
10292SOL    HW231776   6.137   6.348   6.901
10293SOL     OW31777   1.072   4.100   4.390
10293SOL    HW131778   1.097   4.164   4.318
10293SOL    HW231779   1.128   4.117   4.471
10294SOL     OW31780   3.514   1.698   1.909
10294SOL    HW131781   3.593   1.640   1.932
10294SOL    HW231782   3.503   1.700   1.810
10295SOL     OW31783   1.107   2.177   0.126
10295SOL    HW131784   1.146   2.087   0.107
10295SOL    HW231785   1.037   2.169   0.197
10296SOL     OW31786   5.655   1.269   6.133
10296SOL    HW131787   5.623   1.363   6.145
10296SOL    HW231788   5.712   1.262   6.051
10297SOL     OW31789   3.233   1.544   6.934
10297SOL    HW131790   3.138   1.522   6.911
10297SOL    HW231791   3.237   1.591   7.022
10298SOL     OW31792   0.741   2.618   2.708
10298SOL    HW131793   0.716   2.667   2.791
10298SOL    HW231794   0.742   2.681   2.630
10299SOL     OW31795   3.994   6.180   2.909
10299SOL    HW131796   4.025   6.123   2.833
10299SOL    HW231797   4.044   6.155   2.992
10300SOL     OW31798   0.590   3.574   1.831
10300SOL    HW131799   0.665   3.508   1.820
10300SOL    HW231800   0.504   3.531   1.803
10301SOL     OW31801   3.788   0.749   6.268
10301SOL    HW131802   3.862   0.682   6.265
10301SOL    HW231803   3.700   0.701   6.271
10302SOL     OW31804   2.858   5.956   4.727
10302SOL    HW131805   2.859   5.869   4.678
10302SOL    HW231806   2.827   6.029   4.666
10303SOL     OW31807   1.068   6.276   4.938
10303SOL    HW131808   1.031   6.333   5.011
10303SOL    HW231809   1.096   6.188   4.976
10304SOL     OW31810   6.436   6.621   0.278
10304SOL    HW131811   6.522   6.667   0.301
10304SOL    HW231812   6.441   6.526   0.307
10305SOL     OW31813   2.326   4.100   5.910
10305SOL    HW131814   2.423   4.120   5.891
10305SOL    HW231815   2.287   4.048   5.835
10306SOL     OW31816   5.036   0.016   1.243
10306SOL    HW131817   4.967   6.997   1.302
10306SOL    HW231818   4.992   0.081   1.181
10307SOL     OW31819   2.338   0.083   4.903
10307SOL    HW131820   2.278   0.114   4.829
10307SOL    HW231821   2.433   0.097   4.877
10308SOL     OW31822   2.755   4.728   2.811
10308SOL    HW131823   2.789   4.726   2.717
10308SOL    HW231824   2.680   4.663   2.820
10309SOL     OW31825   6.216   1.062   5.027
10309SOL    HW131826   6.252   0.978   4.986
10309SOL    HW231827   6.265   1.080   5.113
10310SOL     OW31828   2.715   3.248   5.793
10310SOL    HW131829   2.749   3.335   5.829
10310SOL    HW231830   2.667   3.198   5.865
10311SOL     OW31831   5.348   6.206   0.224
10311SOL    HW131832   5.327   6.223   0.320
10311SOL    HW231833   5.355   6.293   0.176
10312SOL     OW31834   4.495   0.202   2.028
10312SOL    HW131835   4.454   0.274   2.085
10312SOL    HW231836   4.537   0.133   2.087
10313SOL     OW31837   4.929   6.370   3.042
10313SOL    HW131838   4.967   6.394   2.953
10313SOL    HW231839   4.913   6.454   3.095
10314SOL     OW31840   0.611   0.086   1.000
10314SOL    HW131841   0.673   0.164   1.002
10314SOL    HW231842   0.655   0.007   1.043
10315SOL     OW31843   5.431   6.675   3.865
10315SOL    HW131844   5.401   6.581   3.874
10315SOL    HW231845   5.412   6.725   3.950
10316SOL     OW31846   0.800   2.390   7.022
10316SOL    HW131847   0.749   2.389   0.085
10316SOL    HW231848   0.897   2.406   0.018
10317SOL     OW31849   3.682   6.068   5.799
10317SOL    HW131850   3.659   5.973   5.821
10317SOL    HW231851   3.770   6.072   5.753
10318SOL     OW31852   6.155   6.473   0.171
10318SOL    HW131853   6.153   6.483   0.071
10318SOL    HW231854   6.249   6.468   0.202
10319SOL     OW31855   0.224   4.419   4.573
10319SOL    HW131856   0.247   4.510   4.540
10319SOL    HW231857   0.186   4.425   4.665
10320SOL     OW31858   0.711   6.931   3.976
10320SOL    HW131859   0.767   7.011   3.999
10320SOL    HW231860   0.743   6.891   3.890
10321SOL     OW31861   5.309   2.468   2.137
10321SOL    HW131862   5.363   2.508   2.211
10321SOL    HW231863   5.214   2.459   2.167
10322SOL     OW31864   4.579   4.478   4.896
10322SOL    HW131865   4.566   4.408   4.825
10322SOL    HW231866   4.490   4.517   4.920
10323SOL     OW31867   0.318   4.427   5.112
10323SOL    HW131868   0.376   4.488   5.058
10323SOL    HW231869   0.347   4.430   5.208
10324SOL     OW31870   3.276   3.200   2.315
10324SOL    HW131871   3.354   3.137   2.318
10324SOL    HW231872   3.308   3.293   2.301
10325SOL     OW31873   0.468   6.300   3.018
10325SOL    HW131874   0.471   6.287   3.117
10325SOL    HW231875   0.493   6.214   2.972
10326SOL     OW31876   5.399   3.317   6.606
10326SOL    HW131877   5.387   3.379   6.529
10326SOL    HW231878   5.496   3.303   6.623
10327SOL     OW31879   2.562   3.888   1.119
10327SOL    HW131880   2.536   3.860   1.027
10327SOL    HW231881   2.661   3.881   1.129
10328SOL     OW31882   6.589   3.040   1.693
10328SOL    HW131883   6.652   3.089   1.753
10328SOL    HW231884   6.513   3.004   1.746
10329SOL     OW31885   3.422   1.531   2.853
10329SOL    HW131886   3.408   1.608   2.791
10329SOL    HW231887   3.485   1.559   2.926
10330SOL     OW31888   4.602   0.617   1.659
10330SOL    HW131889   4.507   0.604   1.631
10330SOL    HW231890   4.609   0.698   1.718
10331SOL     OW31891   6.469   5.699   0.415
10331SOL    HW131892   6.531   5.701   0.337
10331SOL    HW231893   6.374   5.707   0.383
10332SOL     OW31894   0.908   0.876   6.980
10332SOL    HW131895   0.982   0.881   0.023
10332SOL    HW231896   0.940   0.829   6.898
10333SOL     OW31897   0.906   5.867   4.581
10333SOL    HW131898   0.944   5.779   4.609
10333SOL    HW231899   0.870   5.916   4.660
10334SOL     OW31900   3.110   0.367   4.299
10334SOL    HW131901   3.092   0.269   4.302
10334SOL    HW231902   3.100   0.400   4.206
10335SOL     OW31903   0.651   3.001   5.854
10335SOL    HW131904   0.552   3.002   5.869
10335SOL    HW231905   0.694   3.066   5.916
10336SOL     OW31906   5.550   0.396   2.721
10336SOL    HW131907   5.502   0.478   2.750
10336SOL    HW231908   5.644   0.398   2.755
10337SOL     OW31909   6.319   5.239   6.979
10337SOL    HW131910   6.273   5.323   6.947
10337SOL    HW231911   6.354   5.188   6.901
10338SOL     OW31912   1.931   6.477   2.030
10338SOL    HW131913   1.910   6.401   2.092
10338SOL    HW231914   2.025   6.507   2.047
10339SOL     OW31915   6.661   2.264   5.932
10339SOL    HW131916   6.755   2.297   5.928
10339SOL    HW231917   6.608   2.306   5.859
10340SOL     OW31918   2.249   3.837   6.381
10340SOL    HW131919   2.251   3.861   6.284
10340SOL    HW231920   2.175   3.886   6.426
10341SOL     OW31921   2.395   2.568   2.563
10341SOL    HW131922   2.380   2.660   2.600
10341SOL    HW231923   2.430   2.576   2.469
10342SOL     OW31924   1.023   0.544   3.370
10342SOL    HW131925   1.108   0.576   3.328
10342SOL    HW231926   0.966   0.623   3.395
10343SOL     OW31927   2.027   5.457   0.831
10343SOL    HW131928   2.070   5.509   0.904
10343SOL    HW231929   2.095   5.436   0.761
10344SOL     OW31930   3.836   4.878   6.627
10344SOL    HW131931   3.863   4.796   6.678
10344SOL    HW231932   3.918   4.933   6.609
10345SOL     OW31933   1.244   3.374   5.113
10345SOL    HW131934   1.266   3.329   5.199
10345SOL    HW231935   1.289   3.464   5.110
10346SOL     OW31936   0.429   5.603   1.564
10346SOL    HW131937   0.523   5.598   1.528
10346SOL    HW231938   0.427   5.567   1.657
10347SOL     OW31939   4.649   1.552   3.556
10347SOL    HW131940   4.647   1.592   3.464
10347SOL    HW231941   4.556   1.539   3.588
10348SOL     OW31942   6.131   4.180   0.699
10348SOL    HW131943   6.106   4.265   0.652
10348SOL    HW231944   6.231   4.171   0.699
10349SOL     OW31945   7.010   6.266   6.638
10349SOL    HW131946   7.010   6.341   6.704
10349SOL    HW231947   6.943   6.284   6.567
10350SOL     OW31948   2.837   0.355   5.741
10350SOL    HW131949   2.784   0.409   5.807
10350SOL    HW231950   2.906   0.302   5.790
10351SOL     OW31951   4.324   5.230   5.493
10351SOL    HW131952   4.307   5.132   5.479
10351SOL    HW231953   4.300   5.255   5.587
10352SOL     OW31954   3.819   2.732   5.907
10352SOL    HW131955   3.753   2.755   5.835
10352SOL    HW231956   3.791   2.647   5.951
10353SOL     OW31957   6.739   2.669   5.081
10353SOL    HW131958   6.699   2.739   5.023
10353SOL    HW231959   6.738   2.581   5.033
10354SOL     OW31960   5.400   1.623   2.318
10354SOL    HW131961   5.410   1.707   2.264
10354SOL    HW231962   5.307   1.588   2.307
10355SOL     OW31963   2.384   5.826   1.934
10355SOL    HW131964   2.386   5.890   1.858
10355SOL    HW231965   2.369   5.876   2.019
10356SOL     OW31966   0.347   3.743   5.124
10356SOL    HW131967   0.404   3.751   5.042
10356SOL    HW231968   0.251   3.749   5.099
10357SOL     OW31969   2.540   1.665   0.032
10357SOL    HW131970   2.500   1.573   0.030
10357SOL    HW231971   2.627   1.664   7.006
10358SOL     OW31972   0.186   1.756   1.900
10358SOL    HW131973   0.247   1.708   1.963
10358SOL    HW231974   0.208   1.729   1.806
10359SOL     OW31975   0.337   0.897   1.430
10359SOL    HW131976   0.336   0.984   1.479
10359SOL    HW231977   0.244   0.874   1.402
10360SOL     OW31978   5.689   6.619   3.565
10360SOL    HW131979   5.614   6.677   3.595
10360SOL    HW231980   5.694   6.619   3.465
10361SOL     OW31981   2.842   5.142   1.691
10361SOL    HW131982   2.898   5.224   1.685
10361SOL    HW231983   2.767   5.156   1.755
10362SOL     OW31984   1.984   4.330   4.829
10362SOL    HW131985   2.039   4.256   4.867
10362SOL    HW231986   1.984   4.324   4.730
10363SOL     OW31987   5.162   1.030   3.872
10363SOL    HW131988   5.123   1.071   3.954
10363SOL    HW231989   5.252   1.068   3.855
10364SOL     OW31990   1.834   4.221   1.513
10364SOL    HW131991   1.909   4.166   1.475
10364SOL    HW231992   1.751   4.165   1.517
10365SOL     OW31993   5.019   5.256   0.109
10365SOL    HW131994   4.966   5.338   0.132
10365SOL    HW231995   4.984   5.217   0.024
10366SOL     OW31996   3.236   6.366   3.329
10366SOL    HW131997   3.312   6.346   3.268
10366SOL    HW231998   3.173   6.429   3.283
10367SOL     OW31999   6.781   2.129   3.672
10367SOL    HW132000   6.832   2.172   3.746
10367SOL    HW232001   6.820   2.156   3.584
10368SOL     OW32002   2.252   0.585   1.806
10368SOL    HW132003   2.333   0.631   1.771
10368SOL    HW232004   2.176   0.600   1.743
10369SOL     OW32005   3.950   2.663   0.042
10369SOL    HW132006   3.875   2.621   7.013
10369SOL    HW232007   3.930   2.658   0.140
10370SOL     OW32008   3.021   0.835   5.601
10370SOL    HW132009   3.040   0.742   5.634
10370SOL    HW232010   3.055   0.844   5.507
10371SOL     OW32011   5.190   6.466   5.573
10371SOL    HW132012   5.151   6.412   5.648
10371SOL    HW232013   5.260   6.528   5.610
10372SOL     OW32014   1.462   0.670   3.093
10372SOL    HW132015   1.523   0.718   3.156
10372SOL    HW232016   1.446   0.577   3.127
10373SOL     OW32017   0.713   5.956   4.777
10373SOL    HW132018   0.687   5.949   4.874
10373SOL    HW232019   0.677   6.042   4.740
10374SOL     OW32020   3.060   2.156   3.043
10374SOL    HW132021   2.993   2.200   2.984
10374SOL    HW232022   3.030   2.063   3.065
10375SOL     OW32023   6.066   2.014   0.650
10375SOL    HW132024   5.968   2.012   0.673
10375SOL    HW232025   6.114   2.073   0.714
10376SOL     OW32026   0.174   1.210   4.079
10376SOL    HW132027   0.209   1.166   3.996
10376SOL    HW232028   0.162   1.308   4.062
10377SOL     OW32029   1.081   6.864   4.494
10377SOL    HW132030   1.128   6.811   4.424
10377SOL    HW232031   1.013   6.924   4.452
10378SOL     OW32032   0.123   6.937   6.336
10378SOL    HW132033   0.064   7.018   6.328
10378SOL    HW232034   0.191   6.938   6.263
10379SOL     OW32035   5.340   1.730   4.241
10379SOL    HW132036   5.343   1.801   4.311
10379SOL    HW232037   5.245   1.713   4.215
10380SOL     OW32038   5.087   0.255   2.128
10380SOL    HW132039   5.165   0.255   2.190
10380SOL    HW232040   5.119   0.243   2.034
10381SOL     OW32041   4.475   4.957   5.360
10381SOL    HW132042   4.455   4.877   5.417
10381SOL    HW232043   4.556   5.003   5.396
10382SOL     OW32044   2.267   5.331   0.305
10382SOL    HW132045   2.284   5.243   0.351
10382SOL    HW232046   2.288   5.406   0.368
10383SOL     OW32047   0.276   1.871   0.351
10383SOL    HW132048   0.236   1.954   0.312
10383SOL    HW232049   0.369   1.890   0.381
10384SOL     OW32050   6.093   0.009   0.367
10384SOL    HW132051   6.101   0.066   0.449
10384SOL    HW232052   6.168   6.965   0.367
10385SOL     OW32053   5.727   1.891   6.593
10385SOL    HW132054   5.669   1.810   6.603
10385SOL    HW232055   5.671   1.973   6.601
10386SOL     OW32056   5.856   3.014   6.156
10386SOL    HW132057   5.780   3.031   6.219
10386SOL    HW232058   5.924   3.086   6.167
10387SOL     OW32059   2.165   2.861   3.344
10387SOL    HW132060   2.182   2.823   3.435
10387SOL    HW232061   2.082   2.821   3.306
10388SOL     OW32062   1.718   4.539   2.960
10388SOL    HW132063   1.725   4.488   3.045
10388SOL    HW232064   1.810   4.559   2.925
10389SOL     OW32065   0.691   5.522   3.149
10389SOL    HW132066   0.595   5.516   3.176
10389SOL    HW232067   0.734   5.599   3.197
10390SOL     OW32068   1.701   3.476   3.627
10390SOL    HW132069   1.622   3.430   3.667
10390SOL    HW232070   1.686   3.575   3.627
10391SOL     OW32071   3.053   6.951   6.066
10391SOL    HW132072   3.139   6.997   6.088
10391SOL    HW232073   3.010   6.997   5.988
10392SOL     OW32074   6.429   5.127   6.743
10392SOL    HW132075   6.439   5.203   6.679
10392SOL    HW232076   6.413   5.042   6.692
10393SOL     OW32077   1.185   1.374   3.897
10393SOL    HW132078   1.227   1.431   3.968
10393SOL    HW232079   1.086   1.372   3.910
10394SOL     OW32080   2.041   6.419   6.790
10394SOL    HW132081   2.001   6.510   6.783
10394SOL    HW232082   2.025   6.382   6.882
10395SOL     OW32083   0.665   1.411   4.723
10395SOL    HW132084   0.653   1.406   4.624
10395SOL    HW232085   0.590   1.365   4.769
10396SOL     OW32086   0.447   7.023   4.944
10396SOL    HW132087   0.372   0.014   5.008
10396SOL    HW232088   0.427   0.047   4.858
10397SOL     OW32089   4.152   1.631   2.867
10397SOL    HW132090   4.150   1.728   2.890
10397SOL    HW232091   4.068   1.587   2.900
10398SOL     OW32092   6.817   2.677   2.606
10398SOL    HW132093   6.885   2.605   2.592
10398SOL    HW232094   6.756   2.681   2.527
10399SOL     OW32095   5.931   1.681   5.667
10399SOL    HW132096   5.984   1.699   5.749
10399SOL    HW232097   5.873   1.759   5.646
10400SOL     OW32098   2.482   4.396   1.144
10400SOL    HW132099   2.383   4.402   1.157
10400SOL    HW232100   2.517   4.314   1.190
10401SOL     OW32101   0.687   6.404   1.248
10401SOL    HW132102   0.731   6.315   1.253
10401SOL    HW232103   0.587   6.392   1.249
10402SOL     OW32104   0.452   3.174   4.110
10402SOL    HW132105   0.469   3.119   4.028
10402SOL    HW232106   0.502   3.260   4.102
10403SOL     OW32107   5.115   1.443   2.174
10403SOL    HW132108   5.058   1.378   2.225
10403SOL    HW232109   5.076   1.535   2.181
10404SOL     OW32110   0.648   6.444   3.722
10404SOL    HW132111   0.721   6.416   3.783
10404SOL    HW232112   0.559   6.427   3.765
10405SOL     OW32113   1.749   6.863   6.341
10405SOL    HW132114   1.716   6.770   6.356
10405SOL    HW232115   1.844   6.860   6.310
10406SOL     OW32116   2.516   5.271   6.058
10406SOL    HW132117   2.544   5.366   6.069
10406SOL    HW232118   2.597   5.213   6.044
10407SOL     OW32119   0.986   1.180   6.875
10407SOL    HW132120   0.897   1.206   6.912
10407SOL    HW232121   1.034   1.123   6.941
10408SOL     OW32122   4.354   5.233   3.421
10408SOL    HW132123   4.379   5.241   3.324
10408SOL    HW232124   4.433   5.200   3.473
10409SOL     OW32125   6.225   4.830   2.221
10409SOL    HW132126   6.230   4.929   2.211
10409SOL    HW232127   6.267   4.803   2.308
10410SOL     OW32128   6.335   6.623   1.028
10410SOL    HW132129   6.325   6.711   1.074
10410SOL    HW232130   6.364   6.553   1.094
10411SOL     OW32131   2.070   4.484   2.555
10411SOL    HW132132   2.094   4.388   2.563
10411SOL    HW232133   2.087   4.515   2.461
10412SOL     OW32134   0.817   1.894   0.037
10412SOL    HW132135   0.773   1.973   0.080
10412SOL    HW232136   0.825   1.820   0.103
10413SOL     OW32137   7.002   2.004   6.645
10413SOL    HW132138   0.027   2.081   6.603
10413SOL    HW232139   6.968   2.031   6.735
10414SOL     OW32140   5.732   0.047   5.263
10414SOL    HW132141   5.641   0.087   5.255
10414SOL    HW232142   5.728   6.991   5.325
10415SOL     OW32143   0.809   5.936   3.439
10415SOL    HW132144   0.800   5.991   3.522
10415SOL    HW232145   0.903   5.943   3.405
10416SOL     OW32146   5.072   0.370   6.507
10416SOL    HW132147   5.001   0.415   6.453
10416SOL    HW232148   5.036   0.344   6.596
10417SOL     OW32149   3.640   4.892   4.461
10417SOL    HW132150   3.724   4.883   4.407
10417SOL    HW232151   3.563   4.910   4.400
10418SOL     OW32152   6.463   3.747   6.619
10418SOL    HW132153   6.496   3.658   6.649
10418SOL    HW232154   6.391   3.735   6.551
10419SOL     OW32155   2.609   1.554   4.530
10419SOL    HW132156   2.532   1.612   4.502
10419SOL    HW232157   2.688   1.611   4.551
10420SOL     OW32158   5.459   3.308   3.284
10420SOL    HW132159   5.496   3.295   3.376
10420SOL    HW232160   5.407   3.226   3.258
10421SOL     OW32161   0.866   5.040   4.014
10421SOL    HW132162   0.818   4.987   3.944
10421SOL    HW232163   0.814   5.122   4.035
10422SOL     OW32164   6.522   3.896   5.290
10422SOL    HW132165   6.577   3.823   5.249
10422SOL    HW232166   6.451   3.924   5.226
10423SOL     OW32167   2.379   5.135   4.085
10423SOL    HW132168   2.409   5.047   4.048
10423SOL    HW232169   2.323   5.182   4.017
10424SOL     OW32170   3.216   1.315   0.500
10424SOL    HW132171   3.145   1.254   0.537
10424SOL    HW232172   3.201   1.407   0.535
10425SOL     OW32173   1.651   2.752   0.926
10425SOL    HW132174   1.744   2.719   0.945
10425SOL    HW232175   1.652   2.852   0.920
10426SOL     OW32176   6.394   1.971   6.349
10426SOL    HW132177   6.385   1.888   6.294
10426SOL    HW232178   6.424   2.047   6.291
10427SOL     OW32179   5.333   1.283   4.359
10427SOL    HW132180   5.334   1.375   4.398
10427SOL    HW232181   5.418   1.266   4.311
10428SOL     OW32182   2.151   0.365   4.341
10428SOL    HW132183   2.124   0.418   4.261
10428SOL    HW232184   2.250   0.372   4.355
10429SOL     OW32185   1.250   3.033   1.148
10429SOL    HW132186   1.246   2.959   1.082
10429SOL    HW232187   1.160   3.077   1.153
10430SOL     OW32188   2.915   0.100   3.978
10430SOL    HW132189   2.976   0.042   3.924
10430SOL    HW232190   2.957   0.190   3.990
10431SOL     OW32191   3.796   0.601   3.271
10431SOL    HW132192   3.844   0.619   3.185
10431SOL    HW232193   3.827   0.514   3.309
10432SOL     OW32194   0.924   5.727   6.323
10432SOL    HW132195   0.832   5.690   6.330
10432SOL    HW232196   0.921   5.818   6.282
10433SOL     OW32197   3.079   6.693   3.037
10433SOL    HW132198   3.116   6.732   3.121
10433SOL    HW232199   2.985   6.724   3.024
10434SOL     OW32200   5.165   0.939   5.804
10434SOL    HW132201   5.141   0.850   5.764
10434SOL    HW232202   5.151   0.935   5.903
10435SOL     OW32203   2.386   1.797   0.404
10435SOL    HW132204   2.433   1.884   0.392
10435SOL    HW232205   2.325   1.781   0.327
10436SOL     OW32206   0.040   3.812   5.003
10436SOL    HW132207   0.067   3.854   4.916
10436SOL    HW232208   0.037   3.712   4.992
10437SOL     OW32209   6.073   6.473   4.704
10437SOL    HW132210   6.055   6.402   4.637
10437SOL    HW232211   5.987   6.503   4.745
10438SOL     OW32212   6.836   5.833   6.902
10438SOL    HW132213   6.746   5.804   6.869
10438SOL    HW232214   6.907   5.773   6.866
10439SOL     OW32215   6.457   5.694   4.518
10439SOL    HW132216   6.430   5.784   4.484
10439SOL    HW232217   6.385   5.627   4.497
10440SOL     OW32218   6.155   2.893   1.056
10440SOL    HW132219   6.233   2.937   1.013
10440SOL    HW232220   6.075   2.902   0.997
10441SOL     OW32221   4.682   1.599   6.960
10441SOL    HW132222   4.759   1.637   7.011
10441SOL    HW232223   4.603   1.660   6.969
10442SOL     OW32224   1.686   1.295   4.976
10442SOL    HW132225   1.706   1.260   5.067
10442SOL    HW232226   1.639   1.383   4.983
10443SOL     OW32227   0.899   1.260   0.928
10443SOL    HW132228   0.977   1.275   0.988
10443SOL    HW232229   0.897   1.164   0.900
10444SOL     OW32230   3.864   4.908   4.326
10444SOL    HW132231   3.961   4.891   4.345
10444SOL    HW232232   3.846   4.898   4.228
10445SOL     OW32233   1.176   3.456   3.741
10445SOL    HW132234   1.207   3.434   3.649
10445SOL    HW232235   1.088   3.503   3.736
10446SOL     OW32236   2.366   4.795   5.714
10446SOL    HW132237   2.450   4.835   5.753
10446SOL    HW232238   2.346   4.840   5.627
10447SOL     OW32239   0.679   2.329   2.452
10447SOL    HW132240   0.661   2.277   2.535
10447SOL    HW232241   0.778   2.335   2.437
10448SOL     OW32242   2.348   6.610   1.857
10448SOL    HW132243   2.254   6.618   1.825
10448SOL    HW232244   2.363   6.671   1.935
10449SOL     OW32245   3.675   4.973   4.788
10449SOL    HW132246   3.625   5.060   4.781
10449SOL    HW232247   3.624   4.902   4.739
10450SOL     OW32248   6.857   0.828   5.202
10450SOL    HW132249   6.768   0.791   5.177
10450SOL    HW232250   6.929   0.783   5.148
10451SOL     OW32251   3.334   1.530   3.885
10451SOL    HW132252   3.244   1.561   3.914
10451SOL    HW232253   3.325   1.446   3.832
10452SOL     OW32254   6.063   2.941   4.824
10452SOL    HW132255   5.983   2.995   4.851
10452SOL    HW232256   6.035   2.848   4.801
10453SOL     OW32257   4.467   6.106   3.999
10453SOL    HW132258   4.499   6.069   4.086
10453SOL    HW232259   4.448   6.030   3.936
10454SOL     OW32260   6.418   1.321   6.422
10454SOL    HW132261   6.487   1.392   6.407
10454SOL    HW232262   6.408   1.304   6.520
10455SOL     OW32263   0.393   5.807   3.247
10455SOL    HW132264   0.390   5.707   3.244
10455SOL    HW232265   0.487   5.839   3.240
10456SOL     OW32266   1.421   5.478   6.680
10456SOL    HW132267   1.359   5.514   6.749
10456SOL    HW232268   1.391   5.507   6.589
10457SOL     OW32269   3.990   2.147   6.614
10457SOL    HW132270   4.074   2.098   6.592
10457SOL    HW232271   3.915   2.082   6.626
10458SOL     OW32272   0.734   5.741   0.124
10458SOL    HW132273   0.684   5.707   0.045
10458SOL    HW232274   0.827   5.766   0.096
10459SOL     OW32275   6.224   5.082   1.243
10459SOL    HW132276   6.323   5.084   1.254
10459SOL    HW232277   6.190   5.174   1.224
10460SOL     OW32278   6.824   0.396   0.901
10460SOL    HW132279   6.895   0.343   0.947
10460SOL    HW232280   6.855   0.419   0.809
10461SOL     OW32281   6.912   4.693   6.481
10461SOL    HW132282   6.999   4.669   6.438
10461SOL    HW232283   6.930   4.747   6.564
10462SOL     OW32284   4.074   2.963   6.145
10462SOL    HW132285   4.114   3.017   6.219
10462SOL    HW232286   3.993   3.010   6.109
10463SOL     OW32287   5.013   1.971   6.586
10463SOL    HW132288   5.087   1.904   6.579
10463SOL    HW232289   4.966   1.979   6.498
10464SOL     OW32290   6.504   4.681   2.184
10464SOL    HW132291   6.514   4.698   2.086
10464SOL    HW232292   6.438   4.745   2.222
10465SOL     OW32293   5.212   4.537   1.331
10465SOL    HW132294   5.271   4.575   1.402
10465SOL    HW232295   5.228   4.438   1.323
10466SOL     OW32296   6.271   4.314   6.073
10466SOL    HW132297   6.312   4.304   5.982
10466SOL    HW232298   6.262   4.411   6.095
10467SOL     OW32299   0.915   3.061   0.073
10467SOL    HW132300   0.976   3.080   0.150
10467SOL    HW232301   0.835   3.121   0.078
10468SOL     OW32302   1.762   4.449   3.484
10468SOL    HW132303   1.858   4.445   3.512
10468SOL    HW232304   1.719   4.360   3.498
10469SOL     OW32305   0.166   1.496   4.140
10469SOL    HW132306   0.166   1.595   4.158
10469SOL    HW232307   0.119   1.449   4.215
10470SOL     OW32308   2.076   3.333   3.107
10470SOL    HW132309   2.154   3.390   3.135
10470SOL    HW232310   2.074   3.250   3.163
10471SOL     OW32311   2.696   6.509   6.817
10471SOL    HW132312   2.727   6.454   6.895
10471SOL    HW232313   2.747   6.482   6.735
10472SOL     OW32314   3.949   5.135   6.958
10472SOL    HW132315   3.977   5.189   0.014
10472SOL    HW232316   3.853   5.156   6.936
10473SOL     OW32317   5.692   4.797   0.968
10473SOL    HW132318   5.771   4.804   0.907
10473SOL    HW232319   5.716   4.834   1.058
10474SOL     OW32320   5.741   0.899   4.619
10474SOL    HW132321   5.738   0.862   4.712
10474SOL    HW232322   5.764   0.826   4.555
10475SOL     OW32323   1.226   5.380   1.020
10475SOL    HW132324   1.172   5.438   1.081
10475SOL    HW232325   1.310   5.353   1.066
10476SOL     OW32326   4.759   6.590   1.057
10476SOL    HW132327   4.754   6.575   0.958
10476SOL    HW232328   4.825   6.526   1.098
10477SOL     OW32329   0.140   5.628   3.628
10477SOL    HW132330   0.101   5.678   3.550
10477SOL    HW232331   0.067   5.581   3.677
10478SOL     OW32332   6.726   0.874   6.967
10478SOL    HW132333   6.797   0.818   7.011
10478SOL    HW232334   6.767   0.958   6.931
10479SOL     OW32335   0.692   3.221   1.914
10479SOL    HW132336   0.735   3.157   1.978
10479SOL    HW232337   0.759   3.290   1.886
10480SOL     OW32338   2.330   0.571   3.514
10480SOL    HW132339   2.405   0.504   3.508
10480SOL    HW232340   2.261   0.549   3.445
10481SOL     OW32341   0.238   1.100   1.653
10481SOL    HW132342   0.152   1.099   1.600
10481SOL    HW232343   0.300   1.167   1.613
10482SOL     OW32344   5.543   3.142   4.033
10482SOL    HW132345   5.510   3.183   3.948
10482SOL    HW232346   5.520   3.202   4.110
10483SOL     OW32347   6.580   6.144   0.319
10483SOL    HW132348   6.510   6.073   0.329
10483SOL    HW232349   6.609   6.176   0.409
10484SOL     OW32350   6.375   1.278   2.750
10484SOL    HW132351   6.356   1.295   2.653
10484SOL    HW232352   6.461   1.323   2.775
10485SOL     OW32353   5.171   3.642   5.376
10485SOL    HW132354   5.154   3.580   5.453
10485SOL    HW232355   5.195   3.732   5.410
10486SOL     OW32356   5.612   3.100   2.119
10486SOL    HW132357   5.641   3.104   2.024
10486SOL    HW232358   5.566   3.185   2.144
10487SOL     OW32359   5.773   6.735   1.464
10487SOL    HW132360   5.813   6.827   1.467
10487SOL    HW232361   5.733   6.719   1.374
10488SOL     OW32362   2.509   2.652   0.270
10488SOL    HW132363   2.409   2.654   0.270
10488SOL    HW232364   2.541   2.586   0.338
10489SOL     OW32365   1.288   5.551   5.447
10489SOL    HW132366   1.209   5.490   5.453
10489SOL    HW232367   1.361   5.517   5.507
10490SOL     OW32368   6.959   0.254   3.889
10490SOL    HW132369   6.933   0.341   3.849
10490SOL    HW232370   6.934   0.179   3.827
10491SOL     OW32371   0.797   4.366   5.667
10491SOL    HW132372   0.751   4.339   5.751
10491SOL    HW232373   0.770   4.459   5.643
10492SOL     OW32374   3.800   3.806   5.592
10492SOL    HW132375   3.874   3.782   5.529
10492SOL    HW232376   3.764   3.723   5.635
10493SOL     OW32377   3.628   1.040   1.068
10493SOL    HW132378   3.618   0.950   1.026
10493SOL    HW232379   3.723   1.069   1.063
10494SOL     OW32380   5.685   2.618   4.378
10494SOL    HW132381   5.766   2.563   4.395
10494SOL    HW232382   5.635   2.631   4.463
10495SOL     OW32383   1.467   6.967   0.088
10495SOL    HW132384   1.556   6.948   0.129
10495SOL    HW232385   1.475   0.019   0.023
10496SOL     OW32386   6.531   0.199   5.289
10496SOL    HW132387   6.492   0.257   5.218
10496SOL    HW232388   6.459   0.168   5.350
10497SOL     OW32389   1.351   1.166   0.843
10497SOL    HW132390   1.310   1.137   0.930
10497SOL    HW232391   1.409   1.092   0.808
10498SOL     OW32392   2.906   5.447   6.246
10498SOL    HW132393   2.923   5.410   6.155
10498SOL    HW232394   2.872   5.374   6.306
10499SOL     OW32395   3.658   5.317   3.579
10499SOL    HW132396   3.586   5.299   3.511
10499SOL    HW232397   3.681   5.233   3.627
10500SOL     OW32398   1.317   2.124   6.535
10500SOL    HW132399   1.415   2.135   6.517
10500SOL    HW232400   1.290   2.030   6.513
10501SOL     OW32401   1.488   2.715   3.027
10501SOL    HW132402   1.472   2.721   3.125
10501SOL    HW232403   1.483   2.806   2.987
10502SOL     OW32404   3.111   6.670   5.804
10502SOL    HW132405   3.052   6.606   5.754
10502SOL    HW232406   3.072   6.687   5.895
10503SOL     OW32407   2.362   3.417   5.782
10503SOL    HW132408   2.433   3.457   5.724
10503SOL    HW232409   2.296   3.367   5.725
10504SOL     OW32410   2.971   2.802   0.807
10504SOL    HW132411   2.965   2.888   0.858
10504SOL    HW232412   3.065   2.767   0.812
10505SOL     OW32413   0.425   6.762   1.222
10505SOL    HW132414   0.347   6.802   1.272
10505SOL    HW232415   0.391   6.710   1.144
10506SOL     OW32416   0.478   4.191   5.627
10506SOL    HW132417   0.378   4.182   5.632
10506SOL    HW232418   0.509   4.248   5.703
10507SOL     OW32419   0.679   0.380   4.953
10507SOL    HW132420   0.749   0.442   4.917
10507SOL    HW232421   0.669   0.302   4.892
10508SOL     OW32422   5.159   4.553   2.812
10508SOL    HW132423   5.110   4.478   2.767
10508SOL    HW232424   5.228   4.516   2.874
10509SOL     OW32425   1.743   0.324   5.813
10509SOL    HW132426   1.799   0.378   5.876
10509SOL    HW232427   1.694   0.385   5.751
10510SOL     OW32428   6.648   5.925   0.043
10510SOL    HW132429   6.669   5.894   0.136
10510SOL    HW232430   6.693   5.866   7.000
10511SOL     OW32431   5.632   2.417   0.180
10511SOL    HW132432   5.568   2.368   0.121
10511SOL    HW232433   5.680   2.486   0.127
10512SOL     OW32434   3.646   6.462   6.731
10512SOL    HW132435   3.546   6.456   6.724
10512SOL    HW232436   3.675   6.556   6.719
10513SOL     OW32437   6.420   2.496   0.062
10513SOL    HW132438   6.462   2.441   0.135
10513SOL    HW232439   6.379   2.578   0.102
10514SOL     OW32440   0.045   3.908   1.680
10514SOL    HW132441   7.013   3.916   1.598
10514SOL    HW232442   0.061   3.998   1.720
10515SOL     OW32443   6.415   2.293   4.540
10515SOL    HW132444   6.510   2.304   4.571
10515SOL    HW232445   6.397   2.356   4.465
10516SOL     OW32446   3.958   0.595   6.612
10516SOL    HW132447   4.048   0.554   6.596
10516SOL    HW232448   3.945   0.612   6.710
10517SOL     OW32449   0.799   1.648   3.356
10517SOL    HW132450   0.702   1.639   3.334
10517SOL    HW232451   0.854   1.630   3.275
10518SOL     OW32452   0.670   6.849   1.090
10518SOL    HW132453   0.587   6.845   1.146
10518SOL    HW232454   0.703   6.756   1.074
10519SOL     OW32455   3.192   3.203   5.666
10519SOL    HW132456   3.095   3.191   5.691
10519SOL    HW232457   3.233   3.113   5.654
10520SOL     OW32458   4.308   3.112   6.320
10520SOL    HW132459   4.399   3.077   6.296
10520SOL    HW232460   4.279   3.178   6.251
10521SOL     OW32461   6.580   5.412   1.433
10521SOL    HW132462   6.480   5.410   1.425
10521SOL    HW232463   6.621   5.368   1.354
10522SOL     OW32464   6.366   0.807   1.630
10522SOL    HW132465   6.314   0.820   1.546
10522SOL    HW232466   6.462   0.790   1.608
10523SOL     OW32467   0.474   5.684   6.639
10523SOL    HW132468   0.443   5.734   6.558
10523SOL    HW232469   0.438   5.591   6.638
10524SOL     OW32470   3.347   0.795   4.345
10524SOL    HW132471   3.446   0.792   4.354
10524SOL    HW232472   3.309   0.855   4.415
10525SOL     OW32473   2.824   6.203   4.569
10525SOL    HW132474   2.803   6.237   4.477
10525SOL    HW232475   2.759   6.241   4.634
10526SOL     OW32476   5.578   6.754   2.479
10526SOL    HW132477   5.515   6.707   2.540
10526SOL    HW232478   5.596   6.696   2.399
10527SOL     OW32479   1.550   2.336   4.720
10527SOL    HW132480   1.589   2.310   4.808
10527SOL    HW232481   1.454   2.309   4.717
10528SOL     OW32482   6.627   5.096   5.399
10528SOL    HW132483   6.544   5.080   5.452
10528SOL    HW232484   6.699   5.131   5.459
10529SOL     OW32485   6.238   6.398   3.595
10529SOL    HW132486   6.322   6.361   3.633
10529SOL    HW232487   6.174   6.324   3.575
10530SOL     OW32488   1.903   1.735   5.972
10530SOL    HW132489   1.861   1.823   5.950
10530SOL    HW232490   1.958   1.745   6.056
10531SOL     OW32491   1.944   2.824   5.380
10531SOL    HW132492   2.015   2.844   5.447
10531SOL    HW232493   1.868   2.778   5.425
10532SOL     OW32494   3.488   2.755   5.561
10532SOL    HW132495   3.547   2.674   5.555
10532SOL    HW232496   3.420   2.751   5.488
10533SOL     OW32497   2.650   1.351   6.222
10533SOL    HW132498   2.561   1.306   6.226
10533SOL    HW232499   2.721   1.283   6.200
10534SOL     OW32500   6.139   5.583   1.065
10534SOL    HW132501   6.070   5.640   1.109
10534SOL    HW232502   6.096   5.522   0.998
10535SOL     OW32503   6.966   1.254   2.437
10535SOL    HW132504   6.952   1.165   2.481
10535SOL    HW232505   0.039   1.265   2.413
10536SOL     OW32506   4.186   0.299   3.315
10536SOL    HW132507   4.141   0.210   3.325
10536SOL    HW232508   4.285   0.287   3.318
10537SOL     OW32509   0.913   4.675   1.073
10537SOL    HW132510   0.896   4.664   1.171
10537SOL    HW232511   0.900   4.771   1.048
10538SOL     OW32512   5.350   3.601   0.208
10538SOL    HW132513   5.273   3.599   0.143
10538SOL    HW232514   5.433   3.627   0.160
10539SOL     OW32515   0.555   2.738   5.627
10539SOL    HW132516   0.510   2.813   5.675
10539SOL    HW232517   0.534   2.745   5.529
10540SOL     OW32518   2.655   0.563   6.864
10540SOL    HW132519   2.632   0.623   6.787
10540SOL    HW232520   2.655   0.468   6.833
10541SOL     OW32521   3.733   2.511   0.543
10541SOL    HW132522   3.726   2.548   0.451
10541SOL    HW232523   3.826   2.526   0.578
10542SOL     OW32524   0.460   2.584   0.065
10542SOL    HW132525   0.526   2.638   0.117
10542SOL    HW232526   0.386   2.643   0.034
10543SOL     OW32527   2.006   1.167   5.399
10543SOL    HW132528   1.919   1.131   5.433
10543SOL    HW232529   2.022   1.257   5.439
10544SOL     OW32530   0.900   2.630   2.087
10544SOL    HW132531   0.888   2.598   1.993
10544SOL    HW232532   0.943   2.558   2.141
10545SOL     OW32533   5.773   0.171   2.467
10545SOL    HW132534   5.870   0.164   2.444
10545SOL    HW232535   5.740   0.083   2.499
10546SOL     OW32536   3.097   1.022   4.249
10546SOL    HW132537   3.044   1.087   4.194
10546SOL    HW232538   3.051   0.933   4.249
10547SOL     OW32539   4.108   1.206   1.001
10547SOL    HW132540   4.130   1.286   0.945
10547SOL    HW232541   4.156   1.211   1.088
10548SOL     OW32542   4.853   4.089   4.948
10548SOL    HW132543   4.781   4.097   5.017
10548SOL    HW232544   4.859   3.994   4.917
10549SOL     OW32545   1.213   1.002   1.977
10549SOL    HW132546   1.142   0.936   2.000
10549SOL    HW232547   1.172   1.093   1.964
10550SOL     OW32548   4.941   0.084   4.920
10550SOL    HW132549   4.908   0.089   4.826
10550SOL    HW232550   4.971   7.014   4.940
10551SOL     OW32551   1.392   2.716   5.440
10551SOL    HW132552   1.430   2.808   5.451
10551SOL    HW232553   1.454   2.660   5.386
10552SOL     OW32554   2.865   2.219   5.224
10552SOL    HW132555   2.899   2.126   5.235
10552SOL    HW232556   2.937   2.276   5.185
10553SOL     OW32557   2.998   4.677   6.829
10553SOL    HW132558   2.994   4.612   6.753
10553SOL    HW232559   2.907   4.686   6.870
10554SOL     OW32560   6.482   4.472   5.900
10554SOL    HW132561   6.541   4.470   5.819
10554SOL    HW232562   6.451   4.566   5.917
10555SOL     OW32563   3.409   2.150   1.094
10555SOL    HW132564   3.343   2.164   1.021
10555SOL    HW232565   3.372   2.183   1.181
10556SOL     OW32566   1.976   3.041   4.395
10556SOL    HW132567   1.904   2.971   4.402
10556SOL    HW232568   2.061   3.005   4.434
10557SOL     OW32569   6.241   2.495   3.902
10557SOL    HW132570   6.155   2.520   3.948
10557SOL    HW232571   6.220   2.439   3.822
10558SOL     OW32572   5.104   6.432   5.173
10558SOL    HW132573   5.018   6.381   5.173
10558SOL    HW232574   5.101   6.502   5.243
10559SOL     OW32575   4.012   2.267   0.429
10559SOL    HW132576   3.964   2.305   0.350
10559SOL    HW232577   4.071   2.337   0.469
10560SOL     OW32578   0.541   2.888   4.482
10560SOL    HW132579   0.588   2.832   4.550
10560SOL    HW232580   0.470   2.833   4.438
10561SOL     OW32581   2.736   3.883   6.808
10561SOL    HW132582   2.803   3.817   6.775
10561SOL    HW232583   2.711   3.945   6.733
10562SOL     OW32584   3.450   1.088   0.300
10562SOL    HW132585   3.416   1.059   0.210
10562SOL    HW232586   3.432   1.016   0.367
10563SOL     OW32587   1.495   1.557   4.477
10563SOL    HW132588   1.438   1.623   4.427
10563SOL    HW232589   1.591   1.584   4.470
10564SOL     OW32590   6.255   1.837   1.890
10564SOL    HW132591   6.227   1.745   1.862
10564SOL    HW232592   6.354   1.841   1.896
10565SOL     OW32593   5.729   1.961   4.954
10565SOL    HW132594   5.649   1.962   5.014
10565SOL    HW232595   5.762   2.054   4.941
10566SOL     OW32596   3.927   4.701   6.810
10566SOL    HW132597   3.926   4.606   6.779
10566SOL    HW232598   3.855   4.714   6.878
10567SOL     OW32599   1.370   4.591   4.043
10567SOL    HW132600   1.345   4.498   4.018
10567SOL    HW232601   1.407   4.593   4.136
10568SOL     OW32602   3.981   1.483   3.357
10568SOL    HW132603   4.012   1.390   3.340
10568SOL    HW232604   4.058   1.546   3.352
10569SOL     OW32605   6.204   3.224   3.908
10569SOL    HW132606   6.244   3.199   3.996
10569SOL    HW232607   6.263   3.193   3.834
10570SOL     OW32608   1.524   4.383   2.679
10570SOL    HW132609   1.600   4.369   2.617
10570SOL    HW232610   1.536   4.326   2.761
10571SOL     OW32611   5.819   6.986   4.100
10571SOL    HW132612   5.845   6.995   4.004
10571SOL    HW232613   5.837   0.049   4.147
10572SOL     OW32614   6.220   3.542   2.063
10572SOL    HW132615   6.206   3.446   2.089
10572SOL    HW232616   6.135   3.593   2.075
10573SOL     OW32617   5.875   4.736   5.830
10573SOL    HW132618   5.874   4.818   5.887
10573SOL    HW232619   5.796   4.738   5.768
10574SOL     OW32620   0.531   1.588   2.962
10574SOL    HW132621   0.567   1.678   2.940
10574SOL    HW232622   0.465   1.596   3.037
10575SOL     OW32623   0.971   6.886   5.481
10575SOL    HW132624   0.906   6.923   5.415
10575SOL    HW232625   1.028   6.960   5.517
10576SOL     OW32626   1.752   4.807   3.536
10576SOL    HW132627   1.742   4.721   3.585
10576SOL    HW232628   1.830   4.801   3.473
10577SOL     OW32629   1.133   2.248   5.190
10577SOL    HW132630   1.132   2.289   5.281
10577SOL    HW232631   1.206   2.290   5.135
10578SOL     OW32632   6.352   0.848   5.685
10578SOL    HW132633   6.382   0.944   5.680
10578SOL    HW232634   6.374   0.811   5.775
10579SOL     OW32635   4.557   1.309   0.852
10579SOL    HW132636   4.469   1.286   0.809
10579SOL    HW232637   4.632   1.271   0.798
10580SOL     OW32638   6.729   5.898   0.314
10580SOL    HW132639   6.695   5.982   0.356
10580SOL    HW232640   6.772   5.841   0.384
10581SOL     OW32641   4.829   1.144   3.743
10581SOL    HW132642   4.896   1.216   3.728
10581SOL    HW232643   4.832   1.115   3.839
10582SOL     OW32644   3.676   4.722   7.001
10582SOL    HW132645   3.698   4.809   0.024
10582SOL    HW232646   3.596   4.735   6.942
10583SOL     OW32647   4.506   1.902   0.990
10583SOL    HW132648   4.497   1.999   0.968
10583SOL    HW232649   4.549   1.892   1.080
10584SOL     OW32650   6.131   0.499   1.930
10584SOL    HW132651   6.205   0.560   1.901
10584SOL    HW232652   6.048   0.552   1.947
10585SOL     OW32653   1.414   3.967   6.610
10585SOL    HW132654   1.400   4.021   6.526
10585SOL    HW232655   1.368   4.013   6.686
10586SOL     OW32656   3.817   0.661   0.096
10586SOL    HW132657   3.884   0.733   0.113
10586SOL    HW232658   3.737   0.675   0.155
10587SOL     OW32659   6.425   3.750   1.077
10587SOL    HW132660   6.336   3.710   1.055
10587SOL    HW232661   6.445   3.734   1.174
10588SOL     OW32662   0.017   5.247   2.915
10588SOL    HW132663   0.025   5.199   2.828
10588SOL    HW232664   6.944   5.271   2.930
10589SOL     OW32665   6.030   1.631   3.967
10589SOL    HW132666   6.003   1.617   3.872
10589SOL    HW232667   6.123   1.597   3.982
10590SOL     OW32668   1.137   0.817   4.078
10590SOL    HW132669   1.188   0.794   4.160
10590SOL    HW232670   1.162   0.909   4.047
10591SOL     OW32671   1.381   2.934   0.713
10591SOL    HW132672   1.292   2.980   0.707
10591SOL    HW232673   1.378   2.863   0.783
10592SOL     OW32674   6.599   1.411   6.931
10592SOL    HW132675   6.562   1.482   6.991
10592SOL    HW232676   6.698   1.421   6.924
10593SOL     OW32677   2.002   4.942   0.876
10593SOL    HW132678   1.945   5.020   0.850
10593SOL    HW232679   1.947   4.859   0.878
10594SOL     OW32680   0.860   2.347   4.407
10594SOL    HW132681   0.952   2.308   4.410
10594SOL    HW232682   0.863   2.436   4.362
10595SOL     OW32683   3.170   6.164   5.950
10595SOL    HW132684   3.254   6.153   6.002
10595SOL    HW232685   3.162   6.258   5.917
10596SOL     OW32686   3.600   0.930   1.409
10596SOL    HW132687   3.685   0.948   1.360
10596SOL    HW232688   3.533   1.000   1.386
10597SOL     OW32689   1.495   6.889   4.437
10597SOL    HW132690   1.409   6.901   4.387
10597SOL    HW232691   1.520   6.792   4.437
10598SOL     OW32692   1.706   1.863   6.931
10598SOL    HW132693   1.803   1.874   6.907
10598SOL    HW232694   1.650   1.914   6.866
10599SOL     OW32695   5.053   1.148   6.806
10599SOL    HW132696   4.970   1.094   6.819
10599SOL    HW232697   5.132   1.087   6.801
10600SOL     OW32698   2.229   2.685   6.157
10600SOL    HW132699   2.154   2.626   6.125
10600SOL    HW232700   2.310   2.667   6.102
10601SOL     OW32701   3.431   6.666   5.886
10601SOL    HW132702   3.339   6.655   5.849
10601SOL    HW232703   3.426   6.681   5.985
10602SOL     OW32704   4.580   1.225   2.170
10602SOL    HW132705   4.631   1.248   2.087
10602SOL    HW232706   4.624   1.147   2.215
10603SOL     OW32707   1.795   5.475   4.570
10603SOL    HW132708   1.762   5.482   4.664
10603SOL    HW232709   1.762   5.390   4.529
10604SOL     OW32710   0.062   4.547   5.130
10604SOL    HW132711   0.072   4.612   5.054
10604SOL    HW232712   0.138   4.482   5.128
10605SOL     OW32713   2.001   4.895   6.748
10605SOL    HW132714   2.060   4.968   6.713
10605SOL    HW232715   1.944   4.860   6.674
10606SOL     OW32716   0.579   0.687   2.838
10606SOL    HW132717   0.523   0.625   2.784
10606SOL    HW232718   0.541   0.695   2.930
10607SOL     OW32719   5.725   5.125   0.247
10607SOL    HW132720   5.645   5.127   0.187
10607SOL    HW232721   5.696   5.128   0.342
10608SOL     OW32722   6.104   1.639   3.404
10608SOL    HW132723   6.112   1.738   3.397
10608SOL    HW232724   6.188   1.596   3.370
10609SOL     OW32725   3.898   6.335   1.846
10609SOL    HW132726   3.880   6.432   1.831
10609SOL    HW232727   3.997   6.318   1.845
10610SOL     OW32728   1.320   3.188   5.597
10610SOL    HW132729   1.250   3.214   5.663
10610SOL    HW232730   1.403   3.159   5.645
10611SOL     OW32731   5.040   2.234   6.664
10611SOL    HW132732   4.993   2.303   6.609
10611SOL    HW232733   5.009   2.143   6.635
10612SOL     OW32734   1.527   6.701   0.739
10612SOL    HW132735   1.429   6.693   0.722
10612SOL    HW232736   1.552   6.643   0.817
10613SOL     OW32737   0.629   6.669   6.135
10613SOL    HW132738   0.619   6.683   6.233
10613SOL    HW232739   0.713   6.712   6.103
10614SOL     OW32740   6.480   1.075   4.801
10614SOL    HW132741   6.500   1.029   4.714
10614SOL    HW232742   6.402   1.031   4.845
10615SOL     OW32743   6.316   5.651   4.968
10615SOL    HW132744   6.398   5.602   4.996
10615SOL    HW232745   6.340   5.723   4.903
10616SOL     OW32746   2.942   5.514   0.355
10616SOL    HW132747   2.893   5.540   0.438
10616SOL    HW232748   3.015   5.580   0.338
10617SOL     OW32749   1.182   2.290   6.685
10617SOL    HW132750   1.132   2.228   6.746
10617SOL    HW232751   1.236   2.237   6.620
10618SOL     OW32752   6.178   3.597   1.047
10618SOL    HW132753   6.181   3.564   0.952
10618SOL    HW232754   6.180   3.519   1.109
10619SOL     OW32755   1.406   4.055   4.130
10619SOL    HW132756   1.498   4.056   4.092
10619SOL    HW232757   1.390   4.139   4.181
10620SOL     OW32758   1.551   5.802   4.502
10620SOL    HW132759   1.521   5.707   4.506
10620SOL    HW232760   1.609   5.822   4.582
10621SOL     OW32761   3.111   6.171   1.204
10621SOL    HW132762   3.043   6.242   1.222
10621SOL    HW232763   3.202   6.211   1.207
10622SOL     OW32764   4.098   1.139   1.542
10622SOL    HW132765   4.164   1.161   1.615
10622SOL    HW232766   4.144   1.144   1.453
10623SOL     OW32767   6.918   1.528   3.679
10623SOL    HW132768   6.870   1.471   3.613
10623SOL    HW232769   6.988   1.474   3.725
10624SOL     OW32770   2.240   0.705   4.046
10624SOL    HW132771   2.216   0.671   4.138
10624SOL    HW232772   2.280   0.630   3.993
10625SOL     OW32773   0.052   3.378   6.956
10625SOL    HW132774   6.993   3.351   7.007
10625SOL    HW232775   0.089   3.300   6.907
10626SOL     OW32776   0.026   2.394   1.717
10626SOL    HW132777   6.987   2.438   1.783
10626SOL    HW232778   0.077   2.322   1.764
10627SOL     OW32779   6.141   5.590   4.130
10627SOL    HW132780   6.129   5.506   4.183
10627SOL    HW232781   6.217   5.642   4.167
10628SOL     OW32782   6.279   5.660   6.036
10628SOL    HW132783   6.355   5.613   5.993
10628SOL    HW232784   6.286   5.759   6.018
10629SOL     OW32785   2.756   5.671   6.209
10629SOL    HW132786   2.802   5.583   6.225
10629SOL    HW232787   2.824   5.738   6.177
10630SOL     OW32788   6.831   1.560   2.864
10630SOL    HW132789   6.883   1.474   2.871
10630SOL    HW232790   6.749   1.554   2.921
10631SOL     OW32791   0.919   7.017   4.334
10631SOL    HW132792   0.833   0.036   4.305
10631SOL    HW232793   0.970   6.987   4.253
10632SOL     OW32794   0.326   2.598   5.193
10632SOL    HW132795   0.243   2.566   5.147
10632SOL    HW232796   0.406   2.551   5.155
10633SOL     OW32797   1.194   5.019   0.891
10633SOL    HW132798   1.180   5.029   0.990
10633SOL    HW232799   1.173   5.105   0.845
10634SOL     OW32800   3.556   7.009   1.958
10634SOL    HW132801   3.460   7.000   1.983
10634SOL    HW232802   3.565   7.006   1.858
10635SOL     OW32803   2.070   1.130   1.225
10635SOL    HW132804   2.129   1.054   1.198
10635SOL    HW232805   2.122   1.215   1.227
10636SOL     OW32806   0.146   2.114   1.805
10636SOL    HW132807   0.187   2.026   1.784
10636SOL    HW232808   0.049   2.102   1.826
10637SOL     OW32809   3.744   4.467   5.372
10637SOL    HW132810   3.843   4.478   5.368
10637SOL    HW232811   3.719   4.378   5.335
10638SOL     OW32812   6.626   6.937   5.312
10638SOL    HW132813   6.616   6.932   5.411
10638SOL    HW232814   6.618   0.008   5.282
10639SOL     OW32815   2.645   1.161   4.715
10639SOL    HW132816   2.548   1.140   4.726
10639SOL    HW232817   2.676   1.219   4.790
10640SOL     OW32818   3.791   6.967   0.260
10640SOL    HW132819   3.850   6.888   0.244
10640SOL    HW232820   3.771   6.974   0.358
10641SOL     OW32821   4.539   0.850   6.872
10641SOL    HW132822   4.497   0.777   6.819
10641SOL    HW232823   4.559   0.818   6.964
10642SOL     OW32824   6.949   3.394   1.133
10642SOL    HW132825   0.014   3.389   1.179
10642SOL    HW232826   6.941   3.319   1.067
10643SOL     OW32827   3.541   3.864   5.591
10643SOL    HW132828   3.547   3.959   5.621
10643SOL    HW232829   3.632   3.830   5.567
10644SOL     OW32830   3.732   1.285   4.629
10644SOL    HW132831   3.647   1.337   4.618
10644SOL    HW232832   3.786   1.292   4.545
10645SOL     OW32833   2.573   0.197   5.273
10645SOL    HW132834   2.474   0.196   5.254
10645SOL    HW232835   2.590   0.254   5.353
10646SOL     OW32836   0.297   4.070   6.904
10646SOL    HW132837   0.274   4.057   7.001
10646SOL    HW232838   0.307   3.981   6.860
10647SOL     OW32839   0.145   4.847   0.543
10647SOL    HW132840   0.236   4.845   0.584
10647SOL    HW232841   0.102   4.935   0.563
10648SOL     OW32842   4.555   4.074   6.234
10648SOL    HW132843   4.457   4.073   6.252
10648SOL    HW232844   4.594   3.985   6.256
10649SOL     OW32845   0.250   4.464   5.730
10649SOL    HW132846   0.339   4.499   5.760
10649SOL    HW232847   0.259   4.366   5.710
10650SOL     OW32848   3.103   6.980   3.846
10650SOL    HW132849   3.052   6.894   3.855
10650SOL    HW232850   3.124   6.997   3.749
10651SOL     OW32851   3.905   0.009   5.864
10651SOL    HW132852   3.863   0.081   5.808
10651SOL    HW232853   4.005   0.020   5.863
10652SOL     OW32854   3.509   0.491   6.853
10652SOL    HW132855   3.535   0.466   6.946
10652SOL    HW232856   3.480   0.408   6.803
10653SOL     OW32857   5.808   2.997   3.704
10653SOL    HW132858   5.785   2.902   3.723
10653SOL    HW232859   5.843   3.041   3.787
10654SOL     OW32860   4.274   1.003   1.355
10654SOL    HW132861   4.237   0.911   1.373
10654SOL    HW232862   4.346   1.023   1.421
10655SOL     OW32863   3.269   5.689   1.702
10655SOL    HW132864   3.210   5.762   1.736
10655SOL    HW232865   3.337   5.667   1.771
10656SOL     OW32866   6.423   3.261   6.039
10656SOL    HW132867   6.384   3.175   6.007
10656SOL    HW232868   6.376   3.338   5.994
10657SOL     OW32869   5.881   0.709   1.210
10657SOL    HW132870   5.807   0.643   1.200
10657SOL    HW232871   5.957   0.683   1.151
10658SOL     OW32872   0.483   5.754   4.969
10658SOL    HW132873   0.523   5.845   4.981
10658SOL    HW232874   0.383   5.761   4.970
10659SOL     OW32875   5.360   0.768   0.697
10659SOL    HW132876   5.449   0.806   0.670
10659SOL    HW232877   5.358   0.670   0.680
10660SOL     OW32878   4.761   5.218   5.664
10660SOL    HW132879   4.845   5.223   5.717
10660SOL    HW232880   4.719   5.308   5.659
10661SOL     OW32881   0.119   0.515   2.466
10661SOL    HW132882   0.112   0.593   2.403
10661SOL    HW232883   0.208   0.471   2.454
10662SOL     OW32884   6.062   1.431   0.672
10662SOL    HW132885   6.030   1.339   0.651
10662SOL    HW232886   6.002   1.498   0.629
10663SOL     OW32887   0.259   0.707   0.101
10663SOL    HW132888   0.201   0.780   0.063
10663SOL    HW232889   0.340   0.747   0.143
10664SOL     OW32890   2.222   4.493   0.008
10664SOL    HW132891   2.123   4.475   0.006
10664SOL    HW232892   2.270   4.424   6.978
10665SOL     OW32893   6.322   0.748   0.285
10665SOL    HW132894   6.332   0.648   0.286
10665SOL    HW232895   6.228   0.771   0.260
10666SOL     OW32896   1.108   6.839   0.321
10666SOL    HW132897   1.117   6.871   0.415
10666SOL    HW232898   1.153   6.904   0.259
10667SOL     OW32899   3.370   2.097   5.022
10667SOL    HW132900   3.463   2.064   5.037
10667SOL    HW232901   3.355   2.180   5.075
10668SOL     OW32902   2.252   1.257   5.660
10668SOL    HW132903   2.291   1.349   5.663
10668SOL    HW232904   2.168   1.255   5.714
10669SOL     OW32905   0.955   6.706   6.487
10669SOL    HW132906   0.995   6.734   6.574
10669SOL    HW232907   0.877   6.645   6.505
10670SOL     OW32908   6.937   5.021   5.646
10670SOL    HW132909   6.845   4.982   5.658
10670SOL    HW232910   6.983   5.024   5.735
10671SOL     OW32911   1.442   1.283   3.113
10671SOL    HW132912   1.467   1.234   3.196
10671SOL    HW232913   1.474   1.378   3.118
10672SOL     OW32914   7.018   2.781   0.664
10672SOL    HW132915   6.926   2.817   0.648
10672SOL    HW232916   0.062   2.851   0.639
10673SOL     OW32917   3.152   3.623   4.684
10673SOL    HW132918   3.157   3.677   4.600
10673SOL    HW232919   3.056   3.607   4.707
10674SOL     OW32920   4.113   1.734   2.087
10674SOL    HW132921   4.098   1.826   2.052
10674SOL    HW232922   4.211   1.712   2.083
10675SOL     OW32923   0.648   0.926   6.359
10675SOL    HW132924   0.609   0.935   6.451
10675SOL    HW232925   0.621   1.005   6.303
10676SOL     OW32926   6.887   0.481   0.057
10676SOL    HW132927   6.968   0.443   0.013
10676SOL    HW232928   6.828   0.523   7.011
10677SOL     OW32929   6.948   1.159   0.098
10677SOL    HW132930   6.994   1.222   0.161
10677SOL    HW232931   6.873   1.114   0.145
10678SOL     OW32932   2.801   6.199   3.377
10678SOL    HW132933   2.799   6.298   3.392
10678SOL    HW232934   2.821   6.181   3.281
10679SOL     OW32935   5.678   5.124   3.796
10679SOL    HW132936   5.681   5.116   3.697
10679SOL    HW232937   5.664   5.033   3.836
10680SOL     OW32938   1.553   2.417   3.425
10680SOL    HW132939   1.639   2.408   3.474
10680SOL    HW232940   1.560   2.372   3.336
10681SOL     OW32941   0.590   1.375   5.871
10681SOL    HW132942   0.526   1.327   5.932
10681SOL    HW232943   0.584   1.473   5.887
10682SOL     OW32944   6.442   1.913   3.023
10682SOL    HW132945   6.374   1.986   3.021
10682SOL    HW232946   6.531   1.952   3.047
10683SOL     OW32947   1.896   1.191   3.976
10683SOL    HW132948   1.824   1.259   3.966
10683SOL    HW232949   1.965   1.224   4.041
10684SOL     OW32950   5.932   6.018   0.401
10684SOL    HW132951   6.000   5.961   0.447
10684SOL    HW232952   5.978   6.081   0.339
10685SOL     OW32953   6.921   2.116   1.936
10685SOL    HW132954   6.940   2.092   2.031
10685SOL    HW232955   6.863   2.046   1.894
10686SOL     OW32956   3.874   4.193   1.125
10686SOL    HW132957   3.846   4.101   1.098
10686SOL    HW232958   3.945   4.226   1.062
10687SOL     OW32959   0.389   4.879   1.870
10687SOL    HW132960   0.390   4.979   1.871
10687SOL    HW232961   0.369   4.845   1.961
10688SOL     OW32962   6.899   6.049   1.819
10688SOL    HW132963   6.950   6.085   1.741
10688SOL    HW232964   6.959   5.989   1.872
10689SOL     OW32965   0.653   0.704   1.928
10689SOL    HW132966   0.646   0.679   1.831
10689SOL    HW232967   0.613   0.795   1.942
10690SOL     OW32968   4.746   5.962   2.115
10690SOL    HW132969   4.692   5.878   2.120
10690SOL    HW232970   4.689   6.035   2.076
10691SOL     OW32971   6.642   1.289   1.360
10691SOL    HW132972   6.609   1.373   1.318
10691SOL    HW232973   6.685   1.232   1.289
10692SOL     OW32974   5.066   5.748   4.908
10692SOL    HW132975   5.015   5.809   4.969
10692SOL    HW232976   5.018   5.661   4.902
10693SOL     OW32977   4.979   2.245   3.197
10693SOL    HW132978   4.925   2.301   3.134
10693SOL    HW232979   4.992   2.295   3.283
10694SOL     OW32980   4.228   6.152   0.956
10694SOL    HW132981   4.133   6.135   0.985
10694SOL    HW232982   4.289   6.090   1.004
10695SOL     OW32983   6.239   3.130   4.795
10695SOL    HW132984   6.193   3.208   4.837
10695SOL    HW232985   6.184   3.048   4.808
10696SOL     OW32986   5.861   7.005   1.504
10696SOL    HW132987   5.943   7.006   1.561
10696SOL    HW232988   5.875   0.043   1.426
10697SOL     OW32989   2.252   6.089   3.319
10697SOL    HW132990   2.351   6.099   3.330
10697SOL    HW232991   2.223   6.000   3.353
10698SOL     OW32992   2.600   0.883   3.382
10698SOL    HW132993   2.619   0.784   3.377
10698SOL    HW232994   2.665   0.931   3.323
10699SOL     OW32995   1.832   2.562   2.855
10699SOL    HW132996   1.813   2.597   2.763
10699SOL    HW232997   1.752   2.580   2.913
10700SOL     OW32998   6.559   0.491   2.085
10700SOL    HW132999   6.651   0.453   2.085
10700SOL    HW233000   6.518   0.479   1.994
10701SOL     OW33001   3.636   6.306   1.161
10701SOL    HW133002   3.634   6.294   1.261
10701SOL    HW233003   3.730   6.307   1.129
10702SOL     OW33004   5.998   3.241   0.788
10702SOL    HW133005   5.995   3.326   0.735
10702SOL    HW233006   5.933   3.248   0.864
10703SOL     OW33007   3.581   3.194   4.341
10703SOL    HW133008   3.580   3.170   4.244
10703SOL    HW233009   3.675   3.202   4.373
10704SOL     OW33010   5.522   6.533   1.953
10704SOL    HW133011   5.493   6.628   1.951
10704SOL    HW233012   5.460   6.478   1.896
10705SOL     OW33013   1.378   3.237   6.547
10705SOL    HW133014   1.385   3.322   6.494
10705SOL    HW233015   1.326   3.254   6.631
10706SOL     OW33016   3.939   2.023   1.581
10706SOL    HW133017   3.926   2.115   1.617
10706SOL    HW233018   3.863   1.965   1.611
10707SOL     OW33019   6.301   0.048   5.853
10707SOL    HW133020   6.242   0.128   5.862
10707SOL    HW233021   6.354   0.036   5.936
10708SOL     OW33022   4.798   1.215   1.529
10708SOL    HW133023   4.824   1.266   1.447
10708SOL    HW233024   4.790   1.118   1.506
10709SOL     OW33025   0.838   6.832   6.062
10709SOL    HW133026   0.862   6.925   6.035
10709SOL    HW233027   0.916   6.772   6.049
10710SOL     OW33028   6.443   5.306   3.075
10710SOL    HW133029   6.438   5.393   3.026
10710SOL    HW233030   6.480   5.321   3.166
10711SOL     OW33031   2.514   6.164   5.055
10711SOL    HW133032   2.569   6.158   4.972
10711SOL    HW233033   2.418   6.172   5.032
10712SOL     OW33034   4.812   1.363   4.896
10712SOL    HW133035   4.789   1.338   4.802
10712SOL    HW233036   4.785   1.290   4.959
10713SOL     OW33037   1.837   6.237   1.091
10713SOL    HW133038   1.883   6.326   1.097
10713SOL    HW233039   1.783   6.233   1.008
10714SOL     OW33040   6.646   5.893   6.033
10714SOL    HW133041   6.656   5.992   6.020
10714SOL    HW233042   6.595   5.854   5.957
10715SOL     OW33043   5.686   1.044   3.670
10715SOL    HW133044   5.672   0.947   3.652
10715SOL    HW233045   5.668   1.063   3.767
10716SOL     OW33046   6.636   1.074   2.743
10716SOL    HW133047   6.611   1.157   2.793
10716SOL    HW233048   6.575   1.062   2.665
10717SOL     OW33049   6.378   6.487   2.031
10717SOL    HW133050   6.390   6.583   2.056
10717SOL    HW233051   6.335   6.480   1.941
10718SOL     OW33052   0.984   3.687   5.833
10718SOL    HW133053   0.893   3.728   5.837
10718SOL    HW233054   1.037   3.729   5.760
10719SOL     OW33055   3.578   0.344   2.479
10719SOL    HW133056   3.568   0.271   2.546
10719SOL    HW233057   3.675   0.370   2.472
10720SOL     OW33058   0.469   3.037   6.902
10720SOL    HW133059   0.387   3.038   6.844
10720SOL    HW233060   0.546   3.077   6.853
10721SOL     OW33061   4.936   3.070   4.556
10721SOL    HW133062   4.906   3.066   4.460
10721SOL    HW233063   5.010   3.004   4.570
10722SOL     OW33064   0.217   4.267   0.754
10722SOL    HW133065   0.155   4.233   0.683
10722SOL    HW233066   0.249   4.359   0.730
10723SOL     OW33067   6.210   5.039   0.532
10723SOL    HW133068   6.246   5.132   0.526
10723SOL    HW233069   6.218   5.006   0.626
10724SOL     OW33070   3.783   0.214   5.693
10724SOL    HW133071   3.808   0.274   5.769
10724SOL    HW233072   3.709   0.255   5.640
10725SOL     OW33073   6.801   0.220   5.203
10725SOL    HW133074   6.792   0.290   5.134
10725SOL    HW233075   6.713   0.206   5.249
10726SOL     OW33076   5.861   1.426   4.752
10726SOL    HW133077   5.924   1.374   4.695
10726SOL    HW233078   5.820   1.500   4.698
10727SOL     OW33079   2.350   6.696   6.939
10727SOL    HW133080   2.267   6.727   6.892
10727SOL    HW233081   2.428   6.701   6.877
10728SOL     OW33082   5.809   6.351   3.663
10728SOL    HW133083   5.867   6.373   3.741
10728SOL    HW233084   5.781   6.435   3.617
10729SOL     OW33085   5.829   3.054   4.608
10729SOL    HW133086   5.905   3.059   4.543
10729SOL    HW233087   5.835   3.132   4.671
10730SOL     OW33088   2.136   5.658   4.085
10730SOL    HW133089   2.160   5.601   4.163
10730SOL    HW233090   2.077   5.605   4.023
10731SOL     OW33091   4.849   6.112   6.779
10731SOL    HW133092   4.899   6.041   6.828
10731SOL    HW233093   4.888   6.202   6.802
10732SOL     OW33094   6.391   6.018   2.866
10732SOL    HW133095   6.463   5.990   2.930
10732SOL    HW233096   6.354   5.938   2.819
10733SOL     OW33097   0.424   1.125   5.988
10733SOL    HW133098   0.484   1.110   5.909
10733SOL    HW233099   0.329   1.130   5.957
10734SOL     OW33100   1.630   0.351   4.356
10734SOL    HW133101   1.615   0.275   4.420
10734SOL    HW233102   1.672   0.317   4.272
10735SOL     OW33103   6.977   6.434   1.911
10735SOL    HW133104   0.033   6.440   1.972
10735SOL    HW233105   6.904   6.493   1.946
10736SOL     OW33106   5.113   6.205   3.532
10736SOL    HW133107   5.065   6.259   3.600
10736SOL    HW233108   5.183   6.149   3.576
10737SOL     OW33109   6.143   0.807   1.439
10737SOL    HW133110   6.105   0.900   1.441
10737SOL    HW233111   6.073   0.743   1.408
10738SOL     OW33112   3.314   0.413   0.881
10738SOL    HW133113   3.237   0.472   0.902
10738SOL    HW233114   3.322   0.403   0.781
10739SOL     OW33115   5.728   2.963   4.020
10739SOL    HW133116   5.801   3.000   3.963
10739SOL    HW233117   5.656   3.031   4.031
10740SOL     OW33118   3.097   0.690   6.259
10740SOL    HW133119   3.031   0.735   6.199
10740SOL    HW233120   3.059   0.684   6.351
10741SOL     OW33121   1.512   1.959   3.636
10741SOL    HW133122   1.502   1.900   3.716
10741SOL    HW233123   1.425   1.965   3.588
10742SOL     OW33124   6.409   0.190   2.514
10742SOL    HW133125   6.360   0.108   2.483
10742SOL    HW233126   6.450   0.172   2.604
10743SOL     OW33127   3.048   1.778   5.477
10743SOL    HW133128   3.058   1.685   5.441
10743SOL    HW233129   3.021   1.839   5.403
10744SOL     OW33130   2.353   1.015   0.604
10744SOL    HW133131   2.385   1.053   0.517
10744SOL    HW233132   2.380   0.918   0.609
10745SOL     OW33133   2.244   4.421   1.552
10745SOL    HW133134   2.248   4.411   1.452
10745SOL    HW233135   2.305   4.354   1.594
10746SOL     OW33136   2.438   5.892   6.613
10746SOL    HW133137   2.470   5.872   6.520
10746SOL    HW233138   2.385   5.976   6.612
10747SOL     OW33139   6.661   1.442   4.719
10747SOL    HW133140   6.739   1.418   4.777
10747SOL    HW233141   6.675   1.533   4.681
10748SOL     OW33142   3.085   6.691   1.692
10748SOL    HW133143   2.994   6.651   1.700
10748SOL    HW233144   3.125   6.668   1.604
10749SOL     OW33145   5.877   4.361   1.585
10749SOL    HW133146   5.919   4.365   1.494
10749SOL    HW233147   5.937   4.310   1.647
10750SOL     OW33148   3.957   2.153   4.394
10750SOL    HW133149   3.924   2.071   4.347
10750SOL    HW233150   4.055   2.163   4.379
10751SOL     OW33151   0.111   5.621   4.193
10751SOL    HW133152   0.077   5.707   4.155
10751SOL    HW233153   0.204   5.635   4.229
10752SOL     OW33154   6.612   6.310   0.540
10752SOL    HW133155   6.667   6.361   0.474
10752SOL    HW233156   6.549   6.373   0.586
10753SOL     OW33157   4.959   0.630   4.383
10753SOL    HW133158   4.930   0.629   4.287
10753SOL    HW233159   4.947   0.721   4.421
10754SOL     OW33160   1.180   4.925   2.594
10754SOL    HW133161   1.158   4.829   2.577
10754SOL    HW233162   1.169   4.945   2.691
10755SOL     OW33163   0.438   2.692   1.312
10755SOL    HW133164   0.492   2.638   1.378
10755SOL    HW233165   0.436   2.645   1.224
10756SOL     OW33166   1.390   1.051   0.475
10756SOL    HW133167   1.442   1.098   0.546
10756SOL    HW233168   1.361   0.961   0.508
10757SOL     OW33169   0.521   3.234   2.225
10757SOL    HW133170   0.614   3.265   2.245
10757SOL    HW233171   0.513   3.136   2.244
10758SOL     OW33172   0.890   0.499   0.157
10758SOL    HW133173   0.799   0.489   0.197
10758SOL    HW233174   0.882   0.516   0.059
10759SOL     OW33175   2.854   3.087   5.305
10759SOL    HW133176   2.893   3.000   5.274
10759SOL    HW233177   2.904   3.119   5.385
10760SOL     OW33178   0.957   4.480   6.546
10760SOL    HW133179   0.881   4.534   6.509
10760SOL    HW233180   0.950   4.476   6.645
10761SOL     OW33181   1.191   1.822   5.884
10761SOL    HW133182   1.263   1.872   5.836
10761SOL    HW233183   1.103   1.841   5.841
10762SOL     OW33184   2.882   6.404   6.269
10762SOL    HW133185   2.843   6.442   6.353
10762SOL    HW233186   2.810   6.356   6.218
10763SOL     OW33187   4.860   0.567   3.088
10763SOL    HW133188   4.776   0.603   3.049
10763SOL    HW233189   4.894   0.492   3.030
10764SOL     OW33190   5.437   6.419   4.427
10764SOL    HW133191   5.463   6.514   4.411
10764SOL    HW233192   5.421   6.374   4.339
10765SOL     OW33193   0.700   1.461   1.636
10765SOL    HW133194   0.779   1.463   1.575
10765SOL    HW233195   0.616   1.468   1.582
10766SOL     OW33196   2.457   5.190   0.018
10766SOL    HW133197   2.463   5.259   6.970
10766SOL    HW233198   2.501   5.224   0.101
10767SOL     OW33199   1.591   5.184   6.550
10767SOL    HW133200   1.613   5.280   6.534
10767SOL    HW233201   1.529   5.175   6.628
10768SOL     OW33202   5.273   6.420   6.789
10768SOL    HW133203   5.280   6.447   6.885
10768SOL    HW233204   5.190   6.459   6.750
10769SOL     OW33205   2.979   3.405   4.440
10769SOL    HW133206   2.929   3.440   4.520
10769SOL    HW233207   2.984   3.477   4.370
10770SOL     OW33208   5.646   0.216   3.265
10770SOL    HW133209   5.589   0.145   3.222
10770SOL    HW233210   5.629   0.219   3.363
10771SOL     OW33211   4.696   5.933   5.849
10771SOL    HW133212   4.751   5.966   5.926
10771SOL    HW233213   4.604   5.973   5.854
10772SOL     OW33214   5.891   5.008   2.267
10772SOL    HW133215   5.831   5.000   2.346
10772SOL    HW233216   5.878   4.930   2.206
10773SOL     OW33217   0.178   4.400   1.670
10773SOL    HW133218   0.232   4.320   1.646
10773SOL    HW233219   0.091   4.398   1.620
10774SOL     OW33220   0.821   3.630   0.562
10774SOL    HW133221   0.847   3.533   0.568
10774SOL    HW233222   0.791   3.651   0.470
10775SOL     OW33223   1.777   3.982   0.588
10775SOL    HW133224   1.691   4.029   0.608
10775SOL    HW233225   1.760   3.884   0.579
10776SOL     OW33226   0.397   2.709   3.506
10776SOL    HW133227   0.387   2.792   3.561
10776SOL    HW233228   0.454   2.643   3.555
10777SOL     OW33229   1.973   0.446   1.342
10777SOL    HW133230   1.908   0.497   1.286
10777SOL    HW233231   2.030   0.389   1.283
10778SOL     OW33232   4.712   0.388   3.251
10778SOL    HW133233   4.800   0.389   3.297
10778SOL    HW233234   4.715   0.447   3.170
10779SOL     OW33235   5.529   3.402   5.843
10779SOL    HW133236   5.479   3.462   5.781
10779SOL    HW233237   5.604   3.357   5.793
10780SOL     OW33238   2.153   5.173   4.571
10780SOL    HW133239   2.179   5.268   4.556
10780SOL    HW233240   2.211   5.113   4.516
10781SOL     OW33241   5.768   2.194   4.651
10781SOL    HW133242   5.678   2.158   4.673
10781SOL    HW233243   5.808   2.142   4.576
10782SOL     OW33244   0.996   1.768   5.677
10782SOL    HW133245   0.904   1.775   5.717
10782SOL    HW233246   0.994   1.802   5.583
10783SOL     OW33247   0.960   2.486   3.683
10783SOL    HW133248   1.059   2.494   3.696
10783SOL    HW233249   0.921   2.576   3.665
10784SOL     OW33250   4.172   5.720   3.425
10784SOL    HW133251   4.122   5.636   3.405
10784SOL    HW233252   4.169   5.780   3.346
10785SOL     OW33253   2.034   5.369   2.167
10785SOL    HW133254   2.010   5.463   2.193
10785SOL    HW233255   2.133   5.357   2.175
10786SOL     OW33256   4.318   2.191   2.018
10786SOL    HW133257   4.368   2.231   2.094
10786SOL    HW233258   4.383   2.149   1.953
10787SOL     OW33259   3.743   1.876   3.396
10787SOL    HW133260   3.656   1.904   3.437
10787SOL    HW233261   3.741   1.892   3.298
10788SOL     OW33262   1.784   4.303   0.260
10788SOL    HW133263   1.805   4.401   0.267
10788SOL    HW233264   1.869   4.252   0.247
10789SOL     OW33265   6.390   1.351   2.455
10789SOL    HW133266   6.291   1.346   2.442
10789SOL    HW233267   6.433   1.272   2.410
10790SOL     OW33268   0.244   1.703   5.826
10790SOL    HW133269   0.169   1.745   5.775
10790SOL    HW233270   0.314   1.771   5.845
10791SOL     OW33271   1.834   2.648   3.230
10791SOL    HW133272   1.834   2.698   3.317
10791SOL    HW233273   1.922   2.600   3.219
10792SOL     OW33274   3.440   1.796   2.165
10792SOL    HW133275   3.516   1.810   2.227
10792SOL    HW233276   3.475   1.766   2.076
10793SOL     OW33277   3.858   1.639   4.375
10793SOL    HW133278   3.760   1.655   4.383
10793SOL    HW233279   3.896   1.613   4.464
10794SOL     OW33280   5.329   2.162   0.639
10794SOL    HW133281   5.230   2.154   0.623
10794SOL    HW233282   5.362   2.079   0.683
10795SOL     OW33283   0.010   3.631   3.104
10795SOL    HW133284   6.980   3.572   3.044
10795SOL    HW233285   6.985   3.643   3.191
10796SOL     OW33286   0.031   0.265   6.181
10796SOL    HW133287   0.049   0.187   6.121
10796SOL    HW233288   7.009   0.233   6.264
10797SOL     OW33289   4.119   4.588   0.406
10797SOL    HW133290   4.121   4.491   0.427
10797SOL    HW233291   4.066   4.603   0.322
10798SOL     OW33292   2.279   6.413   6.647
10798SOL    HW133293   2.202   6.409   6.711
10798SOL    HW233294   2.279   6.503   6.602
10799SOL     OW33295   2.783   1.315   2.765
10799SOL    HW133296   2.739   1.344   2.680
10799SOL    HW233297   2.746   1.227   2.794
10800SOL     OW33298   2.595   7.003   5.535
10800SOL    HW133299   2.572   0.035   5.615
10800SOL    HW233300   2.610   0.039   5.456
10801SOL     OW33301   2.855   6.261   5.869
10801SOL    HW133302   2.866   6.219   5.959
10801SOL    HW233303   2.822   6.354   5.879
10802SOL     OW33304   0.404   5.488   4.274
10802SOL    HW133305   0.416   5.410   4.213
10802SOL    HW233306   0.468   5.561   4.248
10803SOL     OW33307   0.131   4.424   4.836
10803SOL    HW133308   0.085   4.511   4.857
10803SOL    HW233309   0.075   4.348   4.869
10804SOL     OW33310   4.848   4.757   0.855
10804SOL    HW133311   4.910   4.686   0.821
10804SOL    HW233312   4.898   4.844   0.863
10805SOL     OW33313   3.684   6.074   0.440
10805SOL    HW133314   3.686   6.105   0.345
10805SOL    HW233315   3.777   6.056   0.471
10806SOL     OW33316   5.980   4.486   6.415
10806SOL    HW133317   6.041   4.524   6.345
10806SOL    HW233318   5.904   4.549   6.431
10807SOL     OW33319   4.166   1.442   4.367
10807SOL    HW133320   4.077   1.432   4.323
10807SOL    HW233321   4.164   1.522   4.428
10808SOL     OW33322   6.879   2.090   0.200
10808SOL    HW133323   6.833   2.170   0.238
10808SOL    HW233324   6.813   2.035   0.148
10809SOL     OW33325   2.976   1.357   2.175
10809SOL    HW133326   3.070   1.348   2.143
10809SOL    HW233327   2.971   1.431   2.243
10810SOL     OW33328   1.878   1.419   6.543
10810SOL    HW133329   1.857   1.323   6.558
10810SOL    HW233330   1.849   1.447   6.452
10811SOL     OW33331   4.859   4.754   6.512
10811SOL    HW133332   4.777   4.805   6.534
10811SOL    HW233333   4.845   4.703   6.426
10812SOL     OW33334   6.225   2.517   2.052
10812SOL    HW133335   6.320   2.533   2.078
10812SOL    HW233336   6.190   2.597   2.003
10813SOL     OW33337   3.361   5.877   2.324
10813SOL    HW133338   3.441   5.937   2.327
10813SOL    HW233339   3.351   5.832   2.412
10814SOL     OW33340   2.012   5.541   4.737
10814SOL    HW133341   1.949   5.520   4.662
10814SOL    HW233342   1.985   5.489   4.818
10815SOL     OW33343   5.004   2.174   4.059
10815SOL    HW133344   4.972   2.113   4.132
10815SOL    HW233345   4.954   2.155   3.975
10816SOL     OW33346   1.983   2.089   2.134
10816SOL    HW133347   1.988   2.079   2.035
10816SOL    HW233348   2.049   2.026   2.177
10817SOL     OW33349   4.385   0.411   2.177
10817SOL    HW133350   4.445   0.485   2.207
10817SOL    HW233351   4.290   0.433   2.200
10818SOL     OW33352   4.720   2.986   6.820
10818SOL    HW133353   4.787   3.057   6.842
10818SOL    HW233354   4.768   2.902   6.796
10819SOL     OW33355   0.750   3.822   5.791
10819SOL    HW133356   0.738   3.919   5.770
10819SOL    HW233357   0.706   3.767   5.719
10820SOL     OW33358   6.728   0.174   4.264
10820SOL    HW133359   6.787   0.237   4.314
10820SOL    HW233360   6.657   0.138   4.325
10821SOL     OW33361   0.049   6.682   0.859
10821SOL    HW133362   0.050   6.666   0.958
10821SOL    HW233363   0.126   6.741   0.834
10822SOL     OW33364   0.204   4.310   0.166
10822SOL    HW133365   0.259   4.334   0.246
10822SOL    HW233366   0.166   4.218   0.178
10823SOL     OW33367   1.748   2.179   1.144
10823SOL    HW133368   1.703   2.244   1.083
10823SOL    HW233369   1.726   2.202   1.239
10824SOL     OW33370   5.708   0.792   3.267
10824SOL    HW133371   5.776   0.860   3.295
10824SOL    HW233372   5.754   0.718   3.218
10825SOL     OW33373   3.725   0.889   1.831
10825SOL    HW133374   3.800   0.955   1.833
10825SOL    HW233375   3.745   0.818   1.763
10826SOL     OW33376   6.342   2.901   1.471
10826SOL    HW133377   6.426   2.851   1.452
10826SOL    HW233378   6.263   2.845   1.444
10827SOL     OW33379   1.066   3.102   4.033
10827SOL    HW133380   1.049   3.129   3.938
10827SOL    HW233381   1.099   3.008   4.035
10828SOL     OW33382   0.851   5.551   0.287
10828SOL    HW133383   0.786   5.619   0.253
10828SOL    HW233384   0.890   5.501   0.211
10829SOL     OW33385   2.112   3.672   1.396
10829SOL    HW133386   2.041   3.615   1.437
10829SOL    HW233387   2.184   3.690   1.464
10830SOL     OW33388   4.520   1.408   3.179
10830SOL    HW133389   4.563   1.363   3.100
10830SOL    HW233390   4.585   1.471   3.221
10831SOL     OW33391   5.491   2.815   2.146
10831SOL    HW133392   5.547   2.898   2.151
10831SOL    HW233393   5.465   2.787   2.238
10832SOL     OW33394   0.072   3.309   2.808
10832SOL    HW133395   0.042   3.327   2.902
10832SOL    HW233396   0.128   3.386   2.777
10833SOL     OW33397   2.651   0.054   3.995
10833SOL    HW133398   2.610   0.137   3.958
10833SOL    HW233399   2.750   0.061   3.992
10834SOL     OW33400   0.016   0.912   5.543
10834SOL    HW133401   6.952   0.863   5.543
10834SOL    HW233402   0.010   0.989   5.606
10835SOL     OW33403   0.066   2.945   1.718
10835SOL    HW133404   0.009   2.919   1.640
10835SOL    HW233405   0.031   3.031   1.757
10836SOL     OW33406   1.872   3.178   1.001
10836SOL    HW133407   1.923   3.258   0.968
10836SOL    HW233408   1.828   3.200   1.088
10837SOL     OW33409   1.612   5.808   1.081
10837SOL    HW133410   1.526   5.778   1.122
10837SOL    HW233411   1.671   5.728   1.067
10838SOL     OW33412   6.436   0.059   0.454
10838SOL    HW133413   6.411   0.012   0.539
10838SOL    HW233414   6.534   0.076   0.453
10839SOL     OW33415   1.734   1.656   0.101
10839SOL    HW133416   1.721   1.716   0.022
10839SOL    HW233417   1.793   1.580   0.075
10840SOL     OW33418   3.411   6.280   2.533
10840SOL    HW133419   3.493   6.298   2.480
10840SOL    HW233420   3.363   6.366   2.552
10841SOL     OW33421   5.014   3.072   6.478
10841SOL    HW133422   5.030   3.169   6.458
10841SOL    HW233423   4.918   3.051   6.462
10842SOL     OW33424   6.048   3.047   1.407
10842SOL    HW133425   6.063   3.087   1.497
10842SOL    HW233426   6.136   3.029   1.363
10843SOL     OW33427   0.242   1.236   1.880
10843SOL    HW133428   0.152   1.244   1.923
10843SOL    HW233429   0.234   1.193   1.791
10844SOL     OW33430   3.382   0.280   3.611
10844SOL    HW133431   3.345   0.288   3.704
10844SOL    HW233432   3.394   0.371   3.572
10845SOL     OW33433   2.510   3.246   0.998
10845SOL    HW133434   2.550   3.242   0.907
10845SOL    HW233435   2.531   3.161   1.048
10846SOL     OW33436   4.132   1.861   1.653
10846SOL    HW133437   4.167   1.795   1.586
10846SOL    HW233438   4.068   1.923   1.608
10847SOL     OW33439   4.540   3.041   5.960
10847SOL    HW133440   4.621   3.027   6.017
10847SOL    HW233441   4.548   2.988   5.876
10848SOL     OW33442   1.170   0.623   0.059
10848SOL    HW133443   1.111   0.660   0.130
10848SOL    HW233444   1.265   0.622   0.092
10849SOL     OW33445   2.221   5.268   3.880
10849SOL    HW133446   2.155   5.342   3.862
10849SOL    HW233447   2.234   5.214   3.797
10850SOL     OW33448   5.900   0.428   2.159
10850SOL    HW133449   5.891   0.473   2.247
10850SOL    HW233450   5.939   0.337   2.171
10851SOL     OW33451   4.242   1.783   6.762
10851SOL    HW133452   4.311   1.746   6.824
10851SOL    HW233453   4.273   1.772   6.668
10852SOL     OW33454   0.498   0.166   5.880
10852SOL    HW133455   0.411   0.216   5.889
10852SOL    HW233456   0.521   0.156   5.783
10853SOL     OW33457   2.303   0.442   4.697
10853SOL    HW133458   2.285   0.344   4.707
10853SOL    HW233459   2.309   0.466   4.601
10854SOL     OW33460   6.900   6.041   0.972
10854SOL    HW133461   6.824   6.090   0.930
10854SOL    HW233462   6.915   6.076   1.064
10855SOL     OW33463   1.215   5.268   1.357
10855SOL    HW133464   1.147   5.333   1.394
10855SOL    HW233465   1.284   5.249   1.427
10856SOL     OW33466   5.965   0.559   6.905
10856SOL    HW133467   5.916   0.562   6.818
10856SOL    HW233468   5.963   0.465   6.940
10857SOL     OW33469   6.757   0.540   4.723
10857SOL    HW133470   6.694   0.537   4.801
10857SOL    HW233471   6.851   0.540   4.756
10858SOL     OW33472   1.979   2.463   0.378
10858SOL    HW133473   1.943   2.550   0.345
10858SOL    HW233474   1.904   2.400   0.398
10859SOL     OW33475   1.646   5.345   2.473
10859SOL    HW133476   1.563   5.291   2.457
10859SOL    HW233477   1.671   5.341   2.570
10860SOL     OW33478   6.338   2.990   1.837
10860SOL    HW133479   6.275   3.030   1.904
10860SOL    HW233480   6.302   2.903   1.804
10861SOL     OW33481   2.845   3.787   1.124
10861SOL    HW133482   2.829   3.722   1.050
10861SOL    HW233483   2.944   3.793   1.142
10862SOL     OW33484   3.477   4.145   5.318
10862SOL    HW133485   3.414   4.083   5.273
10862SOL    HW233486   3.425   4.220   5.361
10863SOL     OW33487   2.098   0.548   3.338
10863SOL    HW133488   2.120   0.505   3.251
10863SOL    HW233489   2.015   0.506   3.375
10864SOL     OW33490   3.142   4.200   1.757
10864SOL    HW133491   3.228   4.249   1.745
10864SOL    HW233492   3.071   4.241   1.701
10865SOL     OW33493   3.731   1.522   2.320
10865SOL    HW133494   3.726   1.499   2.417
10865SOL    HW233495   3.700   1.616   2.306
10866SOL     OW33496   0.423   3.714   3.426
10866SOL    HW133497   0.410   3.651   3.503
10866SOL    HW233498   0.485   3.787   3.453
10867SOL     OW33499   4.345   2.509   0.067
10867SOL    HW133500   4.299   2.582   0.116
10867SOL    HW233501   4.279   2.436   0.047
10868SOL     OW33502   1.620   0.138   5.030
10868SOL    HW133503   1.653   0.043   5.026
10868SOL    HW233504   1.527   0.142   4.994
10869NA      NA33505   6.842   0.974   6.103
10870NA      NA33506   4.459   4.557   5.215
10871NA      NA33507   1.638   4.794   3.001
10872NA      NA33508   5.508   3.843   2.774
10873NA      NA33509   3.694   2.349   5.458
10874NA      NA33510   2.484   4.948   0.086
10875NA      NA33511   1.840   5.573   6.544
10876NA      NA33512   4.061   4.588   1.466
10877NA      NA33513   4.884   4.730   0.314
10878NA      NA33514   3.450   1.289   0.446
10879NA      NA33515   5.357   6.958   1.781
10880NA      NA33516   2.425   6.517   5.169
10881NA      NA33517   4.120   5.029   2.167
10882NA      NA33518   4.162   3.590   6.763
   7.02308   7.02308   7.02308
